Generated by trjconv : CNT in water t=  65.00000
33518
    1C        C    1   2.848   2.773   4.750
    1C        C    2   2.906   2.723   4.869
    1C        C    3   2.849   2.780   4.984
    1C        C    4   2.851   2.779   4.263
    1C        C    5   2.907   2.736   4.385
    1C        C    6   2.854   2.779   4.509
    1C        C    7   3.017   2.642   4.626
    1C        C    8   2.901   2.723   4.629
    1C        C    9   3.081   2.604   4.746
    1C        C   10   3.013   2.632   4.867
    1C        C   11   3.187   2.491   4.979
    1C        C   12   3.066   2.562   4.976
    1C        C   13   2.852   2.775   3.775
    1C        C   14   2.900   2.723   3.897
    1C        C   15   2.852   2.778   4.018
    1C        C   16   3.022   2.654   4.141
    1C        C   17   2.904   2.731   4.141
    1C        C   18   3.085   2.621   4.263
    1C        C   19   3.022   2.654   4.385
    1C        C   20   3.215   2.562   4.505
    1C        C   21   3.082   2.610   4.505
    1C        C   22   3.284   2.542   4.626
    1C        C   23   3.213   2.551   4.748
    1C        C   24   3.417   2.488   4.867
    1C        C   25   3.275   2.502   4.867
    1C        C   26   3.493   2.482   4.985
    1C        C   27   2.851   2.771   3.285
    1C        C   28   2.904   2.725   3.408
    1C        C   29   2.850   2.772   3.529
    1C        C   30   3.024   2.652   3.655
    1C        C   31   2.906   2.730   3.652
    1C        C   32   3.081   2.610   3.777
    1C        C   33   3.016   2.642   3.898
    1C        C   34   3.210   2.555   4.017
    1C        C   35   3.081   2.612   4.020
    1C        C   36   3.278   2.535   4.140
    1C        C   37   3.213   2.560   4.263
    1C        C   38   3.422   2.515   4.382
    1C        C   39   3.282   2.535   4.383
    1C        C   40   3.492   2.507   4.504
    1C        C   41   3.422   2.513   4.627
    1C        C   42   3.634   2.485   4.746
    1C        C   43   3.492   2.487   4.747
    1C        C   44   3.709   2.494   4.865
    1C        C   45   3.632   2.485   4.981
    1C        C   46   2.837   2.755   2.798
    1C        C   47   2.893   2.713   2.920
    1C        C   48   2.843   2.762   3.043
    1C        C   49   3.016   2.636   3.165
    1C        C   50   2.900   2.717   3.164
    1C        C   51   3.078   2.604   3.287
    1C        C   52   3.021   2.646   3.410
    1C        C   53   3.211   2.553   3.533
    1C        C   54   3.082   2.610   3.532
    1C        C   55   3.281   2.526   3.653
    1C        C   56   3.209   2.551   3.772
    1C        C   57   3.418   2.515   3.895
    1C        C   58   3.278   2.535   3.895
    1C        C   59   3.488   2.513   4.017
    1C        C   60   3.418   2.517   4.139
    1C        C   61   3.633   2.506   4.261
    1C        C   62   3.491   2.506   4.259
    1C        C   63   3.706   2.514   4.381
    1C        C   64   3.634   2.508   4.502
    1C        C   65   3.840   2.545   4.624
    1C        C   66   3.704   2.504   4.624
    1C        C   67   3.911   2.562   4.745
    1C        C   68   3.847   2.525   4.865
    1C        C   69   4.053   2.589   4.978
    1C        C   70   3.924   2.535   4.982
    1C        C   71   2.825   2.732   2.313
    1C        C   72   2.886   2.694   2.435
    1C        C   73   2.829   2.743   2.554
    1C        C   74   3.010   2.632   2.675
    1C        C   75   2.890   2.706   2.676
    1C        C   76   3.074   2.602   2.798
    1C        C   77   3.012   2.637   2.920
    1C        C   78   3.208   2.553   3.039
    1C        C   79   3.076   2.603   3.041
    1C        C   80   3.275   2.534   3.162
    1C        C   81   3.208   2.549   3.286
    1C        C   82   3.413   2.507   3.404
    1C        C   83   3.274   2.527   3.409
    1C        C   84   3.486   2.506   3.525
    1C        C   85   3.420   2.501   3.650
    1C        C   86   3.630   2.503   3.771
    1C        C   87   3.489   2.502   3.773
    1C        C   88   3.700   2.511   3.893
    1C        C   89   3.630   2.512   4.016
    1C        C   90   3.838   2.553   4.138
    1C        C   91   3.701   2.517   4.138
    1C        C   92   3.906   2.578   4.259
    1C        C   93   3.841   2.553   4.382
    1C        C   94   4.036   2.633   4.501
    1C        C   95   3.911   2.568   4.504
    1C        C   96   4.098   2.672   4.622
    1C        C   97   4.037   2.627   4.741
    1C        C   98   4.193   2.769   4.866
    1C        C   99   4.104   2.657   4.863
    1C        C  100   4.215   2.845   4.982
    1C        C  101   2.822   2.727   2.076
    1C        C  102   2.993   2.590   2.193
    1C        C  103   2.879   2.677   2.194
    1C        C  104   3.068   2.579   2.313
    1C        C  105   3.009   2.624   2.433
    1C        C  106   3.203   2.538   2.554
    1C        C  107   3.072   2.590   2.555
    1C        C  108   3.275   2.529   2.675
    1C        C  109   3.205   2.549   2.796
    1C        C  110   3.415   2.511   2.914
    1C        C  111   3.275   2.529   2.917
    1C        C  112   3.485   2.504   3.037
    1C        C  113   3.414   2.507   3.159
    1C        C  114   3.625   2.509   3.280
    1C        C  115   3.484   2.500   3.282
    1C        C  116   3.696   2.516   3.402
    1C        C  117   3.627   2.507   3.525
    1C        C  118   3.836   2.546   3.646
    1C        C  119   3.697   2.516   3.647
    1C        C  120   3.902   2.571   3.768
    1C        C  121   3.836   2.550   3.892
    1C        C  122   4.028   2.640   4.014
    1C        C  123   3.900   2.580   4.014
    1C        C  124   4.092   2.676   4.135
    1C        C  125   4.033   2.641   4.258
    1C        C  126   4.201   2.770   4.378
    1C        C  127   4.094   2.677   4.380
    1C        C  128   4.245   2.820   4.502
    1C        C  129   4.202   2.767   4.626
    1C        C  130   4.331   2.938   4.745
    1C        C  131   4.250   2.821   4.747
    1C        C  132   4.360   3.003   4.867
    1C        C  133   4.291   2.961   4.982
    1C        C  134   3.177   2.473   2.082
    1C        C  135   3.042   2.510   2.085
    1C        C  136   3.263   2.483   2.191
    1C        C  137   3.201   2.528   2.310
    1C        C  138   3.409   2.493   2.428
    1C        C  139   3.269   2.511   2.432
    1C        C  140   3.485   2.489   2.547
    1C        C  141   3.414   2.504   2.668
    1C        C  142   3.624   2.497   2.791
    1C        C  143   3.483   2.497   2.791
    1C        C  144   3.696   2.507   2.912
    1C        C  145   3.626   2.508   3.034
    1C        C  146   3.833   2.548   3.156
    1C        C  147   3.695   2.517   3.157
    1C        C  148   3.898   2.571   3.279
    1C        C  149   3.833   2.551   3.403
    1C        C  150   4.033   2.626   3.527
    1C        C  151   3.904   2.569   3.524
    1C        C  152   4.091   2.669   3.649
    1C        C  153   4.027   2.636   3.771
    1C        C  154   4.195   2.769   3.889
    1C        C  155   4.088   2.677   3.892
    1C        C  156   4.252   2.812   4.011
    1C        C  157   4.205   2.761   4.134
    1C        C  158   4.344   2.923   4.253
    1C        C  159   4.258   2.811   4.255
    1C        C  160   4.377   2.983   4.377
    1C        C  161   4.330   2.933   4.500
    1C        C  162   4.430   3.121   4.618
    1C        C  163   4.370   2.993   4.621
    1C        C  164   4.464   3.186   4.738
    1C        C  165   4.435   3.123   4.861
    1C        C  166   4.519   3.323   4.974
    1C        C  167   4.476   3.191   4.976
    1C        C  168   3.482   2.449   2.075
    1C        C  169   3.403   2.459   2.190
    1C        C  170   3.623   2.470   2.307
    1C        C  171   3.480   2.469   2.308
    1C        C  172   3.696   2.489   2.426
    1C        C  173   3.626   2.493   2.549
    1C        C  174   3.834   2.544   2.669
    1C        C  175   3.697   2.510   2.670
    1C        C  176   3.899   2.569   2.792
    1C        C  177   3.832   2.546   2.914
    1C        C  178   4.028   2.632   3.035
    1C        C  179   3.900   2.573   3.034
    1C        C  180   4.087   2.668   3.158
    1C        C  181   4.024   2.636   3.281
    1C        C  182   4.200   2.752   3.397
    1C        C  183   4.088   2.666   3.403
    1C        C  184   4.248   2.804   3.519
    1C        C  185   4.200   2.758   3.644
    1C        C  186   4.337   2.920   3.765
    1C        C  187   4.251   2.808   3.765
    1C        C  188   4.377   2.980   3.887
    1C        C  189   4.344   2.920   4.010
    1C        C  190   4.449   3.107   4.131
    1C        C  191   4.385   2.981   4.131
    1C        C  192   4.468   3.174   4.254
    1C        C  193   4.441   3.109   4.376
    1C        C  194   4.512   3.314   4.492
    1C        C  195   4.468   3.180   4.495
    1C        C  196   4.525   3.388   4.612
    1C        C  197   4.510   3.321   4.735
    1C        C  198   4.559   3.535   4.853
    1C        C  199   4.536   3.394   4.854
    1C        C  200   4.585   3.620   4.965
    1C        C  201   3.620   2.424   2.070
    1C        C  202   3.831   2.510   2.184
    1C        C  203   3.696   2.463   2.185
    1C        C  204   3.903   2.539   2.303
    1C        C  205   3.833   2.523   2.425
    1C        C  206   4.026   2.619   2.543
    1C        C  207   3.902   2.551   2.545
    1C        C  208   4.087   2.657   2.664
    1C        C  209   4.029   2.625   2.788
    1C        C  210   4.200   2.750   2.910
    1C        C  211   4.087   2.666   2.911
    1C        C  212   4.252   2.803   3.030
    1C        C  213   4.199   2.753   3.152
    1C        C  214   4.337   2.913   3.275
    1C        C  215   4.250   2.801   3.274
    1C        C  216   4.379   2.969   3.398
    1C        C  217   4.339   2.912   3.521
    1C        C  218   4.444   3.101   3.639
    1C        C  219   4.376   2.977   3.641
    1C        C  220   4.474   3.165   3.761
    1C        C  221   4.444   3.104   3.885
    1C        C  222   4.499   3.309   4.005
    1C        C  223   4.470   3.171   4.007
    1C        C  224   4.519   3.380   4.125
    1C        C  225   4.509   3.310   4.248
    1C        C  226   4.519   3.523   4.369
    1C        C  227   4.520   3.382   4.369
    1C        C  228   4.524   3.597   4.489
    1C        C  229   4.534   3.529   4.613
    1C        C  230   4.505   3.744   4.731
    1C        C  231   4.541   3.606   4.731
    1C        C  232   4.498   3.822   4.849
    1C        C  233   4.545   3.754   4.962
    1C        C  234   4.021   2.608   2.065
    1C        C  235   3.895   2.548   2.065
    1C        C  236   4.086   2.652   2.181
    1C        C  237   4.027   2.609   2.302
    1C        C  238   4.206   2.731   2.423
    1C        C  239   4.093   2.645   2.421
    1C        C  240   4.259   2.785   2.543
    1C        C  241   4.201   2.741   2.663
    1C        C  242   4.332   2.909   2.785
    1C        C  243   4.248   2.796   2.785
    1C        C  244   4.380   2.965   2.906
    1C        C  245   4.346   2.908   3.031
    1C        C  246   4.443   3.096   3.151
    1C        C  247   4.381   2.969   3.154
    1C        C  248   4.465   3.162   3.274
    1C        C  249   4.441   3.096   3.396
    1C        C  250   4.503   3.304   3.515
    1C        C  251   4.467   3.167   3.516
    1C        C  252   4.508   3.373   3.638
    1C        C  253   4.501   3.304   3.761
    1C        C  254   4.520   3.518   3.881
    1C        C  255   4.514   3.377   3.882
    1C        C  256   4.505   3.589   4.002
    1C        C  257   4.513   3.521   4.126
    1C        C  258   4.487   3.732   4.245
    1C        C  259   4.508   3.593   4.247
    1C        C  260   4.475   3.803   4.367
    1C        C  261   4.492   3.735   4.489
    1C        C  262   4.424   3.940   4.607
    1C        C  263   4.476   3.809   4.609
    1C        C  264   4.401   4.011   4.726
    1C        C  265   4.441   3.951   4.847
    1C        C  266   4.334   4.142   4.961
    1C        C  267   4.404   4.021   4.963
    1C        C  268   4.258   2.780   2.060
    1C        C  269   4.197   2.740   2.179
    1C        C  270   4.346   2.892   2.301
    1C        C  271   4.254   2.783   2.301
    1C        C  272   4.387   2.955   2.420
    1C        C  273   4.349   2.894   2.542
    1C        C  274   4.449   3.084   2.664
    1C        C  275   4.382   2.960   2.663
    1C        C  276   4.474   3.154   2.784
    1C        C  277   4.447   3.089   2.906
    1C        C  278   4.510   3.293   3.026
    1C        C  279   4.474   3.157   3.027
    1C        C  280   4.518   3.367   3.146
    1C        C  281   4.498   3.300   3.269
    1C        C  282   4.517   3.511   3.394
    1C        C  283   4.512   3.370   3.391
    1C        C  284   4.514   3.585   3.514
    1C        C  285   4.516   3.514   3.637
    1C        C  286   4.488   3.727   3.757
    1C        C  287   4.509   3.587   3.758
    1C        C  288   4.474   3.797   3.878
    1C        C  289   4.486   3.729   4.001
    1C        C  290   4.424   3.933   4.121
    1C        C  291   4.475   3.801   4.122
    1C        C  292   4.398   4.002   4.241
    1C        C  293   4.425   3.935   4.363
    1C        C  294   4.329   4.127   4.482
    1C        C  295   4.396   4.003   4.483
    1C        C  296   4.287   4.190   4.601
    1C        C  297   4.330   4.135   4.723
    1C        C  298   4.203   4.316   4.841
    1C        C  299   4.289   4.201   4.842
    1C        C  300   4.173   4.407   4.947
    1C        C  301   4.348   2.886   2.064
    1C        C  302   4.475   3.066   2.180
    1C        C  303   4.401   2.943   2.180
    1C        C  304   4.481   3.145   2.298
    1C        C  305   4.448   3.083   2.420
    1C        C  306   4.511   3.286   2.540
    1C        C  307   4.477   3.149   2.542
    1C        C  308   4.513   3.360   2.660
    1C        C  309   4.500   3.293   2.784
    1C        C  310   4.522   3.506   2.900
    1C        C  311   4.515   3.365   2.905
    1C        C  312   4.517   3.575   3.023
    1C        C  313   4.525   3.508   3.148
    1C        C  314   4.486   3.716   3.267
    1C        C  315   4.519   3.579   3.270
    1C        C  316   4.472   3.788   3.387
    1C        C  317   4.491   3.724   3.512
    1C        C  318   4.429   3.928   3.632
    1C        C  319   4.473   3.794   3.634
    1C        C  320   4.393   3.993   3.752
    1C        C  321   4.423   3.929   3.875
    1C        C  322   4.324   4.117   3.996
    1C        C  323   4.394   3.994   3.997
    1C        C  324   4.282   4.177   4.117
    1C        C  325   4.324   4.122   4.240
    1C        C  326   4.191   4.289   4.358
    1C        C  327   4.289   4.187   4.361
    1C        C  328   4.143   4.346   4.478
    1C        C  329   4.197   4.300   4.600
    1C        C  330   4.028   4.438   4.717
    1C        C  331   4.143   4.355   4.718
    1C        C  332   3.975   4.497   4.834
    1C        C  333   4.060   4.490   4.945
    1C        C  334   4.551   3.272   2.063
    1C        C  335   4.539   3.133   2.070
    1C        C  336   4.537   3.352   2.177
    1C        C  337   4.511   3.283   2.298
    1C        C  338   4.523   3.498   2.412
    1C        C  339   4.518   3.357   2.418
    1C        C  340   4.523   3.570   2.533
    1C        C  341   4.523   3.501   2.656
    1C        C  342   4.495   3.714   2.777
    1C        C  343   4.521   3.575   2.776
    1C        C  344   4.481   3.783   2.899
    1C        C  345   4.497   3.715   3.022
    1C        C  346   4.427   3.917   3.142
    1C        C  347   4.476   3.784   3.143
    1C        C  348   4.396   3.984   3.262
    1C        C  349   4.431   3.924   3.385
    1C        C  350   4.325   4.107   3.505
    1C        C  351   4.404   3.989   3.508
    1C        C  352   4.278   4.168   3.623
    1C        C  353   4.315   4.111   3.747
    1C        C  354   4.182   4.270   3.869
    1C        C  355   4.274   4.163   3.872
    1C        C  356   4.128   4.318   3.991
    1C        C  357   4.178   4.272   4.115
    1C        C  358   4.016   4.410   4.232
    1C        C  359   4.129   4.325   4.236
    1C        C  360   3.957   4.452   4.353
    1C        C  361   4.023   4.421   4.474
    1C        C  362   3.832   4.513   4.599
    1C        C  363   3.965   4.467   4.594
    1C        C  364   3.766   4.546   4.719
    1C        C  365   3.842   4.543   4.838
    1C        C  366   3.632   4.594   4.952
    1C        C  367   3.770   4.581   4.953
    1C        C  368   4.511   3.563   2.055
    1C        C  369   4.524   3.493   2.175
    1C        C  370   4.507   3.713   2.287
    1C        C  371   4.524   3.573   2.291
    1C        C  372   4.484   3.779   2.410
    1C        C  373   4.495   3.709   2.532
    1C        C  374   4.425   3.911   2.654
    1C        C  375   4.476   3.779   2.653
    1C        C  376   4.398   3.979   2.775
    1C        C  377   4.428   3.914   2.897
    1C        C  378   4.325   4.100   3.016
    1C        C  379   4.397   3.979   3.018
    1C        C  380   4.276   4.156   3.136
    1C        C  381   4.319   4.102   3.260
    1C        C  382   4.183   4.263   3.380
    1C        C  383   4.280   4.160   3.383
    1C        C  384   4.128   4.313   3.501
    1C        C  385   4.183   4.273   3.625
    1C        C  386   4.013   4.397   3.745
    1C        C  387   4.132   4.321   3.747
    1C        C  388   3.951   4.438   3.865
    1C        C  389   4.014   4.401   3.985
    1C        C  390   3.821   4.488   4.108
    1C        C  391   3.952   4.434   4.108
    1C        C  392   3.756   4.511   4.231
    1C        C  393   3.826   4.504   4.354
    1C        C  394   3.622   4.547   4.476
    1C        C  395   3.762   4.530   4.477
    1C        C  396   3.549   4.565   4.596
    1C        C  397   3.626   4.565   4.715
    1C        C  398   3.415   4.557   4.839
    1C        C  399   3.555   4.574   4.836
    1C        C  400   3.350   4.521   4.958
    1C        C  401   4.510   3.702   2.052
    1C        C  402   4.459   3.920   2.169
    1C        C  403   4.497   3.784   2.165
    1C        C  404   4.420   3.984   2.289
    1C        C  405   4.435   3.911   2.409
    1C        C  406   4.333   4.099   2.530
    1C        C  407   4.400   3.975   2.530
    1C        C  408   4.286   4.157   2.650
    1C        C  409   4.321   4.097   2.772
    1C        C  410   4.187   4.263   2.891
    1C        C  411   4.280   4.156   2.894
    1C        C  412   4.131   4.306   3.013
    1C        C  413   4.179   4.258   3.137
    1C        C  414   4.009   4.386   3.255
    1C        C  415   4.124   4.304   3.259
    1C        C  416   3.951   4.426   3.377
    1C        C  417   4.009   4.389   3.500
    1C        C  418   3.816   4.475   3.622
    1C        C  419   3.948   4.426   3.622
    1C        C  420   3.749   4.500   3.744
    1C        C  421   3.819   4.490   3.866
    1C        C  422   3.614   4.538   3.989
    1C        C  423   3.753   4.516   3.988
    1C        C  424   3.544   4.547   4.111
    1C        C  425   3.618   4.542   4.232
    1C        C  426   3.408   4.547   4.358
    1C        C  427   3.549   4.548   4.355
    1C        C  428   3.336   4.543   4.479
    1C        C  429   3.408   4.557   4.600
    1C        C  430   3.197   4.523   4.725
    1C        C  431   3.337   4.552   4.721
    1C        C  432   3.130   4.498   4.848
    1C        C  433   3.213   4.497   4.961
    1C        C  434   4.385   4.123   2.054
    1C        C  435   4.448   3.998   2.054
    1C        C  436   4.305   4.163   2.166
    1C        C  437   4.340   4.101   2.289
    1C        C  438   4.186   4.253   2.407
    1C        C  439   4.287   4.155   2.409
    1C        C  440   4.133   4.305   2.527
    1C        C  441   4.186   4.257   2.649
    1C        C  442   4.009   4.378   2.769
    1C        C  443   4.130   4.304   2.769
    1C        C  444   3.946   4.413   2.891
    1C        C  445   4.013   4.384   3.012
    1C        C  446   3.816   4.473   3.134
    1C        C  447   3.947   4.418   3.132
    1C        C  448   3.752   4.500   3.257
    1C        C  449   3.821   4.480   3.379
    1C        C  450   3.612   4.530   3.498
    1C        C  451   3.749   4.496   3.499
    1C        C  452   3.542   4.544   3.621
    1C        C  453   3.611   4.529   3.743
    1C        C  454   3.402   4.544   3.867
    1C        C  455   3.543   4.541   3.867
    1C        C  456   3.332   4.537   3.990
    1C        C  457   3.403   4.537   4.113
    1C        C  458   3.198   4.505   4.240
    1C        C  459   3.336   4.535   4.237
    1C        C  460   3.132   4.483   4.363
    1C        C  461   3.198   4.513   4.485
    1C        C  462   2.998   4.438   4.606
    1C        C  463   3.126   4.499   4.605
    1C        C  464   2.936   4.404   4.729
    1C        C  465   2.997   4.448   4.850
    1C        C  466   2.815   4.331   4.963
    1C        C  467   2.911   4.433   4.964
    1C        C  468   4.128   4.292   2.048
    1C        C  469   4.192   4.251   2.166
    1C        C  470   4.009   4.372   2.283
    1C        C  471   4.128   4.295   2.285
    1C        C  472   3.945   4.404   2.404
    1C        C  473   4.012   4.378   2.525
    1C        C  474   3.817   4.465   2.645
    1C        C  475   3.948   4.413   2.647
    1C        C  476   3.751   4.492   2.767
    1C        C  477   3.818   4.471   2.890
    1C        C  478   3.610   4.518   3.013
    1C        C  479   3.749   4.493   3.011
    1C        C  480   3.541   4.533   3.135
    1C        C  481   3.613   4.526   3.256
    1C        C  482   3.398   4.530   3.378
    1C        C  483   3.540   4.532   3.377
    1C        C  484   3.329   4.529   3.502
    1C        C  485   3.401   4.541   3.623
    1C        C  486   3.193   4.506   3.749
    1C        C  487   3.331   4.534   3.745
    1C        C  488   3.128   4.485   3.873
    1C        C  489   3.194   4.508   3.996
    1C        C  490   3.004   4.420   4.119
    1C        C  491   3.127   4.489   4.119
    1C        C  492   2.945   4.385   4.242
    1C        C  493   3.004   4.425   4.364
    1C        C  494   2.831   4.304   4.488
    1C        C  495   2.938   4.396   4.486
    1C        C  496   2.782   4.253   4.610
    1C        C  497   2.826   4.314   4.729
    1C        C  498   2.671   4.166   4.850
    1C        C  499   2.761   4.274   4.848
    1C        C  500   2.602   4.117   4.962
    1C        C  501   4.013   4.369   2.044
    1C        C  502   3.816   4.462   2.159
    1C        C  503   3.947   4.409   2.161
    1C        C  504   3.745   4.481   2.279
    1C        C  505   3.812   4.453   2.401
    1C        C  506   3.611   4.514   2.522
    1C        C  507   3.749   4.484   2.523
    1C        C  508   3.540   4.520   2.644
    1C        C  509   3.613   4.522   2.765
    1C        C  510   3.402   4.529   2.889
    1C        C  511   3.543   4.523   2.888
    1C        C  512   3.330   4.525   3.010
    1C        C  513   3.400   4.534   3.132
    1C        C  514   3.194   4.488   3.257
    1C        C  515   3.331   4.523   3.254
    1C        C  516   3.129   4.465   3.381
    1C        C  517   3.192   4.497   3.504
    1C        C  518   3.002   4.410   3.628
    1C        C  519   3.127   4.477   3.628
    1C        C  520   2.943   4.377   3.752
    1C        C  521   3.005   4.415   3.873
    1C        C  522   2.838   4.289   4.000
    1C        C  523   2.948   4.377   3.996
    1C        C  524   2.793   4.237   4.124
    1C        C  525   2.838   4.292   4.245
    1C        C  526   2.700   4.133   4.366
    1C        C  527   2.785   4.246   4.367
    1C        C  528   2.661   4.075   4.489
    1C        C  529   2.698   4.139   4.609
    1C        C  530   2.589   3.962   4.734
    1C        C  531   2.647   4.092   4.732
    1C        C  532   2.549   3.902   4.856
    1C        C  533   2.530   3.996   4.962
    1C        C  534   3.622   4.563   2.047
    1C        C  535   3.752   4.511   2.044
    1C        C  536   3.537   4.535   2.159
    1C        C  537   3.606   4.509   2.281
    1C        C  538   3.395   4.521   2.403
    1C        C  539   3.536   4.525   2.403
    1C        C  540   3.325   4.512   2.526
    1C        C  541   3.399   4.514   2.646
    1C        C  542   3.189   4.491   2.771
    1C        C  543   3.329   4.514   2.769
    1C        C  544   3.123   4.469   2.894
    1C        C  545   3.193   4.490   3.014
    1C        C  546   2.999   4.403   3.137
    1C        C  547   3.125   4.467   3.136
    1C        C  548   2.938   4.370   3.260
    1C        C  549   3.002   4.405   3.382
    1C        C  550   2.833   4.283   3.509
    1C        C  551   2.943   4.371   3.506
    1C        C  552   2.785   4.236   3.633
    1C        C  553   2.834   4.287   3.755
    1C        C  554   2.704   4.124   3.879
    1C        C  555   2.787   4.238   3.879
    1C        C  556   2.666   4.064   4.001
    1C        C  557   2.705   4.126   4.122
    1C        C  558   2.596   3.946   4.249
    1C        C  559   2.665   4.069   4.245
    1C        C  560   2.574   3.878   4.371
    1C        C  561   2.600   3.948   4.491
    1C        C  562   2.529   3.754   4.618
    1C        C  563   2.563   3.891   4.615
    1C        C  564   2.511   3.685   4.740
    1C        C  565   2.519   3.762   4.859
    1C        C  566   2.529   3.549   4.982
    1C        C  567   2.528   3.688   4.978
    1C        C  568   3.328   4.480   2.042
    1C        C  569   3.396   4.519   2.158
    1C        C  570   3.189   4.471   2.283
    1C        C  571   3.325   4.509   2.281
    1C        C  572   3.119   4.459   2.405
    1C        C  573   3.187   4.483   2.527
    1C        C  574   2.994   4.402   2.649
    1C        C  575   3.121   4.464   2.650
    1C        C  576   2.936   4.362   2.771
    1C        C  577   2.997   4.405   2.891
    1C        C  578   2.833   4.272   3.018
    1C        C  579   2.940   4.365   3.014
    1C        C  580   2.783   4.224   3.141
    1C        C  581   2.830   4.279   3.262
    1C        C  582   2.699   4.119   3.389
    1C        C  583   2.783   4.232   3.387
    1C        C  584   2.666   4.059   3.513
    1C        C  585   2.704   4.120   3.635
    1C        C  586   2.597   3.938   3.758
    1C        C  587   2.664   4.063   3.758
    1C        C  588   2.571   3.875   3.882
    1C        C  589   2.606   3.936   4.004
    1C        C  590   2.539   3.739   4.129
    1C        C  591   2.581   3.874   4.128
    1C        C  592   2.520   3.672   4.252
    1C        C  593   2.529   3.744   4.373
    1C        C  594   2.514   3.539   4.503
    1C        C  595   2.516   3.680   4.498
    1C        C  596   2.521   3.469   4.625
    1C        C  597   2.513   3.543   4.745
    1C        C  598   2.538   3.330   4.864
    1C        C  599   2.528   3.471   4.866
    1C        C  600   2.543   3.258   4.985
    1C        C  601   3.195   4.445   2.043
    1C        C  602   2.985   4.394   2.164
    1C        C  603   3.119   4.445   2.161
    1C        C  604   2.930   4.354   2.288
    1C        C  605   2.994   4.392   2.408
    1C        C  606   2.820   4.273   2.531
    1C        C  607   2.931   4.360   2.530
    1C        C  608   2.770   4.224   2.654
    1C        C  609   2.827   4.271   2.774
    1C        C  610   2.688   4.114   2.900
    1C        C  611   2.779   4.222   2.898
    1C        C  612   2.651   4.056   3.023
    1C        C  613   2.694   4.114   3.144
    1C        C  614   2.594   3.931   3.271
    1C        C  615   2.657   4.057   3.268
    1C        C  616   2.573   3.867   3.395
    1C        C  617   2.606   3.932   3.516
    1C        C  618   2.531   3.733   3.640
    1C        C  619   2.572   3.869   3.638
    1C        C  620   2.516   3.667   3.763
    1C        C  621   2.525   3.741   3.884
    1C        C  622   2.512   3.530   4.011
    1C        C  623   2.523   3.671   4.006
    1C        C  624   2.512   3.460   4.134
    1C        C  625   2.514   3.531   4.256
    1C        C  626   2.539   3.328   4.384
    1C        C  627   2.513   3.466   4.381
    1C        C  628   2.562   3.256   4.504
    1C        C  629   2.539   3.329   4.623
    1C        C  630   2.596   3.122   4.745
    1C        C  631   2.551   3.257   4.744
    1C        C  632   2.619   3.055   4.868
    1C        C  633   2.571   3.121   4.986
    1C        C  634   2.786   4.306   2.055
    1C        C  635   2.896   4.392   2.052
    1C        C  636   2.746   4.236   2.170
    1C        C  637   2.814   4.271   2.289
    1C        C  638   2.675   4.113   2.411
    1C        C  639   2.765   4.222   2.412
    1C        C  640   2.643   4.053   2.534
    1C        C  641   2.690   4.108   2.655
    1C        C  642   2.587   3.926   2.779
    1C        C  643   2.650   4.052   2.779
    1C        C  644   2.562   3.862   2.903
    1C        C  645   2.587   3.929   3.025
    1C        C  646   2.534   3.728   3.151
    1C        C  647   2.566   3.866   3.149
    1C        C  648   2.519   3.658   3.273
    1C        C  649   2.535   3.730   3.394
    1C        C  650   2.507   3.523   3.524
    1C        C  651   2.522   3.663   3.517
    1C        C  652   2.512   3.454   3.647
    1C        C  653   2.516   3.526   3.769
    1C        C  654   2.537   3.315   3.893
    1C        C  655   2.514   3.455   3.891
    1C        C  656   2.554   3.251   4.018
    1C        C  657   2.540   3.322   4.139
    1C        C  658   2.602   3.123   4.262
    1C        C  659   2.556   3.257   4.263
    1C        C  660   2.631   3.057   4.384
    1C        C  661   2.607   3.122   4.506
    1C        C  662   2.715   2.937   4.626
    1C        C  663   2.636   3.055   4.627
    1C        C  664   2.757   2.882   4.749
    1C        C  665   2.700   2.937   4.868
    1C        C  666   2.746   2.873   4.984
    1C        C  667   2.685   4.022   2.061
    1C        C  668   2.688   4.108   2.171
    1C        C  669   2.586   3.916   2.295
    1C        C  670   2.645   4.045   2.291
    1C        C  671   2.557   3.852   2.417
    1C        C  672   2.585   3.924   2.535
    1C        C  673   2.518   3.724   2.664
    1C        C  674   2.562   3.858   2.658
    1C        C  675   2.515   3.653   2.787
    1C        C  676   2.532   3.724   2.907
    1C        C  677   2.506   3.515   3.033
    1C        C  678   2.523   3.655   3.031
    1C        C  679   2.505   3.446   3.156
    1C        C  680   2.508   3.518   3.278
    1C        C  681   2.537   3.312   3.406
    1C        C  682   2.512   3.451   3.402
    1C        C  683   2.555   3.243   3.528
    1C        C  684   2.536   3.315   3.649
    1C        C  685   2.608   3.116   3.773
    1C        C  686   2.557   3.247   3.771
    1C        C  687   2.641   3.057   3.897
    1C        C  688   2.600   3.117   4.018
    1C        C  689   2.713   2.941   4.139
    1C        C  690   2.632   3.056   4.142
    1C        C  691   2.757   2.885   4.262
    1C        C  692   2.714   2.942   4.383
    1C        C  693   2.758   2.882   4.504
    1C        C  694   2.630   3.893   2.058
    1C        C  695   2.529   3.707   2.179
    1C        C  696   2.579   3.839   2.177
    1C        C  697   2.511   3.640   2.302
    1C        C  698   2.518   3.716   2.421
    1C        C  699   2.494   3.510   2.547
    1C        C  700   2.498   3.651   2.545
    1C        C  701   2.503   3.438   2.668
    1C        C  702   2.504   3.512   2.788
    1C        C  703   2.525   3.304   2.916
    1C        C  704   2.504   3.443   2.912
    1C        C  705   2.547   3.237   3.039
    1C        C  706   2.528   3.306   3.160
    1C        C  707   2.601   3.110   3.279
    1C        C  708   2.549   3.241   3.284
    1C        C  709   2.629   3.049   3.403
    1C        C  710   2.598   3.109   3.528
    1C        C  711   2.711   2.932   3.650
    1C        C  712   2.630   3.048   3.651
    1C        C  713   2.758   2.880   3.772
    1C        C  714   2.719   2.939   3.895
    1C        C  715   2.761   2.885   4.018
    1C        C  716   2.448   3.504   2.069
    1C        C  717   2.489   3.637   2.065
    1C        C  718   2.469   3.423   2.186
    1C        C  719   2.484   3.500   2.305
    1C        C  720   2.513   3.295   2.429
    1C        C  721   2.483   3.433   2.429
    1C        C  722   2.544   3.227   2.549
    1C        C  723   2.531   3.299   2.670
    1C        C  724   2.587   3.100   2.796
    1C        C  725   2.541   3.233   2.795
    1C        C  726   2.623   3.037   2.917
    1C        C  727   2.596   3.104   3.039
    1C        C  728   2.711   2.924   3.162
    1C        C  729   2.630   3.040   3.160
    1C        C  730   2.761   2.880   3.287
    1C        C  731   2.710   2.934   3.407
    1C        C  732   2.751   2.873   3.528
    1C        C  733   2.499   3.200   2.077
    1C        C  734   2.497   3.283   2.190
    1C        C  735   2.587   3.087   2.310
    1C        C  736   2.534   3.219   2.311
    1C        C  737   2.618   3.022   2.432
    1C        C  738   2.592   3.094   2.551
    1C        C  739   2.696   2.914   2.673
    1C        C  740   2.622   3.034   2.675
    1C        C  741   2.744   2.861   2.795
    1C        C  742   2.701   2.919   2.917
    1C        C  743   2.747   2.865   3.039
    1C        C  744   2.552   3.072   2.077
    1C        C  745   2.689   2.898   2.190
    1C        C  746   2.616   3.019   2.190
    1C        C  747   2.731   2.839   2.311
    1C        C  748   2.690   2.901   2.432
    1C        C  749   2.734   2.847   2.555
    1C        C  750   2.734   2.835   2.074
    1C        C  751   3.646   2.311   1.978
    1C        O  752   3.699   2.203   2.015
    1C        O  753   3.685   2.333   1.845
    1C        C  754   4.606   3.068   1.955
    1C        O  755   4.537   3.046   1.851
    1C        O  756   4.710   2.980   1.986
    1C        C  757   4.421   4.208   1.938
    1C        O  758   4.495   4.307   1.960
    1C        O  759   4.433   4.156   1.809
    1C        C  760   3.589   4.663   1.943
    1C        O  761   3.634   4.780   1.948
    1C        O  762   3.553   4.648   1.809
    1C        C  763   2.889   4.504   1.955
    1C        O  764   2.904   4.483   1.832
    1C        O  765   2.820   4.625   1.973
    1C        C  766   2.349   3.477   1.962
    1C        O  767   2.388   3.459   1.844
    1C        O  768   2.211   3.466   1.983
    1C        C  769   4.709   3.595   5.041
    1C        O  770   4.724   3.647   5.155
    1C        O  771   4.828   3.586   4.968
    1C        C  772   4.272   4.457   5.045
    1C        O  773   4.270   4.418   5.165
    1C        O  774   4.396   4.505   5.000
    1C        C  775   4.156   2.550   5.077
    1C        O  776   4.209   2.437   5.059
    1C        O  777   4.123   2.568   5.212
    1C        C  778   2.863   4.559   5.025
    1C        O  779   2.766   4.628   4.984
    1C        O  780   2.900   4.595   5.156
    1C        C  781   2.466   3.046   5.060
    1C        O  782   2.348   3.049   5.018
    1C        O  783   2.473   3.029   5.198
    1C        C  784   2.410   4.004   5.048
    1C        O  785   2.296   3.983   4.998
    1C        O  786   2.423   4.015   5.187
    1C        C  787   2.953   2.440   1.989
    1C        O  788   2.967   2.464   1.866
    1C        O  789   2.911   2.310   2.014
    1C        C  790   3.174   2.364   5.054
    1C        O  791   3.081   2.283   5.028
    1C        O  792   3.243   2.339   5.174
    1C        H  793   4.283   3.032   5.062
    1C        H  794   4.174   2.812   5.075
    1C        H  795   4.490   3.135   5.066
    1C        H  796   4.562   3.356   5.066
    1C        H  797   4.600   3.822   5.024
    1C        H  798   4.465   4.006   5.049
    1C        H  799   4.276   4.163   5.048
    1C        H  800   4.050   4.554   5.029
    1C        H  801   3.829   4.609   5.037
    1C        H  802   3.591   4.636   5.042
    1C        H  803   3.407   4.455   5.019
    1C        H  804   3.164   4.485   5.056
    1C        H  805   3.897   2.475   5.067
    1C        H  806   3.678   2.436   5.063
    1C        H  807   2.992   2.537   5.049
    1C        H  808   3.444   2.505   5.078
    1C        H  809   2.853   2.716   5.069
    1C        H  810   2.695   2.895   5.075
    1C        H  811   2.561   3.307   5.078
    1C        H  812   2.504   3.507   5.077
    1C        H  813   2.573   3.731   5.065
    1C        H  814   2.603   4.171   5.054
    1C        H  815   2.796   4.282   5.056
    1C        H  816   2.732   2.887   1.981
    1C        H  817   2.822   2.653   1.999
    1C        H  818   3.196   2.394   2.012
    1C        H  819   3.429   2.447   1.983
    1C        H  820   3.844   2.544   1.971
    1C        H  821   4.082   2.593   1.979
    1C        H  822   4.217   2.745   1.968
    1C        H  823   4.352   2.940   1.971
    1C        H  824   4.605   3.313   1.980
    1C        H  825   4.477   3.508   1.969
    1C        H  826   4.529   3.744   1.956
    1C        H  827   3.800   4.508   1.949
    1C        H  828   3.953   4.362   1.955
    1C        H  829   4.138   4.224   1.966
    1C        H  830   4.467   3.948   1.961
    1C        H  831   2.616   3.852   1.960
    1C        H  832   2.748   4.053   1.980
    1C        H  833   2.714   4.314   1.976
    1C        H  834   3.381   4.493   1.950
    1C        H  835   3.151   4.410   1.952
    1C        H  836   2.575   3.035   1.979
    1C        H  837   2.452   3.236   1.988
    1C        H  838   2.454   3.694   1.981
    2V3OU   H29  839   2.800   3.557   1.143
    2V3OU   C27  840   2.783   3.503   1.240
    2V3OU   H27  841   2.722   3.562   1.313
    2V3OU   H28  842   2.731   3.405   1.227
    2V3OU   O11  843   2.910   3.480   1.301
    2V3OU   C15  844   2.923   3.402   1.414
    2V3OU   C13  845   3.055   3.377   1.460
    2V3OU   C14  846   3.077   3.270   1.547
    2V3OU   C16  847   2.975   3.191   1.597
    2V3OU    H6  848   2.996   3.102   1.659
    2V3OU   C12  849   3.216   3.231   1.581
    2V3OU    O2  850   3.237   3.124   1.641
    2V3OU   C10  851   3.330   3.308   1.529
    2V3OU    C8  852   3.463   3.272   1.549
    2V3OU   O10  853   3.495   3.158   1.617
    2V3OU   H26  854   3.410   3.117   1.640
    2V3OU    C6  855   3.572   3.353   1.507
    2V3OU    C5  856   3.541   3.471   1.439
    2V3OU    C4  857   3.711   3.298   1.509
    2V3OU    H4  858   3.731   3.230   1.597
    2V3OU    H5  859   3.719   3.232   1.418
    2V3OU    C2  860   3.824   3.401   1.507
    2V3OU    O6  861   3.811   3.473   1.630
    2V3OU   H21  862   3.758   3.549   1.601
    2V3OU    C3  863   3.785   3.500   1.396
    2V3OU    H2  864   3.866   3.577   1.388
    2V3OU    H3  865   3.785   3.441   1.301
    2V3OU   C25  866   3.955   3.324   1.491
    2V3OU    O7  867   4.007   3.300   1.382
    2V3OU   C26  868   4.032   3.289   1.618
    2V3OU   H22  869   4.070   3.384   1.664
    2V3OU   H23  870   4.117   3.221   1.592
    2V3OU    O8  871   3.966   3.209   1.713
    2V3OU   H24  872   3.936   3.264   1.787
    2V3OU    C1  873   3.651   3.569   1.415
    2V3OU    H1  874   3.627   3.625   1.320
    2V3OU    O3  875   3.661   3.659   1.526
    2V3OU   C19  876   3.623   3.796   1.515
    2V3OU    H9  877   3.526   3.804   1.457
    2V3OU    O4  878   3.720   3.845   1.425
    2V3OU   C20  879   3.848   3.874   1.482
    2V3OU   H10  880   3.894   3.773   1.504
    2V3OU   C24  881   3.614   3.861   1.653
    2V3OU   H16  882   3.558   3.790   1.719
    2V3OU   H17  883   3.558   3.957   1.641
    2V3OU   C23  884   3.755   3.880   1.709
    2V3OU   H15  885   3.797   3.776   1.733
    2V3OU    N1  886   3.740   3.957   1.831
    2V3OU   H19  887   3.808   3.936   1.901
    2V3OU   H20  888   3.653   3.940   1.878
    2V3OU   C21  889   3.854   3.952   1.613
    2V3OU   H11  890   3.955   3.928   1.657
    2V3OU    O5  891   3.831   4.092   1.608
    2V3OU   H18  892   3.781   4.109   1.690
    2V3OU   C22  893   3.919   3.948   1.370
    2V3OU   H12  894   3.868   4.046   1.349
    2V3OU   H13  895   3.903   3.895   1.272
    2V3OU   H14  896   4.026   3.964   1.402
    2V3OU   C11  897   3.163   3.472   1.430
    2V3OU    O1  898   3.132   3.591   1.409
    2V3OU    C9  899   3.301   3.427   1.457
    2V3OU    C7  900   3.405   3.509   1.415
    2V3OU    O9  901   3.382   3.618   1.333
    2V3OU   H25  902   3.286   3.635   1.329
    2V3OU   C17  903   2.820   3.327   1.474
    2V3OU    H7  904   2.721   3.347   1.434
    2V3OU   C18  905   2.845   3.219   1.558
    2V3OU    H8  906   2.756   3.160   1.587
    3SOL     OW  907   1.003   3.078   0.397
    3SOL    HW1  908   1.102   3.089   0.406
    3SOL    HW2  909   0.957   3.130   0.468
    4SOL     OW  910   5.520   0.707   2.035
    4SOL    HW1  911   5.589   0.780   2.038
    4SOL    HW2  912   5.522   0.663   1.945
    5SOL     OW  913   3.525   2.595   1.071
    5SOL    HW1  914   3.612   2.574   1.114
    5SOL    HW2  915   3.457   2.616   1.141
    6SOL     OW  916   2.784   1.976   1.096
    6SOL    HW1  917   2.735   1.906   1.046
    6SOL    HW2  918   2.880   1.978   1.066
    7SOL     OW  919   5.995   0.952   1.725
    7SOL    HW1  920   5.895   0.952   1.727
    7SOL    HW2  921   6.028   0.859   1.737
    8SOL     OW  922   2.496   1.519   4.217
    8SOL    HW1  923   2.523   1.426   4.190
    8SOL    HW2  924   2.438   1.559   4.146
    9SOL     OW  925   0.981   3.490   5.989
    9SOL    HW1  926   1.074   3.492   6.024
    9SOL    HW2  927   0.982   3.504   5.890
   10SOL     OW  928   0.234   3.825   0.138
   10SOL    HW1  929   0.256   3.834   0.041
   10SOL    HW2  930   0.178   3.903   0.167
   11SOL     OW  931   4.138   6.446   0.107
   11SOL    HW1  932   4.144   6.442   0.007
   11SOL    HW2  933   4.231   6.446   0.145
   12SOL     OW  934   5.919   6.128   2.306
   12SOL    HW1  935   5.971   6.126   2.391
   12SOL    HW2  936   5.854   6.051   2.305
   13SOL     OW  937   2.277   6.611   3.350
   13SOL    HW1  938   2.230   6.523   3.353
   13SOL    HW2  939   2.285   6.642   3.256
   14SOL     OW  940   2.971   6.622   1.692
   14SOL    HW1  941   2.973   6.533   1.736
   14SOL    HW2  942   3.041   6.626   1.620
   15SOL     OW  943   1.306   6.321   6.399
   15SOL    HW1  944   1.298   6.274   6.311
   15SOL    HW2  945   1.221   6.308   6.452
   16SOL     OW  946   6.393   1.545   6.134
   16SOL    HW1  947   6.427   1.611   6.067
   16SOL    HW2  948   6.293   1.551   6.139
   17SOL     OW  949   5.181   6.360   3.988
   17SOL    HW1  950   5.242   6.357   4.068
   17SOL    HW2  951   5.109   6.427   4.004
   18SOL     OW  952   1.688   1.382   6.523
   18SOL    HW1  953   1.658   1.413   6.613
   18SOL    HW2  954   1.620   1.406   6.454
   19SOL     OW  955   0.689   0.058   1.781
   19SOL    HW1  956   0.750   0.104   1.716
   19SOL    HW2  957   0.732   7.003   1.813
   20SOL     OW  958   3.280   1.509   4.671
   20SOL    HW1  959   3.312   1.514   4.576
   20SOL    HW2  960   3.233   1.595   4.694
   21SOL     OW  961   2.814   2.637   0.994
   21SOL    HW1  962   2.840   2.715   1.051
   21SOL    HW2  963   2.845   2.652   0.900
   22SOL     OW  964   1.222   0.493   6.221
   22SOL    HW1  965   1.306   0.521   6.175
   22SOL    HW2  966   1.239   0.411   6.276
   23SOL     OW  967   3.971   6.593   4.321
   23SOL    HW1  968   4.062   6.592   4.280
   23SOL    HW2  969   3.902   6.575   4.251
   24SOL     OW  970   4.178   1.460   4.428
   24SOL    HW1  971   4.258   1.504   4.388
   24SOL    HW2  972   4.175   1.364   4.398
   25SOL     OW  973   2.994   5.554   0.937
   25SOL    HW1  974   3.078   5.605   0.956
   25SOL    HW2  975   2.921   5.618   0.914
   26SOL     OW  976   6.429   1.631   2.520
   26SOL    HW1  977   6.456   1.677   2.435
   26SOL    HW2  978   6.330   1.613   2.517
   27SOL     OW  979   6.155   6.353   2.307
   27SOL    HW1  980   6.172   6.434   2.363
   27SOL    HW2  981   6.089   6.375   2.236
   28SOL     OW  982   3.318   0.365   0.289
   28SOL    HW1  983   3.302   0.328   0.381
   28SOL    HW2  984   3.278   0.456   0.283
   29SOL     OW  985   4.097   2.467   1.669
   29SOL    HW1  986   4.073   2.560   1.641
   29SOL    HW2  987   4.157   2.427   1.600
   30SOL     OW  988   3.917   0.750   4.553
   30SOL    HW1  989   3.910   0.849   4.565
   30SOL    HW2  990   3.855   0.720   4.481
   31SOL     OW  991   0.295   0.906   5.678
   31SOL    HW1  992   0.388   0.932   5.653
   31SOL    HW2  993   0.264   0.831   5.619
   32SOL     OW  994   0.003   1.912   1.889
   32SOL    HW1  995   0.023   1.820   1.858
   32SOL    HW2  996   0.089   1.958   1.912
   33SOL     OW  997   1.426   2.094   5.353
   33SOL    HW1  998   1.363   2.023   5.322
   33SOL    HW2  999   1.500   2.105   5.286
   34SOL     OW 1000   1.103   0.335   5.053
   34SOL    HW1 1001   1.100   0.388   4.968
   34SOL    HW2 1002   1.118   0.238   5.031
   35SOL     OW 1003   4.240   1.526   6.441
   35SOL    HW1 1004   4.229   1.492   6.347
   35SOL    HW2 1005   4.335   1.515   6.469
   36SOL     OW 1006   1.429   1.841   5.694
   36SOL    HW1 1007   1.489   1.839   5.614
   36SOL    HW2 1008   1.479   1.883   5.771
   37SOL     OW 1009   2.499   6.754   1.677
   37SOL    HW1 1010   2.543   6.682   1.730
   37SOL    HW2 1011   2.482   6.833   1.736
   38SOL     OW 1012   0.180   5.891   2.952
   38SOL    HW1 1013   0.231   5.830   2.892
   38SOL    HW2 1014   0.196   5.986   2.926
   39SOL     OW 1015   6.897   3.298   5.511
   39SOL    HW1 1016   6.808   3.334   5.481
   39SOL    HW2 1017   6.912   3.209   5.469
   40SOL     OW 1018   6.969   0.780   1.567
   40SOL    HW1 1019   6.926   0.870   1.556
   40SOL    HW2 1020   6.995   0.766   1.662
   41SOL     OW 1021   1.130   6.713   5.858
   41SOL    HW1 1022   1.202   6.745   5.795
   41SOL    HW2 1023   1.044   6.759   5.837
   42SOL     OW 1024   3.750   0.532   6.892
   42SOL    HW1 1025   3.802   0.500   6.971
   42SOL    HW2 1026   3.700   0.615   6.916
   43SOL     OW 1027   5.197   5.361   5.113
   43SOL    HW1 1028   5.124   5.292   5.112
   43SOL    HW2 1029   5.156   5.452   5.104
   44SOL     OW 1030   0.813   3.402   6.358
   44SOL    HW1 1031   0.725   3.418   6.313
   44SOL    HW2 1032   0.867   3.486   6.354
   45SOL     OW 1033   3.149   0.426   2.119
   45SOL    HW1 1034   3.247   0.444   2.121
   45SOL    HW2 1035   3.111   0.455   2.031
   46SOL     OW 1036   1.732   4.140   3.807
   46SOL    HW1 1037   1.650   4.158   3.752
   46SOL    HW2 1038   1.728   4.194   3.891
   47SOL     OW 1039   6.347   4.794   3.190
   47SOL    HW1 1040   6.269   4.751   3.144
   47SOL    HW2 1041   6.431   4.776   3.139
   48SOL     OW 1042   1.056   2.504   5.599
   48SOL    HW1 1043   0.983   2.464   5.654
   48SOL    HW2 1044   1.106   2.431   5.553
   49SOL     OW 1045   4.745   2.203   0.571
   49SOL    HW1 1046   4.807   2.125   0.571
   49SOL    HW2 1047   4.787   2.278   0.622
   50SOL     OW 1048   6.850   3.979   4.280
   50SOL    HW1 1049   6.905   3.949   4.358
   50SOL    HW2 1050   6.776   4.039   4.312
   51SOL     OW 1051   3.668   5.566   2.730
   51SOL    HW1 1052   3.599   5.627   2.692
   51SOL    HW2 1053   3.720   5.614   2.801
   52SOL     OW 1054   1.415   2.457   1.629
   52SOL    HW1 1055   1.481   2.533   1.628
   52SOL    HW2 1056   1.462   2.373   1.656
   53SOL     OW 1057   4.925   0.061   3.882
   53SOL    HW1 1058   4.889   0.125   3.949
   53SOL    HW2 1059   5.022   0.043   3.901
   54SOL     OW 1060   4.094   5.614   5.608
   54SOL    HW1 1061   4.109   5.681   5.535
   54SOL    HW2 1062   4.019   5.552   5.582
   55SOL     OW 1063   4.108   2.340   0.573
   55SOL    HW1 1064   4.040   2.267   0.569
   55SOL    HW2 1065   4.064   2.424   0.605
   56SOL     OW 1066   0.883   6.997   2.069
   56SOL    HW1 1067   0.858   6.957   1.981
   56SOL    HW2 1068   0.838   0.057   2.080
   57SOL     OW 1069   5.995   0.675   0.717
   57SOL    HW1 1070   6.037   0.765   0.718
   57SOL    HW2 1071   6.063   0.607   0.690
   58SOL     OW 1072   7.003   6.508   6.901
   58SOL    HW1 1073   6.956   6.568   6.966
   58SOL    HW2 1074   6.994   6.545   6.809
   59SOL     OW 1075   1.090   6.977   5.103
   59SOL    HW1 1076   1.025   7.026   5.161
   59SOL    HW2 1077   1.128   6.900   5.154
   60SOL     OW 1078   4.784   6.995   4.750
   60SOL    HW1 1079   4.827   0.048   4.788
   60SOL    HW2 1080   4.779   7.002   4.650
   61SOL     OW 1081   4.129   0.559   4.507
   61SOL    HW1 1082   4.051   0.617   4.531
   61SOL    HW2 1083   4.125   0.475   4.561
   62SOL     OW 1084   1.914   0.945   4.676
   62SOL    HW1 1085   1.939   0.854   4.642
   62SOL    HW2 1086   1.844   0.984   4.616
   63SOL     OW 1087   0.077   3.362   2.975
   63SOL    HW1 1088   0.050   3.340   3.069
   63SOL    HW2 1089   0.010   3.326   2.912
   64SOL     OW 1090   6.914   2.894   5.834
   64SOL    HW1 1091   6.882   2.804   5.863
   64SOL    HW2 1092   6.842   2.940   5.782
   65SOL     OW 1093   6.650   4.597   5.953
   65SOL    HW1 1094   6.679   4.501   5.948
   65SOL    HW2 1095   6.697   4.641   6.030
   66SOL     OW 1096   2.912   1.405   0.737
   66SOL    HW1 1097   2.846   1.340   0.774
   66SOL    HW2 1098   2.863   1.479   0.690
   67SOL     OW 1099   5.322   5.988   4.219
   67SOL    HW1 1100   5.312   6.073   4.270
   67SOL    HW2 1101   5.269   5.994   4.134
   68SOL     OW 1102   5.358   2.198   5.833
   68SOL    HW1 1103   5.304   2.114   5.831
   68SOL    HW2 1104   5.434   2.190   5.768
   69SOL     OW 1105   2.916   3.243   6.381
   69SOL    HW1 1106   2.964   3.180   6.442
   69SOL    HW2 1107   2.818   3.233   6.393
   70SOL     OW 1108   0.341   4.952   2.122
   70SOL    HW1 1109   0.378   4.961   2.029
   70SOL    HW2 1110   0.241   4.942   2.117
   71SOL     OW 1111   1.468   2.277   2.969
   71SOL    HW1 1112   1.412   2.275   2.886
   71SOL    HW2 1113   1.448   2.360   3.021
   72SOL     OW 1114   3.624   5.816   4.069
   72SOL    HW1 1115   3.588   5.723   4.076
   72SOL    HW2 1116   3.713   5.814   4.024
   73SOL     OW 1117   4.621   2.781   0.131
   73SOL    HW1 1118   4.528   2.744   0.135
   73SOL    HW2 1119   4.638   2.836   0.213
   74SOL     OW 1120   5.307   5.825   5.648
   74SOL    HW1 1121   5.220   5.794   5.608
   74SOL    HW2 1122   5.293   5.914   5.692
   75SOL     OW 1123   3.900   5.406   5.555
   75SOL    HW1 1124   3.883   5.332   5.491
   75SOL    HW2 1125   3.816   5.457   5.572
   76SOL     OW 1126   2.711   3.159   1.142
   76SOL    HW1 1127   2.619   3.184   1.172
   76SOL    HW2 1128   2.738   3.216   1.065
   77SOL     OW 1129   5.630   5.263   6.588
   77SOL    HW1 1130   5.646   5.361   6.602
   77SOL    HW2 1131   5.651   5.213   6.672
   78SOL     OW 1132   6.565   6.279   6.230
   78SOL    HW1 1133   6.513   6.279   6.316
   78SOL    HW2 1134   6.577   6.374   6.199
   79SOL     OW 1135   3.124   0.086   0.009
   79SOL    HW1 1136   3.140   0.045   0.099
   79SOL    HW2 1137   3.071   0.023   6.982
   80SOL     OW 1138   0.048   1.691   4.185
   80SOL    HW1 1139   7.003   1.684   4.117
   80SOL    HW2 1140   0.095   1.603   4.191
   81SOL     OW 1141   1.190   0.242   3.668
   81SOL    HW1 1142   1.110   0.293   3.702
   81SOL    HW2 1143   1.256   0.307   3.630
   82SOL     OW 1144   0.206   4.628   5.457
   82SOL    HW1 1145   0.206   4.620   5.357
   82SOL    HW2 1146   0.119   4.665   5.488
   83SOL     OW 1147   0.060   0.051   0.140
   83SOL    HW1 1148   0.028   0.113   0.211
   83SOL    HW2 1149   0.039   0.088   0.050
   84SOL     OW 1150   6.070   4.027   1.752
   84SOL    HW1 1151   6.118   4.040   1.665
   84SOL    HW2 1152   6.016   3.942   1.748
   85SOL     OW 1153   0.401   2.921   5.571
   85SOL    HW1 1154   0.322   2.946   5.515
   85SOL    HW2 1155   0.439   3.002   5.615
   86SOL     OW 1156   0.940   0.814   5.655
   86SOL    HW1 1157   1.038   0.813   5.635
   86SOL    HW2 1158   0.913   0.906   5.683
   87SOL     OW 1159   3.952   0.807   1.071
   87SOL    HW1 1160   3.950   0.833   0.974
   87SOL    HW2 1161   3.970   0.888   1.127
   88SOL     OW 1162   5.318   0.438   0.766
   88SOL    HW1 1163   5.240   0.499   0.755
   88SOL    HW2 1164   5.378   0.473   0.838
   89SOL     OW 1165   1.777   2.277   6.169
   89SOL    HW1 1166   1.730   2.358   6.133
   89SOL    HW2 1167   1.876   2.291   6.164
   90SOL     OW 1168   6.016   6.644   3.745
   90SOL    HW1 1169   6.033   6.557   3.790
   90SOL    HW2 1170   5.958   6.630   3.665
   91SOL     OW 1171   4.787   4.729   4.776
   91SOL    HW1 1172   4.728   4.648   4.769
   91SOL    HW2 1173   4.843   4.722   4.859
   92SOL     OW 1174   3.036   5.403   1.522
   92SOL    HW1 1175   2.959   5.464   1.540
   92SOL    HW2 1176   3.083   5.432   1.439
   93SOL     OW 1177   3.319   5.328   5.525
   93SOL    HW1 1178   3.321   5.244   5.469
   93SOL    HW2 1179   3.269   5.399   5.476
   94SOL     OW 1180   2.477   6.016   0.255
   94SOL    HW1 1181   2.477   5.931   0.308
   94SOL    HW2 1182   2.391   6.064   0.269
   95SOL     OW 1183   6.623   0.531   4.864
   95SOL    HW1 1184   6.529   0.510   4.891
   95SOL    HW2 1185   6.635   0.509   4.767
   96SOL     OW 1186   1.737   0.289   5.352
   96SOL    HW1 1187   1.656   0.329   5.395
   96SOL    HW2 1188   1.710   0.213   5.293
   97SOL     OW 1189   6.358   3.386   5.137
   97SOL    HW1 1190   6.273   3.334   5.149
   97SOL    HW2 1191   6.436   3.324   5.141
   98SOL     OW 1192   5.970   2.578   5.977
   98SOL    HW1 1193   6.062   2.553   6.005
   98SOL    HW2 1194   5.903   2.519   6.022
   99SOL     OW 1195   4.323   2.217   1.106
   99SOL    HW1 1196   4.259   2.141   1.121
   99SOL    HW2 1197   4.324   2.240   1.009
  100SOL     OW 1198   6.623   5.240   6.128
  100SOL    HW1 1199   6.558   5.237   6.052
  100SOL    HW2 1200   6.675   5.325   6.123
  101SOL     OW 1201   1.137   6.733   3.631
  101SOL    HW1 1202   1.070   6.748   3.704
  101SOL    HW2 1203   1.104   6.773   3.546
  102SOL     OW 1204   5.083   6.922   3.435
  102SOL    HW1 1205   5.135   6.923   3.521
  102SOL    HW2 1206   5.107   6.840   3.383
  103SOL     OW 1207   3.904   1.644   1.293
  103SOL    HW1 1208   3.831   1.712   1.302
  103SOL    HW2 1209   3.890   1.571   1.360
  104SOL     OW 1210   0.041   5.825   2.321
  104SOL    HW1 1211   0.070   5.841   2.416
  104SOL    HW2 1212   0.101   5.757   2.280
  105SOL     OW 1213   5.131   0.942   5.704
  105SOL    HW1 1214   5.040   0.925   5.741
  105SOL    HW2 1215   5.145   1.041   5.695
  106SOL     OW 1216   3.017   6.473   6.816
  106SOL    HW1 1217   3.022   6.403   6.887
  106SOL    HW2 1218   3.051   6.435   6.730
  107SOL     OW 1219   2.539   3.607   1.034
  107SOL    HW1 1220   2.496   3.567   1.115
  107SOL    HW2 1221   2.561   3.703   1.053
  108SOL     OW 1222   4.924   4.534   5.421
  108SOL    HW1 1223   4.994   4.548   5.351
  108SOL    HW2 1224   4.899   4.622   5.462
  109SOL     OW 1225   6.989   0.929   1.071
  109SOL    HW1 1226   7.017   0.868   1.145
  109SOL    HW2 1227   7.006   0.885   0.983
  110SOL     OW 1228   4.192   5.960   5.139
  110SOL    HW1 1229   4.112   5.999   5.183
  110SOL    HW2 1230   4.273   6.012   5.164
  111SOL     OW 1231   3.796   1.076   3.477
  111SOL    HW1 1232   3.793   1.009   3.403
  111SOL    HW2 1233   3.710   1.127   3.480
  112SOL     OW 1234   0.700   0.500   6.290
  112SOL    HW1 1235   0.679   0.595   6.311
  112SOL    HW2 1236   0.785   0.474   6.335
  113SOL     OW 1237   0.199   5.085   3.421
  113SOL    HW1 1238   0.223   5.148   3.495
  113SOL    HW2 1239   0.225   5.125   3.333
  114SOL     OW 1240   0.490   6.847   6.977
  114SOL    HW1 1241   0.587   6.820   6.977
  114SOL    HW2 1242   0.483   6.946   6.991
  115SOL     OW 1243   5.285   0.967   4.901
  115SOL    HW1 1244   5.365   0.991   4.956
  115SOL    HW2 1245   5.271   1.037   4.831
  116SOL     OW 1246   6.243   4.635   2.032
  116SOL    HW1 1247   6.197   4.550   2.058
  116SOL    HW2 1248   6.341   4.620   2.025
  117SOL     OW 1249   1.411   6.908   6.870
  117SOL    HW1 1250   1.469   6.950   6.940
  117SOL    HW2 1251   1.360   6.979   6.822
  118SOL     OW 1252   1.251   0.747   2.307
  118SOL    HW1 1253   1.293   0.771   2.220
  118SOL    HW2 1254   1.151   0.748   2.296
  119SOL     OW 1255   6.904   3.195   6.563
  119SOL    HW1 1256   6.924   3.113   6.509
  119SOL    HW2 1257   6.978   3.209   6.629
  120SOL     OW 1258   5.842   6.371   0.978
  120SOL    HW1 1259   5.753   6.406   0.951
  120SOL    HW2 1260   5.908   6.389   0.904
  121SOL     OW 1261   2.574   3.185   5.872
  121SOL    HW1 1262   2.555   3.222   5.781
  121SOL    HW2 1263   2.545   3.250   5.942
  122SOL     OW 1264   0.618   3.207   4.442
  122SOL    HW1 1265   0.711   3.189   4.474
  122SOL    HW2 1266   0.605   3.306   4.431
  123SOL     OW 1267   1.035   1.704   1.353
  123SOL    HW1 1268   0.970   1.671   1.421
  123SOL    HW2 1269   1.097   1.770   1.394
  124SOL     OW 1270   4.848   3.063   1.010
  124SOL    HW1 1271   4.830   3.087   1.105
  124SOL    HW2 1272   4.927   3.113   0.976
  125SOL     OW 1273   2.122   3.492   1.729
  125SOL    HW1 1274   2.166   3.455   1.811
  125SOL    HW2 1275   2.190   3.541   1.674
  126SOL     OW 1276   3.188   4.933   1.698
  126SOL    HW1 1277   3.134   4.897   1.774
  126SOL    HW2 1278   3.130   4.992   1.641
  127SOL     OW 1279   0.499   5.961   6.285
  127SOL    HW1 1280   0.543   6.015   6.214
  127SOL    HW2 1281   0.411   5.927   6.252
  128SOL     OW 1282   4.635   2.501   1.492
  128SOL    HW1 1283   4.597   2.490   1.584
  128SOL    HW2 1284   4.561   2.499   1.425
  129SOL     OW 1285   2.791   3.853   6.366
  129SOL    HW1 1286   2.736   3.783   6.411
  129SOL    HW2 1287   2.837   3.909   6.435
  130SOL     OW 1288   1.496   2.049   4.454
  130SOL    HW1 1289   1.536   2.001   4.532
  130SOL    HW2 1290   1.410   2.003   4.427
  131SOL     OW 1291   5.166   1.652   2.868
  131SOL    HW1 1292   5.086   1.601   2.898
  131SOL    HW2 1293   5.138   1.736   2.823
  132SOL     OW 1294   0.672   2.321   0.520
  132SOL    HW1 1295   0.712   2.393   0.463
  132SOL    HW2 1296   0.572   2.330   0.518
  133SOL     OW 1297   6.428   4.996   2.501
  133SOL    HW1 1298   6.452   5.012   2.405
  133SOL    HW2 1299   6.491   5.047   2.560
  134SOL     OW 1300   0.227   3.414   2.706
  134SOL    HW1 1301   0.175   3.331   2.684
  134SOL    HW2 1302   0.220   3.432   2.805
  135SOL     OW 1303   5.036   1.399   4.179
  135SOL    HW1 1304   5.105   1.456   4.224
  135SOL    HW2 1305   4.951   1.404   4.230
  136SOL     OW 1306   5.810   4.915   5.206
  136SOL    HW1 1307   5.860   4.841   5.160
  136SOL    HW2 1308   5.804   4.894   5.304
  137SOL     OW 1309   3.976   0.260   5.826
  137SOL    HW1 1310   4.030   0.221   5.752
  137SOL    HW2 1311   3.912   0.328   5.789
  138SOL     OW 1312   6.827   5.091   4.794
  138SOL    HW1 1313   6.876   5.095   4.882
  138SOL    HW2 1314   6.887   5.122   4.721
  139SOL     OW 1315   3.559   5.331   5.279
  139SOL    HW1 1316   3.501   5.312   5.359
  139SOL    HW2 1317   3.553   5.428   5.256
  140SOL     OW 1318   6.027   4.376   4.541
  140SOL    HW1 1319   6.097   4.305   4.531
  140SOL    HW2 1320   6.047   4.430   4.623
  141SOL     OW 1321   1.629   1.999   3.872
  141SOL    HW1 1322   1.573   2.066   3.823
  141SOL    HW2 1323   1.720   1.996   3.831
  142SOL     OW 1324   1.634   5.232   1.329
  142SOL    HW1 1325   1.682   5.146   1.315
  142SOL    HW2 1326   1.662   5.273   1.415
  143SOL     OW 1327   5.582   4.051   1.858
  143SOL    HW1 1328   5.484   4.049   1.874
  143SOL    HW2 1329   5.625   4.118   1.919
  144SOL     OW 1330   2.596   6.863   6.948
  144SOL    HW1 1331   2.663   6.937   6.940
  144SOL    HW2 1332   2.574   6.849   0.015
  145SOL     OW 1333   0.070   5.595   0.804
  145SOL    HW1 1334   7.016   5.640   0.837
  145SOL    HW2 1335   0.079   5.611   0.705
  146SOL     OW 1336   5.733   5.361   0.791
  146SOL    HW1 1337   5.749   5.271   0.750
  146SOL    HW2 1338   5.809   5.384   0.852
  147SOL     OW 1339   6.292   1.970   1.095
  147SOL    HW1 1340   6.335   1.985   1.184
  147SOL    HW2 1341   6.255   1.877   1.092
  148SOL     OW 1342   1.068   5.315   5.449
  148SOL    HW1 1343   1.145   5.325   5.387
  148SOL    HW2 1344   1.096   5.261   5.529
  149SOL     OW 1345   3.173   0.942   5.284
  149SOL    HW1 1346   3.167   0.898   5.374
  149SOL    HW2 1347   3.081   0.959   5.249
  150SOL     OW 1348   0.183   5.259   6.846
  150SOL    HW1 1349   0.117   5.328   6.816
  150SOL    HW2 1350   0.144   5.207   6.922
  151SOL     OW 1351   3.909   1.496   1.522
  151SOL    HW1 1352   3.947   1.567   1.580
  151SOL    HW2 1353   3.936   1.406   1.557
  152SOL     OW 1354   3.325   1.332   4.261
  152SOL    HW1 1355   3.225   1.328   4.263
  152SOL    HW2 1356   3.358   1.298   4.172
  153SOL     OW 1357   2.441   1.395   3.225
  153SOL    HW1 1358   2.460   1.318   3.165
  153SOL    HW2 1359   2.521   1.454   3.230
  154SOL     OW 1360   0.091   2.255   2.636
  154SOL    HW1 1361   0.027   2.259   2.559
  154SOL    HW2 1362   0.138   2.167   2.635
  155SOL     OW 1363   0.272   0.912   3.277
  155SOL    HW1 1364   0.258   0.929   3.179
  155SOL    HW2 1365   0.367   0.934   3.301
  156SOL     OW 1366   6.489   2.143   1.000
  156SOL    HW1 1367   6.569   2.096   1.037
  156SOL    HW2 1368   6.408   2.116   1.052
  157SOL     OW 1369   5.818   3.602   2.493
  157SOL    HW1 1370   5.765   3.533   2.542
  157SOL    HW2 1371   5.761   3.683   2.477
  158SOL     OW 1372   1.961   0.997   3.227
  158SOL    HW1 1373   1.931   1.082   3.182
  158SOL    HW2 1374   1.939   1.000   3.324
  159SOL     OW 1375   4.919   3.611   2.126
  159SOL    HW1 1376   4.831   3.658   2.128
  159SOL    HW2 1377   4.913   3.529   2.184
  160SOL     OW 1378   6.694   4.060   6.036
  160SOL    HW1 1379   6.653   4.036   6.124
  160SOL    HW2 1380   6.760   3.989   6.009
  161SOL     OW 1381   2.842   5.076   4.925
  161SOL    HW1 1382   2.802   5.027   4.848
  161SOL    HW2 1383   2.858   5.013   5.000
  162SOL     OW 1384   4.543   5.829   1.508
  162SOL    HW1 1385   4.505   5.909   1.553
  162SOL    HW2 1386   4.486   5.805   1.429
  163SOL     OW 1387   4.261   0.881   2.264
  163SOL    HW1 1388   4.319   0.863   2.343
  163SOL    HW2 1389   4.317   0.920   2.190
  164SOL     OW 1390   5.423   3.349   0.874
  164SOL    HW1 1391   5.350   3.394   0.824
  164SOL    HW2 1392   5.395   3.332   0.968
  165SOL     OW 1393   4.858   3.786   6.575
  165SOL    HW1 1394   4.810   3.793   6.488
  165SOL    HW2 1395   4.836   3.866   6.632
  166SOL     OW 1396   0.967   0.365   2.095
  166SOL    HW1 1397   0.969   0.427   2.017
  166SOL    HW2 1398   0.913   0.284   2.071
  167SOL     OW 1399   6.496   2.997   0.316
  167SOL    HW1 1400   6.560   2.934   0.271
  167SOL    HW2 1401   6.493   2.978   0.414
  168SOL     OW 1402   2.261   5.464   0.765
  168SOL    HW1 1403   2.302   5.446   0.676
  168SOL    HW2 1404   2.220   5.555   0.764
  169SOL     OW 1405   1.856   6.332   1.766
  169SOL    HW1 1406   1.934   6.387   1.736
  169SOL    HW2 1407   1.881   6.282   1.849
  170SOL     OW 1408   0.506   1.468   3.156
  170SOL    HW1 1409   0.567   1.543   3.131
  170SOL    HW2 1410   0.412   1.493   3.134
  171SOL     OW 1411   3.551   3.496   6.905
  171SOL    HW1 1412   3.620   3.437   6.946
  171SOL    HW2 1413   3.513   3.452   6.824
  172SOL     OW 1414   0.501   2.996   6.154
  172SOL    HW1 1415   0.444   3.013   6.074
  172SOL    HW2 1416   0.597   3.012   6.130
  173SOL     OW 1417   0.491   6.053   5.677
  173SOL    HW1 1418   0.590   6.066   5.677
  173SOL    HW2 1419   0.449   6.119   5.739
  174SOL     OW 1420   2.927   5.208   3.787
  174SOL    HW1 1421   2.837   5.243   3.812
  174SOL    HW2 1422   2.995   5.280   3.795
  175SOL     OW 1423   0.956   5.678   2.939
  175SOL    HW1 1424   0.983   5.604   2.878
  175SOL    HW2 1425   1.035   5.706   2.995
  176SOL     OW 1426   2.321   4.966   0.959
  176SOL    HW1 1427   2.314   5.058   0.922
  176SOL    HW2 1428   2.336   4.901   0.884
  177SOL     OW 1429   4.788   2.073   2.579
  177SOL    HW1 1430   4.830   2.017   2.650
  177SOL    HW2 1431   4.689   2.056   2.577
  178SOL     OW 1432   5.458   5.216   6.184
  178SOL    HW1 1433   5.484   5.145   6.119
  178SOL    HW2 1434   5.440   5.175   6.273
  179SOL     OW 1435   2.848   0.286   0.807
  179SOL    HW1 1436   2.786   0.352   0.765
  179SOL    HW2 1437   2.795   0.212   0.848
  180SOL     OW 1438   0.558   2.442   6.697
  180SOL    HW1 1439   0.642   2.457   6.749
  180SOL    HW2 1440   0.491   2.395   6.755
  181SOL     OW 1441   3.292   3.033   5.541
  181SOL    HW1 1442   3.293   3.064   5.636
  181SOL    HW2 1443   3.273   3.111   5.481
  182SOL     OW 1444   4.350   2.273   4.920
  182SOL    HW1 1445   4.313   2.187   4.954
  182SOL    HW2 1446   4.286   2.347   4.938
  183SOL     OW 1447   5.064   1.570   2.024
  183SOL    HW1 1448   5.079   1.481   2.067
  183SOL    HW2 1449   5.132   1.584   1.952
  184SOL     OW 1450   0.534   4.735   3.101
  184SOL    HW1 1451   0.513   4.830   3.077
  184SOL    HW2 1452   0.475   4.674   3.048
  185SOL     OW 1453   2.019   4.170   6.453
  185SOL    HW1 1454   2.102   4.116   6.462
  185SOL    HW2 1455   1.969   4.142   6.371
  186SOL     OW 1456   5.647   6.923   3.012
  186SOL    HW1 1457   5.557   6.919   2.969
  186SOL    HW2 1458   5.671   6.833   3.047
  187SOL     OW 1459   5.622   0.920   3.869
  187SOL    HW1 1460   5.566   0.956   3.795
  187SOL    HW2 1461   5.647   0.994   3.932
  188SOL     OW 1462   6.575   2.131   3.790
  188SOL    HW1 1463   6.522   2.061   3.742
  188SOL    HW2 1464   6.653   2.088   3.835
  189SOL     OW 1465   2.420   4.355   2.736
  189SOL    HW1 1466   2.430   4.394   2.644
  189SOL    HW2 1467   2.378   4.264   2.729
  190SOL     OW 1468   3.560   1.104   5.762
  190SOL    HW1 1469   3.620   1.131   5.687
  190SOL    HW2 1470   3.465   1.109   5.731
  191SOL     OW 1471   4.921   6.083   6.004
  191SOL    HW1 1472   4.994   6.015   6.007
  191SOL    HW2 1473   4.833   6.036   5.990
  192SOL     OW 1474   6.770   0.606   1.487
  192SOL    HW1 1475   6.846   0.661   1.520
  192SOL    HW2 1476   6.803   0.518   1.454
  193SOL     OW 1477   5.499   4.214   6.854
  193SOL    HW1 1478   5.592   4.179   6.857
  193SOL    HW2 1479   5.435   4.140   6.876
  194SOL     OW 1480   3.862   0.450   4.030
  194SOL    HW1 1481   3.772   0.490   4.011
  194SOL    HW2 1482   3.886   0.386   3.957
  195SOL     OW 1483   0.297   5.534   3.496
  195SOL    HW1 1484   0.239   5.591   3.437
  195SOL    HW2 1485   0.391   5.536   3.462
  196SOL     OW 1486   0.853   1.664   0.239
  196SOL    HW1 1487   0.890   1.757   0.244
  196SOL    HW2 1488   0.775   1.662   0.178
  197SOL     OW 1489   1.582   0.925   0.768
  197SOL    HW1 1490   1.516   0.862   0.807
  197SOL    HW2 1491   1.633   0.971   0.841
  198SOL     OW 1492   3.280   2.033   3.898
  198SOL    HW1 1493   3.341   2.021   3.820
  198SOL    HW2 1494   3.246   1.943   3.926
  199SOL     OW 1495   1.203   2.489   4.063
  199SOL    HW1 1496   1.151   2.574   4.062
  199SOL    HW2 1497   1.246   2.475   3.974
  200SOL     OW 1498   6.835   2.669   0.047
  200SOL    HW1 1499   6.885   2.587   0.020
  200SOL    HW2 1500   6.786   2.706   6.998
  201SOL     OW 1501   0.950   1.071   6.551
  201SOL    HW1 1502   0.986   1.150   6.602
  201SOL    HW2 1503   0.856   1.053   6.579
  202SOL     OW 1504   4.566   6.765   0.317
  202SOL    HW1 1505   4.632   6.825   0.362
  202SOL    HW2 1506   4.564   6.676   0.363
  203SOL     OW 1507   6.062   3.047   5.994
  203SOL    HW1 1508   6.120   3.020   5.917
  203SOL    HW2 1509   6.007   3.126   5.968
  204SOL     OW 1510   6.372   1.450   5.719
  204SOL    HW1 1511   6.455   1.402   5.746
  204SOL    HW2 1512   6.394   1.522   5.654
  205SOL     OW 1513   1.168   3.079   2.746
  205SOL    HW1 1514   1.212   3.011   2.804
  205SOL    HW2 1515   1.091   3.037   2.697
  206SOL     OW 1516   0.581   3.636   0.386
  206SOL    HW1 1517   0.631   3.550   0.375
  206SOL    HW2 1518   0.605   3.677   0.474
  207SOL     OW 1519   5.764   2.406   4.499
  207SOL    HW1 1520   5.734   2.403   4.594
  207SOL    HW2 1521   5.729   2.489   4.456
  208SOL     OW 1522   1.624   4.231   4.521
  208SOL    HW1 1523   1.570   4.282   4.454
  208SOL    HW2 1524   1.618   4.133   4.502
  209SOL     OW 1525   6.560   4.338   2.584
  209SOL    HW1 1526   6.467   4.356   2.555
  209SOL    HW2 1527   6.559   4.291   2.672
  210SOL     OW 1528   4.687   2.933   0.362
  210SOL    HW1 1529   4.785   2.944   0.379
  210SOL    HW2 1530   4.639   2.927   0.449
  211SOL     OW 1531   0.019   1.655   2.941
  211SOL    HW1 1532   6.984   1.580   2.922
  211SOL    HW2 1533   7.002   1.742   2.926
  212SOL     OW 1534   2.107   3.547   2.547
  212SOL    HW1 1535   2.145   3.529   2.457
  212SOL    HW2 1536   2.125   3.468   2.607
  213SOL     OW 1537   1.529   5.763   1.284
  213SOL    HW1 1538   1.505   5.697   1.214
  213SOL    HW2 1539   1.455   5.769   1.351
  214SOL     OW 1540   5.173   6.143   1.754
  214SOL    HW1 1541   5.225   6.157   1.670
  214SOL    HW2 1542   5.136   6.050   1.756
  215SOL     OW 1543   2.722   5.155   3.331
  215SOL    HW1 1544   2.675   5.067   3.331
  215SOL    HW2 1545   2.722   5.194   3.239
  216SOL     OW 1546   0.592   6.682   2.577
  216SOL    HW1 1547   0.624   6.664   2.670
  216SOL    HW2 1548   0.513   6.744   2.580
  217SOL     OW 1549   1.701   4.547   5.991
  217SOL    HW1 1550   1.777   4.610   6.002
  217SOL    HW2 1551   1.735   4.458   5.959
  218SOL     OW 1552   1.638   1.683   5.133
  218SOL    HW1 1553   1.655   1.666   5.230
  218SOL    HW2 1554   1.589   1.770   5.122
  219SOL     OW 1555   4.294   1.828   0.835
  219SOL    HW1 1556   4.301   1.737   0.877
  219SOL    HW2 1557   4.377   1.846   0.782
  220SOL     OW 1558   2.889   0.148   0.537
  220SOL    HW1 1559   2.908   0.185   0.628
  220SOL    HW2 1560   2.838   0.216   0.484
  221SOL     OW 1561   4.904   5.235   2.403
  221SOL    HW1 1562   4.848   5.317   2.414
  221SOL    HW2 1563   4.845   5.154   2.404
  222SOL     OW 1564   2.212   5.140   6.519
  222SOL    HW1 1565   2.217   5.076   6.596
  222SOL    HW2 1566   2.160   5.221   6.546
  223SOL     OW 1567   5.956   2.974   4.991
  223SOL    HW1 1568   5.941   2.880   4.961
  223SOL    HW2 1569   6.019   3.020   4.928
  224SOL     OW 1570   2.432   1.178   6.356
  224SOL    HW1 1571   2.386   1.197   6.270
  224SOL    HW2 1572   2.527   1.151   6.338
  225SOL     OW 1573   4.187   6.137   5.589
  225SOL    HW1 1574   4.270   6.140   5.534
  225SOL    HW2 1575   4.125   6.210   5.560
  226SOL     OW 1576   0.762   2.545   6.848
  226SOL    HW1 1577   0.827   2.501   6.910
  226SOL    HW2 1578   0.812   2.591   6.775
  227SOL     OW 1579   1.473   3.851   1.225
  227SOL    HW1 1580   1.522   3.772   1.188
  227SOL    HW2 1581   1.375   3.833   1.222
  228SOL     OW 1582   1.453   0.111   2.300
  228SOL    HW1 1583   1.415   0.198   2.269
  228SOL    HW2 1584   1.533   0.128   2.358
  229SOL     OW 1585   4.202   6.143   5.862
  229SOL    HW1 1586   4.253   6.224   5.894
  229SOL    HW2 1587   4.202   6.142   5.762
  230SOL     OW 1588   5.141   6.124   5.102
  230SOL    HW1 1589   5.106   6.031   5.113
  230SOL    HW2 1590   5.230   6.121   5.056
  231SOL     OW 1591   5.154   1.808   6.615
  231SOL    HW1 1592   5.076   1.745   6.614
  231SOL    HW2 1593   5.233   1.762   6.657
  232SOL     OW 1594   1.416   2.146   5.822
  232SOL    HW1 1595   1.470   2.195   5.753
  232SOL    HW2 1596   1.453   2.165   5.913
  233SOL     OW 1597   3.075   1.777   3.035
  233SOL    HW1 1598   3.029   1.832   2.965
  233SOL    HW2 1599   3.105   1.691   2.995
  234SOL     OW 1600   4.513   1.178   0.424
  234SOL    HW1 1601   4.563   1.094   0.403
  234SOL    HW2 1602   4.576   1.255   0.422
  235SOL     OW 1603   4.875   2.962   3.477
  235SOL    HW1 1604   4.975   2.961   3.479
  235SOL    HW2 1605   4.843   2.904   3.402
  236SOL     OW 1606   4.549   5.120   6.074
  236SOL    HW1 1607   4.624   5.168   6.028
  236SOL    HW2 1608   4.462   5.160   6.047
  237SOL     OW 1609   6.370   3.291   2.933
  237SOL    HW1 1610   6.276   3.282   2.899
  237SOL    HW2 1611   6.401   3.203   2.969
  238SOL     OW 1612   6.570   1.734   0.851
  238SOL    HW1 1613   6.478   1.722   0.889
  238SOL    HW2 1614   6.574   1.818   0.798
  239SOL     OW 1615   1.463   3.491   0.505
  239SOL    HW1 1616   1.434   3.401   0.474
  239SOL    HW2 1617   1.514   3.482   0.590
  240SOL     OW 1618   5.258   3.231   3.300
  240SOL    HW1 1619   5.331   3.260   3.239
  240SOL    HW2 1620   5.244   3.299   3.371
  241SOL     OW 1621   3.196   1.805   4.043
  241SOL    HW1 1622   3.217   1.778   4.137
  241SOL    HW2 1623   3.248   1.747   3.980
  242SOL     OW 1624   3.424   3.525   2.923
  242SOL    HW1 1625   3.358   3.590   2.885
  242SOL    HW2 1626   3.517   3.555   2.901
  243SOL     OW 1627   4.273   2.563   6.011
  243SOL    HW1 1628   4.234   2.541   5.921
  243SOL    HW2 1629   4.316   2.653   6.007
  244SOL     OW 1630   4.860   3.447   5.258
  244SOL    HW1 1631   4.942   3.497   5.287
  244SOL    HW2 1632   4.794   3.512   5.220
  245SOL     OW 1633   3.550   1.394   2.972
  245SOL    HW1 1634   3.472   1.340   3.001
  245SOL    HW2 1635   3.539   1.419   2.875
  246SOL     OW 1636   6.510   1.337   2.098
  246SOL    HW1 1637   6.544   1.293   2.015
  246SOL    HW2 1638   6.556   1.298   2.178
  247SOL     OW 1639   1.874   1.029   1.371
  247SOL    HW1 1640   1.791   1.001   1.420
  247SOL    HW2 1641   1.948   1.042   1.437
  248SOL     OW 1642   1.768   2.302   2.141
  248SOL    HW1 1643   1.826   2.322   2.061
  248SOL    HW2 1644   1.807   2.346   2.222
  249SOL     OW 1645   5.264   5.954   4.828
  249SOL    HW1 1646   5.307   6.007   4.902
  249SOL    HW2 1647   5.172   5.988   4.812
  250SOL     OW 1648   4.435   2.869   0.953
  250SOL    HW1 1649   4.438   2.906   1.046
  250SOL    HW2 1650   4.496   2.922   0.894
  251SOL     OW 1651   3.896   4.156   5.677
  251SOL    HW1 1652   3.974   4.210   5.644
  251SOL    HW2 1653   3.838   4.130   5.600
  252SOL     OW 1654   6.331   6.199   5.656
  252SOL    HW1 1655   6.429   6.188   5.640
  252SOL    HW2 1656   6.283   6.116   5.629
  253SOL     OW 1657   3.656   6.276   6.237
  253SOL    HW1 1658   3.614   6.244   6.322
  253SOL    HW2 1659   3.642   6.208   6.165
  254SOL     OW 1660   5.743   2.740   5.034
  254SOL    HW1 1661   5.750   2.801   4.955
  254SOL    HW2 1662   5.722   2.795   5.115
  255SOL     OW 1663   1.821   4.144   6.266
  255SOL    HW1 1664   1.780   4.060   6.301
  255SOL    HW2 1665   1.761   4.183   6.196
  256SOL     OW 1666   4.946   2.694   4.965
  256SOL    HW1 1667   5.015   2.680   5.035
  256SOL    HW2 1668   4.915   2.605   4.930
  257SOL     OW 1669   4.676   6.907   2.649
  257SOL    HW1 1670   4.621   6.863   2.720
  257SOL    HW2 1671   4.616   6.945   2.579
  258SOL     OW 1672   1.788   3.140   5.726
  258SOL    HW1 1673   1.746   3.082   5.656
  258SOL    HW2 1674   1.822   3.082   5.801
  259SOL     OW 1675   3.797   0.070   3.934
  259SOL    HW1 1676   3.771   0.095   4.027
  259SOL    HW2 1677   3.870   0.001   3.937
  260SOL     OW 1678   3.744   5.436   3.897
  260SOL    HW1 1679   3.709   5.358   3.846
  260SOL    HW2 1680   3.762   5.512   3.834
  261SOL     OW 1681   4.151   5.043   0.108
  261SOL    HW1 1682   4.143   5.112   0.037
  261SOL    HW2 1683   4.236   4.992   0.096
  262SOL     OW 1684   1.840   3.738   6.464
  262SOL    HW1 1685   1.827   3.656   6.520
  262SOL    HW2 1686   1.799   3.817   6.510
  263SOL     OW 1687   1.057   6.072   3.926
  263SOL    HW1 1688   1.112   6.065   3.843
  263SOL    HW2 1689   1.025   5.981   3.952
  264SOL     OW 1690   0.024   3.516   6.816
  264SOL    HW1 1691   0.009   3.557   6.905
  264SOL    HW2 1692   0.041   3.587   6.748
  265SOL     OW 1693   6.481   6.892   4.489
  265SOL    HW1 1694   6.579   6.912   4.485
  265SOL    HW2 1695   6.467   6.794   4.499
  266SOL     OW 1696   3.442   0.523   5.882
  266SOL    HW1 1697   3.474   0.514   5.976
  266SOL    HW2 1698   3.409   0.616   5.866
  267SOL     OW 1699   1.478   0.762   4.180
  267SOL    HW1 1700   1.528   0.755   4.094
  267SOL    HW2 1701   1.528   0.714   4.252
  268SOL     OW 1702   3.435   1.179   1.327
  268SOL    HW1 1703   3.510   1.202   1.265
  268SOL    HW2 1704   3.455   1.091   1.371
  269SOL     OW 1705   4.258   1.893   0.171
  269SOL    HW1 1706   4.262   1.988   0.202
  269SOL    HW2 1707   4.342   1.870   0.122
  270SOL     OW 1708   5.949   0.015   0.445
  270SOL    HW1 1709   5.996   6.958   0.426
  270SOL    HW2 1710   5.981   0.086   0.383
  271SOL     OW 1711   1.263   2.960   6.180
  271SOL    HW1 1712   1.291   2.864   6.190
  271SOL    HW2 1713   1.333   3.019   6.219
  272SOL     OW 1714   2.826   6.676   3.912
  272SOL    HW1 1715   2.740   6.712   3.876
  272SOL    HW2 1716   2.808   6.611   3.985
  273SOL     OW 1717   1.610   4.732   6.305
  273SOL    HW1 1718   1.528   4.748   6.250
  273SOL    HW2 1719   1.587   4.738   6.402
  274SOL     OW 1720   4.679   1.927   3.970
  274SOL    HW1 1721   4.737   1.892   3.896
  274SOL    HW2 1722   4.618   1.855   4.001
  275SOL     OW 1723   6.461   6.504   2.225
  275SOL    HW1 1724   6.380   6.531   2.277
  275SOL    HW2 1725   6.458   6.405   2.207
  276SOL     OW 1726   0.628   1.207   4.709
  276SOL    HW1 1727   0.628   1.289   4.766
  276SOL    HW2 1728   0.707   1.150   4.731
  277SOL     OW 1729   1.988   3.779   1.021
  277SOL    HW1 1730   2.015   3.873   1.039
  277SOL    HW2 1731   2.070   3.722   1.017
  278SOL     OW 1732   0.563   2.654   1.921
  278SOL    HW1 1733   0.507   2.571   1.925
  278SOL    HW2 1734   0.505   2.732   1.901
  279SOL     OW 1735   6.114   2.048   4.300
  279SOL    HW1 1736   6.212   2.068   4.309
  279SOL    HW2 1737   6.077   2.097   4.221
  280SOL     OW 1738   1.579   4.401   1.952
  280SOL    HW1 1739   1.572   4.347   1.868
  280SOL    HW2 1740   1.667   4.384   1.996
  281SOL     OW 1741   2.562   4.509   1.138
  281SOL    HW1 1742   2.637   4.574   1.136
  281SOL    HW2 1743   2.503   4.527   1.217
  282SOL     OW 1744   3.012   2.598   6.096
  282SOL    HW1 1745   2.952   2.673   6.124
  282SOL    HW2 1746   3.010   2.589   5.996
  283SOL     OW 1747   4.390   2.826   5.992
  283SOL    HW1 1748   4.395   2.904   6.055
  283SOL    HW2 1749   4.454   2.840   5.917
  284SOL     OW 1750   1.003   3.299   4.152
  284SOL    HW1 1751   0.999   3.374   4.219
  284SOL    HW2 1752   1.081   3.241   4.172
  285SOL     OW 1753   5.418   4.560   4.287
  285SOL    HW1 1754   5.433   4.485   4.223
  285SOL    HW2 1755   5.487   4.632   4.270
  286SOL     OW 1756   2.853   3.485   6.482
  286SOL    HW1 1757   2.867   3.461   6.578
  286SOL    HW2 1758   2.890   3.413   6.424
  287SOL     OW 1759   1.708   3.357   7.024
  287SOL    HW1 1760   1.639   3.429   7.014
  287SOL    HW2 1761   1.798   3.393   6.997
  288SOL     OW 1762   4.953   3.136   0.172
  288SOL    HW1 1763   5.032   3.155   0.114
  288SOL    HW2 1764   4.873   3.119   0.115
  289SOL     OW 1765   3.092   4.814   6.390
  289SOL    HW1 1766   3.000   4.788   6.361
  289SOL    HW2 1767   3.158   4.750   6.351
  290SOL     OW 1768   0.513   1.771   5.196
  290SOL    HW1 1769   0.444   1.732   5.135
  290SOL    HW2 1770   0.604   1.746   5.162
  291SOL     OW 1771   0.291   2.542   2.752
  291SOL    HW1 1772   0.376   2.489   2.746
  291SOL    HW2 1773   0.266   2.575   2.661
  292SOL     OW 1774   2.239   0.054   4.119
  292SOL    HW1 1775   2.231   0.137   4.175
  292SOL    HW2 1776   2.189   7.008   4.164
  293SOL     OW 1777   3.683   4.921   3.561
  293SOL    HW1 1778   3.778   4.913   3.531
  293SOL    HW2 1779   3.629   4.963   3.489
  294SOL     OW 1780   4.644   6.979   6.738
  294SOL    HW1 1781   4.551   6.942   6.744
  294SOL    HW2 1782   4.657   7.021   6.648
  295SOL     OW 1783   5.212   6.950   3.685
  295SOL    HW1 1784   5.189   0.018   3.696
  295SOL    HW2 1785   5.285   6.926   3.750
  296SOL     OW 1786   2.403   1.445   3.549
  296SOL    HW1 1787   2.397   1.540   3.582
  296SOL    HW2 1788   2.413   1.446   3.450
  297SOL     OW 1789   2.177   4.567   3.185
  297SOL    HW1 1790   2.240   4.568   3.107
  297SOL    HW2 1791   2.137   4.658   3.196
  298SOL     OW 1792   5.825   5.119   0.691
  298SOL    HW1 1793   5.906   5.144   0.637
  298SOL    HW2 1794   5.829   5.021   0.713
  299SOL     OW 1795   6.584   2.475   4.394
  299SOL    HW1 1796   6.614   2.384   4.424
  299SOL    HW2 1797   6.519   2.465   4.319
  300SOL     OW 1798   6.171   0.155   2.364
  300SOL    HW1 1799   6.187   0.113   2.454
  300SOL    HW2 1800   6.131   0.088   2.302
  301SOL     OW 1801   5.238   3.776   5.981
  301SOL    HW1 1802   5.243   3.875   5.975
  301SOL    HW2 1803   5.143   3.747   5.969
  302SOL     OW 1804   1.202   7.009   3.576
  302SOL    HW1 1805   1.270   6.992   3.506
  302SOL    HW2 1806   1.207   0.076   3.605
  303SOL     OW 1807   6.000   6.702   3.144
  303SOL    HW1 1808   5.945   6.678   3.064
  303SOL    HW2 1809   5.947   6.764   3.202
  304SOL     OW 1810   2.953   0.173   3.182
  304SOL    HW1 1811   3.047   0.200   3.160
  304SOL    HW2 1812   2.937   0.080   3.149
  305SOL     OW 1813   1.316   3.948   1.748
  305SOL    HW1 1814   1.398   3.979   1.797
  305SOL    HW2 1815   1.288   3.859   1.784
  306SOL     OW 1816   2.623   0.478   3.489
  306SOL    HW1 1817   2.672   0.516   3.567
  306SOL    HW2 1818   2.525   0.474   3.509
  307SOL     OW 1819   3.458   0.225   1.099
  307SOL    HW1 1820   3.400   0.287   1.046
  307SOL    HW2 1821   3.463   0.256   1.194
  308SOL     OW 1822   0.772   4.985   4.622
  308SOL    HW1 1823   0.773   4.975   4.523
  308SOL    HW2 1824   0.765   5.082   4.646
  309SOL     OW 1825   4.071   5.420   5.226
  309SOL    HW1 1826   4.167   5.400   5.247
  309SOL    HW2 1827   4.062   5.518   5.207
  310SOL     OW 1828   0.732   6.750   6.022
  310SOL    HW1 1829   0.812   6.811   6.017
  310SOL    HW2 1830   0.686   6.763   6.109
  311SOL     OW 1831   0.476   0.231   1.752
  311SOL    HW1 1832   0.533   0.149   1.762
  311SOL    HW2 1833   0.380   0.205   1.755
  312SOL     OW 1834   3.830   1.821   4.525
  312SOL    HW1 1835   3.772   1.901   4.509
  312SOL    HW2 1836   3.876   1.796   4.439
  313SOL     OW 1837   0.331   4.986   1.559
  313SOL    HW1 1838   0.324   4.928   1.478
  313SOL    HW2 1839   0.240   5.014   1.588
  314SOL     OW 1840   3.168   6.386   1.382
  314SOL    HW1 1841   3.203   6.315   1.443
  314SOL    HW2 1842   3.070   6.374   1.371
  315SOL     OW 1843   1.002   3.019   3.151
  315SOL    HW1 1844   0.932   2.962   3.109
  315SOL    HW2 1845   1.004   3.003   3.250
  316SOL     OW 1846   2.075   2.815   4.292
  316SOL    HW1 1847   2.038   2.729   4.328
  316SOL    HW2 1848   2.133   2.857   4.362
  317SOL     OW 1849   6.559   1.596   0.021
  317SOL    HW1 1850   6.479   1.625   0.074
  317SOL    HW2 1851   6.548   1.500   7.025
  318SOL     OW 1852   2.207   5.291   1.182
  318SOL    HW1 1853   2.191   5.202   1.225
  318SOL    HW2 1854   2.169   5.363   1.239
  319SOL     OW 1855   1.368   0.214   0.312
  319SOL    HW1 1856   1.440   0.270   0.271
  319SOL    HW2 1857   1.288   0.214   0.252
  320SOL     OW 1858   5.058   4.072   0.691
  320SOL    HW1 1859   4.973   4.122   0.673
  320SOL    HW2 1860   5.048   3.977   0.659
  321SOL     OW 1861   1.952   1.449   1.072
  321SOL    HW1 1862   2.009   1.400   1.006
  321SOL    HW2 1863   1.926   1.386   1.146
  322SOL     OW 1864   3.447   2.862   4.901
  322SOL    HW1 1865   3.387   2.932   4.863
  322SOL    HW2 1866   3.461   2.790   4.833
  323SOL     OW 1867   0.611   3.999   2.081
  323SOL    HW1 1868   0.628   3.958   2.171
  323SOL    HW2 1869   0.518   4.036   2.079
  324SOL     OW 1870   0.584   3.051   4.210
  324SOL    HW1 1871   0.596   3.117   4.285
  324SOL    HW2 1872   0.672   3.037   4.165
  325SOL     OW 1873   2.511   2.482   3.030
  325SOL    HW1 1874   2.455   2.435   3.098
  325SOL    HW2 1875   2.542   2.415   2.961
  326SOL     OW 1876   2.626   4.393   5.767
  326SOL    HW1 1877   2.710   4.447   5.763
  326SOL    HW2 1878   2.563   4.435   5.833
  327SOL     OW 1879   6.512   5.268   5.589
  327SOL    HW1 1880   6.415   5.263   5.565
  327SOL    HW2 1881   6.554   5.179   5.576
  328SOL     OW 1882   2.872   5.767   1.999
  328SOL    HW1 1883   2.940   5.719   2.054
  328SOL    HW2 1884   2.782   5.725   2.011
  329SOL     OW 1885   3.476   3.197   2.248
  329SOL    HW1 1886   3.501   3.101   2.238
  329SOL    HW2 1887   3.516   3.234   2.331
  330SOL     OW 1888   3.735   1.249   1.992
  330SOL    HW1 1889   3.779   1.326   2.039
  330SOL    HW2 1890   3.712   1.276   1.899
  331SOL     OW 1891   5.676   5.085   6.037
  331SOL    HW1 1892   5.656   5.138   5.955
  331SOL    HW2 1893   5.742   5.135   6.094
  332SOL     OW 1894   4.165   1.886   3.350
  332SOL    HW1 1895   4.131   1.793   3.345
  332SOL    HW2 1896   4.258   1.890   3.314
  333SOL     OW 1897   3.880   6.276   0.108
  333SOL    HW1 1898   3.872   6.189   0.157
  333SOL    HW2 1899   3.975   6.307   0.109
  334SOL     OW 1900   4.558   6.512   2.662
  334SOL    HW1 1901   4.640   6.469   2.623
  334SOL    HW2 1902   4.504   6.554   2.589
  335SOL     OW 1903   3.265   6.787   3.349
  335SOL    HW1 1904   3.238   6.825   3.437
  335SOL    HW2 1905   3.220   6.698   3.336
  336SOL     OW 1906   2.949   0.314   5.081
  336SOL    HW1 1907   2.884   0.361   5.022
  336SOL    HW2 1908   3.042   0.334   5.050
  337SOL     OW 1909   0.316   4.166   1.246
  337SOL    HW1 1910   0.339   4.263   1.256
  337SOL    HW2 1911   0.357   4.130   1.163
  338SOL     OW 1912   3.200   2.357   1.751
  338SOL    HW1 1913   3.101   2.363   1.753
  338SOL    HW2 1914   3.239   2.449   1.760
  339SOL     OW 1915   4.300   0.342   3.035
  339SOL    HW1 1916   4.328   0.265   2.976
  339SOL    HW2 1917   4.373   0.409   3.038
  340SOL     OW 1918   4.959   3.752   4.323
  340SOL    HW1 1919   4.949   3.653   4.315
  340SOL    HW2 1920   5.011   3.787   4.245
  341SOL     OW 1921   5.271   4.931   5.197
  341SOL    HW1 1922   5.353   4.979   5.166
  341SOL    HW2 1923   5.239   4.868   5.126
  342SOL     OW 1924   5.419   3.505   0.285
  342SOL    HW1 1925   5.504   3.509   0.231
  342SOL    HW2 1926   5.440   3.521   0.381
  343SOL     OW 1927   2.626   0.700   3.325
  343SOL    HW1 1928   2.568   0.702   3.243
  343SOL    HW2 1929   2.603   0.620   3.380
  344SOL     OW 1930   3.738   5.017   0.340
  344SOL    HW1 1931   3.650   5.013   0.387
  344SOL    HW2 1932   3.724   5.007   0.242
  345SOL     OW 1933   0.826   6.619   5.674
  345SOL    HW1 1934   0.845   6.534   5.724
  345SOL    HW2 1935   0.840   6.697   5.735
  346SOL     OW 1936   2.669   0.305   4.029
  346SOL    HW1 1937   2.590   0.245   4.015
  346SOL    HW2 1938   2.712   0.325   3.942
  347SOL     OW 1939   4.933   6.333   5.891
  347SOL    HW1 1940   4.944   6.242   5.931
  347SOL    HW2 1941   4.865   6.330   5.818
  348SOL     OW 1942   3.085   5.724   2.426
  348SOL    HW1 1943   2.994   5.730   2.467
  348SOL    HW2 1944   3.133   5.644   2.464
  349SOL     OW 1945   2.213   4.732   1.794
  349SOL    HW1 1946   2.262   4.645   1.798
  349SOL    HW2 1947   2.165   4.748   1.880
  350SOL     OW 1948   4.528   3.001   1.189
  350SOL    HW1 1949   4.446   3.013   1.245
  350SOL    HW2 1950   4.556   3.089   1.152
  351SOL     OW 1951   3.321   1.816   0.311
  351SOL    HW1 1952   3.261   1.743   0.279
  351SOL    HW2 1953   3.274   1.868   0.382
  352SOL     OW 1954   3.922   1.349   6.450
  352SOL    HW1 1955   3.980   1.430   6.453
  352SOL    HW2 1956   3.853   1.359   6.379
  353SOL     OW 1957   1.941   0.214   1.271
  353SOL    HW1 1958   2.025   0.258   1.238
  353SOL    HW2 1959   1.900   0.161   1.197
  354SOL     OW 1960   4.784   1.540   2.004
  354SOL    HW1 1961   4.733   1.626   1.999
  354SOL    HW2 1962   4.880   1.558   1.981
  355SOL     OW 1963   1.813   1.621   2.118
  355SOL    HW1 1964   1.899   1.572   2.131
  355SOL    HW2 1965   1.800   1.687   2.192
  356SOL     OW 1966   3.722   5.994   2.847
  356SOL    HW1 1967   3.722   6.000   2.747
  356SOL    HW2 1968   3.779   6.067   2.885
  357SOL     OW 1969   1.909   4.510   5.648
  357SOL    HW1 1970   1.992   4.526   5.595
  357SOL    HW2 1971   1.846   4.588   5.636
  358SOL     OW 1972   5.102   1.731   2.237
  358SOL    HW1 1973   5.091   1.797   2.162
  358SOL    HW2 1974   5.151   1.651   2.204
  359SOL     OW 1975   1.400   2.057   1.413
  359SOL    HW1 1976   1.428   1.999   1.336
  359SOL    HW2 1977   1.457   2.037   1.492
  360SOL     OW 1978   4.364   6.426   1.154
  360SOL    HW1 1979   4.338   6.419   1.250
  360SOL    HW2 1980   4.340   6.517   1.119
  361SOL     OW 1981   3.891   0.568   3.311
  361SOL    HW1 1982   3.937   0.525   3.388
  361SOL    HW2 1983   3.959   0.596   3.243
  362SOL     OW 1984   3.043   3.897   0.772
  362SOL    HW1 1985   3.072   3.988   0.741
  362SOL    HW2 1986   3.060   3.830   0.700
  363SOL     OW 1987   4.255   4.636   3.988
  363SOL    HW1 1988   4.270   4.650   4.086
  363SOL    HW2 1989   4.161   4.661   3.965
  364SOL     OW 1990   1.816   6.399   5.894
  364SOL    HW1 1991   1.730   6.443   5.920
  364SOL    HW2 1992   1.805   6.299   5.897
  365SOL     OW 1993   4.873   6.410   2.719
  365SOL    HW1 1994   4.835   6.326   2.681
  365SOL    HW2 1995   4.856   6.413   2.818
  366SOL     OW 1996   5.032   6.688   0.696
  366SOL    HW1 1997   5.125   6.716   0.718
  366SOL    HW2 1998   4.985   6.657   0.779
  367SOL     OW 1999   4.972   1.939   1.450
  367SOL    HW1 2000   5.014   1.849   1.454
  367SOL    HW2 2001   5.040   2.006   1.420
  368SOL     OW 2002   1.597   5.107   5.705
  368SOL    HW1 2003   1.595   5.087   5.607
  368SOL    HW2 2004   1.525   5.172   5.728
  369SOL     OW 2005   0.766   3.517   1.243
  369SOL    HW1 2006   0.731   3.599   1.288
  369SOL    HW2 2007   0.750   3.437   1.302
  370SOL     OW 2008   3.453   1.142   6.197
  370SOL    HW1 2009   3.522   1.122   6.127
  370SOL    HW2 2010   3.490   1.209   6.262
  371SOL     OW 2011   4.100   2.911   6.091
  371SOL    HW1 2012   4.129   2.821   6.058
  371SOL    HW2 2013   4.176   2.975   6.083
  372SOL     OW 2014   1.559   5.292   6.912
  372SOL    HW1 2015   1.472   5.245   6.930
  372SOL    HW2 2016   1.582   5.282   6.815
  373SOL     OW 2017   6.842   6.732   0.846
  373SOL    HW1 2018   6.853   6.681   0.932
  373SOL    HW2 2019   6.902   6.692   0.777
  374SOL     OW 2020   3.835   1.128   0.955
  374SOL    HW1 2021   3.790   1.061   0.895
  374SOL    HW2 2022   3.915   1.166   0.908
  375SOL     OW 2023   6.591   4.165   1.712
  375SOL    HW1 2024   6.528   4.104   1.663
  375SOL    HW2 2025   6.540   4.245   1.746
  376SOL     OW 2026   2.035   3.170   4.431
  376SOL    HW1 2027   2.090   3.092   4.461
  376SOL    HW2 2028   1.950   3.173   4.484
  377SOL     OW 2029   4.902   1.617   4.527
  377SOL    HW1 2030   4.879   1.609   4.624
  377SOL    HW2 2031   4.829   1.665   4.479
  378SOL     OW 2032   4.550   2.644   4.123
  378SOL    HW1 2033   4.505   2.612   4.206
  378SOL    HW2 2034   4.484   2.644   4.048
  379SOL     OW 2035   0.056   3.119   1.411
  379SOL    HW1 2036   0.131   3.159   1.358
  379SOL    HW2 2037   0.021   3.187   1.476
  380SOL     OW 2038   1.430   2.089   0.122
  380SOL    HW1 2039   1.462   2.179   0.152
  380SOL    HW2 2040   1.499   2.020   0.145
  381SOL     OW 2041   3.428   4.025   0.200
  381SOL    HW1 2042   3.428   4.120   0.168
  381SOL    HW2 2043   3.522   3.991   0.201
  382SOL     OW 2044   1.746   5.248   1.014
  382SOL    HW1 2045   1.783   5.195   1.090
  382SOL    HW2 2046   1.661   5.207   0.982
  383SOL     OW 2047   6.345   2.344   0.025
  383SOL    HW1 2048   6.431   2.377   7.014
  383SOL    HW2 2049   6.351   2.350   0.125
  384SOL     OW 2050   2.029   5.309   5.152
  384SOL    HW1 2051   1.989   5.312   5.061
  384SOL    HW2 2052   1.991   5.382   5.208
  385SOL     OW 2053   4.975   5.338   1.466
  385SOL    HW1 2054   4.959   5.281   1.385
  385SOL    HW2 2055   4.959   5.434   1.442
  386SOL     OW 2056   2.832   6.690   4.951
  386SOL    HW1 2057   2.851   6.651   5.042
  386SOL    HW2 2058   2.810   6.616   4.888
  387SOL     OW 2059   6.880   0.077   5.962
  387SOL    HW1 2060   6.872   0.005   5.893
  387SOL    HW2 2061   6.864   0.039   6.053
  388SOL     OW 2062   0.117   2.434   5.047
  388SOL    HW1 2063   0.133   2.346   5.002
  388SOL    HW2 2064   0.074   2.498   4.983
  389SOL     OW 2065   5.103   4.647   1.812
  389SOL    HW1 2066   5.101   4.736   1.857
  389SOL    HW2 2067   5.165   4.586   1.862
  390SOL     OW 2068   3.622   2.649   6.995
  390SOL    HW1 2069   3.567   2.727   6.966
  390SOL    HW2 2070   3.663   2.606   6.915
  391SOL     OW 2071   3.530   4.084   3.995
  391SOL    HW1 2072   3.586   4.102   4.076
  391SOL    HW2 2073   3.489   3.993   4.003
  392SOL     OW 2074   1.508   4.119   1.298
  392SOL    HW1 2075   1.441   4.116   1.373
  392SOL    HW2 2076   1.513   4.029   1.254
  393SOL     OW 2077   1.256   5.790   1.364
  393SOL    HW1 2078   1.285   5.807   1.270
  393SOL    HW2 2079   1.162   5.757   1.365
  394SOL     OW 2080   6.269   1.085   6.694
  394SOL    HW1 2081   6.195   1.113   6.754
  394SOL    HW2 2082   6.315   1.167   6.658
  395SOL     OW 2083   5.891   4.832   0.717
  395SOL    HW1 2084   5.973   4.836   0.775
  395SOL    HW2 2085   5.912   4.780   0.634
  396SOL     OW 2086   1.210   0.170   1.495
  396SOL    HW1 2087   1.305   0.202   1.493
  396SOL    HW2 2088   1.149   0.248   1.482
  397SOL     OW 2089   4.188   1.718   4.760
  397SOL    HW1 2090   4.090   1.721   4.780
  397SOL    HW2 2091   4.236   1.785   4.817
  398SOL     OW 2092   0.525   0.621   3.221
  398SOL    HW1 2093   0.464   0.662   3.289
  398SOL    HW2 2094   0.591   0.690   3.190
  399SOL     OW 2095   5.781   5.662   3.782
  399SOL    HW1 2096   5.738   5.729   3.721
  399SOL    HW2 2097   5.724   5.647   3.862
  400SOL     OW 2098   6.356   6.861   3.515
  400SOL    HW1 2099   6.308   6.853   3.602
  400SOL    HW2 2100   6.424   6.788   3.507
  401SOL     OW 2101   0.904   5.454   5.070
  401SOL    HW1 2102   0.879   5.519   5.142
  401SOL    HW2 2103   0.839   5.377   5.071
  402SOL     OW 2104   5.603   1.679   3.983
  402SOL    HW1 2105   5.676   1.612   3.970
  402SOL    HW2 2106   5.532   1.641   4.043
  403SOL     OW 2107   2.768   1.879   5.217
  403SOL    HW1 2108   2.856   1.892   5.263
  403SOL    HW2 2109   2.695   1.874   5.285
  404SOL     OW 2110   3.295   5.851   3.615
  404SOL    HW1 2111   3.347   5.783   3.667
  404SOL    HW2 2112   3.284   5.819   3.521
  405SOL     OW 2113   2.900   5.193   4.577
  405SOL    HW1 2114   2.911   5.282   4.622
  405SOL    HW2 2115   2.889   5.207   4.479
  406SOL     OW 2116   0.346   0.232   6.041
  406SOL    HW1 2117   0.248   0.231   6.026
  406SOL    HW2 2118   0.387   0.149   6.002
  407SOL     OW 2119   2.180   2.957   4.056
  407SOL    HW1 2120   2.157   2.907   4.140
  407SOL    HW2 2121   2.257   2.912   4.011
  408SOL     OW 2122   2.110   2.259   3.043
  408SOL    HW1 2123   2.165   2.342   3.036
  408SOL    HW2 2124   2.018   2.278   3.011
  409SOL     OW 2125   0.356   2.857   2.643
  409SOL    HW1 2126   0.352   2.912   2.727
  409SOL    HW2 2127   0.424   2.785   2.653
  410SOL     OW 2128   1.833   2.412   1.671
  410SOL    HW1 2129   1.836   2.483   1.601
  410SOL    HW2 2130   1.770   2.340   1.643
  411SOL     OW 2131   6.499   1.977   0.755
  411SOL    HW1 2132   6.429   1.962   0.685
  411SOL    HW2 2133   6.463   2.038   0.825
  412SOL     OW 2134   1.758   5.042   2.796
  412SOL    HW1 2135   1.739   5.101   2.718
  412SOL    HW2 2136   1.844   4.993   2.781
  413SOL     OW 2137   6.398   5.334   1.713
  413SOL    HW1 2138   6.429   5.239   1.708
  413SOL    HW2 2139   6.430   5.375   1.798
  414SOL     OW 2140   2.138   0.297   3.314
  414SOL    HW1 2141   2.157   0.210   3.268
  414SOL    HW2 2142   2.047   0.294   3.355
  415SOL     OW 2143   5.457   1.577   6.626
  415SOL    HW1 2144   5.489   1.545   6.716
  415SOL    HW2 2145   5.535   1.587   6.565
  416SOL     OW 2146   5.961   3.264   5.861
  416SOL    HW1 2147   6.037   3.329   5.863
  416SOL    HW2 2148   5.876   3.313   5.844
  417SOL     OW 2149   2.018   2.203   6.432
  417SOL    HW1 2150   2.064   2.228   6.347
  417SOL    HW2 2151   1.946   2.136   6.413
  418SOL     OW 2152   3.442   6.951   5.184
  418SOL    HW1 2153   3.418   6.864   5.226
  418SOL    HW2 2154   3.371   7.018   5.203
  419SOL     OW 2155   6.111   0.476   0.419
  419SOL    HW1 2156   6.046   0.529   0.365
  419SOL    HW2 2157   6.149   0.402   0.362
  420SOL     OW 2158   3.693   6.677   0.736
  420SOL    HW1 2159   3.686   6.776   0.727
  420SOL    HW2 2160   3.625   6.633   0.677
  421SOL     OW 2161   4.770   4.157   2.469
  421SOL    HW1 2162   4.677   4.195   2.470
  421SOL    HW2 2163   4.827   4.211   2.407
  422SOL     OW 2164   4.801   2.187   1.588
  422SOL    HW1 2165   4.792   2.279   1.626
  422SOL    HW2 2166   4.711   2.148   1.573
  423SOL     OW 2167   3.123   1.216   5.968
  423SOL    HW1 2168   3.096   1.304   5.931
  423SOL    HW2 2169   3.046   1.152   5.963
  424SOL     OW 2170   1.928   3.762   4.092
  424SOL    HW1 2171   1.872   3.698   4.039
  424SOL    HW2 2172   1.977   3.711   4.162
  425SOL     OW 2173   3.682   1.215   0.113
  425SOL    HW1 2174   3.779   1.197   0.097
  425SOL    HW2 2175   3.642   1.256   0.031
  426SOL     OW 2176   2.829   2.100   4.436
  426SOL    HW1 2177   2.869   2.144   4.517
  426SOL    HW2 2178   2.877   2.133   4.354
  427SOL     OW 2179   5.090   2.139   3.470
  427SOL    HW1 2180   5.117   2.231   3.500
  427SOL    HW2 2181   5.165   2.075   3.486
  428SOL     OW 2182   2.799   2.472   6.698
  428SOL    HW1 2183   2.721   2.530   6.670
  428SOL    HW2 2184   2.870   2.530   6.738
  429SOL     OW 2185   0.241   5.945   4.000
  429SOL    HW1 2186   0.229   5.986   4.090
  429SOL    HW2 2187   0.170   5.877   3.984
  430SOL     OW 2188   1.883   6.940   4.727
  430SOL    HW1 2189   1.826   7.015   4.693
  430SOL    HW2 2190   1.841   6.853   4.701
  431SOL     OW 2191   2.715   1.737   0.924
  431SOL    HW1 2192   2.701   1.646   0.964
  431SOL    HW2 2193   2.811   1.764   0.935
  432SOL     OW 2194   4.845   1.526   1.292
  432SOL    HW1 2195   4.837   1.608   1.350
  432SOL    HW2 2196   4.767   1.522   1.229
  433SOL     OW 2197   1.907   4.702   0.503
  433SOL    HW1 2198   1.951   4.617   0.478
  433SOL    HW2 2199   1.972   4.762   0.550
  434SOL     OW 2200   4.346   5.327   3.306
  434SOL    HW1 2201   4.440   5.351   3.332
  434SOL    HW2 2202   4.310   5.396   3.243
  435SOL     OW 2203   3.864   2.757   6.186
  435SOL    HW1 2204   3.954   2.787   6.153
  435SOL    HW2 2205   3.809   2.725   6.109
  436SOL     OW 2206   5.396   5.878   1.712
  436SOL    HW1 2207   5.450   5.923   1.784
  436SOL    HW2 2208   5.374   5.785   1.740
  437SOL     OW 2209   6.490   1.564   5.300
  437SOL    HW1 2210   6.533   1.634   5.243
  437SOL    HW2 2211   6.442   1.498   5.242
  438SOL     OW 2212   0.599   4.447   2.863
  438SOL    HW1 2213   0.548   4.438   2.948
  438SOL    HW2 2214   0.535   4.455   2.787
  439SOL     OW 2215   6.894   0.620   5.470
  439SOL    HW1 2216   6.930   0.678   5.542
  439SOL    HW2 2217   6.959   0.546   5.452
  440SOL     OW 2218   4.388   1.977   0.606
  440SOL    HW1 2219   4.445   1.959   0.526
  440SOL    HW2 2220   4.411   2.067   0.644
  441SOL     OW 2221   0.358   4.692   2.309
  441SOL    HW1 2222   0.376   4.753   2.232
  441SOL    HW2 2223   0.437   4.694   2.371
  442SOL     OW 2224   4.137   3.350   5.063
  442SOL    HW1 2225   4.229   3.367   5.027
  442SOL    HW2 2226   4.144   3.292   5.144
  443SOL     OW 2227   4.782   2.829   3.238
  443SOL    HW1 2228   4.877   2.817   3.209
  443SOL    HW2 2229   4.732   2.881   3.169
  444SOL     OW 2230   4.036   2.098   1.561
  444SOL    HW1 2231   3.950   2.059   1.530
  444SOL    HW2 2232   4.026   2.197   1.572
  445SOL     OW 2233   2.181   5.395   2.802
  445SOL    HW1 2234   2.158   5.421   2.896
  445SOL    HW2 2235   2.109   5.426   2.740
  446SOL     OW 2236   6.464   6.865   1.812
  446SOL    HW1 2237   6.523   6.862   1.893
  446SOL    HW2 2238   6.503   6.928   1.745
  447SOL     OW 2239   5.790   4.144   0.491
  447SOL    HW1 2240   5.852   4.213   0.528
  447SOL    HW2 2241   5.841   4.059   0.475
  448SOL     OW 2242   3.416   6.431   3.800
  448SOL    HW1 2243   3.457   6.515   3.835
  448SOL    HW2 2244   3.398   6.442   3.702
  449SOL     OW 2245   1.333   4.061   4.559
  449SOL    HW1 2246   1.313   4.131   4.627
  449SOL    HW2 2247   1.402   3.998   4.596
  450SOL     OW 2248   6.879   4.201   3.141
  450SOL    HW1 2249   6.921   4.291   3.132
  450SOL    HW2 2250   6.951   4.131   3.146
  451SOL     OW 2251   1.407   2.066   0.664
  451SOL    HW1 2252   1.461   2.033   0.586
  451SOL    HW2 2253   1.434   2.016   0.746
  452SOL     OW 2254   4.210   5.409   2.360
  452SOL    HW1 2255   4.291   5.378   2.311
  452SOL    HW2 2256   4.224   5.503   2.392
  453SOL     OW 2257   3.960   1.265   0.087
  453SOL    HW1 2258   3.995   1.291   7.026
  453SOL    HW2 2259   3.961   1.345   0.147
  454SOL     OW 2260   0.235   3.436   4.506
  454SOL    HW1 2261   0.214   3.343   4.538
  454SOL    HW2 2262   0.334   3.451   4.510
  455SOL     OW 2263   5.293   5.660   6.057
  455SOL    HW1 2264   5.388   5.682   6.039
  455SOL    HW2 2265   5.288   5.591   6.130
  456SOL     OW 2266   2.211   0.559   2.528
  456SOL    HW1 2267   2.288   0.582   2.588
  456SOL    HW2 2268   2.220   0.464   2.498
  457SOL     OW 2269   2.328   6.583   0.100
  457SOL    HW1 2270   2.399   6.652   0.103
  457SOL    HW2 2271   2.362   6.501   0.054
  458SOL     OW 2272   3.826   1.378   3.130
  458SOL    HW1 2273   3.854   1.446   3.198
  458SOL    HW2 2274   3.734   1.400   3.096
  459SOL     OW 2275   3.308   0.602   3.141
  459SOL    HW1 2276   3.296   0.654   3.226
  459SOL    HW2 2277   3.400   0.619   3.105
  460SOL     OW 2278   0.620   1.573   6.269
  460SOL    HW1 2279   0.680   1.651   6.250
  460SOL    HW2 2280   0.635   1.542   6.363
  461SOL     OW 2281   1.117   6.105   5.564
  461SOL    HW1 2282   1.053   6.089   5.489
  461SOL    HW2 2283   1.069   6.099   5.651
  462SOL     OW 2284   2.942   4.018   5.047
  462SOL    HW1 2285   2.938   3.924   5.080
  462SOL    HW2 2286   2.924   4.020   4.949
  463SOL     OW 2287   6.001   6.162   3.425
  463SOL    HW1 2288   5.922   6.198   3.475
  463SOL    HW2 2289   5.995   6.189   3.329
  464SOL     OW 2290   4.332   5.606   5.114
  464SOL    HW1 2291   4.237   5.624   5.140
  464SOL    HW2 2292   4.355   5.662   5.034
  465SOL     OW 2293   0.524   4.578   0.072
  465SOL    HW1 2294   0.548   4.484   0.096
  465SOL    HW2 2295   0.558   4.598   7.009
  466SOL     OW 2296   4.218   5.196   3.958
  466SOL    HW1 2297   4.166   5.115   3.933
  466SOL    HW2 2298   4.168   5.248   4.028
  467SOL     OW 2299   6.549   0.461   1.873
  467SOL    HW1 2300   6.490   0.472   1.792
  467SOL    HW2 2301   6.542   0.367   1.906
  468SOL     OW 2302   2.732   5.943   6.112
  468SOL    HW1 2303   2.811   5.900   6.069
  468SOL    HW2 2304   2.742   6.042   6.109
  469SOL     OW 2305   2.832   4.895   5.108
  469SOL    HW1 2306   2.907   4.923   5.167
  469SOL    HW2 2307   2.815   4.797   5.120
  470SOL     OW 2308   1.811   4.827   3.195
  470SOL    HW1 2309   1.905   4.839   3.226
  470SOL    HW2 2310   1.771   4.747   3.239
  471SOL     OW 2311   1.962   1.971   3.961
  471SOL    HW1 2312   1.924   2.011   4.045
  471SOL    HW2 2313   1.971   2.043   3.891
  472SOL     OW 2314   5.533   3.881   6.722
  472SOL    HW1 2315   5.459   3.827   6.683
  472SOL    HW2 2316   5.541   3.968   6.673
  473SOL     OW 2317   5.294   3.495   2.606
  473SOL    HW1 2318   5.245   3.426   2.552
  473SOL    HW2 2319   5.338   3.560   2.544
  474SOL     OW 2320   5.127   5.225   4.024
  474SOL    HW1 2321   5.144   5.239   3.926
  474SOL    HW2 2322   5.174   5.296   4.076
  475SOL     OW 2323   5.978   1.244   1.206
  475SOL    HW1 2324   6.001   1.334   1.171
  475SOL    HW2 2325   5.982   1.245   1.306
  476SOL     OW 2326   1.370   4.133   6.727
  476SOL    HW1 2327   1.342   4.214   6.778
  476SOL    HW2 2328   1.424   4.073   6.785
  477SOL     OW 2329   0.888   5.363   3.094
  477SOL    HW1 2330   0.809   5.390   3.150
  477SOL    HW2 2331   0.970   5.408   3.128
  478SOL     OW 2332   6.230   6.068   2.984
  478SOL    HW1 2333   6.289   6.013   3.043
  478SOL    HW2 2334   6.167   6.009   2.935
  479SOL     OW 2335   2.950   3.300   2.821
  479SOL    HW1 2336   2.985   3.354   2.745
  479SOL    HW2 2337   2.872   3.245   2.789
  480SOL     OW 2338   0.929   0.693   2.423
  480SOL    HW1 2339   0.911   0.789   2.442
  480SOL    HW2 2340   0.988   0.654   2.493
  481SOL     OW 2341   5.911   6.760   1.079
  481SOL    HW1 2342   5.912   6.741   1.177
  481SOL    HW2 2343   6.005   6.778   1.048
  482SOL     OW 2344   4.235   4.930   2.690
  482SOL    HW1 2345   4.183   4.996   2.637
  482SOL    HW2 2346   4.221   4.838   2.652
  483SOL     OW 2347   5.793   1.058   4.012
  483SOL    HW1 2348   5.859   1.056   3.937
  483SOL    HW2 2349   5.822   0.996   4.085
  484SOL     OW 2350   1.769   4.975   3.688
  484SOL    HW1 2351   1.755   5.060   3.637
  484SOL    HW2 2352   1.729   4.898   3.638
  485SOL     OW 2353   5.370   1.924   1.035
  485SOL    HW1 2354   5.274   1.909   1.060
  485SOL    HW2 2355   5.397   1.855   0.968
  486SOL     OW 2356   6.059   6.966   5.817
  486SOL    HW1 2357   6.095   6.879   5.784
  486SOL    HW2 2358   6.090   0.011   5.757
  487SOL     OW 2359   0.362   0.787   6.503
  487SOL    HW1 2360   0.349   0.705   6.558
  487SOL    HW2 2361   0.279   0.807   6.452
  488SOL     OW 2362   1.988   5.873   3.546
  488SOL    HW1 2363   1.977   5.972   3.558
  488SOL    HW2 2364   1.901   5.833   3.517
  489SOL     OW 2365   2.753   5.200   5.146
  489SOL    HW1 2366   2.815   5.159   5.079
  489SOL    HW2 2367   2.661   5.206   5.107
  490SOL     OW 2368   1.627   3.382   4.662
  490SOL    HW1 2369   1.642   3.463   4.604
  490SOL    HW2 2370   1.611   3.411   4.756
  491SOL     OW 2371   6.041   3.010   0.941
  491SOL    HW1 2372   6.013   2.991   1.035
  491SOL    HW2 2373   5.992   2.948   0.879
  492SOL     OW 2374   1.424   2.476   5.788
  492SOL    HW1 2375   1.494   2.471   5.717
  492SOL    HW2 2376   1.338   2.508   5.748
  493SOL     OW 2377   1.809   5.858   4.394
  493SOL    HW1 2378   1.862   5.779   4.364
  493SOL    HW2 2379   1.809   5.927   4.321
  494SOL     OW 2380   3.096   0.773   4.567
  494SOL    HW1 2381   3.082   0.697   4.630
  494SOL    HW2 2382   3.007   0.802   4.530
  495SOL     OW 2383   3.450   4.365   6.918
  495SOL    HW1 2384   3.409   4.315   6.994
  495SOL    HW2 2385   3.517   4.306   6.872
  496SOL     OW 2386   4.966   1.137   3.388
  496SOL    HW1 2387   4.952   1.223   3.341
  496SOL    HW2 2388   5.010   1.071   3.326
  497SOL     OW 2389   4.504   2.184   0.731
  497SOL    HW1 2390   4.524   2.187   0.829
  497SOL    HW2 2391   4.589   2.198   0.679
  498SOL     OW 2392   0.395   0.604   1.066
  498SOL    HW1 2393   0.481   0.579   1.109
  498SOL    HW2 2394   0.333   0.526   1.069
  499SOL     OW 2395   2.958   5.937   0.170
  499SOL    HW1 2396   2.931   5.850   0.213
  499SOL    HW2 2397   3.051   5.960   0.197
  500SOL     OW 2398   5.543   2.024   6.309
  500SOL    HW1 2399   5.462   2.012   6.366
  500SOL    HW2 2400   5.590   2.108   6.335
  501SOL     OW 2401   1.874   1.335   5.055
  501SOL    HW1 2402   1.954   1.357   5.000
  501SOL    HW2 2403   1.801   1.401   5.034
  502SOL     OW 2404   2.468   4.101   6.902
  502SOL    HW1 2405   2.457   4.119   6.804
  502SOL    HW2 2406   2.415   4.020   6.927
  503SOL     OW 2407   3.385   5.375   1.353
  503SOL    HW1 2408   3.397   5.289   1.402
  503SOL    HW2 2409   3.320   5.362   1.278
  504SOL     OW 2410   6.476   6.269   0.682
  504SOL    HW1 2411   6.390   6.249   0.730
  504SOL    HW2 2412   6.530   6.334   0.736
  505SOL     OW 2413   5.814   5.042   5.493
  505SOL    HW1 2414   5.810   5.140   5.476
  505SOL    HW2 2415   5.735   5.014   5.549
  506SOL     OW 2416   3.212   4.890   2.754
  506SOL    HW1 2417   3.208   4.849   2.845
  506SOL    HW2 2418   3.304   4.877   2.716
  507SOL     OW 2419   3.596   0.554   1.977
  507SOL    HW1 2420   3.585   0.510   1.888
  507SOL    HW2 2421   3.517   0.532   2.035
  508SOL     OW 2422   0.357   4.733   3.553
  508SOL    HW1 2423   0.350   4.670   3.476
  508SOL    HW2 2424   0.424   4.700   3.619
  509SOL     OW 2425   4.455   0.088   6.364
  509SOL    HW1 2426   4.381   0.041   6.316
  509SOL    HW2 2427   4.416   0.156   6.427
  510SOL     OW 2428   6.541   4.127   0.368
  510SOL    HW1 2429   6.509   4.135   0.463
  510SOL    HW2 2430   6.502   4.201   0.313
  511SOL     OW 2431   0.981   1.447   7.011
  511SOL    HW1 2432   0.963   1.541   0.008
  511SOL    HW2 2433   1.065   1.415   0.026
  512SOL     OW 2434   0.376   2.615   3.954
  512SOL    HW1 2435   0.347   2.520   3.958
  512SOL    HW2 2436   0.346   2.656   3.868
  513SOL     OW 2437   5.325   6.928   2.895
  513SOL    HW1 2438   5.260   6.999   2.869
  513SOL    HW2 2439   5.361   6.884   2.813
  514SOL     OW 2440   4.947   1.248   4.885
  514SOL    HW1 2441   5.009   1.173   4.910
  514SOL    HW2 2442   4.910   1.289   4.968
  515SOL     OW 2443   3.509   0.651   0.194
  515SOL    HW1 2444   3.574   0.590   0.238
  515SOL    HW2 2445   3.556   0.707   0.126
  516SOL     OW 2446   1.669   5.934   1.983
  516SOL    HW1 2447   1.694   5.852   2.035
  516SOL    HW2 2448   1.652   5.908   1.888
  517SOL     OW 2449   3.792   5.432   1.724
  517SOL    HW1 2450   3.890   5.446   1.711
  517SOL    HW2 2451   3.741   5.510   1.688
  518SOL     OW 2452   2.009   5.355   4.166
  518SOL    HW1 2453   2.052   5.294   4.232
  518SOL    HW2 2454   1.917   5.322   4.145
  519SOL     OW 2455   6.607   6.914   2.023
  519SOL    HW1 2456   6.530   6.964   2.062
  519SOL    HW2 2457   6.664   6.877   2.096
  520SOL     OW 2458   2.082   4.802   0.705
  520SOL    HW1 2459   2.170   4.766   0.737
  520SOL    HW2 2460   2.031   4.841   0.782
  521SOL     OW 2461   6.230   5.650   5.811
  521SOL    HW1 2462   6.281   5.662   5.726
  521SOL    HW2 2463   6.167   5.727   5.824
  522SOL     OW 2464   3.777   4.190   0.100
  522SOL    HW1 2465   3.827   4.207   0.185
  522SOL    HW2 2466   3.842   4.187   0.024
  523SOL     OW 2467   1.433   6.735   6.608
  523SOL    HW1 2468   1.498   6.808   6.626
  523SOL    HW2 2469   1.438   6.708   6.512
  524SOL     OW 2470   0.141   1.265   0.824
  524SOL    HW1 2471   0.131   1.353   0.869
  524SOL    HW2 2472   0.054   1.214   0.829
  525SOL     OW 2473   0.734   3.077   3.584
  525SOL    HW1 2474   0.665   3.149   3.571
  525SOL    HW2 2475   0.689   2.990   3.602
  526SOL     OW 2476   4.615   0.187   4.219
  526SOL    HW1 2477   4.577   0.280   4.216
  526SOL    HW2 2478   4.544   0.121   4.194
  527SOL     OW 2479   0.681   1.135   1.226
  527SOL    HW1 2480   0.767   1.127   1.277
  527SOL    HW2 2481   0.609   1.169   1.287
  528SOL     OW 2482   0.280   2.516   4.314
  528SOL    HW1 2483   0.338   2.468   4.380
  528SOL    HW2 2484   0.237   2.449   4.253
  529SOL     OW 2485   1.610   0.791   6.009
  529SOL    HW1 2486   1.634   0.775   5.913
  529SOL    HW2 2487   1.692   0.789   6.065
  530SOL     OW 2488   3.063   4.741   1.154
  530SOL    HW1 2489   3.021   4.719   1.066
  530SOL    HW2 2490   3.147   4.794   1.139
  531SOL     OW 2491   1.412   0.220   6.893
  531SOL    HW1 2492   1.400   0.170   6.807
  531SOL    HW2 2493   1.415   0.319   6.874
  532SOL     OW 2494   2.906   1.054   5.909
  532SOL    HW1 2495   2.895   1.133   5.849
  532SOL    HW2 2496   2.816   1.012   5.925
  533SOL     OW 2497   4.182   0.160   4.191
  533SOL    HW1 2498   4.143   0.089   4.249
  533SOL    HW2 2499   4.138   0.248   4.212
  534SOL     OW 2500   1.739   3.963   2.034
  534SOL    HW1 2501   1.718   3.896   2.106
  534SOL    HW2 2502   1.655   4.009   2.006
  535SOL     OW 2503   5.278   4.039   4.321
  535SOL    HW1 2504   5.366   3.995   4.339
  535SOL    HW2 2505   5.291   4.139   4.319
  536SOL     OW 2506   6.305   6.313   1.427
  536SOL    HW1 2507   6.335   6.379   1.495
  536SOL    HW2 2508   6.314   6.220   1.463
  537SOL     OW 2509   2.695   1.710   2.173
  537SOL    HW1 2510   2.757   1.787   2.193
  537SOL    HW2 2511   2.640   1.690   2.254
  538SOL     OW 2512   3.888   4.835   5.146
  538SOL    HW1 2513   3.987   4.844   5.144
  538SOL    HW2 2514   3.862   4.760   5.207
  539SOL     OW 2515   2.197   0.248   6.562
  539SOL    HW1 2516   2.151   0.191   6.630
  539SOL    HW2 2517   2.231   0.191   6.488
  540SOL     OW 2518   1.671   0.770   5.297
  540SOL    HW1 2519   1.748   0.726   5.251
  540SOL    HW2 2520   1.638   0.847   5.242
  541SOL     OW 2521   5.444   6.014   3.731
  541SOL    HW1 2522   5.428   6.092   3.792
  541SOL    HW2 2523   5.437   5.929   3.784
  542SOL     OW 2524   4.004   6.539   5.948
  542SOL    HW1 2525   4.052   6.555   5.861
  542SOL    HW2 2526   3.915   6.584   5.944
  543SOL     OW 2527   5.897   2.675   3.624
  543SOL    HW1 2528   5.827   2.747   3.622
  543SOL    HW2 2529   5.869   2.603   3.687
  544SOL     OW 2530   1.299   3.199   1.036
  544SOL    HW1 2531   1.310   3.203   0.937
  544SOL    HW2 2532   1.217   3.250   1.063
  545SOL     OW 2533   6.690   5.437   0.787
  545SOL    HW1 2534   6.710   5.429   0.689
  545SOL    HW2 2535   6.602   5.482   0.799
  546SOL     OW 2536   0.345   4.142   1.781
  546SOL    HW1 2537   0.315   4.058   1.736
  546SOL    HW2 2538   0.344   4.128   1.880
  547SOL     OW 2539   4.607   0.368   6.581
  547SOL    HW1 2540   4.601   0.418   6.668
  547SOL    HW2 2541   4.515   0.348   6.548
  548SOL     OW 2542   4.118   3.288   0.429
  548SOL    HW1 2543   4.030   3.336   0.430
  548SOL    HW2 2544   4.192   3.354   0.414
  549SOL     OW 2545   5.454   1.876   2.300
  549SOL    HW1 2546   5.525   1.921   2.245
  549SOL    HW2 2547   5.389   1.944   2.333
  550SOL     OW 2548   6.855   5.639   3.524
  550SOL    HW1 2549   6.765   5.594   3.522
  550SOL    HW2 2550   6.870   5.679   3.614
  551SOL     OW 2551   5.885   0.392   0.217
  551SOL    HW1 2552   5.864   0.481   0.259
  551SOL    HW2 2553   5.810   0.329   0.234
  552SOL     OW 2554   0.843   6.969   4.887
  552SOL    HW1 2555   0.751   6.961   4.926
  552SOL    HW2 2556   0.899   6.893   4.918
  553SOL     OW 2557   3.599   2.519   6.465
  553SOL    HW1 2558   3.679   2.567   6.499
  553SOL    HW2 2559   3.620   2.422   6.453
  554SOL     OW 2560   6.405   5.430   0.543
  554SOL    HW1 2561   6.366   5.346   0.580
  554SOL    HW2 2562   6.338   5.474   0.483
  555SOL     OW 2563   2.849   3.513   5.646
  555SOL    HW1 2564   2.814   3.493   5.555
  555SOL    HW2 2565   2.917   3.587   5.640
  556SOL     OW 2566   6.342   6.808   3.150
  556SOL    HW1 2567   6.261   6.783   3.202
  556SOL    HW2 2568   6.424   6.775   3.197
  557SOL     OW 2569   5.311   4.145   6.312
  557SOL    HW1 2570   5.380   4.124   6.381
  557SOL    HW2 2571   5.322   4.239   6.281
  558SOL     OW 2572   3.591   3.849   2.440
  558SOL    HW1 2573   3.609   3.938   2.481
  558SOL    HW2 2574   3.515   3.805   2.489
  559SOL     OW 2575   6.822   0.731   6.590
  559SOL    HW1 2576   6.831   0.704   6.685
  559SOL    HW2 2577   6.841   0.652   6.531
  560SOL     OW 2578   6.748   2.894   4.081
  560SOL    HW1 2579   6.841   2.877   4.112
  560SOL    HW2 2580   6.736   2.992   4.062
  561SOL     OW 2581   0.670   3.796   0.611
  561SOL    HW1 2582   0.620   3.746   0.682
  561SOL    HW2 2583   0.733   3.861   0.653
  562SOL     OW 2584   4.404   6.446   4.209
  562SOL    HW1 2585   4.475   6.459   4.139
  562SOL    HW2 2586   4.341   6.523   4.208
  563SOL     OW 2587   1.210   1.015   3.958
  563SOL    HW1 2588   1.203   1.068   3.874
  563SOL    HW2 2589   1.269   0.935   3.942
  564SOL     OW 2590   6.223   2.063   6.448
  564SOL    HW1 2591   6.161   2.018   6.512
  564SOL    HW2 2592   6.274   1.994   6.397
  565SOL     OW 2593   3.559   3.211   3.517
  565SOL    HW1 2594   3.492   3.275   3.479
  565SOL    HW2 2595   3.552   3.123   3.470
  566SOL     OW 2596   2.579   1.277   3.735
  566SOL    HW1 2597   2.507   1.232   3.788
  566SOL    HW2 2598   2.538   1.326   3.658
  567SOL     OW 2599   2.408   2.710   5.537
  567SOL    HW1 2600   2.410   2.768   5.619
  567SOL    HW2 2601   2.443   2.619   5.560
  568SOL     OW 2602   0.571   6.519   6.900
  568SOL    HW1 2603   0.581   6.546   6.804
  568SOL    HW2 2604   0.548   6.422   6.905
  569SOL     OW 2605   5.709   3.377   6.729
  569SOL    HW1 2606   5.781   3.390   6.661
  569SOL    HW2 2607   5.664   3.464   6.748
  570SOL     OW 2608   3.414   0.213   5.950
  570SOL    HW1 2609   3.433   0.301   5.906
  570SOL    HW2 2610   3.494   0.184   6.003
  571SOL     OW 2611   2.509   4.781   1.525
  571SOL    HW1 2612   2.577   4.730   1.577
  571SOL    HW2 2613   2.451   4.834   1.587
  572SOL     OW 2614   3.070   0.686   4.978
  572SOL    HW1 2615   3.144   0.651   5.035
  572SOL    HW2 2616   3.058   0.784   4.994
  573SOL     OW 2617   0.452   0.944   5.358
  573SOL    HW1 2618   0.511   0.891   5.419
  573SOL    HW2 2619   0.454   0.904   5.266
  574SOL     OW 2620   2.233   0.926   6.116
  574SOL    HW1 2621   2.264   1.019   6.097
  574SOL    HW2 2622   2.204   0.882   6.031
  575SOL     OW 2623   3.921   4.085   6.886
  575SOL    HW1 2624   3.988   4.153   6.916
  575SOL    HW2 2625   3.957   3.993   6.903
  576SOL     OW 2626   1.710   1.153   2.903
  576SOL    HW1 2627   1.717   1.207   2.819
  576SOL    HW2 2628   1.768   1.071   2.895
  577SOL     OW 2629   0.530   0.919   1.778
  577SOL    HW1 2630   0.547   0.922   1.680
  577SOL    HW2 2631   0.448   0.865   1.796
  578SOL     OW 2632   3.898   6.566   6.703
  578SOL    HW1 2633   3.843   6.638   6.747
  578SOL    HW2 2634   3.892   6.482   6.756
  579SOL     OW 2635   1.206   3.868   2.015
  579SOL    HW1 2636   1.124   3.852   2.070
  579SOL    HW2 2637   1.281   3.898   2.074
  580SOL     OW 2638   4.616   4.901   4.604
  580SOL    HW1 2639   4.568   4.896   4.516
  580SOL    HW2 2640   4.677   4.822   4.614
  581SOL     OW 2641   2.025   2.503   4.322
  581SOL    HW1 2642   1.951   2.543   4.268
  581SOL    HW2 2643   1.998   2.499   4.418
  582SOL     OW 2644   5.819   4.784   4.589
  582SOL    HW1 2645   5.902   4.739   4.557
  582SOL    HW2 2646   5.746   4.716   4.601
  583SOL     OW 2647   3.603   6.305   5.791
  583SOL    HW1 2648   3.545   6.262   5.721
  583SOL    HW2 2649   3.692   6.260   5.792
  584SOL     OW 2650   3.885   0.187   5.098
  584SOL    HW1 2651   3.879   0.244   5.179
  584SOL    HW2 2652   3.807   0.123   5.097
  585SOL     OW 2653   3.453   6.661   1.520
  585SOL    HW1 2654   3.468   6.716   1.437
  585SOL    HW2 2655   3.487   6.711   1.599
  586SOL     OW 2656   3.701   6.952   0.727
  586SOL    HW1 2657   3.788   6.904   0.719
  586SOL    HW2 2658   3.702   7.010   0.808
  587SOL     OW 2659   4.499   1.562   2.242
  587SOL    HW1 2660   4.561   1.484   2.242
  587SOL    HW2 2661   4.537   1.635   2.298
  588SOL     OW 2662   1.946   4.793   2.724
  588SOL    HW1 2663   1.931   4.700   2.760
  588SOL    HW2 2664   1.979   4.852   2.798
  589SOL     OW 2665   3.437   5.512   0.808
  589SOL    HW1 2666   3.378   5.588   0.837
  589SOL    HW2 2667   3.398   5.468   0.727
  590SOL     OW 2668   3.080   1.947   0.053
  590SOL    HW1 2669   3.011   2.015   0.029
  590SOL    HW2 2670   3.158   1.955   7.020
  591SOL     OW 2671   2.794   6.587   3.605
  591SOL    HW1 2672   2.773   6.657   3.673
  591SOL    HW2 2673   2.892   6.565   3.608
  592SOL     OW 2674   4.207   2.276   4.632
  592SOL    HW1 2675   4.161   2.275   4.543
  592SOL    HW2 2676   4.145   2.313   4.701
  593SOL     OW 2677   2.099   1.769   6.776
  593SOL    HW1 2678   2.002   1.763   6.754
  593SOL    HW2 2679   2.110   1.786   6.873
  594SOL     OW 2680   4.663   1.257   2.963
  594SOL    HW1 2681   4.669   1.191   3.038
  594SOL    HW2 2682   4.749   1.306   2.955
  595SOL     OW 2683   6.138   4.842   2.813
  595SOL    HW1 2684   6.170   4.869   2.903
  595SOL    HW2 2685   6.047   4.878   2.797
  596SOL     OW 2686   6.495   4.967   4.459
  596SOL    HW1 2687   6.583   5.013   4.467
  596SOL    HW2 2688   6.489   4.922   4.370
  597SOL     OW 2689   3.343   1.452   6.609
  597SOL    HW1 2690   3.438   1.475   6.631
  597SOL    HW2 2691   3.321   1.486   6.518
  598SOL     OW 2692   3.452   4.009   3.450
  598SOL    HW1 2693   3.501   4.068   3.514
  598SOL    HW2 2694   3.486   4.023   3.357
  599SOL     OW 2695   1.587   5.325   1.640
  599SOL    HW1 2696   1.549   5.408   1.680
  599SOL    HW2 2697   1.526   5.291   1.568
  600SOL     OW 2698   6.985   3.496   5.356
  600SOL    HW1 2699   6.926   3.567   5.396
  600SOL    HW2 2700   6.968   3.409   5.402
  601SOL     OW 2701   0.389   6.271   5.846
  601SOL    HW1 2702   0.426   6.318   5.765
  601SOL    HW2 2703   0.459   6.268   5.917
  602SOL     OW 2704   1.809   0.574   3.648
  602SOL    HW1 2705   1.737   0.635   3.683
  602SOL    HW2 2706   1.822   0.499   3.712
  603SOL     OW 2707   1.801   1.456   4.257
  603SOL    HW1 2708   1.827   1.521   4.328
  603SOL    HW2 2709   1.848   1.369   4.274
  604SOL     OW 2710   5.947   3.029   1.223
  604SOL    HW1 2711   6.022   3.073   1.272
  604SOL    HW2 2712   5.884   2.988   1.288
  605SOL     OW 2713   6.370   6.486   1.225
  605SOL    HW1 2714   6.320   6.570   1.206
  605SOL    HW2 2715   6.340   6.449   1.313
  606SOL     OW 2716   3.697   6.826   4.889
  606SOL    HW1 2717   3.630   6.755   4.914
  606SOL    HW2 2718   3.704   6.892   4.964
  607SOL     OW 2719   1.869   2.926   6.136
  607SOL    HW1 2720   1.898   2.879   6.052
  607SOL    HW2 2721   1.848   2.859   6.207
  608SOL     OW 2722   3.245   1.310   6.208
  608SOL    HW1 2723   3.183   1.282   6.135
  608SOL    HW2 2724   3.324   1.249   6.211
  609SOL     OW 2725   3.738   3.107   2.351
  609SOL    HW1 2726   3.695   3.023   2.317
  609SOL    HW2 2727   3.833   3.087   2.375
  610SOL     OW 2728   4.675   3.544   1.673
  610SOL    HW1 2729   4.757   3.600   1.687
  610SOL    HW2 2730   4.688   3.486   1.593
  611SOL     OW 2731   4.224   1.485   2.864
  611SOL    HW1 2732   4.313   1.447   2.839
  611SOL    HW2 2733   4.203   1.460   2.959
  612SOL     OW 2734   4.867   4.818   3.572
  612SOL    HW1 2735   4.938   4.879   3.606
  612SOL    HW2 2736   4.853   4.743   3.637
  613SOL     OW 2737   3.796   4.832   5.949
  613SOL    HW1 2738   3.862   4.905   5.965
  613SOL    HW2 2739   3.830   4.772   5.877
  614SOL     OW 2740   2.560   6.457   6.193
  614SOL    HW1 2741   2.477   6.465   6.138
  614SOL    HW2 2742   2.560   6.369   6.241
  615SOL     OW 2743   0.287   4.623   2.960
  615SOL    HW1 2744   0.311   4.527   2.971
  615SOL    HW2 2745   0.246   4.637   2.870
  616SOL     OW 2746   6.089   3.064   3.615
  616SOL    HW1 2747   6.176   3.101   3.584
  616SOL    HW2 2748   6.086   3.063   3.715
  617SOL     OW 2749   3.238   6.515   5.914
  617SOL    HW1 2750   3.329   6.475   5.928
  617SOL    HW2 2751   3.168   6.454   5.952
  618SOL     OW 2752   1.469   0.695   3.502
  618SOL    HW1 2753   1.536   0.698   3.576
  618SOL    HW2 2754   1.506   0.739   3.421
  619SOL     OW 2755   0.815   2.043   6.373
  619SOL    HW1 2756   0.838   2.137   6.348
  619SOL    HW2 2757   0.888   2.005   6.430
  620SOL     OW 2758   4.169   3.319   1.153
  620SOL    HW1 2759   4.264   3.294   1.171
  620SOL    HW2 2760   4.115   3.307   1.236
  621SOL     OW 2761   7.024   5.906   0.689
  621SOL    HW1 2762   0.031   5.822   0.648
  621SOL    HW2 2763   6.930   5.920   0.659
  622SOL     OW 2764   0.752   0.752   6.617
  622SOL    HW1 2765   0.691   0.750   6.537
  622SOL    HW2 2766   0.739   0.839   6.666
  623SOL     OW 2767   0.222   5.185   5.028
  623SOL    HW1 2768   0.290   5.249   5.064
  623SOL    HW2 2769   0.158   5.160   5.101
  624SOL     OW 2770   0.842   1.551   1.168
  624SOL    HW1 2771   0.843   1.534   1.070
  624SOL    HW2 2772   0.879   1.642   1.187
  625SOL     OW 2773   1.744   1.535   2.792
  625SOL    HW1 2774   1.674   1.524   2.721
  625SOL    HW2 2775   1.810   1.460   2.785
  626SOL     OW 2776   3.094   6.716   4.649
  626SOL    HW1 2777   3.127   6.736   4.557
  626SOL    HW2 2778   3.126   6.787   4.712
  627SOL     OW 2779   5.483   6.959   0.118
  627SOL    HW1 2780   5.506   6.947   0.215
  627SOL    HW2 2781   5.473   6.870   0.075
  628SOL     OW 2782   5.609   4.213   3.118
  628SOL    HW1 2783   5.664   4.187   3.039
  628SOL    HW2 2784   5.616   4.143   3.189
  629SOL     OW 2785   1.178   6.727   1.386
  629SOL    HW1 2786   1.191   6.782   1.469
  629SOL    HW2 2787   1.264   6.684   1.360
  630SOL     OW 2788   3.170   2.022   1.046
  630SOL    HW1 2789   3.161   2.078   1.129
  630SOL    HW2 2790   3.249   1.961   1.056
  631SOL     OW 2791   2.440   0.279   4.723
  631SOL    HW1 2792   2.529   0.273   4.769
  631SOL    HW2 2793   2.405   0.187   4.706
  632SOL     OW 2794   2.960   0.397   1.059
  632SOL    HW1 2795   2.936   0.390   0.962
  632SOL    HW2 2796   3.016   0.479   1.074
  633SOL     OW 2797   2.350   6.740   5.177
  633SOL    HW1 2798   2.362   6.681   5.257
  633SOL    HW2 2799   2.430   6.734   5.118
  634SOL     OW 2800   2.758   5.213   2.074
  634SOL    HW1 2801   2.683   5.273   2.102
  634SOL    HW2 2802   2.764   5.212   1.974
  635SOL     OW 2803   2.814   0.474   3.043
  635SOL    HW1 2804   2.826   0.535   2.965
  635SOL    HW2 2805   2.717   0.467   3.065
  636SOL     OW 2806   5.052   5.639   6.834
  636SOL    HW1 2807   4.983   5.568   6.826
  636SOL    HW2 2808   5.065   5.684   6.745
  637SOL     OW 2809   5.841   4.373   0.248
  637SOL    HW1 2810   5.826   4.440   0.321
  637SOL    HW2 2811   5.939   4.352   0.242
  638SOL     OW 2812   5.278   1.351   2.966
  638SOL    HW1 2813   5.271   1.268   3.021
  638SOL    HW2 2814   5.366   1.354   2.919
  639SOL     OW 2815   4.880   3.952   2.302
  639SOL    HW1 2816   4.898   4.050   2.296
  639SOL    HW2 2817   4.788   3.937   2.338
  640SOL     OW 2818   2.159   3.229   5.709
  640SOL    HW1 2819   2.129   3.151   5.655
  640SOL    HW2 2820   2.110   3.230   5.797
  641SOL     OW 2821   0.608   5.813   5.774
  641SOL    HW1 2822   0.558   5.771   5.849
  641SOL    HW2 2823   0.562   5.896   5.745
  642SOL     OW 2824   1.313   4.722   6.232
  642SOL    HW1 2825   1.337   4.685   6.142
  642SOL    HW2 2826   1.222   4.689   6.257
  643SOL     OW 2827   5.883   6.025   5.161
  643SOL    HW1 2828   5.902   5.935   5.199
  643SOL    HW2 2829   5.930   6.035   5.074
  644SOL     OW 2830   2.379   5.650   2.105
  644SOL    HW1 2831   2.321   5.614   2.178
  644SOL    HW2 2832   2.343   5.738   2.074
  645SOL     OW 2833   6.511   2.514   2.854
  645SOL    HW1 2834   6.452   2.552   2.925
  645SOL    HW2 2835   6.604   2.550   2.866
  646SOL     OW 2836   1.004   2.498   4.444
  646SOL    HW1 2837   1.071   2.452   4.387
  646SOL    HW2 2838   1.012   2.465   4.538
  647SOL     OW 2839   5.216   3.085   0.043
  647SOL    HW1 2840   5.254   3.100   0.134
  647SOL    HW2 2841   5.188   2.990   0.034
  648SOL     OW 2842   4.786   2.191   3.977
  648SOL    HW1 2843   4.712   2.125   3.991
  648SOL    HW2 2844   4.763   2.250   3.900
  649SOL     OW 2845   4.422   4.592   1.963
  649SOL    HW1 2846   4.481   4.631   1.893
  649SOL    HW2 2847   4.452   4.499   1.984
  650SOL     OW 2848   5.273   4.230   0.662
  650SOL    HW1 2849   5.213   4.155   0.690
  650SOL    HW2 2850   5.234   4.276   0.582
  651SOL     OW 2851   0.958   6.428   6.304
  651SOL    HW1 2852   0.964   6.334   6.337
  651SOL    HW2 2853   0.863   6.452   6.285
  652SOL     OW 2854   5.175   1.560   2.537
  652SOL    HW1 2855   5.239   1.635   2.552
  652SOL    HW2 2856   5.083   1.596   2.525
  653SOL     OW 2857   3.162   5.097   3.016
  653SOL    HW1 2858   3.144   5.166   2.946
  653SOL    HW2 2859   3.095   5.023   3.008
  654SOL     OW 2860   6.211   5.708   6.476
  654SOL    HW1 2861   6.114   5.723   6.456
  654SOL    HW2 2862   6.231   5.610   6.474
  655SOL     OW 2863   0.189   1.241   0.148
  655SOL    HW1 2864   0.259   1.177   0.179
  655SOL    HW2 2865   0.208   1.269   0.054
  656SOL     OW 2866   2.402   6.043   1.185
  656SOL    HW1 2867   2.488   5.995   1.167
  656SOL    HW2 2868   2.342   6.035   1.106
  657SOL     OW 2869   3.721   1.572   6.949
  657SOL    HW1 2870   3.771   1.657   6.937
  657SOL    HW2 2871   3.757   1.523   7.029
  658SOL     OW 2872   3.799   5.462   6.273
  658SOL    HW1 2873   3.853   5.530   6.222
  658SOL    HW2 2874   3.850   5.376   6.278
  659SOL     OW 2875   3.875   0.307   5.550
  659SOL    HW1 2876   3.909   0.287   5.458
  659SOL    HW2 2877   3.843   0.402   5.553
  660SOL     OW 2878   3.634   5.456   3.216
  660SOL    HW1 2879   3.571   5.405   3.157
  660SOL    HW2 2880   3.590   5.475   3.303
  661SOL     OW 2881   6.090   5.595   2.890
  661SOL    HW1 2882   6.115   5.570   2.796
  661SOL    HW2 2883   6.150   5.668   2.923
  662SOL     OW 2884   3.798   1.591   0.555
  662SOL    HW1 2885   3.737   1.585   0.476
  662SOL    HW2 2886   3.854   1.673   0.547
  663SOL     OW 2887   1.863   4.691   4.947
  663SOL    HW1 2888   1.929   4.714   4.876
  663SOL    HW2 2889   1.879   4.747   5.028
  664SOL     OW 2890   5.575   0.617   6.788
  664SOL    HW1 2891   5.664   0.602   6.831
  664SOL    HW2 2892   5.502   0.596   6.854
  665SOL     OW 2893   1.418   4.417   2.211
  665SOL    HW1 2894   1.448   4.456   2.124
  665SOL    HW2 2895   1.337   4.466   2.243
  666SOL     OW 2896   4.433   1.403   1.140
  666SOL    HW1 2897   4.527   1.437   1.142
  666SOL    HW2 2898   4.384   1.435   1.221
  667SOL     OW 2899   1.286   6.968   2.463
  667SOL    HW1 2900   1.359   7.000   2.403
  667SOL    HW2 2901   1.197   6.987   2.421
  668SOL     OW 2902   5.374   3.786   0.636
  668SOL    HW1 2903   5.441   3.815   0.704
  668SOL    HW2 2904   5.370   3.853   0.562
  669SOL     OW 2905   4.933   1.725   2.448
  669SOL    HW1 2906   4.842   1.743   2.411
  669SOL    HW2 2907   5.002   1.739   2.377
  670SOL     OW 2908   3.322   2.015   3.217
  670SOL    HW1 2909   3.314   1.918   3.241
  670SOL    HW2 2910   3.288   2.071   3.292
  671SOL     OW 2911   2.391   6.573   1.917
  671SOL    HW1 2912   2.472   6.557   1.860
  671SOL    HW2 2913   2.327   6.631   1.867
  672SOL     OW 2914   0.857   6.858   2.293
  672SOL    HW1 2915   0.884   6.884   2.201
  672SOL    HW2 2916   0.876   6.762   2.309
  673SOL     OW 2917   5.964   6.920   6.842
  673SOL    HW1 2918   6.055   6.954   6.864
  673SOL    HW2 2919   5.944   6.939   6.746
  674SOL     OW 2920   5.068   0.432   3.863
  674SOL    HW1 2921   5.031   0.412   3.773
  674SOL    HW2 2922   5.160   0.470   3.854
  675SOL     OW 2923   0.454   3.895   3.263
  675SOL    HW1 2924   0.440   3.918   3.167
  675SOL    HW2 2925   0.496   3.973   3.310
  676SOL     OW 2926   2.327   6.429   6.056
  676SOL    HW1 2927   2.268   6.420   5.976
  676SOL    HW2 2928   2.296   6.367   6.128
  677SOL     OW 2929   5.741   1.755   1.039
  677SOL    HW1 2930   5.660   1.725   0.989
  677SOL    HW2 2931   5.749   1.704   1.124
  678SOL     OW 2932   1.014   5.153   3.807
  678SOL    HW1 2933   0.996   5.109   3.719
  678SOL    HW2 2934   1.064   5.090   3.866
  679SOL     OW 2935   4.529   1.969   5.233
  679SOL    HW1 2936   4.439   1.927   5.227
  679SOL    HW2 2937   4.597   1.900   5.258
  680SOL     OW 2938   6.273   5.993   4.081
  680SOL    HW1 2939   6.349   5.932   4.102
  680SOL    HW2 2940   6.257   6.055   4.158
  681SOL     OW 2941   4.753   4.215   3.052
  681SOL    HW1 2942   4.717   4.156   2.980
  681SOL    HW2 2943   4.846   4.187   3.076
  682SOL     OW 2944   0.246   1.249   2.916
  682SOL    HW1 2945   0.201   1.181   2.858
  682SOL    HW2 2946   0.329   1.210   2.956
  683SOL     OW 2947   3.324   4.110   1.271
  683SOL    HW1 2948   3.268   4.065   1.339
  683SOL    HW2 2949   3.420   4.083   1.282
  684SOL     OW 2950   6.641   1.388   5.730
  684SOL    HW1 2951   6.718   1.447   5.707
  684SOL    HW2 2952   6.649   1.302   5.680
  685SOL     OW 2953   2.752   6.923   2.842
  685SOL    HW1 2954   2.811   6.867   2.783
  685SOL    HW2 2955   2.709   6.995   2.787
  686SOL     OW 2956   3.843   0.626   4.854
  686SOL    HW1 2957   3.819   0.718   4.825
  686SOL    HW2 2958   3.938   0.624   4.884
  687SOL     OW 2959   6.952   1.459   3.695
  687SOL    HW1 2960   6.879   1.398   3.722
  687SOL    HW2 2961   0.007   1.436   3.745
  688SOL     OW 2962   5.930   1.537   0.256
  688SOL    HW1 2963   5.940   1.630   0.222
  688SOL    HW2 2964   6.020   1.495   0.265
  689SOL     OW 2965   1.522   5.736   6.872
  689SOL    HW1 2966   1.462   5.813   6.853
  689SOL    HW2 2967   1.591   5.728   6.800
  690SOL     OW 2968   5.671   3.862   3.121
  690SOL    HW1 2969   5.602   3.867   3.049
  690SOL    HW2 2970   5.657   3.778   3.174
  691SOL     OW 2971   6.254   1.654   1.504
  691SOL    HW1 2972   6.194   1.578   1.481
  691SOL    HW2 2973   6.347   1.635   1.473
  692SOL     OW 2974   1.682   0.663   4.992
  692SOL    HW1 2975   1.648   0.751   4.959
  692SOL    HW2 2976   1.770   0.643   4.948
  693SOL     OW 2977   5.785   5.126   3.073
  693SOL    HW1 2978   5.864   5.172   3.033
  693SOL    HW2 2979   5.812   5.078   3.156
  694SOL     OW 2980   4.418   6.057   4.658
  694SOL    HW1 2981   4.372   6.143   4.677
  694SOL    HW2 2982   4.363   6.002   4.595
  695SOL     OW 2983   4.727   6.946   3.755
  695SOL    HW1 2984   4.784   6.990   3.825
  695SOL    HW2 2985   4.768   6.959   3.665
  696SOL     OW 2986   5.790   4.211   2.433
  696SOL    HW1 2987   5.866   4.276   2.425
  696SOL    HW2 2988   5.816   4.137   2.495
  697SOL     OW 2989   1.107   6.332   1.951
  697SOL    HW1 2990   1.125   6.324   2.049
  697SOL    HW2 2991   1.044   6.408   1.936
  698SOL     OW 2992   5.657   6.016   6.644
  698SOL    HW1 2993   5.686   6.024   6.549
  698SOL    HW2 2994   5.575   6.072   6.658
  699SOL     OW 2995   3.064   3.226   0.935
  699SOL    HW1 2996   3.100   3.238   1.028
  699SOL    HW2 2997   2.977   3.274   0.927
  700SOL     OW 2998   3.956   6.822   4.863
  700SOL    HW1 2999   3.857   6.813   4.860
  700SOL    HW2 3000   3.982   6.885   4.935
  701SOL     OW 3001   4.700   5.385   1.349
  701SOL    HW1 3002   4.772   5.359   1.413
  701SOL    HW2 3003   4.638   5.308   1.336
  702SOL     OW 3004   4.310   0.686   4.679
  702SOL    HW1 3005   4.272   0.643   4.597
  702SOL    HW2 3006   4.401   0.721   4.658
  703SOL     OW 3007   2.698   2.513   0.235
  703SOL    HW1 3008   2.624   2.476   0.178
  703SOL    HW2 3009   2.781   2.522   0.181
  704SOL     OW 3010   2.991   1.939   5.361
  704SOL    HW1 3011   2.965   2.026   5.403
  704SOL    HW2 3012   3.061   1.895   5.417
  705SOL     OW 3013   0.381   6.415   5.356
  705SOL    HW1 3014   0.438   6.456   5.285
  705SOL    HW2 3015   0.373   6.317   5.339
  706SOL     OW 3016   3.756   1.242   4.346
  706SOL    HW1 3017   3.805   1.275   4.426
  706SOL    HW2 3018   3.744   1.143   4.352
  707SOL     OW 3019   2.865   5.309   4.293
  707SOL    HW1 3020   2.771   5.282   4.269
  707SOL    HW2 3021   2.876   5.407   4.277
  708SOL     OW 3022   5.201   5.941   3.963
  708SOL    HW1 3023   5.126   5.961   3.899
  708SOL    HW2 3024   5.255   5.864   3.929
  709SOL     OW 3025   2.341   0.764   1.275
  709SOL    HW1 3026   2.322   0.667   1.265
  709SOL    HW2 3027   2.303   0.814   1.198
  710SOL     OW 3028   5.119   3.313   1.930
  710SOL    HW1 3029   5.053   3.320   1.855
  710SOL    HW2 3030   5.092   3.240   1.992
  711SOL     OW 3031   0.195   1.631   0.393
  711SOL    HW1 3032   0.254   1.687   0.335
  711SOL    HW2 3033   0.227   1.536   0.390
  712SOL     OW 3034   4.777   4.103   6.985
  712SOL    HW1 3035   4.714   4.169   7.026
  712SOL    HW2 3036   4.855   4.090   0.017
  713SOL     OW 3037   4.329   3.664   5.531
  713SOL    HW1 3038   4.265   3.729   5.489
  713SOL    HW2 3039   4.420   3.677   5.492
  714SOL     OW 3040   5.234   5.830   3.060
  714SOL    HW1 3041   5.324   5.813   3.019
  714SOL    HW2 3042   5.228   5.782   3.147
  715SOL     OW 3043   6.090   4.619   5.394
  715SOL    HW1 3044   6.017   4.685   5.384
  715SOL    HW2 3045   6.179   4.665   5.384
  716SOL     OW 3046   2.968   2.216   3.323
  716SOL    HW1 3047   2.955   2.236   3.226
  716SOL    HW2 3048   2.893   2.254   3.376
  717SOL     OW 3049   5.087   5.009   4.189
  717SOL    HW1 3050   5.079   5.083   4.123
  717SOL    HW2 3051   5.064   5.042   4.280
  718SOL     OW 3052   5.638   2.378   5.236
  718SOL    HW1 3053   5.718   2.334   5.276
  718SOL    HW2 3054   5.637   2.363   5.137
  719SOL     OW 3055   5.064   6.568   3.568
  719SOL    HW1 3056   5.012   6.492   3.607
  719SOL    HW2 3057   5.014   6.606   3.490
  720SOL     OW 3058   2.756   1.221   1.213
  720SOL    HW1 3059   2.785   1.312   1.244
  720SOL    HW2 3060   2.836   1.168   1.187
  721SOL     OW 3061   6.904   2.505   1.872
  721SOL    HW1 3062   6.893   2.544   1.963
  721SOL    HW2 3063   6.907   2.405   1.878
  722SOL     OW 3064   4.997   6.044   0.835
  722SOL    HW1 3065   4.922   6.008   0.780
  722SOL    HW2 3066   4.962   6.117   0.895
  723SOL     OW 3067   2.231   0.480   4.758
  723SOL    HW1 3068   2.219   0.550   4.828
  723SOL    HW2 3069   2.320   0.436   4.770
  724SOL     OW 3070   0.917   1.957   4.270
  724SOL    HW1 3071   0.893   1.923   4.361
  724SOL    HW2 3072   0.856   1.917   4.202
  725SOL     OW 3073   1.948   4.531   2.836
  725SOL    HW1 3074   2.020   4.577   2.888
  725SOL    HW2 3075   1.883   4.488   2.899
  726SOL     OW 3076   1.716   3.699   1.069
  726SOL    HW1 3077   1.802   3.745   1.045
  726SOL    HW2 3078   1.733   3.635   1.143
  727SOL     OW 3079   3.759   5.286   4.738
  727SOL    HW1 3080   3.717   5.195   4.746
  727SOL    HW2 3081   3.781   5.304   4.643
  728SOL     OW 3082   6.727   3.008   3.654
  728SOL    HW1 3083   6.665   2.979   3.581
  728SOL    HW2 3084   6.747   2.931   3.714
  729SOL     OW 3085   0.616   4.314   0.934
  729SOL    HW1 3086   0.669   4.300   1.017
  729SOL    HW2 3087   0.667   4.278   0.855
  730SOL     OW 3088   4.128   1.420   3.142
  730SOL    HW1 3089   4.038   1.375   3.136
  730SOL    HW2 3090   4.187   1.368   3.202
  731SOL     OW 3091   4.560   4.702   4.364
  731SOL    HW1 3092   4.583   4.613   4.404
  731SOL    HW2 3093   4.642   4.743   4.325
  732SOL     OW 3094   3.709   1.078   5.259
  732SOL    HW1 3095   3.624   1.125   5.282
  732SOL    HW2 3096   3.743   1.112   5.172
  733SOL     OW 3097   6.097   5.205   3.553
  733SOL    HW1 3098   6.110   5.267   3.630
  733SOL    HW2 3099   6.105   5.256   3.467
  734SOL     OW 3100   6.232   6.886   2.443
  734SOL    HW1 3101   6.166   6.854   2.376
  734SOL    HW2 3102   6.321   6.899   2.399
  735SOL     OW 3103   4.332   0.170   1.980
  735SOL    HW1 3104   4.421   0.154   2.024
  735SOL    HW2 3105   4.338   0.145   1.884
  736SOL     OW 3106   2.197   1.425   3.837
  736SOL    HW1 3107   2.168   1.456   3.747
  736SOL    HW2 3108   2.272   1.359   3.827
  737SOL     OW 3109   3.554   0.917   6.344
  737SOL    HW1 3110   3.486   0.973   6.297
  737SOL    HW2 3111   3.578   0.838   6.287
  738SOL     OW 3112   2.280   4.681   0.331
  738SOL    HW1 3113   2.296   4.733   0.416
  738SOL    HW2 3114   2.259   4.745   0.257
  739SOL     OW 3115   2.252   6.772   3.703
  739SOL    HW1 3116   2.291   6.695   3.753
  739SOL    HW2 3117   2.311   6.852   3.714
  740SOL     OW 3118   4.944   3.433   3.187
  740SOL    HW1 3119   5.006   3.495   3.235
  740SOL    HW2 3120   4.934   3.349   3.239
  741SOL     OW 3121   2.990   0.872   3.031
  741SOL    HW1 3122   3.013   0.806   3.102
  741SOL    HW2 3123   2.895   0.900   3.041
  742SOL     OW 3124   2.217   6.043   1.832
  742SOL    HW1 3125   2.125   6.053   1.796
  742SOL    HW2 3126   2.271   6.125   1.811
  743SOL     OW 3127   0.558   6.353   2.998
  743SOL    HW1 3128   0.488   6.418   2.968
  743SOL    HW2 3129   0.576   6.288   2.924
  744SOL     OW 3130   5.088   1.792   6.978
  744SOL    HW1 3131   4.991   1.813   6.973
  744SOL    HW2 3132   5.102   1.710   0.005
  745SOL     OW 3133   2.563   6.666   4.584
  745SOL    HW1 3134   2.476   6.627   4.554
  745SOL    HW2 3135   2.630   6.592   4.596
  746SOL     OW 3136   0.281   4.966   4.840
  746SOL    HW1 3137   0.282   5.035   4.913
  746SOL    HW2 3138   0.339   4.996   4.765
  747SOL     OW 3139   5.074   5.835   2.563
  747SOL    HW1 3140   5.002   5.868   2.501
  747SOL    HW2 3141   5.123   5.913   2.601
  748SOL     OW 3142   5.399   5.194   1.481
  748SOL    HW1 3143   5.331   5.249   1.530
  748SOL    HW2 3144   5.467   5.160   1.546
  749SOL     OW 3145   5.030   4.330   4.827
  749SOL    HW1 3146   5.017   4.237   4.793
  749SOL    HW2 3147   5.034   4.393   4.750
  750SOL     OW 3148   2.395   1.930   2.509
  750SOL    HW1 3149   2.331   1.997   2.472
  750SOL    HW2 3150   2.364   1.900   2.599
  751SOL     OW 3151   3.483   0.598   0.772
  751SOL    HW1 3152   3.475   0.641   0.682
  751SOL    HW2 3153   3.433   0.652   0.840
  752SOL     OW 3154   3.594   2.738   5.299
  752SOL    HW1 3155   3.494   2.733   5.290
  752SOL    HW2 3156   3.634   2.761   5.211
  753SOL     OW 3157   3.609   3.858   4.327
  753SOL    HW1 3158   3.519   3.875   4.367
  753SOL    HW2 3159   3.651   3.945   4.299
  754SOL     OW 3160   5.535   0.541   0.402
  754SOL    HW1 3161   5.454   0.525   0.345
  754SOL    HW2 3162   5.511   0.530   0.498
  755SOL     OW 3163   4.468   4.346   5.341
  755SOL    HW1 3164   4.403   4.378   5.272
  755SOL    HW2 3165   4.443   4.253   5.370
  756SOL     OW 3166   2.335   5.061   6.286
  756SOL    HW1 3167   2.288   5.082   6.372
  756SOL    HW2 3168   2.277   5.001   6.230
  757SOL     OW 3169   2.008   5.955   1.989
  757SOL    HW1 3170   1.925   6.008   1.968
  757SOL    HW2 3171   2.088   6.003   1.954
  758SOL     OW 3172   5.154   0.846   4.286
  758SOL    HW1 3173   5.126   0.828   4.380
  758SOL    HW2 3174   5.243   0.803   4.270
  759SOL     OW 3175   0.612   3.672   3.897
  759SOL    HW1 3176   0.514   3.681   3.878
  759SOL    HW2 3177   0.650   3.598   3.841
  760SOL     OW 3178   6.611   4.816   3.465
  760SOL    HW1 3179   6.539   4.816   3.534
  760SOL    HW2 3180   6.687   4.759   3.496
  761SOL     OW 3181   4.895   5.246   6.298
  761SOL    HW1 3182   4.863   5.231   6.205
  761SOL    HW2 3183   4.902   5.158   6.346
  762SOL     OW 3184   3.644   6.047   3.228
  762SOL    HW1 3185   3.582   6.073   3.155
  762SOL    HW2 3186   3.626   5.952   3.255
  763SOL     OW 3187   5.561   0.376   0.633
  763SOL    HW1 3188   5.466   0.368   0.665
  763SOL    HW2 3189   5.593   0.287   0.602
  764SOL     OW 3190   5.418   6.872   5.553
  764SOL    HW1 3191   5.477   6.808   5.603
  764SOL    HW2 3192   5.357   6.918   5.617
  765SOL     OW 3193   6.370   6.934   0.301
  765SOL    HW1 3194   6.336   6.894   0.216
  765SOL    HW2 3195   6.431   6.870   0.346
  766SOL     OW 3196   2.640   1.890   4.384
  766SOL    HW1 3197   2.610   1.900   4.289
  766SOL    HW2 3198   2.689   1.972   4.412
  767SOL     OW 3199   6.670   5.490   4.077
  767SOL    HW1 3200   6.678   5.457   3.983
  767SOL    HW2 3201   6.725   5.572   4.088
  768SOL     OW 3202   1.870   5.221   3.037
  768SOL    HW1 3203   1.772   5.242   3.043
  768SOL    HW2 3204   1.911   5.279   2.967
  769SOL     OW 3205   3.131   2.338   5.590
  769SOL    HW1 3206   3.075   2.420   5.586
  769SOL    HW2 3207   3.073   2.257   5.597
  770SOL     OW 3208   1.258   5.022   6.066
  770SOL    HW1 3209   1.277   5.030   5.968
  770SOL    HW2 3210   1.176   4.967   6.080
  771SOL     OW 3211   1.272   5.119   2.881
  771SOL    HW1 3212   1.278   5.025   2.847
  771SOL    HW2 3213   1.328   5.128   2.964
  772SOL     OW 3214   5.505   4.458   0.294
  772SOL    HW1 3215   5.517   4.542   0.347
  772SOL    HW2 3216   5.520   4.378   0.353
  773SOL     OW 3217   1.905   3.902   3.780
  773SOL    HW1 3218   1.963   3.926   3.857
  773SOL    HW2 3219   1.822   3.958   3.781
  774SOL     OW 3220   2.283   0.894   3.519
  774SOL    HW1 3221   2.349   0.859   3.586
  774SOL    HW2 3222   2.252   0.984   3.548
  775SOL     OW 3223   1.458   4.740   3.167
  775SOL    HW1 3224   1.527   4.801   3.127
  775SOL    HW2 3225   1.471   4.647   3.132
  776SOL     OW 3226   2.235   5.214   5.939
  776SOL    HW1 3227   2.321   5.214   5.889
  776SOL    HW2 3228   2.224   5.301   5.988
  777SOL     OW 3229   2.031   3.579   6.013
  777SOL    HW1 3230   2.064   3.663   6.056
  777SOL    HW2 3231   1.993   3.519   6.083
  778SOL     OW 3232   3.173   5.547   6.914
  778SOL    HW1 3233   3.095   5.507   6.866
  778SOL    HW2 3234   3.237   5.585   6.847
  779SOL     OW 3235   6.058   2.282   2.947
  779SOL    HW1 3236   5.975   2.281   3.003
  779SOL    HW2 3237   6.062   2.367   2.895
  780SOL     OW 3238   6.799   2.133   5.251
  780SOL    HW1 3239   6.733   2.187   5.304
  780SOL    HW2 3240   6.883   2.185   5.239
  781SOL     OW 3241   0.117   4.440   6.702
  781SOL    HW1 3242   0.162   4.443   6.613
  781SOL    HW2 3243   0.075   4.528   6.722
  782SOL     OW 3244   1.814   3.687   5.024
  782SOL    HW1 3245   1.873   3.647   5.094
  782SOL    HW2 3246   1.869   3.740   4.960
  783SOL     OW 3247   6.364   4.928   6.831
  783SOL    HW1 3248   6.286   4.991   6.839
  783SOL    HW2 3249   6.346   4.862   6.758
  784SOL     OW 3250   2.301   5.819   0.677
  784SOL    HW1 3251   2.309   5.918   0.684
  784SOL    HW2 3252   2.247   5.784   0.754
  785SOL     OW 3253   0.703   1.028   4.251
  785SOL    HW1 3254   0.639   0.967   4.299
  785SOL    HW2 3255   0.738   0.982   4.170
  786SOL     OW 3256   5.930   0.567   4.044
  786SOL    HW1 3257   5.956   0.618   4.126
  786SOL    HW2 3258   5.982   0.482   4.040
  787SOL     OW 3259   2.249   0.113   1.294
  787SOL    HW1 3260   2.285   0.034   1.343
  787SOL    HW2 3261   2.215   0.085   1.204
  788SOL     OW 3262   2.141   2.586   1.745
  788SOL    HW1 3263   2.199   2.518   1.789
  788SOL    HW2 3264   2.111   2.552   1.656
  789SOL     OW 3265   4.177   4.700   2.578
  789SOL    HW1 3266   4.100   4.648   2.541
  789SOL    HW2 3267   4.263   4.658   2.549
  790SOL     OW 3268   0.443   3.147   1.998
  790SOL    HW1 3269   0.529   3.175   2.040
  790SOL    HW2 3270   0.366   3.180   2.054
  791SOL     OW 3271   2.925   6.925   3.591
  791SOL    HW1 3272   2.878   6.895   3.508
  791SOL    HW2 3273   2.872   6.997   3.635
  792SOL     OW 3274   2.135   0.364   0.624
  792SOL    HW1 3275   2.197   0.420   0.680
  792SOL    HW2 3276   2.101   0.419   0.548
  793SOL     OW 3277   2.467   6.193   4.505
  793SOL    HW1 3278   2.482   6.220   4.410
  793SOL    HW2 3279   2.550   6.209   4.558
  794SOL     OW 3280   3.284   3.033   2.697
  794SOL    HW1 3281   3.324   3.090   2.769
  794SOL    HW2 3282   3.190   3.010   2.722
  795SOL     OW 3283   4.874   0.881   5.736
  795SOL    HW1 3284   4.854   0.800   5.791
  795SOL    HW2 3285   4.848   0.963   5.787
  796SOL     OW 3286   0.212   2.437   0.165
  796SOL    HW1 3287   0.252   2.518   0.208
  796SOL    HW2 3288   0.212   2.360   0.229
  797SOL     OW 3289   3.433   6.767   1.249
  797SOL    HW1 3290   3.388   6.689   1.204
  797SOL    HW2 3291   3.387   6.851   1.222
  798SOL     OW 3292   5.239   5.272   1.244
  798SOL    HW1 3293   5.149   5.230   1.254
  798SOL    HW2 3294   5.281   5.284   1.334
  799SOL     OW 3295   2.729   2.807   6.019
  799SOL    HW1 3296   2.632   2.831   6.012
  799SOL    HW2 3297   2.783   2.891   6.031
  800SOL     OW 3298   5.365   2.890   3.235
  800SOL    HW1 3299   5.398   2.937   3.317
  800SOL    HW2 3300   5.366   2.953   3.157
  801SOL     OW 3301   1.850   5.971   6.797
  801SOL    HW1 3302   1.882   5.877   6.782
  801SOL    HW2 3303   1.780   5.994   6.730
  802SOL     OW 3304   4.626   2.448   6.819
  802SOL    HW1 3305   4.692   2.522   6.827
  802SOL    HW2 3306   4.585   2.429   6.908
  803SOL     OW 3307   2.393   1.937   4.194
  803SOL    HW1 3308   2.356   1.866   4.134
  803SOL    HW2 3309   2.380   1.911   4.289
  804SOL     OW 3310   5.157   0.692   2.811
  804SOL    HW1 3311   5.090   0.738   2.871
  804SOL    HW2 3312   5.163   0.596   2.836
  805SOL     OW 3313   3.631   0.611   3.980
  805SOL    HW1 3314   3.616   0.630   3.883
  805SOL    HW2 3315   3.542   0.599   4.026
  806SOL     OW 3316   3.203   6.318   5.366
  806SOL    HW1 3317   3.199   6.386   5.439
  806SOL    HW2 3318   3.279   6.341   5.304
  807SOL     OW 3319   1.012   6.103   5.826
  807SOL    HW1 3320   1.081   6.166   5.862
  807SOL    HW2 3321   1.008   6.022   5.883
  808SOL     OW 3322   5.199   3.014   5.874
  808SOL    HW1 3323   5.182   3.006   5.776
  808SOL    HW2 3324   5.125   3.065   5.918
  809SOL     OW 3325   2.779   5.543   6.961
  809SOL    HW1 3326   2.751   5.502   0.019
  809SOL    HW2 3327   2.837   5.478   6.911
  810SOL     OW 3328   3.471   3.712   0.281
  810SOL    HW1 3329   3.423   3.734   0.196
  810SOL    HW2 3330   3.456   3.785   0.347
  811SOL     OW 3331   6.347   5.494   4.631
  811SOL    HW1 3332   6.445   5.482   4.614
  811SOL    HW2 3333   6.319   5.433   4.705
  812SOL     OW 3334   0.969   3.613   1.517
  812SOL    HW1 3335   1.055   3.630   1.468
  812SOL    HW2 3336   0.945   3.516   1.508
  813SOL     OW 3337   1.939   1.362   5.497
  813SOL    HW1 3338   1.843   1.338   5.511
  813SOL    HW2 3339   1.996   1.280   5.509
  814SOL     OW 3340   0.838   4.237   2.866
  814SOL    HW1 3341   0.825   4.172   2.941
  814SOL    HW2 3342   0.759   4.299   2.861
  815SOL     OW 3343   4.372   2.036   4.624
  815SOL    HW1 3344   4.314   2.118   4.633
  815SOL    HW2 3345   4.387   1.996   4.715
  816SOL     OW 3346   5.740   3.708   6.635
  816SOL    HW1 3347   5.691   3.795   6.627
  816SOL    HW2 3348   5.814   3.705   6.568
  817SOL     OW 3349   0.450   5.018   6.443
  817SOL    HW1 3350   0.450   5.073   6.527
  817SOL    HW2 3351   0.541   4.980   6.429
  818SOL     OW 3352   0.004   2.010   5.110
  818SOL    HW1 3353   6.977   2.019   5.027
  818SOL    HW2 3354   0.009   2.098   5.157
  819SOL     OW 3355   4.849   3.304   1.753
  819SOL    HW1 3356   4.791   3.376   1.791
  819SOL    HW2 3357   4.792   3.241   1.700
  820SOL     OW 3358   2.479   2.223   5.234
  820SOL    HW1 3359   2.422   2.161   5.289
  820SOL    HW2 3360   2.550   2.171   5.187
  821SOL     OW 3361   5.163   3.177   6.617
  821SOL    HW1 3362   5.149   3.243   6.691
  821SOL    HW2 3363   5.258   3.147   6.615
  822SOL     OW 3364   0.430   4.948   3.361
  822SOL    HW1 3365   0.357   5.006   3.398
  822SOL    HW2 3366   0.441   4.867   3.419
  823SOL     OW 3367   1.906   2.923   4.715
  823SOL    HW1 3368   1.892   2.998   4.650
  823SOL    HW2 3369   1.995   2.932   4.758
  824SOL     OW 3370   4.963   0.155   6.523
  824SOL    HW1 3371   4.949   0.214   6.602
  824SOL    HW2 3372   4.876   0.113   6.497
  825SOL     OW 3373   6.020   5.833   1.076
  825SOL    HW1 3374   6.045   5.806   0.983
  825SOL    HW2 3375   5.923   5.859   1.079
  826SOL     OW 3376   3.695   2.084   0.215
  826SOL    HW1 3377   3.655   2.014   0.157
  826SOL    HW2 3378   3.646   2.088   0.302
  827SOL     OW 3379   3.472   3.667   4.987
  827SOL    HW1 3380   3.502   3.603   4.916
  827SOL    HW2 3381   3.380   3.643   5.017
  828SOL     OW 3382   0.251   6.469   6.212
  828SOL    HW1 3383   0.229   6.380   6.251
  828SOL    HW2 3384   0.176   6.533   6.229
  829SOL     OW 3385   3.656   3.618   2.262
  829SOL    HW1 3386   3.700   3.676   2.330
  829SOL    HW2 3387   3.577   3.572   2.303
  830SOL     OW 3388   6.489   4.658   0.062
  830SOL    HW1 3389   6.407   4.611   0.028
  830SOL    HW2 3390   6.567   4.596   0.058
  831SOL     OW 3391   5.130   1.348   2.198
  831SOL    HW1 3392   5.202   1.315   2.259
  831SOL    HW2 3393   5.043   1.351   2.248
  832SOL     OW 3394   3.063   1.872   4.943
  832SOL    HW1 3395   3.073   1.773   4.954
  832SOL    HW2 3396   3.106   1.919   5.019
  833SOL     OW 3397   4.083   3.177   6.930
  833SOL    HW1 3398   4.022   3.111   6.887
  833SOL    HW2 3399   4.078   3.167   0.000
  834SOL     OW 3400   5.674   2.274   0.631
  834SOL    HW1 3401   5.601   2.240   0.691
  834SOL    HW2 3402   5.742   2.322   0.685
  835SOL     OW 3403   6.941   0.450   4.511
  835SOL    HW1 3404   6.884   0.369   4.524
  835SOL    HW2 3405   6.883   0.529   4.496
  836SOL     OW 3406   5.149   0.463   4.915
  836SOL    HW1 3407   5.235   0.436   4.872
  836SOL    HW2 3408   5.132   0.408   4.996
  837SOL     OW 3409   1.628   0.318   0.011
  837SOL    HW1 3410   1.714   0.289   6.999
  837SOL    HW2 3411   1.552   0.274   6.993
  838SOL     OW 3412   1.427   5.874   3.599
  838SOL    HW1 3413   1.419   5.786   3.551
  838SOL    HW2 3414   1.493   5.865   3.673
  839SOL     OW 3415   1.249   2.272   0.786
  839SOL    HW1 3416   1.303   2.203   0.738
  839SOL    HW2 3417   1.304   2.354   0.800
  840SOL     OW 3418   4.747   5.076   0.827
  840SOL    HW1 3419   4.695   4.996   0.799
  840SOL    HW2 3420   4.685   5.153   0.842
  841SOL     OW 3421   2.592   5.269   6.613
  841SOL    HW1 3422   2.521   5.297   6.548
  841SOL    HW2 3423   2.588   5.170   6.626
  842SOL     OW 3424   3.791   5.667   1.140
  842SOL    HW1 3425   3.743   5.585   1.173
  842SOL    HW2 3426   3.869   5.639   1.084
  843SOL     OW 3427   1.634   0.381   2.119
  843SOL    HW1 3428   1.590   0.444   2.183
  843SOL    HW2 3429   1.733   0.386   2.129
  844SOL     OW 3430   6.919   0.413   1.785
  844SOL    HW1 3431   6.896   0.475   1.860
  844SOL    HW2 3432   6.861   0.331   1.790
  845SOL     OW 3433   3.284   1.405   2.746
  845SOL    HW1 3434   3.377   1.434   2.727
  845SOL    HW2 3435   3.225   1.486   2.755
  846SOL     OW 3436   2.863   2.387   0.669
  846SOL    HW1 3437   2.821   2.439   0.595
  846SOL    HW2 3438   2.822   2.414   0.757
  847SOL     OW 3439   2.740   3.789   1.601
  847SOL    HW1 3440   2.680   3.710   1.616
  847SOL    HW2 3441   2.711   3.836   1.518
  848SOL     OW 3442   6.433   6.249   0.234
  848SOL    HW1 3443   6.517   6.286   0.194
  848SOL    HW2 3444   6.410   6.163   0.190
  849SOL     OW 3445   5.792   3.106   6.499
  849SOL    HW1 3446   5.859   3.180   6.505
  849SOL    HW2 3447   5.705   3.143   6.466
  850SOL     OW 3448   1.304   1.147   4.883
  850SOL    HW1 3449   1.275   1.222   4.823
  850SOL    HW2 3450   1.389   1.107   4.848
  851SOL     OW 3451   5.674   3.322   5.886
  851SOL    HW1 3452   5.706   3.250   5.948
  851SOL    HW2 3453   5.600   3.373   5.930
  852SOL     OW 3454   0.356   4.091   2.060
  852SOL    HW1 3455   0.264   4.052   2.051
  852SOL    HW2 3456   0.358   4.153   2.138
  853SOL     OW 3457   3.227   3.309   0.620
  853SOL    HW1 3458   3.273   3.304   0.531
  853SOL    HW2 3459   3.269   3.244   0.683
  854SOL     OW 3460   6.195   6.387   5.747
  854SOL    HW1 3461   6.252   6.311   5.715
  854SOL    HW2 3462   6.106   6.384   5.701
  855SOL     OW 3463   5.987   1.458   0.592
  855SOL    HW1 3464   5.926   1.458   0.671
  855SOL    HW2 3465   5.986   1.368   0.549
  856SOL     OW 3466   1.847   5.304   1.960
  856SOL    HW1 3467   1.759   5.346   1.938
  856SOL    HW2 3468   1.920   5.369   1.940
  857SOL     OW 3469   0.106   5.636   4.891
  857SOL    HW1 3470   0.082   5.548   4.932
  857SOL    HW2 3471   0.023   5.690   4.877
  858SOL     OW 3472   4.469   3.892   7.021
  858SOL    HW1 3473   4.538   3.882   0.063
  858SOL    HW2 3474   4.504   3.858   6.934
  859SOL     OW 3475   5.046   5.954   5.383
  859SOL    HW1 3476   5.032   6.004   5.469
  859SOL    HW2 3477   5.144   5.943   5.367
  860SOL     OW 3478   4.386   2.770   6.482
  860SOL    HW1 3479   4.369   2.732   6.573
  860SOL    HW2 3480   4.444   2.706   6.431
  861SOL     OW 3481   1.674   5.085   2.053
  861SOL    HW1 3482   1.601   5.141   2.094
  861SOL    HW2 3483   1.736   5.145   2.002
  862SOL     OW 3484   0.460   3.944   3.550
  862SOL    HW1 3485   0.497   3.854   3.572
  862SOL    HW2 3486   0.477   4.007   3.626
  863SOL     OW 3487   6.185   0.537   1.476
  863SOL    HW1 3488   6.115   0.511   1.543
  863SOL    HW2 3489   6.179   0.636   1.459
  864SOL     OW 3490   5.874   6.556   3.516
  864SOL    HW1 3491   5.788   6.581   3.471
  864SOL    HW2 3492   5.872   6.459   3.541
  865SOL     OW 3493   1.699   5.857   4.975
  865SOL    HW1 3494   1.763   5.814   5.040
  865SOL    HW2 3495   1.729   5.838   4.882
  866SOL     OW 3496   3.644   0.153   1.617
  866SOL    HW1 3497   3.552   0.114   1.604
  866SOL    HW2 3498   3.690   0.105   1.692
  867SOL     OW 3499   6.075   2.476   5.542
  867SOL    HW1 3500   6.132   2.411   5.592
  867SOL    HW2 3501   5.996   2.501   5.597
  868SOL     OW 3502   0.434   2.427   1.364
  868SOL    HW1 3503   0.521   2.418   1.412
  868SOL    HW2 3504   0.451   2.447   1.268
  869SOL     OW 3505   0.057   3.997   3.156
  869SOL    HW1 3506   0.094   3.910   3.189
  869SOL    HW2 3507   0.132   4.059   3.133
  870SOL     OW 3508   3.696   5.271   1.950
  870SOL    HW1 3509   3.599   5.279   1.930
  870SOL    HW2 3510   3.749   5.320   1.881
  871SOL     OW 3511   4.898   2.047   3.279
  871SOL    HW1 3512   4.923   2.080   3.370
  871SOL    HW2 3513   4.965   2.079   3.212
  872SOL     OW 3514   1.238   2.246   4.860
  872SOL    HW1 3515   1.164   2.292   4.812
  872SOL    HW2 3516   1.246   2.283   4.953
  873SOL     OW 3517   4.111   7.010   6.038
  873SOL    HW1 3518   4.177   0.038   5.989
  873SOL    HW2 3519   4.145   6.992   6.130
  874SOL     OW 3520   5.096   3.568   1.597
  874SOL    HW1 3521   5.052   3.522   1.521
  874SOL    HW2 3522   5.029   3.586   1.669
  875SOL     OW 3523   4.871   5.323   1.763
  875SOL    HW1 3524   4.862   5.277   1.674
  875SOL    HW2 3525   4.788   5.308   1.817
  876SOL     OW 3526   6.650   0.201   0.484
  876SOL    HW1 3527   6.620   0.285   0.439
  876SOL    HW2 3528   6.570   0.150   0.516
  877SOL     OW 3529   2.059   3.721   0.065
  877SOL    HW1 3530   2.129   3.649   0.058
  877SOL    HW2 3531   1.992   3.695   0.134
  878SOL     OW 3532   3.810   6.499   4.090
  878SOL    HW1 3533   3.733   6.468   4.146
  878SOL    HW2 3534   3.796   6.595   4.064
  879SOL     OW 3535   5.923   6.679   6.945
  879SOL    HW1 3536   5.923   6.777   6.923
  879SOL    HW2 3537   5.930   6.627   6.860
  880SOL     OW 3538   3.046   3.150   2.498
  880SOL    HW1 3539   3.116   3.215   2.526
  880SOL    HW2 3540   2.966   3.158   2.558
  881SOL     OW 3541   4.821   1.849   0.356
  881SOL    HW1 3542   4.835   1.931   0.302
  881SOL    HW2 3543   4.872   1.773   0.315
  882SOL     OW 3544   1.543   2.771   4.175
  882SOL    HW1 3545   1.638   2.790   4.197
  882SOL    HW2 3546   1.530   2.772   4.076
  883SOL     OW 3547   2.726   0.230   3.346
  883SOL    HW1 3548   2.792   0.229   3.271
  883SOL    HW2 3549   2.709   0.324   3.375
  884SOL     OW 3550   3.907   3.880   5.648
  884SOL    HW1 3551   3.901   3.834   5.559
  884SOL    HW2 3552   3.964   3.961   5.640
  885SOL     OW 3553   4.124   2.735   6.558
  885SOL    HW1 3554   4.203   2.737   6.495
  885SOL    HW2 3555   4.140   2.799   6.632
  886SOL     OW 3556   3.098   1.189   6.539
  886SOL    HW1 3557   3.122   1.098   6.574
  886SOL    HW2 3558   3.159   1.258   6.580
  887SOL     OW 3559   5.435   1.091   5.233
  887SOL    HW1 3560   5.343   1.128   5.246
  887SOL    HW2 3561   5.469   1.053   5.319
  888SOL     OW 3562   0.064   5.916   2.582
  888SOL    HW1 3563   0.052   5.840   2.647
  888SOL    HW2 3564   0.058   6.003   2.631
  889SOL     OW 3565   0.954   3.853   0.033
  889SOL    HW1 3566   1.034   3.794   0.045
  889SOL    HW2 3567   0.903   3.857   0.118
  890SOL     OW 3568   2.558   5.666   4.086
  890SOL    HW1 3569   2.635   5.719   4.050
  890SOL    HW2 3570   2.566   5.661   4.186
  891SOL     OW 3571   4.671   5.466   2.223
  891SOL    HW1 3572   4.729   5.444   2.301
  891SOL    HW2 3573   4.717   5.533   2.165
  892SOL     OW 3574   2.661   4.692   0.777
  892SOL    HW1 3575   2.708   4.605   0.792
  892SOL    HW2 3576   2.706   4.764   0.830
  893SOL     OW 3577   1.712   6.170   2.743
  893SOL    HW1 3578   1.736   6.113   2.822
  893SOL    HW2 3579   1.721   6.266   2.768
  894SOL     OW 3580   0.694   4.405   1.565
  894SOL    HW1 3581   0.657   4.349   1.640
  894SOL    HW2 3582   0.737   4.487   1.603
  895SOL     OW 3583   0.079   5.724   3.921
  895SOL    HW1 3584   0.137   5.674   3.857
  895SOL    HW2 3585   0.076   5.676   4.009
  896SOL     OW 3586   0.613   0.753   6.388
  896SOL    HW1 3587   0.647   0.838   6.349
  896SOL    HW2 3588   0.516   0.763   6.410
  897SOL     OW 3589   4.988   0.817   0.204
  897SOL    HW1 3590   4.928   0.773   0.136
  897SOL    HW2 3591   4.947   0.807   0.295
  898SOL     OW 3592   4.126   6.715   3.047
  898SOL    HW1 3593   4.165   6.624   3.062
  898SOL    HW2 3594   4.041   6.723   3.099
  899SOL     OW 3595   6.889   5.090   0.577
  899SOL    HW1 3596   6.929   4.998   0.567
  899SOL    HW2 3597   6.956   5.159   0.549
  900SOL     OW 3598   5.327   5.456   0.815
  900SOL    HW1 3599   5.276   5.542   0.818
  900SOL    HW2 3600   5.273   5.388   0.765
  901SOL     OW 3601   1.413   0.590   2.770
  901SOL    HW1 3602   1.429   0.588   2.671
  901SOL    HW2 3603   1.458   0.512   2.812
  902SOL     OW 3604   6.045   3.335   1.829
  902SOL    HW1 3605   6.101   3.321   1.747
  902SOL    HW2 3606   6.017   3.247   1.866
  903SOL     OW 3607   0.069   2.141   1.180
  903SOL    HW1 3608   0.034   2.054   1.146
  903SOL    HW2 3609   7.021   2.202   1.201
  904SOL     OW 3610   3.317   0.729   2.244
  904SOL    HW1 3611   3.318   0.756   2.148
  904SOL    HW2 3612   3.268   0.797   2.298
  905SOL     OW 3613   5.801   2.963   6.246
  905SOL    HW1 3614   5.783   2.997   6.339
  905SOL    HW2 3615   5.891   2.919   6.243
  906SOL     OW 3616   5.721   3.113   6.044
  906SOL    HW1 3617   5.637   3.062   6.024
  906SOL    HW2 3618   5.763   3.074   6.126
  907SOL     OW 3619   5.079   3.940   6.576
  907SOL    HW1 3620   5.025   3.862   6.544
  907SOL    HW2 3621   5.173   3.931   6.543
  908SOL     OW 3622   1.487   4.541   2.921
  908SOL    HW1 3623   1.406   4.491   2.953
  908SOL    HW2 3624   1.484   4.551   2.822
  909SOL     OW 3625   5.298   5.464   6.226
  909SOL    HW1 3626   5.361   5.386   6.222
  909SOL    HW2 3627   5.223   5.443   6.289
  910SOL     OW 3628   2.525   4.879   1.145
  910SOL    HW1 3629   2.446   4.819   1.154
  910SOL    HW2 3630   2.505   4.949   1.076
  911SOL     OW 3631   1.014   4.899   6.101
  911SOL    HW1 3632   1.017   4.809   6.145
  911SOL    HW2 3633   0.919   4.928   6.090
  912SOL     OW 3634   5.374   1.483   4.182
  912SOL    HW1 3635   5.289   1.508   4.228
  912SOL    HW2 3636   5.451   1.527   4.228
  913SOL     OW 3637   5.552   6.759   2.675
  913SOL    HW1 3638   5.646   6.764   2.642
  913SOL    HW2 3639   5.492   6.809   2.613
  914SOL     OW 3640   2.990   6.961   6.858
  914SOL    HW1 3641   2.920   6.889   6.851
  914SOL    HW2 3642   3.075   6.929   6.817
  915SOL     OW 3643   5.482   5.787   0.902
  915SOL    HW1 3644   5.565   5.834   0.931
  915SOL    HW2 3645   5.505   5.702   0.856
  916SOL     OW 3646   1.844   2.687   2.564
  916SOL    HW1 3647   1.822   2.590   2.570
  916SOL    HW2 3648   1.875   2.708   2.471
  917SOL     OW 3649   0.140   6.761   0.589
  917SOL    HW1 3650   0.087   6.790   0.510
  917SOL    HW2 3651   0.233   6.796   0.582
  918SOL     OW 3652   2.589   5.589   0.244
  918SOL    HW1 3653   2.530   5.537   0.182
  918SOL    HW2 3654   2.684   5.559   0.232
  919SOL     OW 3655   5.860   1.684   5.044
  919SOL    HW1 3656   5.834   1.731   4.960
  919SOL    HW2 3657   5.782   1.681   5.106
  920SOL     OW 3658   3.109   5.219   2.401
  920SOL    HW1 3659   3.078   5.126   2.382
  920SOL    HW2 3660   3.055   5.284   2.347
  921SOL     OW 3661   4.716   5.414   5.079
  921SOL    HW1 3662   4.673   5.438   5.165
  921SOL    HW2 3663   4.645   5.400   5.009
  922SOL     OW 3664   3.668   3.002   3.868
  922SOL    HW1 3665   3.755   3.029   3.909
  922SOL    HW2 3666   3.610   2.960   3.937
  923SOL     OW 3667   2.275   3.579   5.343
  923SOL    HW1 3668   2.349   3.645   5.351
  923SOL    HW2 3669   2.261   3.534   5.431
  924SOL     OW 3670   6.715   3.442   1.857
  924SOL    HW1 3671   6.686   3.466   1.764
  924SOL    HW2 3672   6.690   3.348   1.877
  925SOL     OW 3673   0.387   1.778   0.243
  925SOL    HW1 3674   0.445   1.789   0.324
  925SOL    HW2 3675   0.441   1.741   0.168
  926SOL     OW 3676   2.079   1.961   1.868
  926SOL    HW1 3677   2.106   1.924   1.780
  926SOL    HW2 3678   2.156   2.010   1.909
  927SOL     OW 3679   6.454   3.615   4.354
  927SOL    HW1 3680   6.366   3.628   4.399
  927SOL    HW2 3681   6.482   3.519   4.362
  928SOL     OW 3682   3.695   4.768   6.254
  928SOL    HW1 3683   3.720   4.747   6.160
  928SOL    HW2 3684   3.684   4.682   6.305
  929SOL     OW 3685   0.051   1.677   4.916
  929SOL    HW1 3686   0.049   1.604   4.984
  929SOL    HW2 3687   0.034   1.765   4.961
  930SOL     OW 3688   4.919   5.141   5.298
  930SOL    HW1 3689   4.827   5.156   5.334
  930SOL    HW2 3690   4.927   5.181   5.207
  931SOL     OW 3691   6.101   1.174   2.915
  931SOL    HW1 3692   6.004   1.195   2.924
  931SOL    HW2 3693   6.128   1.107   2.985
  932SOL     OW 3694   3.850   0.840   3.642
  932SOL    HW1 3695   3.940   0.797   3.644
  932SOL    HW2 3696   3.859   0.938   3.662
  933SOL     OW 3697   1.391   5.603   2.127
  933SOL    HW1 3698   1.401   5.613   2.226
  933SOL    HW2 3699   1.348   5.685   2.090
  934SOL     OW 3700   1.938   3.379   0.415
  934SOL    HW1 3701   1.963   3.403   0.509
  934SOL    HW2 3702   1.958   3.282   0.399
  935SOL     OW 3703   5.966   2.681   4.577
  935SOL    HW1 3704   6.035   2.610   4.561
  935SOL    HW2 3705   5.876   2.638   4.586
  936SOL     OW 3706   1.733   6.919   6.043
  936SOL    HW1 3707   1.655   6.927   5.980
  936SOL    HW2 3708   1.785   6.836   6.021
  937SOL     OW 3709   3.682   1.851   5.849
  937SOL    HW1 3710   3.618   1.869   5.775
  937SOL    HW2 3711   3.763   1.909   5.838
  938SOL     OW 3712   5.982   5.760   4.539
  938SOL    HW1 3713   5.956   5.777   4.444
  938SOL    HW2 3714   5.911   5.707   4.584
  939SOL     OW 3715   0.566   6.684   5.632
  939SOL    HW1 3716   0.561   6.782   5.618
  939SOL    HW2 3717   0.662   6.656   5.642
  940SOL     OW 3718   1.863   5.163   0.417
  940SOL    HW1 3719   1.902   5.121   0.499
  940SOL    HW2 3720   1.902   5.120   0.336
  941SOL     OW 3721   3.638   0.017   0.288
  941SOL    HW1 3722   3.606   0.015   0.383
  941SOL    HW2 3723   3.563   7.019   0.227
  942SOL     OW 3724   6.851   5.322   1.009
  942SOL    HW1 3725   6.811   5.360   0.926
  942SOL    HW2 3726   6.797   5.350   1.088
  943SOL     OW 3727   3.164   5.814   1.706
  943SOL    HW1 3728   3.126   5.785   1.618
  943SOL    HW2 3729   3.118   5.897   1.737
  944SOL     OW 3730   6.318   6.450   3.997
  944SOL    HW1 3731   6.242   6.429   3.935
  944SOL    HW2 3732   6.337   6.548   3.995
  945SOL     OW 3733   0.555   5.006   6.919
  945SOL    HW1 3734   0.463   5.025   6.886
  945SOL    HW2 3735   0.568   5.049   7.009
  946SOL     OW 3736   5.313   1.842   4.284
  946SOL    HW1 3737   5.405   1.802   4.289
  946SOL    HW2 3738   5.266   1.829   4.371
  947SOL     OW 3739   3.661   4.212   4.518
  947SOL    HW1 3740   3.621   4.304   4.516
  947SOL    HW2 3741   3.626   4.162   4.598
  948SOL     OW 3742   4.022   0.453   3.068
  948SOL    HW1 3743   4.118   0.426   3.055
  948SOL    HW2 3744   4.012   0.551   3.049
  949SOL     OW 3745   3.643   6.994   5.969
  949SOL    HW1 3746   3.544   6.986   5.975
  949SOL    HW2 3747   3.668   0.055   5.934
  950SOL     OW 3748   6.425   0.452   2.643
  950SOL    HW1 3749   6.433   0.498   2.732
  950SOL    HW2 3750   6.442   0.518   2.570
  951SOL     OW 3751   1.750   6.728   2.714
  951SOL    HW1 3752   1.761   6.819   2.675
  951SOL    HW2 3753   1.808   6.663   2.664
  952SOL     OW 3754   3.616   0.873   3.177
  952SOL    HW1 3755   3.671   0.951   3.150
  952SOL    HW2 3756   3.662   0.823   3.251
  953SOL     OW 3757   6.976   4.433   5.886
  953SOL    HW1 3758   6.959   4.477   5.974
  953SOL    HW2 3759   0.027   4.374   5.893
  954SOL     OW 3760   5.009   6.184   2.512
  954SOL    HW1 3761   4.945   6.260   2.498
  954SOL    HW2 3762   4.978   6.127   2.587
  955SOL     OW 3763   1.977   5.116   0.832
  955SOL    HW1 3764   1.891   5.155   0.800
  955SOL    HW2 3765   1.958   5.031   0.882
  956SOL     OW 3766   4.724   0.429   1.010
  956SOL    HW1 3767   4.701   0.371   0.933
  956SOL    HW2 3768   4.808   0.395   1.054
  957SOL     OW 3769   6.139   0.962   3.092
  957SOL    HW1 3770   6.143   0.863   3.105
  957SOL    HW2 3771   6.046   0.994   3.107
  958SOL     OW 3772   5.244   6.846   1.659
  958SOL    HW1 3773   5.181   6.911   1.618
  958SOL    HW2 3774   5.196   6.787   1.724
  959SOL     OW 3775   5.243   6.230   3.520
  959SOL    HW1 3776   5.256   6.132   3.540
  959SOL    HW2 3777   5.145   6.250   3.514
  960SOL     OW 3778   1.623   6.417   6.183
  960SOL    HW1 3779   1.638   6.323   6.214
  960SOL    HW2 3780   1.695   6.476   6.221
  961SOL     OW 3781   3.652   0.460   3.136
  961SOL    HW1 3782   3.714   0.450   3.058
  961SOL    HW2 3783   3.703   0.497   3.214
  962SOL     OW 3784   0.050   0.990   4.860
  962SOL    HW1 3785   0.003   0.980   4.947
  962SOL    HW2 3786   0.055   0.902   4.814
  963SOL     OW 3787   5.477   2.670   0.840
  963SOL    HW1 3788   5.482   2.591   0.901
  963SOL    HW2 3789   5.457   2.640   0.747
  964SOL     OW 3790   3.984   5.652   4.778
  964SOL    HW1 3791   3.965   5.567   4.829
  964SOL    HW2 3792   3.898   5.692   4.747
  965SOL     OW 3793   5.904   1.970   3.339
  965SOL    HW1 3794   5.833   1.941   3.274
  965SOL    HW2 3795   5.942   2.058   3.309
  966SOL     OW 3796   4.933   0.863   4.089
  966SOL    HW1 3797   5.006   0.850   4.156
  966SOL    HW2 3798   4.922   0.780   4.034
  967SOL     OW 3799   4.359   4.381   6.552
  967SOL    HW1 3800   4.434   4.356   6.490
  967SOL    HW2 3801   4.328   4.299   6.601
  968SOL     OW 3802   3.789   0.349   1.478
  968SOL    HW1 3803   3.814   0.437   1.518
  968SOL    HW2 3804   3.749   0.290   1.549
  969SOL     OW 3805   3.153   4.307   6.410
  969SOL    HW1 3806   3.130   4.224   6.360
  969SOL    HW2 3807   3.228   4.289   6.473
  970SOL     OW 3808   4.960   6.862   6.152
  970SOL    HW1 3809   5.030   6.928   6.180
  970SOL    HW2 3810   4.967   6.780   6.209
  971SOL     OW 3811   5.476   3.540   3.807
  971SOL    HW1 3812   5.570   3.574   3.802
  971SOL    HW2 3813   5.419   3.606   3.855
  972SOL     OW 3814   0.067   2.688   0.444
  972SOL    HW1 3815   0.086   2.689   0.346
  972SOL    HW2 3816   0.021   2.773   0.469
  973SOL     OW 3817   0.292   3.496   5.665
  973SOL    HW1 3818   0.273   3.569   5.599
  973SOL    HW2 3819   0.336   3.420   5.619
  974SOL     OW 3820   0.414   4.542   2.632
  974SOL    HW1 3821   0.327   4.578   2.666
  974SOL    HW2 3822   0.463   4.615   2.584
  975SOL     OW 3823   3.046   0.221   2.820
  975SOL    HW1 3824   3.057   0.312   2.858
  975SOL    HW2 3825   3.078   0.220   2.725
  976SOL     OW 3826   0.109   3.277   3.490
  976SOL    HW1 3827   0.198   3.280   3.536
  976SOL    HW2 3828   0.043   3.231   3.549
  977SOL     OW 3829   6.164   1.218   2.191
  977SOL    HW1 3830   6.153   1.311   2.155
  977SOL    HW2 3831   6.260   1.191   2.183
  978SOL     OW 3832   5.138   2.955   1.448
  978SOL    HW1 3833   5.150   2.878   1.386
  978SOL    HW2 3834   5.225   3.004   1.457
  979SOL     OW 3835   0.243   4.266   6.892
  979SOL    HW1 3836   0.172   4.224   6.948
  979SOL    HW2 3837   0.200   4.322   6.820
  980SOL     OW 3838   3.909   0.892   4.860
  980SOL    HW1 3839   3.863   0.971   4.902
  980SOL    HW2 3840   3.994   0.921   4.817
  981SOL     OW 3841   0.463   6.424   5.642
  981SOL    HW1 3842   0.514   6.508   5.626
  981SOL    HW2 3843   0.406   6.404   5.563
  982SOL     OW 3844   6.571   1.255   6.381
  982SOL    HW1 3845   6.620   1.171   6.359
  982SOL    HW2 3846   6.517   1.284   6.301
  983SOL     OW 3847   0.707   4.212   3.206
  983SOL    HW1 3848   0.616   4.207   3.247
  983SOL    HW2 3849   0.776   4.197   3.276
  984SOL     OW 3850   0.605   3.530   3.290
  984SOL    HW1 3851   0.687   3.547   3.237
  984SOL    HW2 3852   0.536   3.487   3.233
  985SOL     OW 3853   6.570   5.539   5.138
  985SOL    HW1 3854   6.563   5.441   5.161
  985SOL    HW2 3855   6.530   5.593   5.212
  986SOL     OW 3856   4.496   5.174   1.255
  986SOL    HW1 3857   4.457   5.202   1.167
  986SOL    HW2 3858   4.499   5.074   1.260
  987SOL     OW 3859   4.706   4.266   4.790
  987SOL    HW1 3860   4.686   4.283   4.887
  987SOL    HW2 3861   4.771   4.191   4.782
  988SOL     OW 3862   2.546   4.620   2.041
  988SOL    HW1 3863   2.495   4.546   1.996
  988SOL    HW2 3864   2.643   4.611   2.019
  989SOL     OW 3865   0.929   2.412   1.213
  989SOL    HW1 3866   0.941   2.361   1.298
  989SOL    HW2 3867   0.845   2.382   1.168
  990SOL     OW 3868   3.852   6.901   4.551
  990SOL    HW1 3869   3.770   6.847   4.530
  990SOL    HW2 3870   3.919   6.843   4.596
  991SOL     OW 3871   0.598   5.395   3.887
  991SOL    HW1 3872   0.689   5.402   3.928
  991SOL    HW2 3873   0.538   5.464   3.929
  992SOL     OW 3874   6.940   2.363   0.020
  992SOL    HW1 3875   7.009   2.365   6.977
  992SOL    HW2 3876   6.977   2.314   0.100
  993SOL     OW 3877   0.789   5.105   0.635
  993SOL    HW1 3878   0.826   5.018   0.601
  993SOL    HW2 3879   0.860   5.152   0.688
  994SOL     OW 3880   3.409   6.770   0.337
  994SOL    HW1 3881   3.418   6.675   0.368
  994SOL    HW2 3882   3.440   6.831   0.410
  995SOL     OW 3883   6.385   4.029   6.013
  995SOL    HW1 3884   6.478   4.042   5.977
  995SOL    HW2 3885   6.319   4.065   5.947
  996SOL     OW 3886   4.196   6.339   4.345
  996SOL    HW1 3887   4.281   6.364   4.299
  996SOL    HW2 3888   4.131   6.302   4.278
  997SOL     OW 3889   1.118   6.510   3.417
  997SOL    HW1 3890   1.151   6.484   3.326
  997SOL    HW2 3891   1.086   6.604   3.415
  998SOL     OW 3892   4.402   0.181   6.077
  998SOL    HW1 3893   4.321   0.234   6.051
  998SOL    HW2 3894   4.421   0.193   6.174
  999SOL     OW 3895   5.070   3.170   2.713
  999SOL    HW1 3896   5.022   3.209   2.791
  999SOL    HW2 3897   5.060   3.071   2.713
 1000SOL     OW 3898   5.217   1.986   1.679
 1000SOL    HW1 3899   5.122   1.964   1.701
 1000SOL    HW2 3900   5.262   1.905   1.643
 1001SOL     OW 3901   2.881   6.568   2.466
 1001SOL    HW1 3902   2.906   6.482   2.423
 1001SOL    HW2 3903   2.955   6.634   2.454
 1002SOL     OW 3904   4.528   2.495   1.126
 1002SOL    HW1 3905   4.500   2.416   1.180
 1002SOL    HW2 3906   4.613   2.532   1.164
 1003SOL     OW 3907   0.877   0.284   3.403
 1003SOL    HW1 3908   0.938   0.254   3.330
 1003SOL    HW2 3909   0.785   0.295   3.367
 1004SOL     OW 3910   5.102   1.384   4.572
 1004SOL    HW1 3911   5.011   1.425   4.563
 1004SOL    HW2 3912   5.119   1.324   4.494
 1005SOL     OW 3913   1.145   4.907   2.259
 1005SOL    HW1 3914   1.243   4.926   2.269
 1005SOL    HW2 3915   1.098   4.987   2.222
 1006SOL     OW 3916   2.206   3.840   1.811
 1006SOL    HW1 3917   2.260   3.793   1.741
 1006SOL    HW2 3918   2.161   3.772   1.869
 1007SOL     OW 3919   4.762   1.018   6.165
 1007SOL    HW1 3920   4.729   1.095   6.219
 1007SOL    HW2 3921   4.848   0.985   6.205
 1008SOL     OW 3922   0.630   4.999   5.087
 1008SOL    HW1 3923   0.707   4.938   5.069
 1008SOL    HW2 3924   0.566   4.954   5.148
 1009SOL     OW 3925   6.643   5.845   6.295
 1009SOL    HW1 3926   6.667   5.750   6.273
 1009SOL    HW2 3927   6.552   5.847   6.337
 1010SOL     OW 3928   3.251   3.724   0.505
 1010SOL    HW1 3929   3.282   3.812   0.470
 1010SOL    HW2 3930   3.287   3.709   0.597
 1011SOL     OW 3931   6.660   5.745   3.127
 1011SOL    HW1 3932   6.677   5.700   3.215
 1011SOL    HW2 3933   6.680   5.681   3.053
 1012SOL     OW 3934   5.476   6.500   2.709
 1012SOL    HW1 3935   5.422   6.479   2.791
 1012SOL    HW2 3936   5.511   6.593   2.715
 1013SOL     OW 3937   0.009   0.302   6.356
 1013SOL    HW1 3938   0.085   0.259   6.307
 1013SOL    HW2 3939   6.980   0.231   6.396
 1014SOL     OW 3940   1.142   4.515   5.350
 1014SOL    HW1 3941   1.102   4.514   5.442
 1014SOL    HW2 3942   1.074   4.481   5.285
 1015SOL     OW 3943   2.302   6.440   0.345
 1015SOL    HW1 3944   2.302   6.340   0.354
 1015SOL    HW2 3945   2.288   6.465   0.249
 1016SOL     OW 3946   6.483   4.026   0.864
 1016SOL    HW1 3947   6.418   4.044   0.938
 1016SOL    HW2 3948   6.485   3.928   0.845
 1017SOL     OW 3949   2.302   1.368   2.174
 1017SOL    HW1 3950   2.369   1.332   2.109
 1017SOL    HW2 3951   2.343   1.440   2.229
 1018SOL     OW 3952   6.178   6.486   4.348
 1018SOL    HW1 3953   6.193   6.438   4.262
 1018SOL    HW2 3954   6.095   6.542   4.341
 1019SOL     OW 3955   6.740   4.002   0.926
 1019SOL    HW1 3956   6.794   3.928   0.885
 1019SOL    HW2 3957   6.644   3.973   0.931
 1020SOL     OW 3958   5.020   1.232   0.664
 1020SOL    HW1 3959   5.003   1.156   0.726
 1020SOL    HW2 3960   5.114   1.264   0.675
 1021SOL     OW 3961   1.031   6.818   0.873
 1021SOL    HW1 3962   1.027   6.890   0.942
 1021SOL    HW2 3963   0.938   6.784   0.855
 1022SOL     OW 3964   2.356   5.609   6.415
 1022SOL    HW1 3965   2.382   5.513   6.426
 1022SOL    HW2 3966   2.431   5.667   6.449
 1023SOL     OW 3967   0.813   1.319   2.840
 1023SOL    HW1 3968   0.757   1.237   2.856
 1023SOL    HW2 3969   0.754   1.400   2.842
 1024SOL     OW 3970   1.508   1.974   4.130
 1024SOL    HW1 3971   1.459   2.053   4.166
 1024SOL    HW2 3972   1.566   2.002   4.053
 1025SOL     OW 3973   4.932   4.311   0.164
 1025SOL    HW1 3974   5.002   4.286   0.231
 1025SOL    HW2 3975   4.854   4.353   0.211
 1026SOL     OW 3976   3.073   2.893   1.883
 1026SOL    HW1 3977   3.023   2.945   1.952
 1026SOL    HW2 3978   3.147   2.949   1.846
 1027SOL     OW 3979   0.264   6.708   0.013
 1027SOL    HW1 3980   0.353   6.747   7.020
 1027SOL    HW2 3981   0.277   6.618   0.055
 1028SOL     OW 3982   1.242   6.001   2.841
 1028SOL    HW1 3983   1.267   6.038   2.751
 1028SOL    HW2 3984   1.212   5.906   2.831
 1029SOL     OW 3985   1.107   1.097   5.363
 1029SOL    HW1 3986   1.020   1.069   5.322
 1029SOL    HW2 3987   1.165   1.137   5.293
 1030SOL     OW 3988   3.785   3.567   0.967
 1030SOL    HW1 3989   3.821   3.596   0.879
 1030SOL    HW2 3990   3.685   3.572   0.966
 1031SOL     OW 3991   3.793   3.121   1.161
 1031SOL    HW1 3992   3.723   3.166   1.105
 1031SOL    HW2 3993   3.858   3.189   1.195
 1032SOL     OW 3994   1.861   1.310   0.404
 1032SOL    HW1 3995   1.836   1.394   0.355
 1032SOL    HW2 3996   1.960   1.307   0.417
 1033SOL     OW 3997   0.089   0.042   2.676
 1033SOL    HW1 3998   0.019   0.062   2.607
 1033SOL    HW2 3999   0.175   0.018   2.630
 1034SOL     OW 4000   3.316   0.607   5.020
 1034SOL    HW1 4001   3.393   0.580   5.077
 1034SOL    HW2 4002   3.343   0.683   4.961
 1035SOL     OW 4003   1.805   1.218   6.915
 1035SOL    HW1 4004   1.711   1.239   6.890
 1035SOL    HW2 4005   1.807   1.178   7.007
 1036SOL     OW 4006   4.735   1.111   1.185
 1036SOL    HW1 4007   4.811   1.166   1.218
 1036SOL    HW2 4008   4.706   1.145   1.095
 1037SOL     OW 4009   1.687   3.454   2.103
 1037SOL    HW1 4010   1.644   3.369   2.134
 1037SOL    HW2 4011   1.662   3.471   2.007
 1038SOL     OW 4012   2.311   6.056   6.948
 1038SOL    HW1 4013   2.405   6.090   6.955
 1038SOL    HW2 4014   2.250   6.113   7.004
 1039SOL     OW 4015   3.702   3.545   2.984
 1039SOL    HW1 4016   3.664   3.636   2.998
 1039SOL    HW2 4017   3.757   3.520   3.064
 1040SOL     OW 4018   3.641   2.110   3.532
 1040SOL    HW1 4019   3.625   2.163   3.449
 1040SOL    HW2 4020   3.734   2.072   3.529
 1041SOL     OW 4021   6.140   5.825   6.857
 1041SOL    HW1 4022   6.216   5.838   6.793
 1041SOL    HW2 4023   6.054   5.848   6.812
 1042SOL     OW 4024   5.324   4.669   3.505
 1042SOL    HW1 4025   5.394   4.736   3.478
 1042SOL    HW2 4026   5.364   4.578   3.505
 1043SOL     OW 4027   2.729   1.696   3.678
 1043SOL    HW1 4028   2.679   1.646   3.749
 1043SOL    HW2 4029   2.822   1.661   3.671
 1044SOL     OW 4030   6.223   4.820   1.481
 1044SOL    HW1 4031   6.274   4.900   1.449
 1044SOL    HW2 4032   6.275   4.774   1.553
 1045SOL     OW 4033   2.280   0.941   1.946
 1045SOL    HW1 4034   2.274   0.846   1.916
 1045SOL    HW2 4035   2.372   0.958   1.983
 1046SOL     OW 4036   3.058   2.154   1.282
 1046SOL    HW1 4037   3.063   2.103   1.368
 1046SOL    HW2 4038   3.095   2.246   1.296
 1047SOL     OW 4039   3.519   6.792   3.538
 1047SOL    HW1 4040   3.479   6.871   3.493
 1047SOL    HW2 4041   3.492   6.791   3.635
 1048SOL     OW 4042   1.125   6.595   2.302
 1048SOL    HW1 4043   1.192   6.531   2.263
 1048SOL    HW2 4044   1.169   6.654   2.369
 1049SOL     OW 4045   4.096   6.379   5.470
 1049SOL    HW1 4046   4.048   6.433   5.401
 1049SOL    HW2 4047   4.194   6.379   5.450
 1050SOL     OW 4048   2.631   6.776   3.782
 1050SOL    HW1 4049   2.611   6.767   3.684
 1050SOL    HW2 4050   2.556   6.823   3.827
 1051SOL     OW 4051   1.505   1.039   5.523
 1051SOL    HW1 4052   1.605   1.039   5.519
 1051SOL    HW2 4053   1.468   1.018   5.433
 1052SOL     OW 4054   3.555   1.238   0.345
 1052SOL    HW1 4055   3.581   1.334   0.356
 1052SOL    HW2 4056   3.575   1.208   0.252
 1053SOL     OW 4057   5.121   1.781   4.529
 1053SOL    HW1 4058   5.059   1.731   4.588
 1053SOL    HW2 4059   5.073   1.859   4.488
 1054SOL     OW 4060   4.144   5.054   6.228
 1054SOL    HW1 4061   4.203   4.996   6.284
 1054SOL    HW2 4062   4.105   5.127   6.284
 1055SOL     OW 4063   4.585   5.947   6.814
 1055SOL    HW1 4064   4.586   5.847   6.813
 1055SOL    HW2 4065   4.491   5.979   6.820
 1056SOL     OW 4066   3.306   3.781   0.081
 1056SOL    HW1 4067   3.237   3.735   0.137
 1056SOL    HW2 4068   3.283   3.878   0.073
 1057SOL     OW 4069   3.016   2.885   0.131
 1057SOL    HW1 4070   3.098   2.880   0.187
 1057SOL    HW2 4071   2.957   2.958   0.164
 1058SOL     OW 4072   2.953   2.164   2.277
 1058SOL    HW1 4073   2.865   2.139   2.317
 1058SOL    HW2 4074   2.939   2.234   2.206
 1059SOL     OW 4075   1.884   6.241   2.029
 1059SOL    HW1 4076   1.823   6.203   2.098
 1059SOL    HW2 4077   1.971   6.265   2.072
 1060SOL     OW 4078   6.296   0.626   5.562
 1060SOL    HW1 4079   6.297   0.714   5.610
 1060SOL    HW2 4080   6.205   0.586   5.567
 1061SOL     OW 4081   0.125   3.470   6.114
 1061SOL    HW1 4082   0.187   3.465   6.192
 1061SOL    HW2 4083   0.073   3.385   6.107
 1062SOL     OW 4084   3.405   5.830   4.530
 1062SOL    HW1 4085   3.433   5.873   4.444
 1062SOL    HW2 4086   3.460   5.867   4.605
 1063SOL     OW 4087   3.639   6.731   4.602
 1063SOL    HW1 4088   3.608   6.649   4.553
 1063SOL    HW2 4089   3.634   6.715   4.701
 1064SOL     OW 4090   1.452   3.279   0.170
 1064SOL    HW1 4091   1.543   3.317   0.149
 1064SOL    HW2 4092   1.442   3.271   0.269
 1065SOL     OW 4093   6.144   0.914   4.763
 1065SOL    HW1 4094   6.231   0.956   4.790
 1065SOL    HW2 4095   6.069   0.974   4.790
 1066SOL     OW 4096   5.303   6.775   0.482
 1066SOL    HW1 4097   5.386   6.748   0.433
 1066SOL    HW2 4098   5.298   6.724   0.568
 1067SOL     OW 4099   2.613   1.435   0.509
 1067SOL    HW1 4100   2.653   1.344   0.502
 1067SOL    HW2 4101   2.670   1.492   0.567
 1068SOL     OW 4102   6.658   3.212   1.403
 1068SOL    HW1 4103   6.584   3.160   1.360
 1068SOL    HW2 4104   6.719   3.149   1.452
 1069SOL     OW 4105   6.008   3.425   2.362
 1069SOL    HW1 4106   6.091   3.466   2.399
 1069SOL    HW2 4107   5.931   3.487   2.379
 1070SOL     OW 4108   0.868   0.427   2.342
 1070SOL    HW1 4109   0.905   0.419   2.250
 1070SOL    HW2 4110   0.884   0.519   2.377
 1071SOL     OW 4111   0.743   3.139   6.030
 1071SOL    HW1 4112   0.681   3.184   5.967
 1071SOL    HW2 4113   0.831   3.124   5.984
 1072SOL     OW 4114   1.503   1.440   2.198
 1072SOL    HW1 4115   1.506   1.344   2.227
 1072SOL    HW2 4116   1.590   1.466   2.158
 1073SOL     OW 4117   5.254   2.728   2.857
 1073SOL    HW1 4118   5.324   2.796   2.880
 1073SOL    HW2 4119   5.273   2.643   2.906
 1074SOL     OW 4120   2.997   5.107   1.569
 1074SOL    HW1 4121   3.013   5.202   1.543
 1074SOL    HW2 4122   2.909   5.098   1.614
 1075SOL     OW 4123   6.387   4.396   6.130
 1075SOL    HW1 4124   6.473   4.392   6.079
 1075SOL    HW2 4125   6.317   4.343   6.082
 1076SOL     OW 4126   1.567   4.768   5.413
 1076SOL    HW1 4127   1.652   4.732   5.375
 1076SOL    HW2 4128   1.579   4.865   5.435
 1077SOL     OW 4129   6.777   6.527   0.341
 1077SOL    HW1 4130   6.823   6.556   0.424
 1077SOL    HW2 4131   6.691   6.577   0.331
 1078SOL     OW 4132   6.280   6.630   4.753
 1078SOL    HW1 4133   6.378   6.608   4.759
 1078SOL    HW2 4134   6.252   6.681   4.835
 1079SOL     OW 4135   0.647   6.579   2.151
 1079SOL    HW1 4136   0.648   6.480   2.138
 1079SOL    HW2 4137   0.740   6.615   2.140
 1080SOL     OW 4138   3.857   6.306   6.856
 1080SOL    HW1 4139   3.760   6.294   6.878
 1080SOL    HW2 4140   3.906   6.336   6.938
 1081SOL     OW 4141   6.467   6.243   4.098
 1081SOL    HW1 4142   6.424   6.191   4.172
 1081SOL    HW2 4143   6.400   6.304   4.057
 1082SOL     OW 4144   4.095   6.701   0.091
 1082SOL    HW1 4145   4.000   6.721   0.067
 1082SOL    HW2 4146   4.114   6.604   0.075
 1083SOL     OW 4147   5.592   4.443   2.231
 1083SOL    HW1 4148   5.596   4.343   2.236
 1083SOL    HW2 4149   5.502   4.475   2.263
 1084SOL     OW 4150   6.035   0.535   5.541
 1084SOL    HW1 4151   6.049   0.619   5.488
 1084SOL    HW2 4152   6.017   0.459   5.479
 1085SOL     OW 4153   2.154   3.802   4.573
 1085SOL    HW1 4154   2.101   3.884   4.550
 1085SOL    HW2 4155   2.202   3.817   4.659
 1086SOL     OW 4156   5.904   5.585   0.654
 1086SOL    HW1 4157   5.856   5.537   0.727
 1086SOL    HW2 4158   5.850   5.665   0.626
 1087SOL     OW 4159   4.126   0.067   5.609
 1087SOL    HW1 4160   4.190   7.026   5.581
 1087SOL    HW2 4161   4.145   0.152   5.560
 1088SOL     OW 4162   6.698   5.291   3.876
 1088SOL    HW1 4163   6.777   5.349   3.855
 1088SOL    HW2 4164   6.639   5.286   3.796
 1089SOL     OW 4165   6.098   4.890   4.008
 1089SOL    HW1 4166   6.171   4.913   3.943
 1089SOL    HW2 4167   6.118   4.932   4.096
 1090SOL     OW 4168   5.333   2.328   5.246
 1090SOL    HW1 4169   5.288   2.334   5.335
 1090SOL    HW2 4170   5.418   2.277   5.255
 1091SOL     OW 4171   2.093   2.601   3.229
 1091SOL    HW1 4172   2.155   2.570   3.301
 1091SOL    HW2 4173   1.998   2.595   3.262
 1092SOL     OW 4174   0.062   6.059   0.421
 1092SOL    HW1 4175   0.013   6.040   0.506
 1092SOL    HW2 4176   0.154   6.092   0.443
 1093SOL     OW 4177   1.477   0.362   2.906
 1093SOL    HW1 4178   1.507   0.430   2.973
 1093SOL    HW2 4179   1.401   0.309   2.944
 1094SOL     OW 4180   0.089   0.498   3.320
 1094SOL    HW1 4181   0.105   0.439   3.399
 1094SOL    HW2 4182   0.009   0.465   3.269
 1095SOL     OW 4183   5.281   3.063   0.544
 1095SOL    HW1 4184   5.360   3.058   0.605
 1095SOL    HW2 4185   5.230   2.977   0.548
 1096SOL     OW 4186   2.161   5.706   1.797
 1096SOL    HW1 4187   2.144   5.757   1.712
 1096SOL    HW2 4188   2.130   5.761   1.875
 1097SOL     OW 4189   2.498   5.906   4.398
 1097SOL    HW1 4190   2.517   5.952   4.312
 1097SOL    HW2 4191   2.485   5.974   4.471
 1098SOL     OW 4192   6.285   4.018   0.615
 1098SOL    HW1 4193   6.308   3.925   0.643
 1098SOL    HW2 4194   6.355   4.081   0.650
 1099SOL     OW 4195   4.755   0.530   6.249
 1099SOL    HW1 4196   4.751   0.548   6.347
 1099SOL    HW2 4197   4.810   0.448   6.232
 1100SOL     OW 4198   4.064   1.772   4.320
 1100SOL    HW1 4199   4.160   1.778   4.349
 1100SOL    HW2 4200   4.030   1.680   4.336
 1101SOL     OW 4201   4.861   3.215   6.255
 1101SOL    HW1 4202   4.889   3.136   6.309
 1101SOL    HW2 4203   4.761   3.219   6.250
 1102SOL     OW 4204   2.873   0.740   3.335
 1102SOL    HW1 4205   2.779   0.724   3.307
 1102SOL    HW2 4206   2.930   0.663   3.309
 1103SOL     OW 4207   3.360   6.352   0.642
 1103SOL    HW1 4208   3.342   6.373   0.738
 1103SOL    HW2 4209   3.279   6.308   0.602
 1104SOL     OW 4210   0.583   2.858   3.595
 1104SOL    HW1 4211   0.500   2.902   3.562
 1104SOL    HW2 4212   0.570   2.759   3.597
 1105SOL     OW 4213   5.069   1.567   6.120
 1105SOL    HW1 4214   5.064   1.583   6.021
 1105SOL    HW2 4215   5.153   1.517   6.141
 1106SOL     OW 4216   6.637   1.372   1.090
 1106SOL    HW1 4217   6.699   1.420   1.152
 1106SOL    HW2 4218   6.544   1.378   1.125
 1107SOL     OW 4219   0.836   1.354   6.496
 1107SOL    HW1 4220   0.794   1.308   6.418
 1107SOL    HW2 4221   0.803   1.448   6.501
 1108SOL     OW 4222   2.364   0.692   4.401
 1108SOL    HW1 4223   2.438   0.634   4.366
 1108SOL    HW2 4224   2.399   0.752   4.472
 1109SOL     OW 4225   4.735   2.468   4.996
 1109SOL    HW1 4226   4.684   2.383   5.001
 1109SOL    HW2 4227   4.677   2.539   4.955
 1110SOL     OW 4228   2.032   0.703   2.152
 1110SOL    HW1 4229   2.095   0.725   2.227
 1110SOL    HW2 4230   1.942   0.741   2.173
 1111SOL     OW 4231   5.722   4.078   6.252
 1111SOL    HW1 4232   5.793   4.041   6.312
 1111SOL    HW2 4233   5.743   4.053   6.157
 1112SOL     OW 4234   5.438   0.855   2.449
 1112SOL    HW1 4235   5.501   0.932   2.452
 1112SOL    HW2 4236   5.396   0.848   2.359
 1113SOL     OW 4237   5.785   3.883   2.158
 1113SOL    HW1 4238   5.836   3.961   2.122
 1113SOL    HW2 4239   5.808   3.870   2.254
 1114SOL     OW 4240   3.350   3.836   4.737
 1114SOL    HW1 4241   3.445   3.816   4.759
 1114SOL    HW2 4242   3.295   3.753   4.750
 1115SOL     OW 4243   2.808   4.670   5.560
 1115SOL    HW1 4244   2.813   4.704   5.466
 1115SOL    HW2 4245   2.717   4.633   5.577
 1116SOL     OW 4246   4.732   0.180   6.862
 1116SOL    HW1 4247   4.645   0.199   6.907
 1116SOL    HW2 4248   4.728   0.091   6.817
 1117SOL     OW 4249   2.567   2.856   1.486
 1117SOL    HW1 4250   2.503   2.930   1.509
 1117SOL    HW2 4251   2.656   2.875   1.528
 1118SOL     OW 4252   4.343   6.074   0.278
 1118SOL    HW1 4253   4.331   6.011   0.202
 1118SOL    HW2 4254   4.254   6.096   0.318
 1119SOL     OW 4255   3.703   5.040   3.942
 1119SOL    HW1 4256   3.680   5.010   4.035
 1119SOL    HW2 4257   3.632   5.011   3.879
 1120SOL     OW 4258   6.673   3.458   1.290
 1120SOL    HW1 4259   6.672   3.377   1.348
 1120SOL    HW2 4260   6.672   3.540   1.347
 1121SOL     OW 4261   6.560   4.593   5.059
 1121SOL    HW1 4262   6.561   4.680   5.010
 1121SOL    HW2 4263   6.640   4.588   5.119
 1122SOL     OW 4264   5.457   2.401   1.689
 1122SOL    HW1 4265   5.515   2.338   1.638
 1122SOL    HW2 4266   5.364   2.366   1.690
 1123SOL     OW 4267   4.143   1.559   3.645
 1123SOL    HW1 4268   4.101   1.515   3.724
 1123SOL    HW2 4269   4.078   1.623   3.604
 1124SOL     OW 4270   2.416   2.465   4.335
 1124SOL    HW1 4271   2.338   2.448   4.395
 1124SOL    HW2 4272   2.462   2.379   4.315
 1125SOL     OW 4273   1.862   3.290   3.768
 1125SOL    HW1 4274   1.944   3.345   3.755
 1125SOL    HW2 4275   1.781   3.346   3.753
 1126SOL     OW 4276   4.400   5.057   4.738
 1126SOL    HW1 4277   4.479   5.005   4.707
 1126SOL    HW2 4278   4.326   5.050   4.671
 1127SOL     OW 4279   6.423   6.782   2.244
 1127SOL    HW1 4280   6.479   6.704   2.272
 1127SOL    HW2 4281   6.353   6.751   2.179
 1128SOL     OW 4282   5.303   0.749   4.728
 1128SOL    HW1 4283   5.297   0.803   4.811
 1128SOL    HW2 4284   5.366   0.794   4.664
 1129SOL     OW 4285   1.135   0.857   0.652
 1129SOL    HW1 4286   1.139   0.919   0.730
 1129SOL    HW2 4287   1.100   0.768   0.682
 1130SOL     OW 4288   2.329   4.761   2.108
 1130SOL    HW1 4289   2.423   4.729   2.093
 1130SOL    HW2 4290   2.267   4.682   2.112
 1131SOL     OW 4291   1.538   5.508   3.917
 1131SOL    HW1 4292   1.459   5.562   3.889
 1131SOL    HW2 4293   1.521   5.469   4.007
 1132SOL     OW 4294   2.045   1.686   2.627
 1132SOL    HW1 4295   2.039   1.587   2.617
 1132SOL    HW2 4296   2.089   1.725   2.546
 1133SOL     OW 4297   0.898   6.970   6.071
 1133SOL    HW1 4298   0.837   0.018   6.091
 1133SOL    HW2 4299   0.969   6.966   6.141
 1134SOL     OW 4300   3.653   6.148   1.708
 1134SOL    HW1 4301   3.672   6.237   1.750
 1134SOL    HW2 4302   3.639   6.161   1.609
 1135SOL     OW 4303   1.769   6.023   3.217
 1135SOL    HW1 4304   1.818   6.103   3.251
 1135SOL    HW2 4305   1.807   5.996   3.129
 1136SOL     OW 4306   1.702   5.378   2.444
 1136SOL    HW1 4307   1.759   5.323   2.505
 1136SOL    HW2 4308   1.750   5.392   2.357
 1137SOL     OW 4309   1.183   5.627   4.848
 1137SOL    HW1 4310   1.282   5.639   4.854
 1137SOL    HW2 4311   1.138   5.692   4.909
 1138SOL     OW 4312   2.174   3.544   4.528
 1138SOL    HW1 4313   2.233   3.491   4.590
 1138SOL    HW2 4314   2.176   3.641   4.556
 1139SOL     OW 4315   2.138   5.019   4.902
 1139SOL    HW1 4316   2.206   4.966   4.954
 1139SOL    HW2 4317   2.175   5.109   4.882
 1140SOL     OW 4318   2.206   2.138   1.501
 1140SOL    HW1 4319   2.210   2.073   1.576
 1140SOL    HW2 4320   2.295   2.184   1.491
 1141SOL     OW 4321   6.786   4.679   6.165
 1141SOL    HW1 4322   6.780   4.775   6.194
 1141SOL    HW2 4323   6.753   4.620   6.239
 1142SOL     OW 4324   1.695   6.096   2.200
 1142SOL    HW1 4325   1.638   6.058   2.273
 1142SOL    HW2 4326   1.675   6.048   2.114
 1143SOL     OW 4327   0.741   3.782   1.841
 1143SOL    HW1 4328   0.723   3.723   1.761
 1143SOL    HW2 4329   0.673   3.855   1.844
 1144SOL     OW 4330   5.515   4.649   0.531
 1144SOL    HW1 4331   5.569   4.732   0.518
 1144SOL    HW2 4332   5.430   4.671   0.578
 1145SOL     OW 4333   5.713   6.752   0.849
 1145SOL    HW1 4334   5.737   6.821   0.781
 1145SOL    HW2 4335   5.763   6.769   0.933
 1146SOL     OW 4336   1.183   0.818   1.549
 1146SOL    HW1 4337   1.094   0.852   1.581
 1146SOL    HW2 4338   1.186   0.822   1.449
 1147SOL     OW 4339   1.787   6.476   1.106
 1147SOL    HW1 4340   1.783   6.558   1.163
 1147SOL    HW2 4341   1.699   6.428   1.110
 1148SOL     OW 4342   4.153   5.835   3.261
 1148SOL    HW1 4343   4.115   5.884   3.340
 1148SOL    HW2 4344   4.100   5.858   3.179
 1149SOL     OW 4345   4.669   3.374   1.465
 1149SOL    HW1 4346   4.588   3.396   1.412
 1149SOL    HW2 4347   4.648   3.299   1.529
 1150SOL     OW 4348   1.601   3.422   0.780
 1150SOL    HW1 4349   1.592   3.380   0.870
 1150SOL    HW2 4350   1.651   3.360   0.719
 1151SOL     OW 4351   6.518   5.402   4.299
 1151SOL    HW1 4352   6.558   5.418   4.389
 1151SOL    HW2 4353   6.570   5.450   4.229
 1152SOL     OW 4354   3.463   6.075   6.382
 1152SOL    HW1 4355   3.419   6.112   6.301
 1152SOL    HW2 4356   3.408   6.096   6.463
 1153SOL     OW 4357   5.569   6.897   2.004
 1153SOL    HW1 4358   5.667   6.895   1.984
 1153SOL    HW2 4359   5.544   6.987   2.040
 1154SOL     OW 4360   2.161   2.851   0.629
 1154SOL    HW1 4361   2.087   2.905   0.668
 1154SOL    HW2 4362   2.124   2.784   0.565
 1155SOL     OW 4363   3.090   6.398   4.397
 1155SOL    HW1 4364   3.155   6.442   4.459
 1155SOL    HW2 4365   3.135   6.382   4.308
 1156SOL     OW 4366   2.739   2.024   3.103
 1156SOL    HW1 4367   2.806   2.096   3.087
 1156SOL    HW2 4368   2.785   1.941   3.135
 1157SOL     OW 4369   3.159   1.155   6.976
 1157SOL    HW1 4370   3.082   1.200   6.931
 1157SOL    HW2 4371   3.232   1.137   6.910
 1158SOL     OW 4372   5.819   4.260   2.876
 1158SOL    HW1 4373   5.878   4.297   2.948
 1158SOL    HW2 4374   5.733   4.312   2.874
 1159SOL     OW 4375   6.611   4.899   1.134
 1159SOL    HW1 4376   6.639   4.923   1.227
 1159SOL    HW2 4377   6.584   4.803   1.131
 1160SOL     OW 4378   5.695   1.877   0.085
 1160SOL    HW1 4379   5.699   1.932   0.001
 1160SOL    HW2 4380   5.788   1.855   0.115
 1161SOL     OW 4381   6.985   4.942   1.453
 1161SOL    HW1 4382   7.017   4.909   1.543
 1161SOL    HW2 4383   0.013   4.903   1.381
 1162SOL     OW 4384   3.213   2.138   4.821
 1162SOL    HW1 4385   3.260   2.060   4.864
 1162SOL    HW2 4386   3.190   2.205   4.891
 1163SOL     OW 4387   5.482   2.946   1.329
 1163SOL    HW1 4388   5.434   2.891   1.260
 1163SOL    HW2 4389   5.581   2.934   1.318
 1164SOL     OW 4390   3.895   2.765   5.889
 1164SOL    HW1 4391   3.815   2.733   5.839
 1164SOL    HW2 4392   3.927   2.851   5.850
 1165SOL     OW 4393   3.929   6.372   3.120
 1165SOL    HW1 4394   4.013   6.425   3.110
 1165SOL    HW2 4395   3.865   6.397   3.047
 1166SOL     OW 4396   3.221   4.951   5.983
 1166SOL    HW1 4397   3.219   5.000   6.071
 1166SOL    HW2 4398   3.196   5.014   5.910
 1167SOL     OW 4399   5.040   4.452   2.403
 1167SOL    HW1 4400   4.949   4.470   2.365
 1167SOL    HW2 4401   5.040   4.471   2.501
 1168SOL     OW 4402   6.655   0.329   2.525
 1168SOL    HW1 4403   6.737   0.385   2.538
 1168SOL    HW2 4404   6.577   0.374   2.568
 1169SOL     OW 4405   4.914   1.177   5.169
 1169SOL    HW1 4406   5.013   1.169   5.179
 1169SOL    HW2 4407   4.871   1.093   5.199
 1170SOL     OW 4408   4.944   5.357   3.062
 1170SOL    HW1 4409   4.936   5.317   2.970
 1170SOL    HW2 4410   5.035   5.394   3.074
 1171SOL     OW 4411   0.076   5.965   0.943
 1171SOL    HW1 4412   0.033   6.052   0.967
 1171SOL    HW2 4413   0.049   5.939   0.851
 1172SOL     OW 4414   6.756   3.351   6.822
 1172SOL    HW1 4415   6.816   3.272   6.839
 1172SOL    HW2 4416   6.767   3.417   6.896
 1173SOL     OW 4417   3.969   1.800   0.470
 1173SOL    HW1 4418   4.000   1.863   0.542
 1173SOL    HW2 4419   3.880   1.831   0.436
 1174SOL     OW 4420   2.326   4.423   0.589
 1174SOL    HW1 4421   2.358   4.329   0.603
 1174SOL    HW2 4422   2.360   4.457   0.501
 1175SOL     OW 4423   3.352   3.080   4.272
 1175SOL    HW1 4424   3.347   3.074   4.173
 1175SOL    HW2 4425   3.410   3.006   4.307
 1176SOL     OW 4426   5.357   3.257   6.003
 1176SOL    HW1 4427   5.312   3.284   5.918
 1176SOL    HW2 4428   5.420   3.181   5.985
 1177SOL     OW 4429   0.660   1.575   4.176
 1177SOL    HW1 4430   0.755   1.607   4.176
 1177SOL    HW2 4431   0.601   1.647   4.140
 1178SOL     OW 4432   4.143   5.862   0.557
 1178SOL    HW1 4433   4.052   5.865   0.598
 1178SOL    HW2 4434   4.156   5.775   0.510
 1179SOL     OW 4435   1.581   6.024   0.379
 1179SOL    HW1 4436   1.499   6.074   0.407
 1179SOL    HW2 4437   1.583   6.017   0.279
 1180SOL     OW 4438   3.413   6.059   0.377
 1180SOL    HW1 4439   3.503   6.013   0.378
 1180SOL    HW2 4440   3.345   5.996   0.340
 1181SOL     OW 4441   7.013   6.231   0.225
 1181SOL    HW1 4442   0.008   6.168   0.299
 1181SOL    HW2 4443   0.042   6.312   0.230
 1182SOL     OW 4444   4.469   4.536   2.802
 1182SOL    HW1 4445   4.501   4.460   2.859
 1182SOL    HW2 4446   4.547   4.580   2.757
 1183SOL     OW 4447   2.462   3.288   5.632
 1183SOL    HW1 4448   2.470   3.274   5.533
 1183SOL    HW2 4449   2.365   3.286   5.658
 1184SOL     OW 4450   0.772   6.892   5.352
 1184SOL    HW1 4451   0.763   6.876   5.450
 1184SOL    HW2 4452   0.840   6.964   5.336
 1185SOL     OW 4453   6.776   1.368   6.716
 1185SOL    HW1 4454   6.708   1.297   6.734
 1185SOL    HW2 4455   6.783   1.428   6.796
 1186SOL     OW 4456   5.756   6.095   4.614
 1186SOL    HW1 4457   5.721   6.186   4.590
 1186SOL    HW2 4458   5.794   6.097   4.706
 1187SOL     OW 4459   6.172   0.807   6.404
 1187SOL    HW1 4460   6.168   0.768   6.312
 1187SOL    HW2 4461   6.206   0.739   6.468
 1188SOL     OW 4462   2.350   0.055   6.366
 1188SOL    HW1 4463   2.344   6.987   6.387
 1188SOL    HW2 4464   2.437   0.091   6.401
 1189SOL     OW 4465   5.281   4.072   3.326
 1189SOL    HW1 4466   5.271   4.002   3.396
 1189SOL    HW2 4467   5.358   4.048   3.266
 1190SOL     OW 4468   1.959   6.164   3.539
 1190SOL    HW1 4469   1.917   6.199   3.456
 1190SOL    HW2 4470   2.059   6.162   3.528
 1191SOL     OW 4471   3.948   6.102   2.567
 1191SOL    HW1 4472   3.962   6.017   2.618
 1191SOL    HW2 4473   3.925   6.080   2.472
 1192SOL     OW 4474   5.919   5.907   3.484
 1192SOL    HW1 4475   5.969   5.984   3.444
 1192SOL    HW2 4476   5.979   5.827   3.489
 1193SOL     OW 4477   7.005   5.386   4.300
 1193SOL    HW1 4478   6.917   5.343   4.281
 1193SOL    HW2 4479   7.005   5.424   4.393
 1194SOL     OW 4480   3.820   0.551   1.039
 1194SOL    HW1 4481   3.915   0.524   1.025
 1194SOL    HW2 4482   3.816   0.643   1.077
 1195SOL     OW 4483   5.640   2.127   3.779
 1195SOL    HW1 4484   5.579   2.189   3.828
 1195SOL    HW2 4485   5.701   2.081   3.843
 1196SOL     OW 4486   6.319   6.226   5.278
 1196SOL    HW1 4487   6.382   6.273   5.340
 1196SOL    HW2 4488   6.327   6.267   5.187
 1197SOL     OW 4489   2.252   6.166   0.278
 1197SOL    HW1 4490   2.202   6.202   0.199
 1197SOL    HW2 4491   2.187   6.130   0.345
 1198SOL     OW 4492   1.589   2.663   0.050
 1198SOL    HW1 4493   1.651   2.586   0.066
 1198SOL    HW2 4494   1.636   2.733   7.026
 1199SOL     OW 4495   5.618   3.926   1.604
 1199SOL    HW1 4496   5.625   3.954   1.700
 1199SOL    HW2 4497   5.554   3.986   1.557
 1200SOL     OW 4498   3.118   3.022   2.228
 1200SOL    HW1 4499   3.163   2.934   2.244
 1200SOL    HW2 4500   3.064   3.047   2.309
 1201SOL     OW 4501   1.859   1.717   4.384
 1201SOL    HW1 4502   1.807   1.801   4.369
 1201SOL    HW2 4503   1.951   1.739   4.416
 1202SOL     OW 4504   0.689   5.000   5.466
 1202SOL    HW1 4505   0.698   5.065   5.392
 1202SOL    HW2 4506   0.741   5.031   5.546
 1203SOL     OW 4507   4.489   5.909   5.465
 1203SOL    HW1 4508   4.529   5.972   5.533
 1203SOL    HW2 4509   4.479   5.957   5.378
 1204SOL     OW 4510   2.021   6.912   3.159
 1204SOL    HW1 4511   2.109   6.877   3.127
 1204SOL    HW2 4512   1.960   6.928   3.082
 1205SOL     OW 4513   5.308   4.105   2.415
 1205SOL    HW1 4514   5.234   4.038   2.406
 1205SOL    HW2 4515   5.269   4.195   2.432
 1206SOL     OW 4516   2.889   3.419   4.781
 1206SOL    HW1 4517   2.938   3.491   4.732
 1206SOL    HW2 4518   2.795   3.414   4.747
 1207SOL     OW 4519   1.300   6.398   2.275
 1207SOL    HW1 4520   1.253   6.310   2.262
 1207SOL    HW2 4521   1.374   6.406   2.208
 1208SOL     OW 4522   3.455   4.115   5.952
 1208SOL    HW1 4523   3.545   4.157   5.965
 1208SOL    HW2 4524   3.393   4.183   5.912
 1209SOL     OW 4525   4.150   6.499   5.722
 1209SOL    HW1 4526   4.111   6.426   5.665
 1209SOL    HW2 4527   4.137   6.587   5.677
 1210SOL     OW 4528   3.499   0.715   2.984
 1210SOL    HW1 4529   3.551   0.635   2.955
 1210SOL    HW2 4530   3.554   0.768   3.049
 1211SOL     OW 4531   0.892   3.377   0.101
 1211SOL    HW1 4532   0.934   3.286   0.099
 1211SOL    HW2 4533   0.843   3.393   0.016
 1212SOL     OW 4534   1.307   6.740   0.436
 1212SOL    HW1 4535   1.238   6.730   0.365
 1212SOL    HW2 4536   1.368   6.816   0.412
 1213SOL     OW 4537   5.193   2.797   1.195
 1213SOL    HW1 4538   5.108   2.747   1.184
 1213SOL    HW2 4539   5.198   2.871   1.127
 1214SOL     OW 4540   0.031   2.442   1.521
 1214SOL    HW1 4541   7.003   2.480   1.448
 1214SOL    HW2 4542   0.106   2.505   1.541
 1215SOL     OW 4543   1.301   5.635   3.866
 1215SOL    HW1 4544   1.247   5.717   3.845
 1215SOL    HW2 4545   1.249   5.575   3.927
 1216SOL     OW 4546   4.533   6.089   1.089
 1216SOL    HW1 4547   4.434   6.089   1.081
 1216SOL    HW2 4548   4.573   6.027   1.021
 1217SOL     OW 4549   3.108   4.414   0.069
 1217SOL    HW1 4550   3.027   4.467   0.044
 1217SOL    HW2 4551   3.081   4.323   0.100
 1218SOL     OW 4552   1.846   4.652   3.865
 1218SOL    HW1 4553   1.790   4.612   3.793
 1218SOL    HW2 4554   1.932   4.602   3.871
 1219SOL     OW 4555   4.496   6.161   2.286
 1219SOL    HW1 4556   4.490   6.239   2.349
 1219SOL    HW2 4557   4.583   6.114   2.300
 1220SOL     OW 4558   1.070   4.731   2.782
 1220SOL    HW1 4559   1.097   4.807   2.724
 1220SOL    HW2 4560   1.051   4.651   2.725
 1221SOL     OW 4561   5.071   4.050   6.200
 1221SOL    HW1 4562   5.160   4.065   6.244
 1221SOL    HW2 4563   5.033   4.138   6.172
 1222SOL     OW 4564   6.351   6.958   6.633
 1222SOL    HW1 4565   6.318   7.027   6.569
 1222SOL    HW2 4566   6.335   6.988   6.727
 1223SOL     OW 4567   3.378   6.458   0.906
 1223SOL    HW1 4568   3.314   6.470   0.982
 1223SOL    HW2 4569   3.471   6.480   0.937
 1224SOL     OW 4570   3.137   0.287   2.564
 1224SOL    HW1 4571   3.177   0.375   2.587
 1224SOL    HW2 4572   3.089   0.294   2.476
 1225SOL     OW 4573   2.914   3.950   6.121
 1225SOL    HW1 4574   2.939   3.861   6.083
 1225SOL    HW2 4575   2.862   3.938   6.205
 1226SOL     OW 4576   1.900   4.879   0.923
 1226SOL    HW1 4577   1.852   4.796   0.952
 1226SOL    HW2 4578   1.961   4.910   0.996
 1227SOL     OW 4579   0.479   4.026   6.033
 1227SOL    HW1 4580   0.479   4.006   5.935
 1227SOL    HW2 4581   0.503   3.943   6.084
 1228SOL     OW 4582   3.411   1.725   6.180
 1228SOL    HW1 4583   3.402   1.705   6.083
 1228SOL    HW2 4584   3.443   1.819   6.192
 1229SOL     OW 4585   3.454   3.953   6.201
 1229SOL    HW1 4586   3.448   4.011   6.120
 1229SOL    HW2 4587   3.519   3.879   6.185
 1230SOL     OW 4588   4.530   6.782   3.203
 1230SOL    HW1 4589   4.548   6.860   3.263
 1230SOL    HW2 4590   4.472   6.716   3.251
 1231SOL     OW 4591   1.164   4.734   4.662
 1231SOL    HW1 4592   1.072   4.764   4.687
 1231SOL    HW2 4593   1.229   4.761   4.733
 1232SOL     OW 4594   2.076   1.928   4.471
 1232SOL    HW1 4595   2.110   1.998   4.408
 1232SOL    HW2 4596   1.997   1.963   4.521
 1233SOL     OW 4597   0.441   3.037   4.598
 1233SOL    HW1 4598   0.494   2.955   4.616
 1233SOL    HW2 4599   0.488   3.094   4.530
 1234SOL     OW 4600   6.613   4.148   4.297
 1234SOL    HW1 4601   6.589   4.166   4.392
 1234SOL    HW2 4602   6.541   4.093   4.254
 1235SOL     OW 4603   0.159   5.352   3.931
 1235SOL    HW1 4604   0.059   5.361   3.935
 1235SOL    HW2 4605   0.197   5.426   3.875
 1236SOL     OW 4606   4.868   1.035   6.655
 1236SOL    HW1 4607   4.911   0.953   6.691
 1236SOL    HW2 4608   4.917   1.065   6.573
 1237SOL     OW 4609   3.055   4.553   6.717
 1237SOL    HW1 4610   3.028   4.571   6.812
 1237SOL    HW2 4611   3.118   4.624   6.686
 1238SOL     OW 4612   1.386   1.514   1.390
 1238SOL    HW1 4613   1.316   1.530   1.322
 1238SOL    HW2 4614   1.462   1.462   1.349
 1239SOL     OW 4615   0.302   6.890   5.915
 1239SOL    HW1 4616   0.384   6.930   5.956
 1239SOL    HW2 4617   0.313   6.791   5.910
 1240SOL     OW 4618   4.237   5.887   2.037
 1240SOL    HW1 4619   4.310   5.819   2.031
 1240SOL    HW2 4620   4.168   5.857   2.103
 1241SOL     OW 4621   6.771   2.778   3.823
 1241SOL    HW1 4622   6.791   2.831   3.905
 1241SOL    HW2 4623   6.832   2.700   3.817
 1242SOL     OW 4624   2.109   3.749   6.213
 1242SOL    HW1 4625   2.122   3.707   6.303
 1242SOL    HW2 4626   2.185   3.811   6.194
 1243SOL     OW 4627   2.902   5.213   5.603
 1243SOL    HW1 4628   2.918   5.312   5.597
 1243SOL    HW2 4629   2.971   5.165   5.550
 1244SOL     OW 4630   1.068   1.041   2.976
 1244SOL    HW1 4631   1.063   1.141   2.977
 1244SOL    HW2 4632   1.157   1.012   2.939
 1245SOL     OW 4633   2.845   3.009   6.194
 1245SOL    HW1 4634   2.864   3.092   6.142
 1245SOL    HW2 4635   2.757   3.019   6.241
 1246SOL     OW 4636   1.381   6.998   1.922
 1246SOL    HW1 4637   1.440   0.026   1.980
 1246SOL    HW2 4638   1.298   0.020   1.899
 1247SOL     OW 4639   1.230   6.852   0.098
 1247SOL    HW1 4640   1.215   6.879   0.003
 1247SOL    HW2 4641   1.144   6.857   0.148
 1248SOL     OW 4642   1.997   6.523   3.729
 1248SOL    HW1 4643   1.992   6.621   3.748
 1248SOL    HW2 4644   1.969   6.505   3.635
 1249SOL     OW 4645   6.292   3.069   3.247
 1249SOL    HW1 4646   6.388   3.081   3.221
 1249SOL    HW2 4647   6.247   3.008   3.182
 1250SOL     OW 4648   0.681   3.879   4.414
 1250SOL    HW1 4649   0.755   3.814   4.430
 1250SOL    HW2 4650   0.661   3.884   4.316
 1251SOL     OW 4651   3.237   6.763   5.776
 1251SOL    HW1 4652   3.310   6.812   5.728
 1251SOL    HW2 4653   3.275   6.680   5.819
 1252SOL     OW 4654   3.354   2.971   6.624
 1252SOL    HW1 4655   3.324   2.883   6.660
 1252SOL    HW2 4656   3.453   2.973   6.618
 1253SOL     OW 4657   4.195   6.461   3.079
 1253SOL    HW1 4658   4.275   6.432   3.132
 1253SOL    HW2 4659   4.171   6.388   3.014
 1254SOL     OW 4660   6.413   2.255   2.435
 1254SOL    HW1 4661   6.412   2.313   2.517
 1254SOL    HW2 4662   6.499   2.205   2.431
 1255SOL     OW 4663   5.836   0.365   0.524
 1255SOL    HW1 4664   5.915   0.426   0.518
 1255SOL    HW2 4665   5.790   0.378   0.611
 1256SOL     OW 4666   4.395   1.830   3.734
 1256SOL    HW1 4667   4.469   1.817   3.668
 1256SOL    HW2 4668   4.423   1.895   3.804
 1257SOL     OW 4669   6.284   1.480   4.212
 1257SOL    HW1 4670   6.231   1.555   4.173
 1257SOL    HW2 4671   6.223   1.413   4.254
 1258SOL     OW 4672   0.014   6.118   3.891
 1258SOL    HW1 4673   0.018   6.154   3.798
 1258SOL    HW2 4674   0.106   6.089   3.919
 1259SOL     OW 4675   4.209   2.120   5.517
 1259SOL    HW1 4676   4.124   2.125   5.466
 1259SOL    HW2 4677   4.285   2.147   5.458
 1260SOL     OW 4678   0.513   1.632   5.476
 1260SOL    HW1 4679   0.513   1.645   5.377
 1260SOL    HW2 4680   0.572   1.702   5.519
 1261SOL     OW 4681   6.098   3.798   0.868
 1261SOL    HW1 4682   6.179   3.780   0.813
 1261SOL    HW2 4683   6.123   3.854   0.948
 1262SOL     OW 4684   5.145   6.399   2.659
 1262SOL    HW1 4685   5.045   6.391   2.667
 1262SOL    HW2 4686   5.179   6.324   2.602
 1263SOL     OW 4687   6.761   2.263   3.410
 1263SOL    HW1 4688   6.764   2.315   3.325
 1263SOL    HW2 4689   6.666   2.238   3.431
 1264SOL     OW 4690   0.873   2.936   5.362
 1264SOL    HW1 4691   0.885   3.024   5.408
 1264SOL    HW2 4692   0.948   2.875   5.389
 1265SOL     OW 4693   5.675   7.023   5.970
 1265SOL    HW1 4694   5.714   6.998   5.882
 1265SOL    HW2 4695   5.636   6.941   6.013
 1266SOL     OW 4696   2.317   1.666   5.902
 1266SOL    HW1 4697   2.383   1.724   5.950
 1266SOL    HW2 4698   2.224   1.698   5.922
 1267SOL     OW 4699   3.711   6.992   2.668
 1267SOL    HW1 4700   3.684   6.941   2.587
 1267SOL    HW2 4701   3.631   7.011   2.724
 1268SOL     OW 4702   3.975   2.999   5.719
 1268SOL    HW1 4703   3.886   3.035   5.747
 1268SOL    HW2 4704   3.992   3.023   5.623
 1269SOL     OW 4705   5.827   1.926   3.887
 1269SOL    HW1 4706   5.919   1.940   3.851
 1269SOL    HW2 4707   5.778   1.860   3.830
 1270SOL     OW 4708   6.060   5.152   2.835
 1270SOL    HW1 4709   6.075   5.104   2.921
 1270SOL    HW2 4710   6.025   5.089   2.767
 1271SOL     OW 4711   1.865   1.199   1.158
 1271SOL    HW1 4712   1.860   1.140   1.238
 1271SOL    HW2 4713   1.791   1.175   1.094
 1272SOL     OW 4714   6.328   2.383   6.631
 1272SOL    HW1 4715   6.396   2.355   6.562
 1272SOL    HW2 4716   6.253   2.430   6.586
 1273SOL     OW 4717   1.383   4.822   5.770
 1273SOL    HW1 4718   1.335   4.785   5.691
 1273SOL    HW2 4719   1.399   4.920   5.757
 1274SOL     OW 4720   6.944   4.932   3.185
 1274SOL    HW1 4721   0.006   4.917   3.224
 1274SOL    HW2 4722   6.953   4.967   3.091
 1275SOL     OW 4723   2.314   1.361   2.711
 1275SOL    HW1 4724   2.237   1.298   2.712
 1275SOL    HW2 4725   2.309   1.422   2.791
 1276SOL     OW 4726   5.490   4.859   3.336
 1276SOL    HW1 4727   5.528   4.949   3.312
 1276SOL    HW2 4728   5.444   4.820   3.256
 1277SOL     OW 4729   0.085   5.844   0.202
 1277SOL    HW1 4730   0.068   5.907   0.278
 1277SOL    HW2 4731   0.152   5.775   0.231
 1278SOL     OW 4732   1.113   5.777   3.127
 1278SOL    HW1 4733   1.200   5.804   3.168
 1278SOL    HW2 4734   1.054   5.856   3.119
 1279SOL     OW 4735   2.804   2.828   1.594
 1279SOL    HW1 4736   2.776   2.895   1.663
 1279SOL    HW2 4737   2.836   2.745   1.639
 1280SOL     OW 4738   2.405   1.988   3.802
 1280SOL    HW1 4739   2.372   2.072   3.844
 1280SOL    HW2 4740   2.505   1.984   3.808
 1281SOL     OW 4741   5.512   6.746   4.838
 1281SOL    HW1 4742   5.454   6.668   4.816
 1281SOL    HW2 4743   5.496   6.774   4.932
 1282SOL     OW 4744   0.526   3.133   1.337
 1282SOL    HW1 4745   0.568   3.152   1.248
 1282SOL    HW2 4746   0.597   3.102   1.401
 1283SOL     OW 4747   6.767   2.390   5.051
 1283SOL    HW1 4748   6.675   2.416   5.021
 1283SOL    HW2 4749   6.771   2.393   5.151
 1284SOL     OW 4750   3.936   2.164   1.894
 1284SOL    HW1 4751   3.948   2.243   1.834
 1284SOL    HW2 4752   3.846   2.170   1.938
 1285SOL     OW 4753   4.431   1.065   4.440
 1285SOL    HW1 4754   4.528   1.075   4.459
 1285SOL    HW2 4755   4.415   0.976   4.397
 1286SOL     OW 4756   5.306   1.494   0.763
 1286SOL    HW1 4757   5.304   1.411   0.708
 1286SOL    HW2 4758   5.395   1.539   0.752
 1287SOL     OW 4759   6.493   4.833   4.933
 1287SOL    HW1 4760   6.526   4.922   4.964
 1287SOL    HW2 4761   6.469   4.838   4.836
 1288SOL     OW 4762   5.084   4.882   6.917
 1288SOL    HW1 4763   5.147   4.825   6.863
 1288SOL    HW2 4764   5.011   4.824   6.955
 1289SOL     OW 4765   6.544   6.964   1.300
 1289SOL    HW1 4766   6.458   6.913   1.313
 1289SOL    HW2 4767   6.621   6.900   1.302
 1290SOL     OW 4768   0.952   6.085   5.334
 1290SOL    HW1 4769   0.859   6.121   5.338
 1290SOL    HW2 4770   1.003   6.131   5.261
 1291SOL     OW 4771   6.278   4.928   3.817
 1291SOL    HW1 4772   6.339   5.002   3.847
 1291SOL    HW2 4773   6.206   4.966   3.759
 1292SOL     OW 4774   1.084   6.848   1.796
 1292SOL    HW1 4775   1.137   6.844   1.712
 1292SOL    HW2 4776   1.106   6.932   1.846
 1293SOL     OW 4777   4.870   0.882   0.471
 1293SOL    HW1 4778   4.774   0.889   0.442
 1293SOL    HW2 4779   4.873   0.857   0.568
 1294SOL     OW 4780   2.100   4.628   5.186
 1294SOL    HW1 4781   2.122   4.561   5.257
 1294SOL    HW2 4782   2.065   4.581   5.106
 1295SOL     OW 4783   6.474   4.242   0.622
 1295SOL    HW1 4784   6.480   4.250   0.722
 1295SOL    HW2 4785   6.487   4.332   0.581
 1296SOL     OW 4786   5.113   0.277   6.074
 1296SOL    HW1 4787   5.203   0.321   6.072
 1296SOL    HW2 4788   5.055   0.323   6.142
 1297SOL     OW 4789   0.126   0.443   1.623
 1297SOL    HW1 4790   0.109   0.358   1.573
 1297SOL    HW2 4791   0.047   0.466   1.679
 1298SOL     OW 4792   5.674   0.680   2.416
 1298SOL    HW1 4793   5.594   0.738   2.435
 1298SOL    HW2 4794   5.741   0.692   2.489
 1299SOL     OW 4795   0.850   3.064   4.120
 1299SOL    HW1 4796   0.920   3.005   4.159
 1299SOL    HW2 4797   0.879   3.160   4.129
 1300SOL     OW 4798   0.245   5.877   1.174
 1300SOL    HW1 4799   0.240   5.781   1.202
 1300SOL    HW2 4800   0.197   5.889   1.087
 1301SOL     OW 4801   6.841   0.303   0.017
 1301SOL    HW1 4802   6.837   0.253   0.103
 1301SOL    HW2 4803   6.751   0.306   7.004
 1302SOL     OW 4804   6.381   6.688   5.310
 1302SOL    HW1 4805   6.298   6.641   5.341
 1302SOL    HW2 4806   6.390   6.679   5.211
 1303SOL     OW 4807   3.006   5.978   1.902
 1303SOL    HW1 4808   2.946   6.058   1.910
 1303SOL    HW2 4809   2.962   5.899   1.945
 1304SOL     OW 4810   0.393   0.565   0.484
 1304SOL    HW1 4811   0.298   0.594   0.478
 1304SOL    HW2 4812   0.405   0.503   0.561
 1305SOL     OW 4813   4.398   4.385   6.067
 1305SOL    HW1 4814   4.377   4.478   6.039
 1305SOL    HW2 4815   4.375   4.321   5.993
 1306SOL     OW 4816   3.373   5.947   4.008
 1306SOL    HW1 4817   3.460   5.899   4.013
 1306SOL    HW2 4818   3.355   5.975   3.913
 1307SOL     OW 4819   2.412   2.654   3.696
 1307SOL    HW1 4820   2.482   2.694   3.637
 1307SOL    HW2 4821   2.322   2.678   3.660
 1308SOL     OW 4822   0.169   3.712   6.682
 1308SOL    HW1 4823   0.264   3.680   6.676
 1308SOL    HW2 4824   0.121   3.691   6.596
 1309SOL     OW 4825   5.874   4.433   6.849
 1309SOL    HW1 4826   5.867   4.392   6.758
 1309SOL    HW2 4827   5.967   4.466   6.864
 1310SOL     OW 4828   1.652   4.371   3.220
 1310SOL    HW1 4829   1.669   4.273   3.222
 1310SOL    HW2 4830   1.690   4.410   3.136
 1311SOL     OW 4831   5.853   5.175   0.392
 1311SOL    HW1 4832   5.870   5.153   0.296
 1311SOL    HW2 4833   5.760   5.147   0.417
 1312SOL     OW 4834   2.596   1.080   5.828
 1312SOL    HW1 4835   2.641   1.168   5.816
 1312SOL    HW2 4836   2.535   1.063   5.750
 1313SOL     OW 4837   6.671   5.574   2.088
 1313SOL    HW1 4838   6.665   5.607   2.183
 1313SOL    HW2 4839   6.767   5.573   2.060
 1314SOL     OW 4840   2.310   1.818   4.433
 1314SOL    HW1 4841   2.218   1.857   4.434
 1314SOL    HW2 4842   2.304   1.719   4.443
 1315SOL     OW 4843   6.439   0.865   2.472
 1315SOL    HW1 4844   6.342   0.881   2.487
 1315SOL    HW2 4845   6.451   0.777   2.424
 1316SOL     OW 4846   5.563   0.469   6.568
 1316SOL    HW1 4847   5.566   0.540   6.639
 1316SOL    HW2 4848   5.537   0.382   6.609
 1317SOL     OW 4849   3.466   3.512   6.025
 1317SOL    HW1 4850   3.563   3.488   6.033
 1317SOL    HW2 4851   3.455   3.611   6.035
 1318SOL     OW 4852   2.069   1.718   5.992
 1318SOL    HW1 4853   2.087   1.713   6.090
 1318SOL    HW2 4854   1.974   1.746   5.977
 1319SOL     OW 4855   6.787   0.158   0.245
 1319SOL    HW1 4856   6.773   0.176   0.342
 1319SOL    HW2 4857   6.771   0.061   0.227
 1320SOL     OW 4858   3.230   3.308   6.272
 1320SOL    HW1 4859   3.251   3.388   6.328
 1320SOL    HW2 4860   3.209   3.230   6.332
 1321SOL     OW 4861   6.864   2.633   0.664
 1321SOL    HW1 4862   6.870   2.712   0.602
 1321SOL    HW2 4863   6.951   2.584   0.665
 1322SOL     OW 4864   3.560   2.314   0.096
 1322SOL    HW1 4865   3.563   2.264   0.009
 1322SOL    HW2 4866   3.652   2.346   0.119
 1323SOL     OW 4867   4.014   6.378   1.316
 1323SOL    HW1 4868   4.001   6.290   1.361
 1323SOL    HW2 4869   4.001   6.367   1.218
 1324SOL     OW 4870   2.577   4.023   6.329
 1324SOL    HW1 4871   2.660   3.969   6.312
 1324SOL    HW2 4872   2.588   4.114   6.290
 1325SOL     OW 4873   3.396   5.696   5.507
 1325SOL    HW1 4874   3.356   5.703   5.416
 1325SOL    HW2 4875   3.372   5.778   5.560
 1326SOL     OW 4876   4.967   1.736   4.897
 1326SOL    HW1 4877   4.957   1.753   4.995
 1326SOL    HW2 4878   4.966   1.823   4.848
 1327SOL     OW 4879   5.053   5.528   2.479
 1327SOL    HW1 4880   5.069   5.468   2.557
 1327SOL    HW2 4881   5.080   5.621   2.502
 1328SOL     OW 4882   1.752   2.404   5.899
 1328SOL    HW1 4883   1.763   2.502   5.912
 1328SOL    HW2 4884   1.659   2.377   5.922
 1329SOL     OW 4885   0.821   2.456   3.706
 1329SOL    HW1 4886   0.856   2.490   3.794
 1329SOL    HW2 4887   0.879   2.492   3.633
 1330SOL     OW 4888   5.714   3.159   2.788
 1330SOL    HW1 4889   5.797   3.184   2.838
 1330SOL    HW2 4890   5.740   3.123   2.698
 1331SOL     OW 4891   4.606   2.063   3.449
 1331SOL    HW1 4892   4.633   1.967   3.453
 1331SOL    HW2 4893   4.508   2.070   3.434
 1332SOL     OW 4894   2.033   5.828   0.432
 1332SOL    HW1 4895   1.934   5.839   0.446
 1332SOL    HW2 4896   2.081   5.903   0.477
 1333SOL     OW 4897   3.045   3.833   3.075
 1333SOL    HW1 4898   3.103   3.909   3.045
 1333SOL    HW2 4899   3.028   3.840   3.173
 1334SOL     OW 4900   6.483   3.634   1.642
 1334SOL    HW1 4901   6.405   3.646   1.704
 1334SOL    HW2 4902   6.503   3.536   1.632
 1335SOL     OW 4903   0.790   3.337   3.408
 1335SOL    HW1 4904   0.755   3.246   3.387
 1335SOL    HW2 4905   0.716   3.403   3.402
 1336SOL     OW 4906   2.090   0.199   5.526
 1336SOL    HW1 4907   2.042   0.284   5.504
 1336SOL    HW2 4908   2.129   0.207   5.618
 1337SOL     OW 4909   0.116   0.184   3.004
 1337SOL    HW1 4910   0.166   0.108   2.962
 1337SOL    HW2 4911   0.182   0.251   3.038
 1338SOL     OW 4912   6.396   3.842   4.666
 1338SOL    HW1 4913   6.365   3.850   4.571
 1338SOL    HW2 4914   6.493   3.818   4.667
 1339SOL     OW 4915   6.394   0.250   0.264
 1339SOL    HW1 4916   6.310   0.201   0.287
 1339SOL    HW2 4917   6.460   0.186   0.224
 1340SOL     OW 4918   3.783   2.648   1.292
 1340SOL    HW1 4919   3.794   2.599   1.379
 1340SOL    HW2 4920   3.774   2.582   1.218
 1341SOL     OW 4921   4.956   5.888   6.913
 1341SOL    HW1 4922   4.994   5.799   6.888
 1341SOL    HW2 4923   4.961   5.949   6.835
 1342SOL     OW 4924   1.984   6.030   1.680
 1342SOL    HW1 4925   1.998   5.936   1.647
 1342SOL    HW2 4926   1.903   6.069   1.636
 1343SOL     OW 4927   5.899   5.758   3.179
 1343SOL    HW1 4928   5.870   5.831   3.117
 1343SOL    HW2 4929   5.996   5.740   3.167
 1344SOL     OW 4930   0.931   0.552   4.568
 1344SOL    HW1 4931   0.972   0.527   4.656
 1344SOL    HW2 4932   1.000   0.544   4.496
 1345SOL     OW 4933   0.632   6.437   0.195
 1345SOL    HW1 4934   0.604   6.436   0.099
 1345SOL    HW2 4935   0.556   6.408   0.252
 1346SOL     OW 4936   3.357   4.958   4.457
 1346SOL    HW1 4937   3.264   4.953   4.494
 1346SOL    HW2 4938   3.391   5.051   4.465
 1347SOL     OW 4939   1.340   0.078   6.654
 1347SOL    HW1 4940   1.368   0.148   6.588
 1347SOL    HW2 4941   1.397   7.026   6.642
 1348SOL     OW 4942   0.630   6.248   5.121
 1348SOL    HW1 4943   0.554   6.184   5.117
 1348SOL    HW2 4944   0.702   6.219   5.058
 1349SOL     OW 4945   4.872   3.591   4.053
 1349SOL    HW1 4946   4.826   3.582   4.141
 1349SOL    HW2 4947   4.876   3.688   4.028
 1350SOL     OW 4948   4.243   4.701   6.854
 1350SOL    HW1 4949   4.203   4.647   6.929
 1350SOL    HW2 4950   4.343   4.702   6.864
 1351SOL     OW 4951   0.787   2.855   5.729
 1351SOL    HW1 4952   0.767   2.834   5.633
 1351SOL    HW2 4953   0.727   2.801   5.788
 1352SOL     OW 4954   0.068   0.727   2.609
 1352SOL    HW1 4955   0.095   0.672   2.529
 1352SOL    HW2 4956   0.064   0.669   2.690
 1353SOL     OW 4957   0.521   1.076   0.576
 1353SOL    HW1 4958   0.511   0.977   0.565
 1353SOL    HW2 4959   0.430   1.118   0.582
 1354SOL     OW 4960   4.718   5.270   2.644
 1354SOL    HW1 4961   4.715   5.362   2.605
 1354SOL    HW2 4962   4.721   5.203   2.571
 1355SOL     OW 4963   5.303   3.150   5.544
 1355SOL    HW1 4964   5.322   3.199   5.629
 1355SOL    HW2 4965   5.256   3.064   5.564
 1356SOL     OW 4966   2.336   3.166   0.309
 1356SOL    HW1 4967   2.428   3.200   0.327
 1356SOL    HW2 4968   2.284   3.161   0.395
 1357SOL     OW 4969   1.872   2.923   5.449
 1357SOL    HW1 4970   1.864   3.002   5.389
 1357SOL    HW2 4971   1.829   2.844   5.406
 1358SOL     OW 4972   2.264   0.129   0.464
 1358SOL    HW1 4973   2.203   0.067   0.414
 1358SOL    HW2 4974   2.211   0.206   0.499
 1359SOL     OW 4975   6.513   4.335   1.159
 1359SOL    HW1 4976   6.567   4.253   1.178
 1359SOL    HW2 4977   6.515   4.395   1.239
 1360SOL     OW 4978   1.963   2.729   0.160
 1360SOL    HW1 4979   1.922   2.764   0.244
 1360SOL    HW2 4980   2.062   2.733   0.167
 1361SOL     OW 4981   6.776   4.136   4.974
 1361SOL    HW1 4982   6.849   4.069   4.989
 1361SOL    HW2 4983   6.816   4.227   4.961
 1362SOL     OW 4984   3.354   3.257   2.916
 1362SOL    HW1 4985   3.357   3.357   2.914
 1362SOL    HW2 4986   3.447   3.221   2.916
 1363SOL     OW 4987   0.951   6.112   4.244
 1363SOL    HW1 4988   1.026   6.161   4.199
 1363SOL    HW2 4989   0.983   6.076   4.331
 1364SOL     OW 4990   4.818   4.208   0.716
 1364SOL    HW1 4991   4.742   4.161   0.671
 1364SOL    HW2 4992   4.787   4.248   0.802
 1365SOL     OW 4993   6.346   3.315   6.561
 1365SOL    HW1 4994   6.443   3.293   6.567
 1365SOL    HW2 4995   6.305   3.309   6.652
 1366SOL     OW 4996   2.817   6.839   5.562
 1366SOL    HW1 4997   2.777   6.849   5.471
 1366SOL    HW2 4998   2.791   6.916   5.620
 1367SOL     OW 4999   2.519   1.304   2.016
 1367SOL    HW1 5000   2.594   1.346   2.066
 1367SOL    HW2 5001   2.488   1.366   1.944
 1368SOL     OW 5002   5.573   6.093   3.251
 1368SOL    HW1 5003   5.568   6.166   3.319
 1368SOL    HW2 5004   5.536   6.009   3.289
 1369SOL     OW 5005   1.317   0.957   2.905
 1369SOL    HW1 5006   1.365   1.045   2.909
 1369SOL    HW2 5007   1.297   0.936   2.809
 1370SOL     OW 5008   2.338   0.479   1.637
 1370SOL    HW1 5009   2.356   0.399   1.579
 1370SOL    HW2 5010   2.365   0.562   1.588
 1371SOL     OW 5011   3.614   0.229   6.562
 1371SOL    HW1 5012   3.548   0.237   6.636
 1371SOL    HW2 5013   3.696   0.282   6.583
 1372SOL     OW 5014   3.143   2.136   1.948
 1372SOL    HW1 5015   3.155   2.179   1.859
 1372SOL    HW2 5016   3.073   2.186   1.999
 1373SOL     OW 5017   1.556   5.962   0.099
 1373SOL    HW1 5018   1.645   6.002   0.078
 1373SOL    HW2 5019   1.512   5.932   0.014
 1374SOL     OW 5020   5.171   4.215   0.248
 1374SOL    HW1 5021   5.179   4.158   0.165
 1374SOL    HW2 5022   5.253   4.204   0.303
 1375SOL     OW 5023   0.862   4.431   5.287
 1375SOL    HW1 5024   0.831   4.338   5.304
 1375SOL    HW2 5025   0.791   4.480   5.235
 1376SOL     OW 5026   4.533   1.351   2.500
 1376SOL    HW1 5027   4.583   1.355   2.414
 1376SOL    HW2 5028   4.528   1.256   2.532
 1377SOL     OW 5029   1.141   4.728   4.377
 1377SOL    HW1 5030   1.158   4.756   4.472
 1377SOL    HW2 5031   1.051   4.684   4.371
 1378SOL     OW 5032   1.793   2.949   6.515
 1378SOL    HW1 5033   1.796   2.915   6.421
 1378SOL    HW2 5034   1.732   3.028   6.520
 1379SOL     OW 5035   4.038   6.050   1.166
 1379SOL    HW1 5036   4.047   5.971   1.227
 1379SOL    HW2 5037   3.944   6.054   1.131
 1380SOL     OW 5038   5.871   5.452   2.895
 1380SOL    HW1 5039   5.855   5.476   2.991
 1380SOL    HW2 5040   5.946   5.508   2.859
 1381SOL     OW 5041   5.882   6.968   1.784
 1381SOL    HW1 5042   5.851   0.019   1.836
 1381SOL    HW2 5043   5.976   6.983   1.753
 1382SOL     OW 5044   0.034   4.780   6.544
 1382SOL    HW1 5045   0.110   4.826   6.498
 1382SOL    HW2 5046   6.982   4.782   6.486
 1383SOL     OW 5047   2.503   0.604   0.326
 1383SOL    HW1 5048   2.593   0.613   0.367
 1383SOL    HW2 5049   2.469   0.694   0.300
 1384SOL     OW 5050   2.274   2.317   2.240
 1384SOL    HW1 5051   2.251   2.315   2.337
 1384SOL    HW2 5052   2.227   2.394   2.197
 1385SOL     OW 5053   5.462   2.863   3.848
 1385SOL    HW1 5054   5.381   2.822   3.889
 1385SOL    HW2 5055   5.447   2.962   3.836
 1386SOL     OW 5056   2.142   2.555   4.024
 1386SOL    HW1 5057   2.163   2.586   3.931
 1386SOL    HW2 5058   2.170   2.626   4.089
 1387SOL     OW 5059   2.887   0.457   4.541
 1387SOL    HW1 5060   2.885   0.487   4.445
 1387SOL    HW2 5061   2.969   0.492   4.585
 1388SOL     OW 5062   5.860   1.571   4.156
 1388SOL    HW1 5063   5.864   1.554   4.254
 1388SOL    HW2 5064   5.867   1.485   4.107
 1389SOL     OW 5065   6.722   0.639   3.983
 1389SOL    HW1 5066   6.804   0.606   4.029
 1389SOL    HW2 5067   6.641   0.610   4.034
 1390SOL     OW 5068   4.449   2.449   2.226
 1390SOL    HW1 5069   4.504   2.532   2.225
 1390SOL    HW2 5070   4.428   2.424   2.321
 1391SOL     OW 5071   5.864   1.457   4.685
 1391SOL    HW1 5072   5.913   1.526   4.738
 1391SOL    HW2 5073   5.839   1.381   4.745
 1392SOL     OW 5074   4.644   6.576   5.413
 1392SOL    HW1 5075   4.705   6.505   5.376
 1392SOL    HW2 5076   4.649   6.574   5.513
 1393SOL     OW 5077   4.850   0.216   0.076
 1393SOL    HW1 5078   4.783   0.168   0.133
 1393SOL    HW2 5079   4.825   0.206   7.009
 1394SOL     OW 5080   4.402   0.004   4.051
 1394SOL    HW1 5081   4.359   0.061   4.121
 1394SOL    HW2 5082   4.347   0.007   3.967
 1395SOL     OW 5083   0.579   4.984   2.492
 1395SOL    HW1 5084   0.530   5.026   2.416
 1395SOL    HW2 5085   0.658   5.041   2.516
 1396SOL     OW 5086   1.575   1.694   3.703
 1396SOL    HW1 5087   1.670   1.665   3.717
 1396SOL    HW2 5088   1.521   1.671   3.784
 1397SOL     OW 5089   1.374   5.046   5.332
 1397SOL    HW1 5090   1.292   5.003   5.369
 1397SOL    HW2 5091   1.415   4.985   5.263
 1398SOL     OW 5092   1.995   6.817   6.639
 1398SOL    HW1 5093   2.062   6.844   6.708
 1398SOL    HW2 5094   1.997   6.881   6.563
 1399SOL     OW 5095   4.049   0.194   6.814
 1399SOL    HW1 5096   4.050   0.275   6.757
 1399SOL    HW2 5097   4.078   0.114   6.760
 1400SOL     OW 5098   0.305   1.326   5.189
 1400SOL    HW1 5099   0.392   1.316   5.142
 1400SOL    HW2 5100   0.251   1.242   5.178
 1401SOL     OW 5101   5.411   0.331   1.916
 1401SOL    HW1 5102   5.404   0.376   1.827
 1401SOL    HW2 5103   5.504   0.298   1.929
 1402SOL     OW 5104   6.503   4.586   1.996
 1402SOL    HW1 5105   6.529   4.547   1.907
 1402SOL    HW2 5106   6.552   4.538   2.069
 1403SOL     OW 5107   3.007   3.514   6.227
 1403SOL    HW1 5108   3.044   3.421   6.231
 1403SOL    HW2 5109   3.025   3.560   6.314
 1404SOL     OW 5110   3.761   6.534   0.420
 1404SOL    HW1 5111   3.856   6.511   0.399
 1404SOL    HW2 5112   3.751   6.633   0.423
 1405SOL     OW 5113   0.903   3.414   0.371
 1405SOL    HW1 5114   0.826   3.410   0.434
 1405SOL    HW2 5115   0.869   3.419   0.277
 1406SOL     OW 5116   2.511   2.986   0.154
 1406SOL    HW1 5117   2.498   3.009   0.057
 1406SOL    HW2 5118   2.430   3.015   0.205
 1407SOL     OW 5119   0.511   2.745   1.185
 1407SOL    HW1 5120   0.570   2.779   1.113
 1407SOL    HW2 5121   0.552   2.764   1.274
 1408SOL     OW 5122   5.540   6.677   0.397
 1408SOL    HW1 5123   5.591   6.601   0.437
 1408SOL    HW2 5124   5.604   6.742   0.356
 1409SOL     OW 5125   6.188   1.864   5.832
 1409SOL    HW1 5126   6.205   1.951   5.784
 1409SOL    HW2 5127   6.144   1.800   5.769
 1410SOL     OW 5128   3.245   0.579   0.082
 1410SOL    HW1 5129   3.345   0.576   0.083
 1410SOL    HW2 5130   3.210   0.527   0.004
 1411SOL     OW 5131   3.647   5.061   6.420
 1411SOL    HW1 5132   3.721   5.082   6.483
 1411SOL    HW2 5133   3.681   5.004   6.345
 1412SOL     OW 5134   2.438   2.466   6.884
 1412SOL    HW1 5135   2.458   2.418   6.798
 1412SOL    HW2 5136   2.368   2.535   6.867
 1413SOL     OW 5137   2.261   1.604   5.587
 1413SOL    HW1 5138   2.206   1.651   5.518
 1413SOL    HW2 5139   2.203   1.579   5.664
 1414SOL     OW 5140   0.987   5.101   2.121
 1414SOL    HW1 5141   1.013   5.115   2.025
 1414SOL    HW2 5142   0.888   5.106   2.130
 1415SOL     OW 5143   3.924   1.758   4.789
 1415SOL    HW1 5144   3.864   1.799   4.857
 1415SOL    HW2 5145   3.887   1.774   4.698
 1416SOL     OW 5146   4.246   0.374   5.052
 1416SOL    HW1 5147   4.297   0.288   5.057
 1416SOL    HW2 5148   4.310   0.449   5.037
 1417SOL     OW 5149   3.212   3.432   4.133
 1417SOL    HW1 5150   3.286   3.456   4.196
 1417SOL    HW2 5151   3.153   3.364   4.177
 1418SOL     OW 5152   3.079   3.708   5.661
 1418SOL    HW1 5153   3.087   3.739   5.755
 1418SOL    HW2 5154   3.135   3.766   5.602
 1419SOL     OW 5155   0.969   6.054   2.016
 1419SOL    HW1 5156   0.873   6.057   1.985
 1419SOL    HW2 5157   0.995   5.958   2.030
 1420SOL     OW 5158   3.332   5.887   3.169
 1420SOL    HW1 5159   3.402   5.817   3.154
 1420SOL    HW2 5160   3.336   5.954   3.096
 1421SOL     OW 5161   1.863   5.393   0.137
 1421SOL    HW1 5162   1.924   5.395   0.216
 1421SOL    HW2 5163   1.878   5.308   0.086
 1422SOL     OW 5164   1.754   3.550   6.629
 1422SOL    HW1 5165   1.797   3.486   6.692
 1422SOL    HW2 5166   1.661   3.519   6.609
 1423SOL     OW 5167   4.052   0.778   5.092
 1423SOL    HW1 5168   4.003   0.843   5.033
 1423SOL    HW2 5169   4.087   0.703   5.037
 1424SOL     OW 5170   6.301   2.572   1.476
 1424SOL    HW1 5171   6.313   2.609   1.384
 1424SOL    HW2 5172   6.345   2.483   1.482
 1425SOL     OW 5173   5.290   0.152   3.427
 1425SOL    HW1 5174   5.344   0.181   3.348
 1425SOL    HW2 5175   5.212   0.098   3.396
 1426SOL     OW 5176   4.301   0.600   0.239
 1426SOL    HW1 5177   4.232   0.664   0.205
 1426SOL    HW2 5178   4.351   0.642   0.314
 1427SOL     OW 5179   1.220   0.778   4.293
 1427SOL    HW1 5180   1.316   0.789   4.269
 1427SOL    HW2 5181   1.194   0.682   4.285
 1428SOL     OW 5182   2.073   3.769   3.558
 1428SOL    HW1 5183   2.123   3.837   3.505
 1428SOL    HW2 5184   1.996   3.813   3.604
 1429SOL     OW 5185   5.681   0.438   2.106
 1429SOL    HW1 5186   5.712   0.400   2.194
 1429SOL    HW2 5187   5.644   0.529   2.120
 1430SOL     OW 5188   2.021   4.036   4.581
 1430SOL    HW1 5189   1.994   4.108   4.517
 1430SOL    HW2 5190   2.056   4.078   4.665
 1431SOL     OW 5191   3.301   1.500   0.555
 1431SOL    HW1 5192   3.268   1.408   0.534
 1431SOL    HW2 5193   3.241   1.567   0.510
 1432SOL     OW 5194   4.514   6.744   2.804
 1432SOL    HW1 5195   4.547   6.681   2.735
 1432SOL    HW2 5196   4.414   6.743   2.806
 1433SOL     OW 5197   3.162   1.509   3.909
 1433SOL    HW1 5198   3.190   1.414   3.921
 1433SOL    HW2 5199   3.236   1.561   3.866
 1434SOL     OW 5200   5.287   3.902   0.980
 1434SOL    HW1 5201   5.232   3.976   0.940
 1434SOL    HW2 5202   5.359   3.876   0.916
 1435SOL     OW 5203   0.646   6.745   4.023
 1435SOL    HW1 5204   0.623   6.654   4.057
 1435SOL    HW2 5205   0.701   6.737   3.940
 1436SOL     OW 5206   5.580   0.795   0.683
 1436SOL    HW1 5207   5.643   0.718   0.695
 1436SOL    HW2 5208   5.580   0.825   0.588
 1437SOL     OW 5209   4.513   1.607   0.349
 1437SOL    HW1 5210   4.503   1.700   0.385
 1437SOL    HW2 5211   4.588   1.605   0.282
 1438SOL     OW 5212   2.194   6.911   2.641
 1438SOL    HW1 5213   2.286   6.895   2.679
 1438SOL    HW2 5214   2.169   7.007   2.655
 1439SOL     OW 5215   0.746   5.197   6.197
 1439SOL    HW1 5216   0.674   5.222   6.132
 1439SOL    HW2 5217   0.721   5.227   6.288
 1440SOL     OW 5218   4.018   3.108   2.409
 1440SOL    HW1 5219   4.116   3.112   2.392
 1440SOL    HW2 5220   4.001   3.109   2.508
 1441SOL     OW 5221   6.174   2.160   5.773
 1441SOL    HW1 5222   6.205   2.211   5.854
 1441SOL    HW2 5223   6.076   2.172   5.762
 1442SOL     OW 5224   5.416   6.252   0.489
 1442SOL    HW1 5225   5.421   6.194   0.408
 1442SOL    HW2 5226   5.369   6.337   0.466
 1443SOL     OW 5227   1.164   2.342   3.587
 1443SOL    HW1 5228   1.237   2.282   3.555
 1443SOL    HW2 5229   1.076   2.306   3.556
 1444SOL     OW 5230   5.267   6.414   5.066
 1444SOL    HW1 5231   5.219   6.495   5.099
 1444SOL    HW2 5232   5.203   6.339   5.055
 1445SOL     OW 5233   6.500   2.116   6.892
 1445SOL    HW1 5234   6.403   2.126   6.911
 1445SOL    HW2 5235   6.512   2.065   6.807
 1446SOL     OW 5236   3.985   5.559   1.509
 1446SOL    HW1 5237   4.059   5.615   1.472
 1446SOL    HW2 5238   3.899   5.610   1.504
 1447SOL     OW 5239   6.331   1.069   4.897
 1447SOL    HW1 5240   6.386   0.992   4.927
 1447SOL    HW2 5241   6.381   1.122   4.828
 1448SOL     OW 5242   5.800   0.482   6.899
 1448SOL    HW1 5243   5.825   0.550   6.968
 1448SOL    HW2 5244   5.882   0.436   6.865
 1449SOL     OW 5245   4.257   5.446   0.891
 1449SOL    HW1 5246   4.325   5.442   0.817
 1449SOL    HW2 5247   4.290   5.394   0.969
 1450SOL     OW 5248   6.221   1.668   3.477
 1450SOL    HW1 5249   6.144   1.728   3.500
 1450SOL    HW2 5250   6.266   1.638   3.561
 1451SOL     OW 5251   1.375   6.523   1.789
 1451SOL    HW1 5252   1.405   6.442   1.839
 1451SOL    HW2 5253   1.385   6.604   1.848
 1452SOL     OW 5254   3.477   0.453   5.613
 1452SOL    HW1 5255   3.390   0.465   5.660
 1452SOL    HW2 5256   3.485   0.518   5.538
 1453SOL     OW 5257   4.998   4.566   3.957
 1453SOL    HW1 5258   5.059   4.537   3.884
 1453SOL    HW2 5259   5.022   4.659   3.985
 1454SOL     OW 5260   5.137   4.144   0.931
 1454SOL    HW1 5261   5.183   4.232   0.933
 1454SOL    HW2 5262   5.100   4.128   0.839
 1455SOL     OW 5263   2.225   2.349   1.892
 1455SOL    HW1 5264   2.283   2.351   1.810
 1455SOL    HW2 5265   2.235   2.261   1.938
 1456SOL     OW 5266   6.051   5.105   5.338
 1456SOL    HW1 5267   6.066   5.048   5.258
 1456SOL    HW2 5268   5.965   5.080   5.382
 1457SOL     OW 5269   2.031   0.541   3.912
 1457SOL    HW1 5270   1.942   0.496   3.911
 1457SOL    HW2 5271   2.058   0.560   4.006
 1458SOL     OW 5272   0.001   5.545   0.196
 1458SOL    HW1 5273   0.015   5.644   0.201
 1458SOL    HW2 5274   6.990   5.513   0.282
 1459SOL     OW 5275   2.970   0.286   1.474
 1459SOL    HW1 5276   2.923   0.367   1.439
 1459SOL    HW2 5277   3.006   0.304   1.565
 1460SOL     OW 5278   0.734   0.154   6.815
 1460SOL    HW1 5279   0.641   0.164   6.779
 1460SOL    HW2 5280   0.764   0.059   6.802
 1461SOL     OW 5281   4.792   5.499   2.495
 1461SOL    HW1 5282   4.891   5.510   2.492
 1461SOL    HW2 5283   4.748   5.587   2.476
 1462SOL     OW 5284   5.651   0.278   5.272
 1462SOL    HW1 5285   5.709   0.216   5.325
 1462SOL    HW2 5286   5.577   0.312   5.330
 1463SOL     OW 5287   0.765   2.327   6.044
 1463SOL    HW1 5288   0.670   2.327   6.013
 1463SOL    HW2 5289   0.807   2.415   6.022
 1464SOL     OW 5290   0.886   0.817   1.660
 1464SOL    HW1 5291   0.829   0.762   1.600
 1464SOL    HW2 5292   0.891   0.773   1.750
 1465SOL     OW 5293   0.752   0.779   4.088
 1465SOL    HW1 5294   0.841   0.820   4.107
 1465SOL    HW2 5295   0.725   0.719   4.164
 1466SOL     OW 5296   5.999   5.287   4.980
 1466SOL    HW1 5297   6.014   5.270   4.883
 1466SOL    HW2 5298   5.904   5.270   5.003
 1467SOL     OW 5299   6.009   3.639   3.816
 1467SOL    HW1 5300   6.016   3.641   3.916
 1467SOL    HW2 5301   6.091   3.596   3.778
 1468SOL     OW 5302   4.721   0.390   2.161
 1468SOL    HW1 5303   4.662   0.312   2.142
 1468SOL    HW2 5304   4.689   0.438   2.243
 1469SOL     OW 5305   0.661   0.696   2.357
 1469SOL    HW1 5306   0.639   0.790   2.332
 1469SOL    HW2 5307   0.758   0.690   2.383
 1470SOL     OW 5308   6.857   0.432   3.224
 1470SOL    HW1 5309   6.822   0.442   3.130
 1470SOL    HW2 5310   6.782   0.403   3.284
 1471SOL     OW 5311   5.934   0.733   1.467
 1471SOL    HW1 5312   5.982   0.724   1.379
 1471SOL    HW2 5313   6.000   0.758   1.538
 1472SOL     OW 5314   4.600   5.303   4.634
 1472SOL    HW1 5315   4.516   5.268   4.593
 1472SOL    HW2 5316   4.679   5.258   4.591
 1473SOL     OW 5317   6.275   3.603   3.217
 1473SOL    HW1 5318   6.294   3.506   3.233
 1473SOL    HW2 5319   6.319   3.632   3.132
 1474SOL     OW 5320   4.677   5.408   3.060
 1474SOL    HW1 5321   4.768   5.370   3.042
 1474SOL    HW2 5322   4.662   5.411   3.159
 1475SOL     OW 5323   6.048   0.043   3.178
 1475SOL    HW1 5324   6.084   0.026   3.086
 1475SOL    HW2 5325   6.124   0.051   3.243
 1476SOL     OW 5326   0.226   2.426   1.095
 1476SOL    HW1 5327   0.145   2.386   1.137
 1476SOL    HW2 5328   0.199   2.474   1.011
 1477SOL     OW 5329   2.245   6.358   3.908
 1477SOL    HW1 5330   2.234   6.383   3.812
 1477SOL    HW2 5331   2.309   6.422   3.951
 1478SOL     OW 5332   6.885   4.048   1.574
 1478SOL    HW1 5333   6.930   4.074   1.659
 1478SOL    HW2 5334   6.820   4.119   1.547
 1479SOL     OW 5335   1.086   5.356   0.627
 1479SOL    HW1 5336   1.024   5.326   0.700
 1479SOL    HW2 5337   1.179   5.359   0.663
 1480SOL     OW 5338   2.308   0.800   0.253
 1480SOL    HW1 5339   2.314   0.899   0.253
 1480SOL    HW2 5340   2.334   0.764   0.164
 1481SOL     OW 5341   0.726   3.590   6.716
 1481SOL    HW1 5342   0.819   3.562   6.691
 1481SOL    HW2 5343   0.724   3.688   6.733
 1482SOL     OW 5344   5.539   0.932   6.347
 1482SOL    HW1 5345   5.544   0.891   6.438
 1482SOL    HW2 5346   5.508   0.863   6.281
 1483SOL     OW 5347   6.469   1.946   6.676
 1483SOL    HW1 5348   6.463   1.945   6.576
 1483SOL    HW2 5349   6.526   1.869   6.706
 1484SOL     OW 5350   6.414   6.814   2.893
 1484SOL    HW1 5351   6.403   6.784   2.988
 1484SOL    HW2 5352   6.430   6.913   2.891
 1485SOL     OW 5353   5.696   2.741   3.903
 1485SOL    HW1 5354   5.769   2.806   3.926
 1485SOL    HW2 5355   5.611   2.790   3.888
 1486SOL     OW 5356   5.208   2.303   1.710
 1486SOL    HW1 5357   5.176   2.351   1.791
 1486SOL    HW2 5358   5.217   2.205   1.731
 1487SOL     OW 5359   0.003   0.667   5.689
 1487SOL    HW1 5360   0.077   0.601   5.700
 1487SOL    HW2 5361   0.023   0.749   5.743
 1488SOL     OW 5362   5.364   2.084   4.114
 1488SOL    HW1 5363   5.365   2.139   4.198
 1488SOL    HW2 5364   5.342   1.989   4.138
 1489SOL     OW 5365   4.133   5.756   4.266
 1489SOL    HW1 5366   4.137   5.691   4.189
 1489SOL    HW2 5367   4.186   5.837   4.243
 1490SOL     OW 5368   2.493   2.663   1.283
 1490SOL    HW1 5369   2.515   2.728   1.357
 1490SOL    HW2 5370   2.455   2.580   1.323
 1491SOL     OW 5371   0.345   2.396   5.488
 1491SOL    HW1 5372   0.271   2.459   5.513
 1491SOL    HW2 5373   0.307   2.307   5.467
 1492SOL     OW 5374   5.961   2.282   1.145
 1492SOL    HW1 5375   5.927   2.375   1.156
 1492SOL    HW2 5376   5.981   2.244   1.235
 1493SOL     OW 5377   6.135   2.438   5.126
 1493SOL    HW1 5378   6.181   2.354   5.152
 1493SOL    HW2 5379   6.146   2.506   5.198
 1494SOL     OW 5380   5.935   1.556   4.428
 1494SOL    HW1 5381   5.908   1.526   4.520
 1494SOL    HW2 5382   5.956   1.654   4.430
 1495SOL     OW 5383   1.252   3.548   2.713
 1495SOL    HW1 5384   1.245   3.477   2.782
 1495SOL    HW2 5385   1.322   3.524   2.646
 1496SOL     OW 5386   1.272   0.924   2.651
 1496SOL    HW1 5387   1.272   1.000   2.587
 1496SOL    HW2 5388   1.240   0.841   2.606
 1497SOL     OW 5389   5.274   5.352   5.556
 1497SOL    HW1 5390   5.192   5.398   5.523
 1497SOL    HW2 5391   5.283   5.263   5.511
 1498SOL     OW 5392   2.206   5.569   0.413
 1498SOL    HW1 5393   2.171   5.652   0.456
 1498SOL    HW2 5394   2.202   5.578   0.314
 1499SOL     OW 5395   1.050   4.154   4.364
 1499SOL    HW1 5396   1.024   4.188   4.454
 1499SOL    HW2 5397   1.089   4.062   4.373
 1500SOL     OW 5398   4.366   6.602   5.406
 1500SOL    HW1 5399   4.386   6.617   5.503
 1500SOL    HW2 5400   4.452   6.591   5.356
 1501SOL     OW 5401   4.117   0.379   0.210
 1501SOL    HW1 5402   4.081   0.344   0.296
 1501SOL    HW2 5403   4.193   0.441   0.227
 1502SOL     OW 5404   0.192   5.845   6.491
 1502SOL    HW1 5405   0.185   5.841   6.590
 1502SOL    HW2 5406   0.137   5.922   6.457
 1503SOL     OW 5407   3.694   4.405   5.538
 1503SOL    HW1 5408   3.729   4.433   5.627
 1503SOL    HW2 5409   3.693   4.305   5.531
 1504SOL     OW 5410   2.382   6.685   4.070
 1504SOL    HW1 5411   2.422   6.772   4.040
 1504SOL    HW2 5412   2.441   6.609   4.043
 1505SOL     OW 5413   4.665   6.853   2.353
 1505SOL    HW1 5414   4.658   6.842   2.254
 1505SOL    HW2 5415   4.733   6.790   2.389
 1506SOL     OW 5416   1.068   6.623   3.128
 1506SOL    HW1 5417   0.983   6.650   3.173
 1506SOL    HW2 5418   1.053   6.540   3.075
 1507SOL     OW 5419   2.550   2.344   0.091
 1507SOL    HW1 5420   2.611   2.270   0.064
 1507SOL    HW2 5421   2.487   2.364   0.016
 1508SOL     OW 5422   4.676   6.935   1.153
 1508SOL    HW1 5423   4.597   6.983   1.114
 1508SOL    HW2 5424   4.654   6.839   1.166
 1509SOL     OW 5425   5.623   1.881   6.624
 1509SOL    HW1 5426   5.552   1.912   6.688
 1509SOL    HW2 5427   5.580   1.857   6.537
 1510SOL     OW 5428   6.870   1.897   2.885
 1510SOL    HW1 5429   6.782   1.943   2.893
 1510SOL    HW2 5430   6.933   1.932   2.955
 1511SOL     OW 5431   0.975   3.122   0.131
 1511SOL    HW1 5432   0.994   3.098   0.226
 1511SOL    HW2 5433   0.997   3.044   0.072
 1512SOL     OW 5434   6.600   1.192   1.878
 1512SOL    HW1 5435   6.592   1.119   1.810
 1512SOL    HW2 5436   6.693   1.227   1.879
 1513SOL     OW 5437   3.215   0.468   2.936
 1513SOL    HW1 5438   3.184   0.526   2.861
 1513SOL    HW2 5439   3.236   0.525   3.016
 1514SOL     OW 5440   4.537   0.624   6.087
 1514SOL    HW1 5441   4.627   0.617   6.132
 1514SOL    HW2 5442   4.505   0.718   6.090
 1515SOL     OW 5443   5.491   5.388   5.265
 1515SOL    HW1 5444   5.456   5.295   5.260
 1515SOL    HW2 5445   5.416   5.453   5.254
 1516SOL     OW 5446   0.828   1.491   0.910
 1516SOL    HW1 5447   0.782   1.571   0.872
 1516SOL    HW2 5448   0.760   1.427   0.945
 1517SOL     OW 5449   3.036   5.400   3.239
 1517SOL    HW1 5450   3.034   5.462   3.318
 1517SOL    HW2 5451   3.063   5.309   3.270
 1518SOL     OW 5452   0.642   4.889   0.840
 1518SOL    HW1 5453   0.623   4.817   0.774
 1518SOL    HW2 5454   0.697   4.960   0.797
 1519SOL     OW 5455   0.431   4.104   0.978
 1519SOL    HW1 5456   0.361   4.100   0.907
 1519SOL    HW2 5457   0.501   4.170   0.953
 1520SOL     OW 5458   1.448   2.597   3.040
 1520SOL    HW1 5459   1.349   2.584   3.039
 1520SOL    HW2 5460   1.469   2.692   3.062
 1521SOL     OW 5461   2.297   4.278   5.148
 1521SOL    HW1 5462   2.303   4.182   5.174
 1521SOL    HW2 5463   2.387   4.321   5.160
 1522SOL     OW 5464   1.099   2.116   6.230
 1522SOL    HW1 5465   1.059   2.032   6.266
 1522SOL    HW2 5466   1.026   2.181   6.210
 1523SOL     OW 5467   5.535   1.240   1.077
 1523SOL    HW1 5468   5.529   1.169   1.148
 1523SOL    HW2 5469   5.581   1.202   0.997
 1524SOL     OW 5470   6.848   1.044   1.573
 1524SOL    HW1 5471   6.798   1.107   1.515
 1524SOL    HW2 5472   6.795   1.026   1.657
 1525SOL     OW 5473   4.804   1.098   5.895
 1525SOL    HW1 5474   4.852   1.186   5.902
 1525SOL    HW2 5475   4.777   1.067   5.986
 1526SOL     OW 5476   6.531   1.333   6.993
 1526SOL    HW1 5477   6.434   1.326   7.017
 1526SOL    HW2 5478   6.555   1.257   6.932
 1527SOL     OW 5479   3.196   1.751   5.678
 1527SOL    HW1 5480   3.220   1.840   5.715
 1527SOL    HW2 5481   3.113   1.717   5.724
 1528SOL     OW 5482   5.557   5.210   3.903
 1528SOL    HW1 5483   5.554   5.271   3.982
 1528SOL    HW2 5484   5.529   5.259   3.821
 1529SOL     OW 5485   2.542   0.157   5.565
 1529SOL    HW1 5486   2.583   0.223   5.627
 1529SOL    HW2 5487   2.489   0.090   5.617
 1530SOL     OW 5488   2.793   6.825   1.464
 1530SOL    HW1 5489   2.811   6.876   1.548
 1530SOL    HW2 5490   2.705   6.853   1.426
 1531SOL     OW 5491   5.863   0.802   6.481
 1531SOL    HW1 5492   5.896   0.870   6.546
 1531SOL    HW2 5493   5.883   0.832   6.387
 1532SOL     OW 5494   2.939   2.559   5.536
 1532SOL    HW1 5495   2.947   2.519   5.445
 1532SOL    HW2 5496   2.902   2.651   5.528
 1533SOL     OW 5497   4.990   2.920   6.757
 1533SOL    HW1 5498   5.022   3.010   6.729
 1533SOL    HW2 5499   4.893   2.924   6.780
 1534SOL     OW 5500   6.690   0.147   1.883
 1534SOL    HW1 5501   6.598   0.141   1.845
 1534SOL    HW2 5502   6.684   0.160   1.982
 1535SOL     OW 5503   5.264   4.313   4.329
 1535SOL    HW1 5504   5.285   4.370   4.408
 1535SOL    HW2 5505   5.171   4.334   4.296
 1536SOL     OW 5506   3.229   5.969   2.868
 1536SOL    HW1 5507   3.254   5.907   2.793
 1536SOL    HW2 5508   3.195   6.055   2.831
 1537SOL     OW 5509   2.871   5.671   4.584
 1537SOL    HW1 5510   2.925   5.715   4.655
 1537SOL    HW2 5511   2.807   5.737   4.544
 1538SOL     OW 5512   3.603   5.412   6.664
 1538SOL    HW1 5513   3.625   5.384   6.758
 1538SOL    HW2 5514   3.650   5.497   6.643
 1539SOL     OW 5515   3.189   6.277   1.668
 1539SOL    HW1 5516   3.218   6.283   1.764
 1539SOL    HW2 5517   3.096   6.311   1.659
 1540SOL     OW 5518   6.028   6.814   5.162
 1540SOL    HW1 5519   6.014   6.823   5.260
 1540SOL    HW2 5520   5.991   6.895   5.116
 1541SOL     OW 5521   5.359   1.437   1.065
 1541SOL    HW1 5522   5.326   1.435   0.970
 1541SOL    HW2 5523   5.426   1.365   1.078
 1542SOL     OW 5524   0.374   6.546   0.818
 1542SOL    HW1 5525   0.437   6.536   0.894
 1542SOL    HW2 5526   0.287   6.502   0.840
 1543SOL     OW 5527   3.575   3.669   3.392
 1543SOL    HW1 5528   3.516   3.750   3.400
 1543SOL    HW2 5529   3.626   3.674   3.306
 1544SOL     OW 5530   3.335   3.214   2.503
 1544SOL    HW1 5531   3.304   3.142   2.565
 1544SOL    HW2 5532   3.423   3.250   2.536
 1545SOL     OW 5533   0.158   0.591   4.577
 1545SOL    HW1 5534   0.109   0.653   4.637
 1545SOL    HW2 5535   0.092   0.535   4.526
 1546SOL     OW 5536   6.401   6.349   6.440
 1546SOL    HW1 5537   6.336   6.349   6.364
 1546SOL    HW2 5538   6.358   6.306   6.520
 1547SOL     OW 5539   3.398   5.624   0.222
 1547SOL    HW1 5540   3.395   5.649   0.319
 1547SOL    HW2 5541   3.307   5.635   0.182
 1548SOL     OW 5542   6.101   3.863   3.646
 1548SOL    HW1 5543   6.028   3.887   3.582
 1548SOL    HW2 5544   6.073   3.785   3.702
 1549SOL     OW 5545   0.061   2.474   0.614
 1549SOL    HW1 5546   0.113   2.509   0.692
 1549SOL    HW2 5547   0.069   2.537   0.537
 1550SOL     OW 5548   2.406   5.256   2.780
 1550SOL    HW1 5549   2.324   5.313   2.779
 1550SOL    HW2 5550   2.484   5.310   2.748
 1551SOL     OW 5551   0.277   2.593   1.503
 1551SOL    HW1 5552   0.348   2.531   1.469
 1551SOL    HW2 5553   0.319   2.678   1.537
 1552SOL     OW 5554   0.911   6.632   2.119
 1552SOL    HW1 5555   0.986   6.617   2.184
 1552SOL    HW2 5556   0.947   6.633   2.026
 1553SOL     OW 5557   5.322   1.109   5.958
 1553SOL    HW1 5558   5.394   1.117   6.027
 1553SOL    HW2 5559   5.336   1.024   5.906
 1554SOL     OW 5560   2.784   2.391   0.942
 1554SOL    HW1 5561   2.788   2.322   1.014
 1554SOL    HW2 5562   2.785   2.483   0.983
 1555SOL     OW 5563   3.984   0.948   0.234
 1555SOL    HW1 5564   4.012   1.044   0.228
 1555SOL    HW2 5565   3.927   0.935   0.315
 1556SOL     OW 5566   3.709   1.844   0.400
 1556SOL    HW1 5567   3.652   1.823   0.479
 1556SOL    HW2 5568   3.657   1.829   0.316
 1557SOL     OW 5569   1.752   3.246   0.616
 1557SOL    HW1 5570   1.745   3.310   0.540
 1557SOL    HW2 5571   1.781   3.157   0.582
 1558SOL     OW 5572   5.162   2.768   6.038
 1558SOL    HW1 5573   5.066   2.795   6.044
 1558SOL    HW2 5574   5.203   2.811   5.958
 1559SOL     OW 5575   2.545   6.197   3.420
 1559SOL    HW1 5576   2.456   6.183   3.465
 1559SOL    HW2 5577   2.576   6.110   3.382
 1560SOL     OW 5578   4.138   2.832   1.323
 1560SOL    HW1 5579   4.174   2.838   1.230
 1560SOL    HW2 5580   4.055   2.887   1.330
 1561SOL     OW 5581   5.568   6.039   0.757
 1561SOL    HW1 5582   5.654   6.064   0.800
 1561SOL    HW2 5583   5.497   6.105   0.784
 1562SOL     OW 5584   2.852   0.440   2.584
 1562SOL    HW1 5585   2.835   0.342   2.583
 1562SOL    HW2 5586   2.902   0.466   2.501
 1563SOL     OW 5587   1.865   3.062   4.031
 1563SOL    HW1 5588   1.866   2.994   4.105
 1563SOL    HW2 5589   1.946   3.120   4.039
 1564SOL     OW 5590   0.558   1.497   2.839
 1564SOL    HW1 5591   0.486   1.471   2.903
 1564SOL    HW2 5592   0.611   1.572   2.878
 1565SOL     OW 5593   4.950   1.480   5.334
 1565SOL    HW1 5594   4.993   1.399   5.375
 1565SOL    HW2 5595   4.858   1.492   5.372
 1566SOL     OW 5596   6.920   3.592   3.427
 1566SOL    HW1 5597   7.007   3.627   3.463
 1566SOL    HW2 5598   6.874   3.664   3.376
 1567SOL     OW 5599   5.716   0.090   4.880
 1567SOL    HW1 5600   5.794   0.040   4.917
 1567SOL    HW2 5601   5.663   0.130   4.955
 1568SOL     OW 5602   2.078   4.946   1.106
 1568SOL    HW1 5603   2.166   4.952   1.058
 1568SOL    HW2 5604   2.090   4.969   1.202
 1569SOL     OW 5605   2.417   1.292   2.468
 1569SOL    HW1 5606   2.372   1.364   2.415
 1569SOL    HW2 5607   2.384   1.295   2.563
 1570SOL     OW 5608   2.831   5.881   6.520
 1570SOL    HW1 5609   2.846   5.972   6.480
 1570SOL    HW2 5610   2.898   5.817   6.482
 1571SOL     OW 5611   6.902   2.860   4.391
 1571SOL    HW1 5612   6.924   2.910   4.475
 1571SOL    HW2 5613   6.983   2.856   4.332
 1572SOL     OW 5614   2.298   6.214   3.200
 1572SOL    HW1 5615   2.319   6.146   3.270
 1572SOL    HW2 5616   2.379   6.230   3.143
 1573SOL     OW 5617   5.120   5.642   0.298
 1573SOL    HW1 5618   5.029   5.623   0.336
 1573SOL    HW2 5619   5.187   5.645   0.371
 1574SOL     OW 5620   1.259   4.429   3.076
 1574SOL    HW1 5621   1.204   4.372   3.015
 1574SOL    HW2 5622   1.268   4.383   3.165
 1575SOL     OW 5623   6.889   2.271   0.561
 1575SOL    HW1 5624   6.930   2.361   0.565
 1575SOL    HW2 5625   6.960   2.202   0.546
 1576SOL     OW 5626   1.728   5.673   1.686
 1576SOL    HW1 5627   1.648   5.730   1.700
 1576SOL    HW2 5628   1.764   5.643   1.774
 1577SOL     OW 5629   4.118   6.143   3.892
 1577SOL    HW1 5630   4.118   6.139   3.792
 1577SOL    HW2 5631   4.126   6.051   3.929
 1578SOL     OW 5632   5.073   1.693   1.421
 1578SOL    HW1 5633   5.063   1.617   1.485
 1578SOL    HW2 5634   5.109   1.659   1.334
 1579SOL     OW 5635   1.637   3.161   1.744
 1579SOL    HW1 5636   1.550   3.125   1.711
 1579SOL    HW2 5637   1.661   3.244   1.692
 1580SOL     OW 5638   2.861   3.432   3.264
 1580SOL    HW1 5639   2.929   3.460   3.196
 1580SOL    HW2 5640   2.867   3.493   3.344
 1581SOL     OW 5641   6.216   4.158   4.494
 1581SOL    HW1 5642   6.152   4.116   4.557
 1581SOL    HW2 5643   6.265   4.086   4.444
 1582SOL     OW 5644   4.889   6.169   4.973
 1582SOL    HW1 5645   4.921   6.082   4.936
 1582SOL    HW2 5646   4.953   6.201   5.043
 1583SOL     OW 5647   1.299   5.694   5.229
 1583SOL    HW1 5648   1.267   5.606   5.265
 1583SOL    HW2 5649   1.304   5.760   5.304
 1584SOL     OW 5650   0.516   4.065   0.638
 1584SOL    HW1 5651   0.555   4.013   0.562
 1584SOL    HW2 5652   0.524   4.011   0.722
 1585SOL     OW 5653   4.793   6.636   4.168
 1585SOL    HW1 5654   4.719   6.576   4.136
 1585SOL    HW2 5655   4.764   6.684   4.251
 1586SOL     OW 5656   3.111   5.726   2.967
 1586SOL    HW1 5657   3.048   5.720   2.890
 1586SOL    HW2 5658   3.167   5.809   2.958
 1587SOL     OW 5659   3.642   6.659   6.793
 1587SOL    HW1 5660   3.543   6.674   6.787
 1587SOL    HW2 5661   3.671   6.667   6.888
 1588SOL     OW 5662   6.357   1.904   3.067
 1588SOL    HW1 5663   6.284   1.870   3.126
 1588SOL    HW2 5664   6.318   1.966   2.999
 1589SOL     OW 5665   6.799   3.150   4.492
 1589SOL    HW1 5666   6.897   3.129   4.501
 1589SOL    HW2 5667   6.788   3.246   4.466
 1590SOL     OW 5668   5.920   1.081   3.230
 1590SOL    HW1 5669   5.993   1.149   3.238
 1590SOL    HW2 5670   5.892   1.051   3.321
 1591SOL     OW 5671   1.070   5.892   0.727
 1591SOL    HW1 5672   1.040   5.797   0.724
 1591SOL    HW2 5673   1.096   5.922   0.635
 1592SOL     OW 5674   0.323   3.528   5.929
 1592SOL    HW1 5675   0.310   3.525   5.830
 1592SOL    HW2 5676   0.244   3.486   5.974
 1593SOL     OW 5677   3.664   6.263   0.892
 1593SOL    HW1 5678   3.598   6.231   0.825
 1593SOL    HW2 5679   3.616   6.287   0.977
 1594SOL     OW 5680   5.432   0.753   2.807
 1594SOL    HW1 5681   5.474   0.701   2.881
 1594SOL    HW2 5682   5.332   0.740   2.809
 1595SOL     OW 5683   0.923   3.260   6.713
 1595SOL    HW1 5684   1.008   3.208   6.718
 1595SOL    HW2 5685   0.860   3.215   6.650
 1596SOL     OW 5686   4.958   4.537   3.433
 1596SOL    HW1 5687   4.918   4.447   3.418
 1596SOL    HW2 5688   4.976   4.550   3.531
 1597SOL     OW 5689   3.214   5.862   0.323
 1597SOL    HW1 5690   3.246   5.796   0.391
 1597SOL    HW2 5691   3.222   5.822   0.232
 1598SOL     OW 5692   1.050   4.424   6.147
 1598SOL    HW1 5693   1.121   4.461   6.088
 1598SOL    HW2 5694   1.089   4.353   6.205
 1599SOL     OW 5695   4.685   5.635   3.736
 1599SOL    HW1 5696   4.598   5.585   3.742
 1599SOL    HW2 5697   4.756   5.584   3.783
 1600SOL     OW 5698   4.237   0.862   1.526
 1600SOL    HW1 5699   4.189   0.922   1.461
 1600SOL    HW2 5700   4.269   0.780   1.478
 1601SOL     OW 5701   6.521   1.141   4.689
 1601SOL    HW1 5702   6.575   1.100   4.615
 1601SOL    HW2 5703   6.508   1.238   4.671
 1602SOL     OW 5704   4.845   5.805   3.966
 1602SOL    HW1 5705   4.766   5.832   4.021
 1602SOL    HW2 5706   4.817   5.737   3.898
 1603SOL     OW 5707   3.174   4.899   2.407
 1603SOL    HW1 5708   3.260   4.948   2.415
 1603SOL    HW2 5709   3.170   4.827   2.476
 1604SOL     OW 5710   4.455   4.995   2.888
 1604SOL    HW1 5711   4.537   4.941   2.870
 1604SOL    HW2 5712   4.477   5.092   2.882
 1605SOL     OW 5713   4.933   5.011   0.457
 1605SOL    HW1 5714   5.010   4.966   0.501
 1605SOL    HW2 5715   4.956   5.106   0.438
 1606SOL     OW 5716   3.285   6.013   4.870
 1606SOL    HW1 5717   3.195   5.987   4.905
 1606SOL    HW2 5718   3.335   5.931   4.840
 1607SOL     OW 5719   4.745   4.073   3.871
 1607SOL    HW1 5720   4.737   4.167   3.903
 1607SOL    HW2 5721   4.716   4.067   3.775
 1608SOL     OW 5722   5.790   2.202   3.540
 1608SOL    HW1 5723   5.727   2.197   3.617
 1608SOL    HW2 5724   5.760   2.137   3.469
 1609SOL     OW 5725   1.761   0.063   1.062
 1609SOL    HW1 5726   1.784   7.000   1.031
 1609SOL    HW2 5727   1.671   0.062   1.107
 1610SOL     OW 5728   5.576   6.453   0.919
 1610SOL    HW1 5729   5.610   6.541   0.884
 1610SOL    HW2 5730   5.476   6.457   0.926
 1611SOL     OW 5731   1.548   3.941   6.898
 1611SOL    HW1 5732   1.535   3.893   6.985
 1611SOL    HW2 5733   1.538   3.876   6.822
 1612SOL     OW 5734   4.182   1.279   2.453
 1612SOL    HW1 5735   4.233   1.364   2.442
 1612SOL    HW2 5736   4.176   1.231   2.366
 1613SOL     OW 5737   6.865   5.187   2.734
 1613SOL    HW1 5738   6.883   5.259   2.668
 1613SOL    HW2 5739   6.948   5.133   2.748
 1614SOL     OW 5740   6.400   1.278   6.168
 1614SOL    HW1 5741   6.394   1.376   6.153
 1614SOL    HW2 5742   6.430   1.232   6.085
 1615SOL     OW 5743   7.016   3.851   5.653
 1615SOL    HW1 5744   7.024   3.948   5.628
 1615SOL    HW2 5745   0.078   3.815   5.673
 1616SOL     OW 5746   0.362   0.605   4.156
 1616SOL    HW1 5747   0.375   0.617   4.254
 1616SOL    HW2 5748   0.347   0.694   4.113
 1617SOL     OW 5749   6.913   5.439   3.809
 1617SOL    HW1 5750   6.944   5.533   3.796
 1617SOL    HW2 5751   6.933   5.385   3.728
 1618SOL     OW 5752   3.757   5.301   2.754
 1618SOL    HW1 5753   3.696   5.380   2.758
 1618SOL    HW2 5754   3.716   5.225   2.804
 1619SOL     OW 5755   0.776   4.523   6.548
 1619SOL    HW1 5756   0.804   4.449   6.609
 1619SOL    HW2 5757   0.846   4.594   6.548
 1620SOL     OW 5758   3.294   6.689   4.018
 1620SOL    HW1 5759   3.356   6.709   3.942
 1620SOL    HW2 5760   3.306   6.757   4.090
 1621SOL     OW 5761   4.711   5.594   0.792
 1621SOL    HW1 5762   4.632   5.597   0.731
 1621SOL    HW2 5763   4.681   5.567   0.884
 1622SOL     OW 5764   6.287   4.570   4.232
 1622SOL    HW1 5765   6.369   4.516   4.218
 1622SOL    HW2 5766   6.217   4.544   4.165
 1623SOL     OW 5767   0.261   2.548   3.272
 1623SOL    HW1 5768   0.272   2.504   3.362
 1623SOL    HW2 5769   0.180   2.511   3.227
 1624SOL     OW 5770   3.834   3.084   0.660
 1624SOL    HW1 5771   3.761   3.145   0.691
 1624SOL    HW2 5772   3.798   3.021   0.592
 1625SOL     OW 5773   0.362   6.604   0.309
 1625SOL    HW1 5774   0.390   6.605   0.213
 1625SOL    HW2 5775   0.335   6.696   0.338
 1626SOL     OW 5776   2.404   1.801   1.735
 1626SOL    HW1 5777   2.440   1.807   1.828
 1626SOL    HW2 5778   2.476   1.825   1.670
 1627SOL     OW 5779   3.942   2.284   5.925
 1627SOL    HW1 5780   3.860   2.328   5.961
 1627SOL    HW2 5781   4.012   2.280   5.998
 1628SOL     OW 5782   5.491   6.903   0.930
 1628SOL    HW1 5783   5.564   6.842   0.898
 1628SOL    HW2 5784   5.496   6.911   1.029
 1629SOL     OW 5785   1.595   0.174   3.708
 1629SOL    HW1 5786   1.643   0.234   3.644
 1629SOL    HW2 5787   1.505   0.212   3.728
 1630SOL     OW 5788   0.475   3.752   6.033
 1630SOL    HW1 5789   0.436   3.682   5.973
 1630SOL    HW2 5790   0.575   3.749   6.028
 1631SOL     OW 5791   5.740   3.281   0.728
 1631SOL    HW1 5792   5.699   3.371   0.710
 1631SOL    HW2 5793   5.723   3.256   0.823
 1632SOL     OW 5794   6.458   6.024   2.274
 1632SOL    HW1 5795   6.429   6.007   2.368
 1632SOL    HW2 5796   6.557   6.041   2.272
 1633SOL     OW 5797   5.269   3.608   4.428
 1633SOL    HW1 5798   5.255   3.509   4.428
 1633SOL    HW2 5799   5.194   3.653   4.476
 1634SOL     OW 5800   0.989   3.199   5.921
 1634SOL    HW1 5801   0.966   3.274   5.983
 1634SOL    HW2 5802   1.087   3.183   5.922
 1635SOL     OW 5803   3.373   6.979   3.701
 1635SOL    HW1 5804   3.319   0.012   3.644
 1635SOL    HW2 5805   3.450   7.028   3.741
 1636SOL     OW 5806   6.510   5.639   1.011
 1636SOL    HW1 5807   6.417   5.641   1.049
 1636SOL    HW2 5808   6.506   5.656   0.913
 1637SOL     OW 5809   1.632   1.336   2.617
 1637SOL    HW1 5810   1.658   1.250   2.574
 1637SOL    HW2 5811   1.617   1.406   2.546
 1638SOL     OW 5812   5.220   2.255   2.205
 1638SOL    HW1 5813   5.267   2.326   2.153
 1638SOL    HW2 5814   5.210   2.284   2.300
 1639SOL     OW 5815   5.151   2.425   1.944
 1639SOL    HW1 5816   5.092   2.506   1.952
 1639SOL    HW2 5817   5.108   2.348   1.991
 1640SOL     OW 5818   5.879   0.993   6.705
 1640SOL    HW1 5819   5.850   0.969   6.798
 1640SOL    HW2 5820   5.953   1.060   6.710
 1641SOL     OW 5821   6.261   1.557   2.942
 1641SOL    HW1 5822   6.242   1.485   2.875
 1641SOL    HW2 5823   6.188   1.558   3.010
 1642SOL     OW 5824   6.963   3.254   6.140
 1642SOL    HW1 5825   6.874   3.212   6.153
 1642SOL    HW2 5826   0.005   3.195   6.179
 1643SOL     OW 5827   2.023   5.524   3.896
 1643SOL    HW1 5828   2.025   5.452   3.966
 1643SOL    HW2 5829   1.998   5.611   3.939
 1644SOL     OW 5830   6.456   2.216   1.946
 1644SOL    HW1 5831   6.437   2.244   2.040
 1644SOL    HW2 5832   6.440   2.294   1.884
 1645SOL     OW 5833   2.461   0.634   5.239
 1645SOL    HW1 5834   2.550   0.609   5.275
 1645SOL    HW2 5835   2.391   0.573   5.278
 1646SOL     OW 5836   1.071   5.320   1.457
 1646SOL    HW1 5837   1.058   5.250   1.528
 1646SOL    HW2 5838   1.088   5.276   1.369
 1647SOL     OW 5839   6.032   2.946   4.690
 1647SOL    HW1 5840   6.031   2.846   4.686
 1647SOL    HW2 5841   6.115   2.976   4.736
 1648SOL     OW 5842   5.968   6.037   1.882
 1648SOL    HW1 5843   6.064   6.011   1.883
 1648SOL    HW2 5844   5.912   5.958   1.858
 1649SOL     OW 5845   3.731   1.716   3.258
 1649SOL    HW1 5846   3.664   1.675   3.321
 1649SOL    HW2 5847   3.701   1.702   3.164
 1650SOL     OW 5848   3.258   3.199   5.772
 1650SOL    HW1 5849   3.162   3.202   5.741
 1650SOL    HW2 5850   3.268   3.255   5.853
 1651SOL     OW 5851   0.974   2.125   3.512
 1651SOL    HW1 5852   0.887   2.151   3.471
 1651SOL    HW2 5853   1.034   2.086   3.441
 1652SOL     OW 5854   0.481   3.759   1.564
 1652SOL    HW1 5855   0.557   3.694   1.561
 1652SOL    HW2 5856   0.493   3.827   1.492
 1653SOL     OW 5857   0.435   4.640   1.960
 1653SOL    HW1 5858   0.419   4.664   1.865
 1653SOL    HW2 5859   0.491   4.558   1.965
 1654SOL     OW 5860   0.329   3.861   1.795
 1654SOL    HW1 5861   0.279   3.776   1.782
 1654SOL    HW2 5862   0.407   3.864   1.732
 1655SOL     OW 5863   0.592   0.841   5.894
 1655SOL    HW1 5864   0.532   0.815   5.970
 1655SOL    HW2 5865   0.679   0.875   5.929
 1656SOL     OW 5866   2.199   3.953   3.376
 1656SOL    HW1 5867   2.194   3.988   3.282
 1656SOL    HW2 5868   2.242   4.022   3.434
 1657SOL     OW 5869   0.470   0.191   5.704
 1657SOL    HW1 5870   0.531   0.203   5.625
 1657SOL    HW2 5871   0.379   0.227   5.681
 1658SOL     OW 5872   4.972   6.654   6.326
 1658SOL    HW1 5873   5.040   6.601   6.376
 1658SOL    HW2 5874   4.942   6.602   6.246
 1659SOL     OW 5875   4.120   6.721   5.608
 1659SOL    HW1 5876   4.050   6.774   5.657
 1659SOL    HW2 5877   4.179   6.783   5.556
 1660SOL     OW 5878   2.229   0.634   1.958
 1660SOL    HW1 5879   2.153   0.664   2.015
 1660SOL    HW2 5880   2.197   0.618   1.865
 1661SOL     OW 5881   4.716   4.078   2.730
 1661SOL    HW1 5882   4.754   3.988   2.751
 1661SOL    HW2 5883   4.724   4.096   2.632
 1662SOL     OW 5884   0.290   1.956   3.793
 1662SOL    HW1 5885   0.287   1.899   3.711
 1662SOL    HW2 5886   0.200   1.997   3.809
 1663SOL     OW 5887   5.123   4.203   1.258
 1663SOL    HW1 5888   5.191   4.239   1.194
 1663SOL    HW2 5889   5.159   4.206   1.351
 1664SOL     OW 5890   1.963   0.187   6.313
 1664SOL    HW1 5891   1.869   0.220   6.329
 1664SOL    HW2 5892   2.024   0.266   6.303
 1665SOL     OW 5893   2.803   4.406   6.681
 1665SOL    HW1 5894   2.901   4.418   6.698
 1665SOL    HW2 5895   2.762   4.354   6.756
 1666SOL     OW 5896   4.899   6.824   6.514
 1666SOL    HW1 5897   4.973   6.886   6.539
 1666SOL    HW2 5898   4.921   6.778   6.428
 1667SOL     OW 5899   0.059   5.697   0.505
 1667SOL    HW1 5900   0.138   5.669   0.450
 1667SOL    HW2 5901   7.019   5.625   0.503
 1668SOL     OW 5902   6.014   3.183   2.233
 1668SOL    HW1 5903   5.985   3.278   2.249
 1668SOL    HW2 5904   6.038   3.172   2.137
 1669SOL     OW 5905   6.752   3.023   5.661
 1669SOL    HW1 5906   6.749   2.993   5.565
 1669SOL    HW2 5907   6.794   3.113   5.666
 1670SOL     OW 5908   2.921   4.453   5.785
 1670SOL    HW1 5909   2.934   4.369   5.733
 1670SOL    HW2 5910   2.943   4.532   5.728
 1671SOL     OW 5911   6.009   2.499   0.422
 1671SOL    HW1 5912   5.925   2.468   0.466
 1671SOL    HW2 5913   6.070   2.537   0.491
 1672SOL     OW 5914   0.240   2.247   1.423
 1672SOL    HW1 5915   0.163   2.310   1.424
 1672SOL    HW2 5916   0.323   2.296   1.396
 1673SOL     OW 5917   1.078   0.523   4.798
 1673SOL    HW1 5918   1.116   0.459   4.730
 1673SOL    HW2 5919   1.111   0.615   4.779
 1674SOL     OW 5920   5.013   2.241   2.588
 1674SOL    HW1 5921   5.031   2.276   2.680
 1674SOL    HW2 5922   4.924   2.196   2.587
 1675SOL     OW 5923   4.903   0.551   1.831
 1675SOL    HW1 5924   4.805   0.538   1.847
 1675SOL    HW2 5925   4.940   0.469   1.786
 1676SOL     OW 5926   1.044   2.032   3.787
 1676SOL    HW1 5927   1.032   2.070   3.695
 1676SOL    HW2 5928   1.098   2.094   3.843
 1677SOL     OW 5929   3.677   3.084   3.145
 1677SOL    HW1 5930   3.747   3.124   3.205
 1677SOL    HW2 5931   3.625   3.015   3.196
 1678SOL     OW 5932   1.374   0.520   0.435
 1678SOL    HW1 5933   1.277   0.505   0.416
 1678SOL    HW2 5934   1.429   0.480   0.362
 1679SOL     OW 5935   6.558   1.186   6.767
 1679SOL    HW1 5936   6.560   1.093   6.732
 1679SOL    HW2 5937   6.490   1.239   6.717
 1680SOL     OW 5938   5.586   2.674   3.099
 1680SOL    HW1 5939   5.521   2.715   3.163
 1680SOL    HW2 5940   5.578   2.719   3.010
 1681SOL     OW 5941   3.841   6.391   4.456
 1681SOL    HW1 5942   3.878   6.448   4.383
 1681SOL    HW2 5943   3.892   6.408   4.541
 1682SOL     OW 5944   3.838   0.483   4.616
 1682SOL    HW1 5945   3.795   0.422   4.683
 1682SOL    HW2 5946   3.805   0.576   4.630
 1683SOL     OW 5947   6.578   2.885   3.050
 1683SOL    HW1 5948   6.571   2.980   3.080
 1683SOL    HW2 5949   6.675   2.862   3.038
 1684SOL     OW 5950   2.732   5.102   1.655
 1684SOL    HW1 5951   2.691   5.020   1.694
 1684SOL    HW2 5952   2.687   5.124   1.568
 1685SOL     OW 5953   0.033   1.345   5.592
 1685SOL    HW1 5954   0.113   1.362   5.535
 1685SOL    HW2 5955   7.007   1.429   5.598
 1686SOL     OW 5956   3.961   5.257   2.197
 1686SOL    HW1 5957   3.963   5.357   2.191
 1686SOL    HW2 5958   3.934   5.230   2.290
 1687SOL     OW 5959   5.005   4.423   0.798
 1687SOL    HW1 5960   5.070   4.433   0.722
 1687SOL    HW2 5961   4.953   4.339   0.786
 1688SOL     OW 5962   1.937   0.320   3.500
 1688SOL    HW1 5963   2.000   0.265   3.555
 1688SOL    HW2 5964   1.899   0.393   3.556
 1689SOL     OW 5965   4.206   0.775   1.814
 1689SOL    HW1 5966   4.109   0.759   1.832
 1689SOL    HW2 5967   4.218   0.805   1.719
 1690SOL     OW 5968   6.799   4.861   4.236
 1690SOL    HW1 5969   6.749   4.852   4.150
 1690SOL    HW2 5970   6.767   4.942   4.285
 1691SOL     OW 5971   4.211   2.603   5.470
 1691SOL    HW1 5972   4.305   2.569   5.473
 1691SOL    HW2 5973   4.177   2.598   5.376
 1692SOL     OW 5974   5.229   4.971   1.583
 1692SOL    HW1 5975   5.229   5.070   1.572
 1692SOL    HW2 5976   5.286   4.930   1.512
 1693SOL     OW 5977   5.144   0.043   6.249
 1693SOL    HW1 5978   5.146   0.128   6.195
 1693SOL    HW2 5979   5.111   0.063   6.341
 1694SOL     OW 5980   4.763   1.733   6.441
 1694SOL    HW1 5981   4.729   1.817   6.399
 1694SOL    HW2 5982   4.855   1.714   6.407
 1695SOL     OW 5983   4.143   0.496   5.714
 1695SOL    HW1 5984   4.223   0.549   5.684
 1695SOL    HW2 5985   4.090   0.467   5.634
 1696SOL     OW 5986   4.124   6.656   0.754
 1696SOL    HW1 5987   4.214   6.617   0.732
 1696SOL    HW2 5988   4.095   6.715   0.678
 1697SOL     OW 5989   4.607   2.765   1.832
 1697SOL    HW1 5990   4.607   2.678   1.882
 1697SOL    HW2 5991   4.621   2.840   1.896
 1698SOL     OW 5992   4.344   1.444   1.405
 1698SOL    HW1 5993   4.314   1.473   1.495
 1698SOL    HW2 5994   4.434   1.401   1.411
 1699SOL     OW 5995   1.754   0.487   1.025
 1699SOL    HW1 5996   1.728   0.564   0.967
 1699SOL    HW2 5997   1.850   0.495   1.052
 1700SOL     OW 5998   5.292   3.269   2.848
 1700SOL    HW1 5999   5.246   3.213   2.780
 1700SOL    HW2 6000   5.315   3.358   2.809
 1701SOL     OW 6001   0.413   5.617   4.891
 1701SOL    HW1 6002   0.432   5.699   4.836
 1701SOL    HW2 6003   0.316   5.595   4.885
 1702SOL     OW 6004   2.516   3.004   6.862
 1702SOL    HW1 6005   2.569   2.927   6.826
 1702SOL    HW2 6006   2.419   2.991   6.839
 1703SOL     OW 6007   1.086   2.027   1.776
 1703SOL    HW1 6008   1.117   2.050   1.869
 1703SOL    HW2 6009   1.160   1.981   1.727
 1704SOL     OW 6010   2.809   2.721   7.025
 1704SOL    HW1 6011   2.848   2.629   7.024
 1704SOL    HW2 6012   2.875   2.785   0.035
 1705SOL     OW 6013   4.732   3.264   0.588
 1705SOL    HW1 6014   4.767   3.170   0.595
 1705SOL    HW2 6015   4.798   3.327   0.628
 1706SOL     OW 6016   6.168   1.962   6.713
 1706SOL    HW1 6017   6.242   2.023   6.743
 1706SOL    HW2 6018   6.087   2.016   6.690
 1707SOL     OW 6019   3.841   1.511   2.094
 1707SOL    HW1 6020   3.932   1.504   2.053
 1707SOL    HW2 6021   3.845   1.565   2.177
 1708SOL     OW 6022   2.887   4.792   2.163
 1708SOL    HW1 6023   2.866   4.722   2.095
 1708SOL    HW2 6024   2.986   4.793   2.180
 1709SOL     OW 6025   5.098   4.841   0.737
 1709SOL    HW1 6026   5.125   4.915   0.676
 1709SOL    HW2 6027   5.072   4.879   0.826
 1710SOL     OW 6028   4.929   3.522   2.555
 1710SOL    HW1 6029   5.005   3.510   2.491
 1710SOL    HW2 6030   4.842   3.505   2.508
 1711SOL     OW 6031   4.057   5.636   0.419
 1711SOL    HW1 6032   3.957   5.646   0.411
 1711SOL    HW2 6033   4.080   5.604   0.511
 1712SOL     OW 6034   0.435   1.846   1.984
 1712SOL    HW1 6035   0.460   1.821   2.078
 1712SOL    HW2 6036   0.517   1.844   1.927
 1713SOL     OW 6037   2.831   1.797   2.506
 1713SOL    HW1 6038   2.895   1.761   2.439
 1713SOL    HW2 6039   2.826   1.735   2.585
 1714SOL     OW 6040   2.802   4.134   1.135
 1714SOL    HW1 6041   2.832   4.069   1.066
 1714SOL    HW2 6042   2.830   4.102   1.226
 1715SOL     OW 6043   0.856   5.898   0.913
 1715SOL    HW1 6044   0.940   5.893   0.858
 1715SOL    HW2 6045   0.786   5.839   0.872
 1716SOL     OW 6046   4.457   1.354   2.819
 1716SOL    HW1 6047   4.494   1.372   2.728
 1716SOL    HW2 6048   4.531   1.322   2.879
 1717SOL     OW 6049   3.652   6.235   3.440
 1717SOL    HW1 6050   3.637   6.199   3.533
 1717SOL    HW2 6051   3.655   6.159   3.375
 1718SOL     OW 6052   1.656   3.385   1.595
 1718SOL    HW1 6053   1.576   3.404   1.538
 1718SOL    HW2 6054   1.739   3.388   1.539
 1719SOL     OW 6055   1.745   5.604   3.051
 1719SOL    HW1 6056   1.754   5.507   3.028
 1719SOL    HW2 6057   1.674   5.645   2.994
 1720SOL     OW 6058   0.760   3.311   5.314
 1720SOL    HW1 6059   0.802   3.243   5.374
 1720SOL    HW2 6060   0.831   3.358   5.261
 1721SOL     OW 6061   1.824   2.808   0.399
 1721SOL    HW1 6062   1.837   2.905   0.422
 1721SOL    HW2 6063   1.731   2.780   0.421
 1722SOL     OW 6064   2.182   2.265   3.604
 1722SOL    HW1 6065   2.135   2.219   3.529
 1722SOL    HW2 6066   2.124   2.265   3.685
 1723SOL     OW 6067   5.501   4.344   1.332
 1723SOL    HW1 6068   5.492   4.362   1.429
 1723SOL    HW2 6069   5.476   4.426   1.280
 1724SOL     OW 6070   5.095   2.193   0.790
 1724SOL    HW1 6071   5.074   2.285   0.758
 1724SOL    HW2 6072   5.180   2.194   0.843
 1725SOL     OW 6073   2.173   6.839   5.855
 1725SOL    HW1 6074   2.094   6.899   5.857
 1725SOL    HW2 6075   2.178   6.787   5.940
 1726SOL     OW 6076   4.964   4.391   2.870
 1726SOL    HW1 6077   4.938   4.444   2.951
 1726SOL    HW2 6078   4.992   4.299   2.899
 1727SOL     OW 6079   3.213   3.715   2.858
 1727SOL    HW1 6080   3.214   3.728   2.957
 1727SOL    HW2 6081   3.229   3.803   2.813
 1728SOL     OW 6082   5.965   2.508   4.050
 1728SOL    HW1 6083   5.969   2.562   4.134
 1728SOL    HW2 6084   6.018   2.424   4.062
 1729SOL     OW 6085   1.350   2.418   2.401
 1729SOL    HW1 6086   1.429   2.373   2.360
 1729SOL    HW2 6087   1.269   2.359   2.391
 1730SOL     OW 6088   2.301   6.480   4.836
 1730SOL    HW1 6089   2.376   6.447   4.892
 1730SOL    HW2 6090   2.336   6.541   4.765
 1731SOL     OW 6091   5.043   4.845   3.981
 1731SOL    HW1 6092   4.959   4.879   3.938
 1731SOL    HW2 6093   5.062   4.898   4.063
 1732SOL     OW 6094   2.892   3.538   5.322
 1732SOL    HW1 6095   2.829   3.460   5.329
 1732SOL    HW2 6096   2.976   3.510   5.275
 1733SOL     OW 6097   1.812   2.749   6.319
 1733SOL    HW1 6098   1.868   2.670   6.345
 1733SOL    HW2 6099   1.715   2.728   6.333
 1734SOL     OW 6100   6.925   3.033   1.008
 1734SOL    HW1 6101   6.863   3.086   1.066
 1734SOL    HW2 6102   6.881   3.014   0.920
 1735SOL     OW 6103   3.442   5.178   6.570
 1735SOL    HW1 6104   3.469   5.242   6.641
 1735SOL    HW2 6105   3.523   5.143   6.523
 1736SOL     OW 6106   5.183   2.444   6.412
 1736SOL    HW1 6107   5.125   2.463   6.333
 1736SOL    HW2 6108   5.248   2.372   6.390
 1737SOL     OW 6109   3.294   0.847   5.836
 1737SOL    HW1 6110   3.257   0.895   5.915
 1737SOL    HW2 6111   3.232   0.771   5.812
 1738SOL     OW 6112   1.428   3.637   2.140
 1738SOL    HW1 6113   1.501   3.651   2.207
 1738SOL    HW2 6114   1.360   3.710   2.150
 1739SOL     OW 6115   5.229   6.043   3.205
 1739SOL    HW1 6116   5.240   5.964   3.145
 1739SOL    HW2 6117   5.295   6.113   3.181
 1740SOL     OW 6118   6.838   3.133   4.761
 1740SOL    HW1 6119   6.824   3.130   4.662
 1740SOL    HW2 6120   6.803   3.219   4.797
 1741SOL     OW 6121   0.973   2.462   4.958
 1741SOL    HW1 6122   1.007   2.542   5.008
 1741SOL    HW2 6123   0.878   2.444   4.984
 1742SOL     OW 6124   6.810   6.763   6.877
 1742SOL    HW1 6125   6.727   6.714   6.850
 1742SOL    HW2 6126   6.826   6.752   6.975
 1743SOL     OW 6127   1.932   2.348   1.918
 1743SOL    HW1 6128   2.030   2.369   1.911
 1743SOL    HW2 6129   1.889   2.365   1.830
 1744SOL     OW 6130   3.641   2.368   5.657
 1744SOL    HW1 6131   3.572   2.319   5.709
 1744SOL    HW2 6132   3.598   2.411   5.578
 1745SOL     OW 6133   6.619   6.425   0.883
 1745SOL    HW1 6134   6.580   6.385   0.966
 1745SOL    HW2 6135   6.591   6.521   0.876
 1746SOL     OW 6136   2.578   4.584   3.158
 1746SOL    HW1 6137   2.520   4.532   3.221
 1746SOL    HW2 6138   2.578   4.539   3.069
 1747SOL     OW 6139   3.924   0.180   2.262
 1747SOL    HW1 6140   4.010   0.185   2.211
 1747SOL    HW2 6141   3.936   0.222   2.352
 1748SOL     OW 6142   6.714   2.247   4.519
 1748SOL    HW1 6143   6.790   2.310   4.531
 1748SOL    HW2 6144   6.721   2.173   4.586
 1749SOL     OW 6145   6.874   5.220   1.640
 1749SOL    HW1 6146   6.961   5.271   1.640
 1749SOL    HW2 6147   6.893   5.122   1.646
 1750SOL     OW 6148   3.248   0.767   0.586
 1750SOL    HW1 6149   3.307   0.775   0.505
 1750SOL    HW2 6150   3.210   0.857   0.608
 1751SOL     OW 6151   5.409   3.561   5.047
 1751SOL    HW1 6152   5.385   3.522   5.135
 1751SOL    HW2 6153   5.326   3.585   4.997
 1752SOL     OW 6154   0.418   0.936   2.425
 1752SOL    HW1 6155   0.438   0.872   2.351
 1752SOL    HW2 6156   0.319   0.944   2.436
 1753SOL     OW 6157   0.052   2.057   1.455
 1753SOL    HW1 6158   0.142   2.100   1.447
 1753SOL    HW2 6159   7.025   2.082   1.377
 1754SOL     OW 6160   3.166   5.218   3.555
 1754SOL    HW1 6161   3.190   5.307   3.593
 1754SOL    HW2 6162   3.230   5.196   3.481
 1755SOL     OW 6163   6.556   0.228   5.120
 1755SOL    HW1 6164   6.503   0.221   5.205
 1755SOL    HW2 6165   6.624   0.301   5.129
 1756SOL     OW 6166   4.635   5.888   0.898
 1756SOL    HW1 6167   4.685   5.899   0.812
 1756SOL    HW2 6168   4.615   5.791   0.913
 1757SOL     OW 6169   2.668   4.704   5.295
 1757SOL    HW1 6170   2.574   4.686   5.266
 1757SOL    HW2 6171   2.731   4.663   5.229
 1758SOL     OW 6172   1.408   6.407   3.768
 1758SOL    HW1 6173   1.348   6.431   3.844
 1758SOL    HW2 6174   1.358   6.353   3.701
 1759SOL     OW 6175   0.937   5.698   0.451
 1759SOL    HW1 6176   1.012   5.714   0.386
 1759SOL    HW2 6177   0.976   5.680   0.541
 1760SOL     OW 6178   6.386   1.553   4.940
 1760SOL    HW1 6179   6.358   1.563   4.844
 1760SOL    HW2 6180   6.314   1.589   5.000
 1761SOL     OW 6181   5.181   1.378   3.318
 1761SOL    HW1 6182   5.258   1.324   3.352
 1761SOL    HW2 6183   5.137   1.425   3.394
 1762SOL     OW 6184   0.792   1.577   5.811
 1762SOL    HW1 6185   0.826   1.660   5.855
 1762SOL    HW2 6186   0.856   1.549   5.739
 1763SOL     OW 6187   1.441   5.239   3.635
 1763SOL    HW1 6188   1.534   5.257   3.665
 1763SOL    HW2 6189   1.377   5.265   3.707
 1764SOL     OW 6190   0.815   6.195   3.235
 1764SOL    HW1 6191   0.844   6.258   3.307
 1764SOL    HW2 6192   0.719   6.170   3.248
 1765SOL     OW 6193   5.422   4.294   1.964
 1765SOL    HW1 6194   5.388   4.211   1.920
 1765SOL    HW2 6195   5.490   4.270   2.033
 1766SOL     OW 6196   4.688   4.492   4.457
 1766SOL    HW1 6197   4.676   4.407   4.508
 1766SOL    HW2 6198   4.755   4.478   4.384
 1767SOL     OW 6199   0.525   5.187   1.889
 1767SOL    HW1 6200   0.579   5.191   1.805
 1767SOL    HW2 6201   0.457   5.261   1.888
 1768SOL     OW 6202   4.617   4.434   2.487
 1768SOL    HW1 6203   4.690   4.479   2.436
 1768SOL    HW2 6204   4.619   4.466   2.582
 1769SOL     OW 6205   5.209   0.211   1.216
 1769SOL    HW1 6206   5.254   0.160   1.289
 1769SOL    HW2 6207   5.175   0.298   1.251
 1770SOL     OW 6208   1.640   5.298   0.363
 1770SOL    HW1 6209   1.547   5.272   0.385
 1770SOL    HW2 6210   1.701   5.219   0.374
 1771SOL     OW 6211   1.699   3.349   5.959
 1771SOL    HW1 6212   1.709   3.448   5.966
 1771SOL    HW2 6213   1.621   3.327   5.900
 1772SOL     OW 6214   2.141   3.982   2.823
 1772SOL    HW1 6215   2.120   3.895   2.778
 1772SOL    HW2 6216   2.150   4.054   2.754
 1773SOL     OW 6217   2.161   6.136   5.806
 1773SOL    HW1 6218   2.186   6.065   5.740
 1773SOL    HW2 6219   2.202   6.115   5.895
 1774SOL     OW 6220   5.609   5.889   1.516
 1774SOL    HW1 6221   5.518   5.889   1.556
 1774SOL    HW2 6222   5.633   5.796   1.486
 1775SOL     OW 6223   1.660   5.844   0.735
 1775SOL    HW1 6224   1.583   5.907   0.725
 1775SOL    HW2 6225   1.695   5.819   0.645
 1776SOL     OW 6226   4.594   3.373   5.877
 1776SOL    HW1 6227   4.647   3.384   5.961
 1776SOL    HW2 6228   4.621   3.445   5.812
 1777SOL     OW 6229   4.441   6.227   6.853
 1777SOL    HW1 6230   4.475   6.197   6.942
 1777SOL    HW2 6231   4.513   6.275   6.804
 1778SOL     OW 6232   5.958   0.212   3.797
 1778SOL    HW1 6233   5.971   0.277   3.723
 1778SOL    HW2 6234   5.998   0.124   3.772
 1779SOL     OW 6235   5.813   0.514   4.644
 1779SOL    HW1 6236   5.766   0.426   4.655
 1779SOL    HW2 6237   5.877   0.528   4.719
 1780SOL     OW 6238   2.377   6.150   5.478
 1780SOL    HW1 6239   2.425   6.214   5.538
 1780SOL    HW2 6240   2.442   6.082   5.444
 1781SOL     OW 6241   3.674   0.783   5.628
 1781SOL    HW1 6242   3.639   0.762   5.719
 1781SOL    HW2 6243   3.724   0.869   5.630
 1782SOL     OW 6244   4.986   0.978   2.405
 1782SOL    HW1 6245   4.954   0.937   2.320
 1782SOL    HW2 6246   5.046   0.913   2.452
 1783SOL     OW 6247   1.913   4.697   6.600
 1783SOL    HW1 6248   1.914   4.651   6.511
 1783SOL    HW2 6249   1.960   4.640   6.667
 1784SOL     OW 6250   2.479   6.218   1.559
 1784SOL    HW1 6251   2.411   6.241   1.629
 1784SOL    HW2 6252   2.517   6.127   1.578
 1785SOL     OW 6253   1.528   6.568   4.646
 1785SOL    HW1 6254   1.461   6.579   4.719
 1785SOL    HW2 6255   1.533   6.472   4.619
 1786SOL     OW 6256   0.603   5.970   1.694
 1786SOL    HW1 6257   0.515   5.924   1.689
 1786SOL    HW2 6258   0.591   6.067   1.675
 1787SOL     OW 6259   1.889   2.837   5.880
 1787SOL    HW1 6260   1.795   2.808   5.898
 1787SOL    HW2 6261   1.919   2.800   5.792
 1788SOL     OW 6262   4.105   3.735   0.301
 1788SOL    HW1 6263   4.005   3.741   0.290
 1788SOL    HW2 6264   4.148   3.729   0.211
 1789SOL     OW 6265   5.564   2.887   2.008
 1789SOL    HW1 6266   5.581   2.834   1.925
 1789SOL    HW2 6267   5.642   2.947   2.026
 1790SOL     OW 6268   1.745   2.004   4.935
 1790SOL    HW1 6269   1.796   1.919   4.940
 1790SOL    HW2 6270   1.783   2.070   5.001
 1791SOL     OW 6271   4.971   0.357   3.612
 1791SOL    HW1 6272   4.965   0.408   3.526
 1791SOL    HW2 6273   5.039   0.285   3.603
 1792SOL     OW 6274   6.650   2.544   6.633
 1792SOL    HW1 6275   6.611   2.453   6.646
 1792SOL    HW2 6276   6.717   2.542   6.559
 1793SOL     OW 6277   6.734   1.891   5.220
 1793SOL    HW1 6278   6.748   1.877   5.122
 1793SOL    HW2 6279   6.761   1.984   5.244
 1794SOL     OW 6280   0.311   1.597   6.413
 1794SOL    HW1 6281   0.358   1.684   6.426
 1794SOL    HW2 6282   0.377   1.527   6.385
 1795SOL     OW 6283   5.488   5.089   0.943
 1795SOL    HW1 6284   5.557   5.044   1.000
 1795SOL    HW2 6285   5.506   5.069   0.847
 1796SOL     OW 6286   6.047   0.103   0.904
 1796SOL    HW1 6287   6.089   0.021   0.942
 1796SOL    HW2 6288   6.089   0.185   0.944
 1797SOL     OW 6289   3.052   5.843   5.591
 1797SOL    HW1 6290   3.063   5.802   5.501
 1797SOL    HW2 6291   2.970   5.806   5.635
 1798SOL     OW 6292   2.152   3.863   5.496
 1798SOL    HW1 6293   2.077   3.819   5.446
 1798SOL    HW2 6294   2.230   3.875   5.434
 1799SOL     OW 6295   2.985   1.096   2.249
 1799SOL    HW1 6296   2.955   1.191   2.243
 1799SOL    HW2 6297   2.964   1.060   2.340
 1800SOL     OW 6298   6.240   2.954   5.808
 1800SOL    HW1 6299   6.221   2.899   5.726
 1800SOL    HW2 6300   6.338   2.975   5.813
 1801SOL     OW 6301   0.196   0.865   2.953
 1801SOL    HW1 6302   0.197   0.765   2.951
 1801SOL    HW2 6303   0.116   0.896   3.004
 1802SOL     OW 6304   5.867   4.864   3.869
 1802SOL    HW1 6305   5.882   4.947   3.816
 1802SOL    HW2 6306   5.954   4.833   3.907
 1803SOL     OW 6307   6.940   0.244   4.148
 1803SOL    HW1 6308   6.998   0.185   4.093
 1803SOL    HW2 6309   6.845   0.214   4.141
 1804SOL     OW 6310   1.600   2.510   6.335
 1804SOL    HW1 6311   1.583   2.434   6.398
 1804SOL    HW2 6312   1.572   2.484   6.243
 1805SOL     OW 6313   6.448   4.501   0.492
 1805SOL    HW1 6314   6.421   4.463   0.403
 1805SOL    HW2 6315   6.454   4.600   0.485
 1806SOL     OW 6316   0.646   1.745   1.379
 1806SOL    HW1 6317   0.658   1.648   1.354
 1806SOL    HW2 6318   0.549   1.768   1.377
 1807SOL     OW 6319   6.074   2.919   2.804
 1807SOL    HW1 6320   6.142   2.958   2.741
 1807SOL    HW2 6321   5.996   2.885   2.752
 1808SOL     OW 6322   5.543   1.144   6.121
 1808SOL    HW1 6323   5.548   1.168   6.218
 1808SOL    HW2 6324   5.559   1.046   6.111
 1809SOL     OW 6325   5.636   0.444   5.704
 1809SOL    HW1 6326   5.630   0.413   5.609
 1809SOL    HW2 6327   5.578   0.387   5.761
 1810SOL     OW 6328   1.387   1.234   4.397
 1810SOL    HW1 6329   1.358   1.188   4.313
 1810SOL    HW2 6330   1.320   1.303   4.422
 1811SOL     OW 6331   3.060   5.663   2.142
 1811SOL    HW1 6332   3.151   5.672   2.103
 1811SOL    HW2 6333   3.066   5.638   2.238
 1812SOL     OW 6334   3.982   6.976   6.577
 1812SOL    HW1 6335   3.988   6.963   6.676
 1812SOL    HW2 6336   3.886   6.966   6.548
 1813SOL     OW 6337   4.710   3.866   1.767
 1813SOL    HW1 6338   4.617   3.828   1.765
 1813SOL    HW2 6339   4.706   3.963   1.790
 1814SOL     OW 6340   6.486   5.665   0.710
 1814SOL    HW1 6341   6.436   5.604   0.647
 1814SOL    HW2 6342   6.501   5.753   0.666
 1815SOL     OW 6343   6.184   5.170   1.227
 1815SOL    HW1 6344   6.246   5.098   1.255
 1815SOL    HW2 6345   6.210   5.204   1.137
 1816SOL     OW 6346   4.226   5.335   4.882
 1816SOL    HW1 6347   4.196   5.413   4.937
 1816SOL    HW2 6348   4.180   5.338   4.793
 1817SOL     OW 6349   6.990   2.613   3.772
 1817SOL    HW1 6350   7.009   2.596   3.869
 1817SOL    HW2 6351   0.032   2.673   3.735
 1818SOL     OW 6352   2.348   1.380   0.561
 1818SOL    HW1 6353   2.281   1.408   0.491
 1818SOL    HW2 6354   2.439   1.378   0.520
 1819SOL     OW 6355   0.875   4.502   1.951
 1819SOL    HW1 6356   0.879   4.408   1.917
 1819SOL    HW2 6357   0.800   4.551   1.905
 1820SOL     OW 6358   4.007   0.303   4.870
 1820SOL    HW1 6359   3.930   0.332   4.815
 1820SOL    HW2 6360   3.974   0.260   4.955
 1821SOL     OW 6361   3.478   1.273   2.496
 1821SOL    HW1 6362   3.456   1.200   2.562
 1821SOL    HW2 6363   3.474   1.361   2.542
 1822SOL     OW 6364   1.570   3.883   4.163
 1822SOL    HW1 6365   1.602   3.898   4.069
 1822SOL    HW2 6366   1.500   3.950   4.185
 1823SOL     OW 6367   3.881   6.706   3.224
 1823SOL    HW1 6368   3.810   6.663   3.168
 1823SOL    HW2 6369   3.840   6.741   3.308
 1824SOL     OW 6370   4.309   3.184   1.809
 1824SOL    HW1 6371   4.338   3.261   1.754
 1824SOL    HW2 6372   4.390   3.134   1.843
 1825SOL     OW 6373   1.148   3.924   6.638
 1825SOL    HW1 6374   1.143   3.985   6.559
 1825SOL    HW2 6375   1.100   3.965   6.715
 1826SOL     OW 6376   3.811   2.451   0.523
 1826SOL    HW1 6377   3.875   2.518   0.485
 1826SOL    HW2 6378   3.810   2.459   0.623
 1827SOL     OW 6379   5.172   4.493   0.295
 1827SOL    HW1 6380   5.186   4.567   0.230
 1827SOL    HW2 6381   5.136   4.413   0.247
 1828SOL     OW 6382   2.220   4.961   4.536
 1828SOL    HW1 6383   2.144   5.019   4.565
 1828SOL    HW2 6384   2.232   4.886   4.601
 1829SOL     OW 6385   2.372   5.945   2.057
 1829SOL    HW1 6386   2.345   5.943   2.153
 1829SOL    HW2 6387   2.296   5.979   2.002
 1830SOL     OW 6388   4.696   1.419   6.113
 1830SOL    HW1 6389   4.613   1.374   6.146
 1830SOL    HW2 6390   4.768   1.410   6.182
 1831SOL     OW 6391   3.639   4.497   0.330
 1831SOL    HW1 6392   3.600   4.584   0.361
 1831SOL    HW2 6393   3.565   4.431   0.315
 1832SOL     OW 6394   1.570   3.636   5.537
 1832SOL    HW1 6395   1.641   3.610   5.602
 1832SOL    HW2 6396   1.608   3.639   5.444
 1833SOL     OW 6397   5.856   0.691   0.037
 1833SOL    HW1 6398   5.951   0.715   0.017
 1833SOL    HW2 6399   5.850   0.654   0.129
 1834SOL     OW 6400   0.946   3.649   6.355
 1834SOL    HW1 6401   0.918   3.732   6.307
 1834SOL    HW2 6402   0.942   3.664   6.453
 1835SOL     OW 6403   6.801   6.593   1.336
 1835SOL    HW1 6404   6.766   6.535   1.409
 1835SOL    HW2 6405   6.725   6.642   1.293
 1836SOL     OW 6406   5.600   1.608   2.575
 1836SOL    HW1 6407   5.547   1.565   2.647
 1836SOL    HW2 6408   5.539   1.650   2.508
 1837SOL     OW 6409   1.999   2.315   0.131
 1837SOL    HW1 6410   2.057   2.383   0.178
 1837SOL    HW2 6411   2.057   2.243   0.093
 1838SOL     OW 6412   4.723   0.360   0.654
 1838SOL    HW1 6413   4.724   0.324   0.561
 1838SOL    HW2 6414   4.701   0.286   0.718
 1839SOL     OW 6415   6.581   0.566   7.008
 1839SOL    HW1 6416   6.649   0.607   0.039
 1839SOL    HW2 6417   6.609   0.474   6.982
 1840SOL     OW 6418   4.194   0.127   4.540
 1840SOL    HW1 6419   4.170   0.033   4.565
 1840SOL    HW2 6420   4.111   0.180   4.527
 1841SOL     OW 6421   1.642   0.940   1.481
 1841SOL    HW1 6422   1.673   0.864   1.538
 1841SOL    HW2 6423   1.605   0.904   1.395
 1842SOL     OW 6424   6.973   4.995   1.872
 1842SOL    HW1 6425   6.889   5.045   1.889
 1842SOL    HW2 6426   0.004   5.003   1.952
 1843SOL     OW 6427   2.526   1.510   0.058
 1843SOL    HW1 6428   2.624   1.531   0.057
 1843SOL    HW2 6429   2.474   1.595   0.072
 1844SOL     OW 6430   5.427   3.106   6.578
 1844SOL    HW1 6431   5.466   3.158   6.502
 1844SOL    HW2 6432   5.438   3.008   6.560
 1845SOL     OW 6433   0.846   2.219   4.058
 1845SOL    HW1 6434   0.795   2.225   4.143
 1845SOL    HW2 6435   0.899   2.134   4.057
 1846SOL     OW 6436   2.994   0.902   1.560
 1846SOL    HW1 6437   2.994   0.863   1.652
 1846SOL    HW2 6438   3.007   1.001   1.566
 1847SOL     OW 6439   2.008   5.893   6.161
 1847SOL    HW1 6440   2.045   5.866   6.073
 1847SOL    HW2 6441   2.070   5.863   6.234
 1848SOL     OW 6442   3.994   6.101   2.970
 1848SOL    HW1 6443   4.035   6.180   2.925
 1848SOL    HW2 6444   4.015   6.104   3.068
 1849SOL     OW 6445   4.768   2.991   2.951
 1849SOL    HW1 6446   4.804   3.083   2.934
 1849SOL    HW2 6447   4.754   2.944   2.863
 1850SOL     OW 6448   4.307   1.629   1.008
 1850SOL    HW1 6449   4.231   1.658   1.066
 1850SOL    HW2 6450   4.348   1.546   1.047
 1851SOL     OW 6451   0.364   4.833   4.366
 1851SOL    HW1 6452   0.271   4.801   4.382
 1851SOL    HW2 6453   0.413   4.839   4.453
 1852SOL     OW 6454   0.319   6.570   3.605
 1852SOL    HW1 6455   0.286   6.632   3.534
 1852SOL    HW2 6456   0.379   6.620   3.667
 1853SOL     OW 6457   1.030   1.824   5.629
 1853SOL    HW1 6458   1.089   1.870   5.695
 1853SOL    HW2 6459   1.051   1.726   5.628
 1854SOL     OW 6460   0.332   0.278   3.753
 1854SOL    HW1 6461   0.282   0.344   3.809
 1854SOL    HW2 6462   0.421   0.260   3.793
 1855SOL     OW 6463   6.167   1.947   5.073
 1855SOL    HW1 6464   6.219   2.003   5.009
 1855SOL    HW2 6465   6.225   1.875   5.109
 1856SOL     OW 6466   4.995   3.983   0.081
 1856SOL    HW1 6467   5.081   4.003   0.034
 1856SOL    HW2 6468   4.973   3.886   0.070
 1857SOL     OW 6469   3.903   1.236   6.693
 1857SOL    HW1 6470   3.955   1.151   6.696
 1857SOL    HW2 6471   3.903   1.271   6.599
 1858SOL     OW 6472   5.309   1.883   5.231
 1858SOL    HW1 6473   5.284   1.789   5.209
 1858SOL    HW2 6474   5.362   1.885   5.316
 1859SOL     OW 6475   6.642   0.420   2.953
 1859SOL    HW1 6476   6.694   0.340   2.922
 1859SOL    HW2 6477   6.702   0.500   2.954
 1860SOL     OW 6478   2.707   1.537   6.196
 1860SOL    HW1 6479   2.758   1.450   6.197
 1860SOL    HW2 6480   2.708   1.574   6.103
 1861SOL     OW 6481   6.077   6.342   5.315
 1861SOL    HW1 6482   5.999   6.282   5.334
 1861SOL    HW2 6483   6.157   6.286   5.291
 1862SOL     OW 6484   3.236   5.666   6.162
 1862SOL    HW1 6485   3.139   5.651   6.184
 1862SOL    HW2 6486   3.290   5.590   6.196
 1863SOL     OW 6487   0.125   1.813   1.607
 1863SOL    HW1 6488   0.080   1.892   1.565
 1863SOL    HW2 6489   0.224   1.818   1.591
 1864SOL     OW 6490   2.302   6.323   1.758
 1864SOL    HW1 6491   2.230   6.378   1.716
 1864SOL    HW2 6492   2.346   6.376   1.831
 1865SOL     OW 6493   6.275   2.486   5.773
 1865SOL    HW1 6494   6.361   2.436   5.779
 1865SOL    HW2 6495   6.253   2.527   5.861
 1866SOL     OW 6496   0.214   4.488   4.014
 1866SOL    HW1 6497   0.239   4.550   3.939
 1866SOL    HW2 6498   0.295   4.439   4.045
 1867SOL     OW 6499   0.890   1.392   1.618
 1867SOL    HW1 6500   0.836   1.308   1.606
 1867SOL    HW2 6501   0.986   1.372   1.597
 1868SOL     OW 6502   5.354   3.877   6.469
 1868SOL    HW1 6503   5.365   3.835   6.379
 1868SOL    HW2 6504   5.423   3.948   6.482
 1869SOL     OW 6505   5.220   0.701   5.537
 1869SOL    HW1 6506   5.171   0.623   5.575
 1869SOL    HW2 6507   5.198   0.783   5.591
 1870SOL     OW 6508   5.929   0.262   6.243
 1870SOL    HW1 6509   5.924   0.356   6.208
 1870SOL    HW2 6510   5.966   0.202   6.172
 1871SOL     OW 6511   0.716   5.857   6.999
 1871SOL    HW1 6512   0.800   5.825   6.955
 1871SOL    HW2 6513   0.641   5.854   6.934
 1872SOL     OW 6514   2.778   3.279   0.909
 1872SOL    HW1 6515   2.743   3.367   0.877
 1872SOL    HW2 6516   2.803   3.222   0.830
 1873SOL     OW 6517   6.242   1.054   1.764
 1873SOL    HW1 6518   6.244   1.152   1.746
 1873SOL    HW2 6519   6.151   1.018   1.743
 1874SOL     OW 6520   1.371   6.046   6.527
 1874SOL    HW1 6521   1.359   6.141   6.554
 1874SOL    HW2 6522   1.354   6.036   6.429
 1875SOL     OW 6523   0.412   6.432   2.247
 1875SOL    HW1 6524   0.335   6.427   2.183
 1875SOL    HW2 6525   0.482   6.493   2.210
 1876SOL     OW 6526   0.859   4.632   0.791
 1876SOL    HW1 6527   0.788   4.596   0.731
 1876SOL    HW2 6528   0.944   4.583   0.775
 1877SOL     OW 6529   1.351   1.220   2.707
 1877SOL    HW1 6530   1.426   1.234   2.643
 1877SOL    HW2 6531   1.264   1.239   2.661
 1878SOL     OW 6532   5.304   3.582   4.009
 1878SOL    HW1 6533   5.301   3.513   4.081
 1878SOL    HW2 6534   5.380   3.644   4.025
 1879SOL     OW 6535   4.417   6.674   5.009
 1879SOL    HW1 6536   4.317   6.680   5.012
 1879SOL    HW2 6537   4.449   6.710   4.921
 1880SOL     OW 6538   0.946   2.213   4.400
 1880SOL    HW1 6539   1.007   2.272   4.347
 1880SOL    HW2 6540   0.963   2.117   4.376
 1881SOL     OW 6541   2.083   0.963   4.134
 1881SOL    HW1 6542   2.089   0.892   4.064
 1881SOL    HW2 6543   2.131   1.045   4.102
 1882SOL     OW 6544   2.656   5.506   0.585
 1882SOL    HW1 6545   2.636   5.540   0.677
 1882SOL    HW2 6546   2.736   5.554   0.548
 1883SOL     OW 6547   2.249   2.902   2.766
 1883SOL    HW1 6548   2.238   2.897   2.667
 1883SOL    HW2 6549   2.330   2.850   2.793
 1884SOL     OW 6550   5.098   0.394   0.392
 1884SOL    HW1 6551   5.188   0.351   0.389
 1884SOL    HW2 6552   5.064   0.406   0.299
 1885SOL     OW 6553   0.281   1.215   0.585
 1885SOL    HW1 6554   0.224   1.249   0.660
 1885SOL    HW2 6555   0.301   1.290   0.522
 1886SOL     OW 6556   3.691   2.649   5.674
 1886SOL    HW1 6557   3.664   2.558   5.705
 1886SOL    HW2 6558   3.619   2.715   5.697
 1887SOL     OW 6559   0.711   6.007   4.762
 1887SOL    HW1 6560   0.773   5.976   4.691
 1887SOL    HW2 6561   0.764   6.052   4.835
 1888SOL     OW 6562   1.815   1.833   6.003
 1888SOL    HW1 6563   1.826   1.847   6.102
 1888SOL    HW2 6564   1.744   1.765   5.987
 1889SOL     OW 6565   3.321   2.845   0.250
 1889SOL    HW1 6566   3.253   2.792   0.301
 1889SOL    HW2 6567   3.344   2.928   0.302
 1890SOL     OW 6568   5.946   5.744   6.433
 1890SOL    HW1 6569   5.923   5.773   6.526
 1890SOL    HW2 6570   5.881   5.784   6.368
 1891SOL     OW 6571   5.235   3.497   0.023
 1891SOL    HW1 6572   5.306   3.497   0.094
 1891SOL    HW2 6573   5.267   3.550   6.973
 1892SOL     OW 6574   3.945   0.135   3.001
 1892SOL    HW1 6575   3.939   0.207   3.070
 1892SOL    HW2 6576   4.040   0.107   2.990
 1893SOL     OW 6577   3.065   1.045   6.291
 1893SOL    HW1 6578   3.093   0.979   6.361
 1893SOL    HW2 6579   3.117   1.130   6.304
 1894SOL     OW 6580   5.013   3.267   0.780
 1894SOL    HW1 6581   5.055   3.272   0.871
 1894SOL    HW2 6582   4.959   3.349   0.764
 1895SOL     OW 6583   4.607   5.811   2.960
 1895SOL    HW1 6584   4.558   5.847   3.039
 1895SOL    HW2 6585   4.705   5.804   2.981
 1896SOL     OW 6586   6.399   2.105   4.965
 1896SOL    HW1 6587   6.422   2.027   4.907
 1896SOL    HW2 6588   6.380   2.185   4.908
 1897SOL     OW 6589   5.335   4.958   2.855
 1897SOL    HW1 6590   5.416   5.015   2.842
 1897SOL    HW2 6591   5.340   4.912   2.943
 1898SOL     OW 6592   5.669   6.578   6.968
 1898SOL    HW1 6593   5.756   6.626   6.963
 1898SOL    HW2 6594   5.684   6.482   6.990
 1899SOL     OW 6595   2.180   2.762   3.563
 1899SOL    HW1 6596   2.135   2.785   3.649
 1899SOL    HW2 6597   2.149   2.823   3.491
 1900SOL     OW 6598   2.383   5.558   1.822
 1900SOL    HW1 6599   2.296   5.605   1.837
 1900SOL    HW2 6600   2.404   5.500   1.900
 1901SOL     OW 6601   1.254   0.613   5.534
 1901SOL    HW1 6602   1.212   0.669   5.462
 1901SOL    HW2 6603   1.273   0.671   5.613
 1902SOL     OW 6604   0.987   2.773   4.412
 1902SOL    HW1 6605   0.994   2.675   4.429
 1902SOL    HW2 6606   0.891   2.799   4.404
 1903SOL     OW 6607   6.573   4.839   4.020
 1903SOL    HW1 6608   6.530   4.801   4.102
 1903SOL    HW2 6609   6.531   4.927   3.998
 1904SOL     OW 6610   0.546   0.281   4.471
 1904SOL    HW1 6611   0.449   0.256   4.464
 1904SOL    HW2 6612   0.554   0.375   4.505
 1905SOL     OW 6613   6.497   3.301   4.578
 1905SOL    HW1 6614   6.471   3.211   4.541
 1905SOL    HW2 6615   6.537   3.356   4.504
 1906SOL     OW 6616   2.430   6.587   5.696
 1906SOL    HW1 6617   2.337   6.588   5.734
 1906SOL    HW2 6618   2.490   6.643   5.753
 1907SOL     OW 6619   4.265   6.950   3.519
 1907SOL    HW1 6620   4.348   6.977   3.568
 1907SOL    HW2 6621   4.210   6.891   3.577
 1908SOL     OW 6622   5.068   5.916   1.058
 1908SOL    HW1 6623   5.068   5.939   0.961
 1908SOL    HW2 6624   5.156   5.876   1.083
 1909SOL     OW 6625   4.922   5.618   3.535
 1909SOL    HW1 6626   4.879   5.556   3.601
 1909SOL    HW2 6627   4.908   5.582   3.442
 1910SOL     OW 6628   4.817   2.973   4.507
 1910SOL    HW1 6629   4.766   2.925   4.578
 1910SOL    HW2 6630   4.802   2.928   4.419
 1911SOL     OW 6631   0.448   3.344   5.478
 1911SOL    HW1 6632   0.493   3.401   5.409
 1911SOL    HW2 6633   0.387   3.279   5.432
 1912SOL     OW 6634   3.086   5.875   3.334
 1912SOL    HW1 6635   3.057   5.969   3.313
 1912SOL    HW2 6636   3.181   5.863   3.306
 1913SOL     OW 6637   2.078   4.162   5.374
 1913SOL    HW1 6638   2.164   4.157   5.425
 1913SOL    HW2 6639   2.002   4.166   5.439
 1914SOL     OW 6640   4.179   1.273   4.780
 1914SOL    HW1 6641   4.104   1.316   4.729
 1914SOL    HW2 6642   4.212   1.194   4.729
 1915SOL     OW 6643   3.255   0.120   5.627
 1915SOL    HW1 6644   3.223   0.132   5.721
 1915SOL    HW2 6645   3.354   0.131   5.624
 1916SOL     OW 6646   3.521   6.304   2.740
 1916SOL    HW1 6647   3.519   6.318   2.839
 1916SOL    HW2 6648   3.579   6.374   2.698
 1917SOL     OW 6649   3.106   4.065   4.479
 1917SOL    HW1 6650   3.055   4.002   4.420
 1917SOL    HW2 6651   3.060   4.153   4.481
 1918SOL     OW 6652   6.906   6.452   5.502
 1918SOL    HW1 6653   6.908   6.501   5.415
 1918SOL    HW2 6654   6.997   6.418   5.523
 1919SOL     OW 6655   6.481   0.586   2.359
 1919SOL    HW1 6656   6.418   0.512   2.337
 1919SOL    HW2 6657   6.573   0.562   2.327
 1920SOL     OW 6658   6.487   5.885   4.707
 1920SOL    HW1 6659   6.472   5.968   4.761
 1920SOL    HW2 6660   6.444   5.807   4.752
 1921SOL     OW 6661   2.139   6.576   6.709
 1921SOL    HW1 6662   2.073   6.587   6.635
 1921SOL    HW2 6663   2.124   6.645   6.778
 1922SOL     OW 6664   3.917   4.427   0.709
 1922SOL    HW1 6665   3.882   4.490   0.640
 1922SOL    HW2 6666   3.858   4.430   0.790
 1923SOL     OW 6667   1.526   2.843   0.756
 1923SOL    HW1 6668   1.603   2.907   0.765
 1923SOL    HW2 6669   1.462   2.858   0.831
 1924SOL     OW 6670   0.804   4.157   1.136
 1924SOL    HW1 6671   0.765   4.067   1.113
 1924SOL    HW2 6672   0.804   4.169   1.235
 1925SOL     OW 6673   3.413   4.308   0.389
 1925SOL    HW1 6674   3.444   4.296   0.483
 1925SOL    HW2 6675   3.328   4.362   0.389
 1926SOL     OW 6676   0.478   0.523   3.641
 1926SOL    HW1 6677   0.505   0.556   3.732
 1926SOL    HW2 6678   0.379   0.531   3.632
 1927SOL     OW 6679   4.806   3.203   1.233
 1927SOL    HW1 6680   4.763   3.221   1.322
 1927SOL    HW2 6681   4.777   3.273   1.168
 1928SOL     OW 6682   0.280   5.798   4.710
 1928SOL    HW1 6683   0.228   5.854   4.646
 1928SOL    HW2 6684   0.217   5.761   4.779
 1929SOL     OW 6685   1.246   6.155   3.071
 1929SOL    HW1 6686   1.339   6.176   3.102
 1929SOL    HW2 6687   1.250   6.104   2.986
 1930SOL     OW 6688   6.796   5.164   6.539
 1930SOL    HW1 6689   6.823   5.122   6.625
 1930SOL    HW2 6690   6.741   5.099   6.486
 1931SOL     OW 6691   0.528   1.975   4.466
 1931SOL    HW1 6692   0.508   2.068   4.435
 1931SOL    HW2 6693   0.626   1.966   4.483
 1932SOL     OW 6694   5.998   3.193   2.862
 1932SOL    HW1 6695   6.011   3.094   2.859
 1932SOL    HW2 6696   6.054   3.236   2.792
 1933SOL     OW 6697   2.604   4.849   0.418
 1933SOL    HW1 6698   2.579   4.935   0.374
 1933SOL    HW2 6699   2.522   4.807   0.458
 1934SOL     OW 6700   6.910   6.322   3.177
 1934SOL    HW1 6701   6.998   6.298   3.138
 1934SOL    HW2 6702   6.848   6.244   3.169
 1935SOL     OW 6703   2.199   1.184   3.255
 1935SOL    HW1 6704   2.150   1.235   3.326
 1935SOL    HW2 6705   2.232   1.097   3.292
 1936SOL     OW 6706   6.424   5.979   5.318
 1936SOL    HW1 6707   6.397   6.070   5.288
 1936SOL    HW2 6708   6.493   5.987   5.390
 1937SOL     OW 6709   4.072   1.029   3.260
 1937SOL    HW1 6710   4.148   1.094   3.265
 1937SOL    HW2 6711   3.987   1.080   3.246
 1938SOL     OW 6712   5.777   1.114   4.610
 1938SOL    HW1 6713   5.815   1.088   4.521
 1938SOL    HW2 6714   5.686   1.153   4.596
 1939SOL     OW 6715   3.030   1.090   4.309
 1939SOL    HW1 6716   3.042   1.189   4.310
 1939SOL    HW2 6717   3.108   1.046   4.353
 1940SOL     OW 6718   6.510   5.516   6.284
 1940SOL    HW1 6719   6.598   5.506   6.238
 1940SOL    HW2 6720   6.521   5.496   6.381
 1941SOL     OW 6721   5.032   4.981   2.824
 1941SOL    HW1 6722   5.130   4.986   2.842
 1941SOL    HW2 6723   4.989   4.918   2.888
 1942SOL     OW 6724   6.758   4.160   3.409
 1942SOL    HW1 6725   6.796   4.178   3.319
 1942SOL    HW2 6726   6.829   4.170   3.479
 1943SOL     OW 6727   2.910   5.554   3.442
 1943SOL    HW1 6728   2.840   5.491   3.475
 1943SOL    HW2 6729   2.874   5.607   3.365
 1944SOL     OW 6730   6.943   6.601   2.322
 1944SOL    HW1 6731   6.960   6.534   2.395
 1944SOL    HW2 6732   6.992   6.686   2.342
 1945SOL     OW 6733   3.438   5.081   3.394
 1945SOL    HW1 6734   3.455   5.101   3.298
 1945SOL    HW2 6735   3.382   4.999   3.402
 1946SOL     OW 6736   1.374   6.640   6.915
 1946SOL    HW1 6737   1.355   6.633   7.013
 1946SOL    HW2 6738   1.393   6.736   6.892
 1947SOL     OW 6739   4.965   6.744   3.786
 1947SOL    HW1 6740   4.984   6.842   3.783
 1947SOL    HW2 6741   4.971   6.705   3.694
 1948SOL     OW 6742   6.234   3.962   5.104
 1948SOL    HW1 6743   6.136   3.977   5.091
 1948SOL    HW2 6744   6.269   4.026   5.173
 1949SOL     OW 6745   4.859   4.187   6.551
 1949SOL    HW1 6746   4.959   4.180   6.546
 1949SOL    HW2 6747   4.823   4.219   6.463
 1950SOL     OW 6748   2.949   5.224   1.084
 1950SOL    HW1 6749   2.959   5.200   0.987
 1950SOL    HW2 6750   2.899   5.151   1.131
 1951SOL     OW 6751   6.496   2.859   0.560
 1951SOL    HW1 6752   6.399   2.847   0.577
 1951SOL    HW2 6753   6.537   2.771   0.536
 1952SOL     OW 6754   3.584   2.993   5.091
 1952SOL    HW1 6755   3.573   3.090   5.068
 1952SOL    HW2 6756   3.547   2.937   5.017
 1953SOL     OW 6757   0.382   2.632   4.754
 1953SOL    HW1 6758   0.450   2.703   4.741
 1953SOL    HW2 6759   0.304   2.669   4.805
 1954SOL     OW 6760   2.994   1.666   3.662
 1954SOL    HW1 6761   3.055   1.729   3.711
 1954SOL    HW2 6762   3.036   1.575   3.659
 1955SOL     OW 6763   6.200   5.098   1.882
 1955SOL    HW1 6764   6.276   5.080   1.820
 1955SOL    HW2 6765   6.133   5.156   1.837
 1956SOL     OW 6766   5.498   5.956   2.549
 1956SOL    HW1 6767   5.570   5.913   2.603
 1956SOL    HW2 6768   5.409   5.936   2.589
 1957SOL     OW 6769   1.329   6.629   4.827
 1957SOL    HW1 6770   1.320   6.615   4.926
 1957SOL    HW2 6771   1.269   6.704   4.799
 1958SOL     OW 6772   4.301   3.323   5.878
 1958SOL    HW1 6773   4.400   3.336   5.879
 1958SOL    HW2 6774   4.279   3.238   5.831
 1959SOL     OW 6775   2.130   1.430   0.401
 1959SOL    HW1 6776   2.153   1.384   0.315
 1959SOL    HW2 6777   2.085   1.517   0.381
 1960SOL     OW 6778   6.130   5.942   2.225
 1960SOL    HW1 6779   6.216   5.934   2.175
 1960SOL    HW2 6780   6.071   6.009   2.180
 1961SOL     OW 6781   5.979   4.804   5.020
 1961SOL    HW1 6782   6.070   4.764   5.016
 1961SOL    HW2 6783   5.940   4.808   4.927
 1962SOL     OW 6784   6.767   6.891   3.865
 1962SOL    HW1 6785   6.734   6.900   3.959
 1962SOL    HW2 6786   6.690   6.871   3.805
 1963SOL     OW 6787   2.784   0.890   3.675
 1963SOL    HW1 6788   2.884   0.889   3.668
 1963SOL    HW2 6789   2.750   0.981   3.650
 1964SOL     OW 6790   5.923   3.692   1.980
 1964SOL    HW1 6791   5.878   3.769   2.026
 1964SOL    HW2 6792   6.004   3.666   2.032
 1965SOL     OW 6793   2.097   6.076   3.890
 1965SOL    HW1 6794   2.088   6.028   3.802
 1965SOL    HW2 6795   2.156   6.155   3.879
 1966SOL     OW 6796   6.349   6.508   6.842
 1966SOL    HW1 6797   6.267   6.519   6.898
 1966SOL    HW2 6798   6.340   6.562   6.759
 1967SOL     OW 6799   5.221   3.595   4.858
 1967SOL    HW1 6800   5.201   3.682   4.813
 1967SOL    HW2 6801   5.194   3.519   4.799
 1968SOL     OW 6802   3.905   5.433   4.909
 1968SOL    HW1 6803   3.959   5.363   4.955
 1968SOL    HW2 6804   3.821   5.391   4.873
 1969SOL     OW 6805   6.967   1.645   1.863
 1969SOL    HW1 6806   6.881   1.694   1.875
 1969SOL    HW2 6807   6.954   1.571   1.797
 1970SOL     OW 6808   1.800   0.389   3.860
 1970SOL    HW1 6809   1.700   0.400   3.861
 1970SOL    HW2 6810   1.824   0.301   3.901
 1971SOL     OW 6811   0.551   1.259   5.911
 1971SOL    HW1 6812   0.500   1.343   5.890
 1971SOL    HW2 6813   0.487   1.183   5.920
 1972SOL     OW 6814   1.776   6.823   3.581
 1972SOL    HW1 6815   1.819   6.794   3.495
 1972SOL    HW2 6816   1.846   6.833   3.652
 1973SOL     OW 6817   2.586   3.446   0.182
 1973SOL    HW1 6818   2.602   3.495   0.097
 1973SOL    HW2 6819   2.561   3.511   0.254
 1974SOL     OW 6820   5.839   6.955   4.465
 1974SOL    HW1 6821   5.752   6.973   4.513
 1974SOL    HW2 6822   5.900   6.904   4.525
 1975SOL     OW 6823   2.911   0.594   3.959
 1975SOL    HW1 6824   2.989   0.555   3.911
 1975SOL    HW2 6825   2.917   0.694   3.956
 1976SOL     OW 6826   6.717   4.315   6.791
 1976SOL    HW1 6827   6.686   4.406   6.765
 1976SOL    HW2 6828   6.696   4.250   6.718
 1977SOL     OW 6829   2.790   2.367   5.828
 1977SOL    HW1 6830   2.836   2.294   5.877
 1977SOL    HW2 6831   2.853   2.443   5.813
 1978SOL     OW 6832   6.584   2.107   5.860
 1978SOL    HW1 6833   6.576   2.023   5.914
 1978SOL    HW2 6834   6.679   2.136   5.857
 1979SOL     OW 6835   5.968   4.329   2.654
 1979SOL    HW1 6836   5.980   4.423   2.686
 1979SOL    HW2 6837   5.913   4.278   2.721
 1980SOL     OW 6838   2.880   1.199   1.717
 1980SOL    HW1 6839   2.824   1.150   1.784
 1980SOL    HW2 6840   2.972   1.212   1.753
 1981SOL     OW 6841   4.931   3.636   1.834
 1981SOL    HW1 6842   4.889   3.727   1.835
 1981SOL    HW2 6843   4.935   3.600   1.927
 1982SOL     OW 6844   6.937   6.642   5.238
 1982SOL    HW1 6845   7.012   6.706   5.253
 1982SOL    HW2 6846   6.860   6.689   5.195
 1983SOL     OW 6847   0.759   4.564   2.603
 1983SOL    HW1 6848   0.853   4.543   2.629
 1983SOL    HW2 6849   0.711   4.604   2.681
 1984SOL     OW 6850   4.801   0.782   4.946
 1984SOL    HW1 6851   4.882   0.835   4.971
 1984SOL    HW2 6852   4.829   0.700   4.897
 1985SOL     OW 6853   1.458   6.404   1.543
 1985SOL    HW1 6854   1.555   6.378   1.549
 1985SOL    HW2 6855   1.433   6.457   1.624
 1986SOL     OW 6856   0.201   1.995   0.186
 1986SOL    HW1 6857   0.106   1.966   0.179
 1986SOL    HW2 6858   0.259   1.917   0.210
 1987SOL     OW 6859   2.870   4.172   0.553
 1987SOL    HW1 6860   2.961   4.140   0.527
 1987SOL    HW2 6861   2.810   4.093   0.569
 1988SOL     OW 6862   4.654   3.658   0.084
 1988SOL    HW1 6863   4.665   3.755   0.106
 1988SOL    HW2 6864   4.616   3.610   0.163
 1989SOL     OW 6865   2.205   1.145   4.544
 1989SOL    HW1 6866   2.165   1.179   4.629
 1989SOL    HW2 6867   2.135   1.095   4.493
 1990SOL     OW 6868   1.946   0.854   2.549
 1990SOL    HW1 6869   2.012   0.811   2.611
 1990SOL    HW2 6870   1.926   0.793   2.474
 1991SOL     OW 6871   4.420   5.576   2.987
 1991SOL    HW1 6872   4.427   5.657   3.045
 1991SOL    HW2 6873   4.511   5.538   2.973
 1992SOL     OW 6874   2.500   6.114   4.871
 1992SOL    HW1 6875   2.524   6.035   4.814
 1992SOL    HW2 6876   2.400   6.123   4.874
 1993SOL     OW 6877   3.298   3.135   3.991
 1993SOL    HW1 6878   3.362   3.158   3.917
 1993SOL    HW2 6879   3.219   3.196   3.986
 1994SOL     OW 6880   6.064   2.597   1.902
 1994SOL    HW1 6881   6.098   2.514   1.858
 1994SOL    HW2 6882   6.073   2.674   1.839
 1995SOL     OW 6883   3.788   2.451   1.128
 1995SOL    HW1 6884   3.811   2.399   1.045
 1995SOL    HW2 6885   3.801   2.392   1.208
 1996SOL     OW 6886   3.015   4.009   5.397
 1996SOL    HW1 6887   3.039   4.082   5.334
 1996SOL    HW2 6888   2.945   3.951   5.355
 1997SOL     OW 6889   5.659   6.896   3.752
 1997SOL    HW1 6890   5.680   6.993   3.762
 1997SOL    HW2 6891   5.729   6.842   3.800
 1998SOL     OW 6892   3.314   5.200   5.028
 1998SOL    HW1 6893   3.395   5.144   5.009
 1998SOL    HW2 6894   3.243   5.180   4.961
 1999SOL     OW 6895   2.749   0.838   1.774
 1999SOL    HW1 6896   2.682   0.786   1.827
 1999SOL    HW2 6897   2.835   0.843   1.825
 2000SOL     OW 6898   3.646   1.572   4.637
 2000SOL    HW1 6899   3.683   1.581   4.544
 2000SOL    HW2 6900   3.584   1.649   4.655
 2001SOL     OW 6901   2.363   3.687   6.758
 2001SOL    HW1 6902   2.417   3.605   6.743
 2001SOL    HW2 6903   2.341   3.729   6.670
 2002SOL     OW 6904   1.191   5.410   5.044
 2002SOL    HW1 6905   1.096   5.397   5.074
 2002SOL    HW2 6906   1.192   5.459   4.957
 2003SOL     OW 6907   6.543   4.726   3.009
 2003SOL    HW1 6908   6.483   4.706   2.932
 2003SOL    HW2 6909   6.608   4.798   2.984
 2004SOL     OW 6910   3.203   6.883   6.698
 2004SOL    HW1 6911   3.136   6.841   6.637
 2004SOL    HW2 6912   3.210   6.981   6.678
 2005SOL     OW 6913   2.839   6.593   5.209
 2005SOL    HW1 6914   2.809   6.684   5.239
 2005SOL    HW2 6915   2.933   6.577   5.241
 2006SOL     OW 6916   5.121   6.586   3.110
 2006SOL    HW1 6917   5.028   6.611   3.081
 2006SOL    HW2 6918   5.116   6.510   3.175
 2007SOL     OW 6919   6.281   5.134   0.022
 2007SOL    HW1 6920   6.321   5.152   6.962
 2007SOL    HW2 6921   6.256   5.220   0.066
 2008SOL     OW 6922   6.565   6.272   4.615
 2008SOL    HW1 6923   6.567   6.370   4.635
 2008SOL    HW2 6924   6.534   6.222   4.695
 2009SOL     OW 6925   0.739   0.349   0.208
 2009SOL    HW1 6926   0.684   0.409   0.150
 2009SOL    HW2 6927   0.758   0.396   0.295
 2010SOL     OW 6928   1.393   0.198   1.078
 2010SOL    HW1 6929   1.302   0.227   1.108
 2010SOL    HW2 6930   1.412   0.106   1.112
 2011SOL     OW 6931   6.945   2.396   5.586
 2011SOL    HW1 6932   7.004   2.475   5.572
 2011SOL    HW2 6933   7.001   2.314   5.601
 2012SOL     OW 6934   6.966   3.497   0.818
 2012SOL    HW1 6935   0.032   3.523   0.798
 2012SOL    HW2 6936   6.947   3.509   0.915
 2013SOL     OW 6937   3.992   1.827   2.429
 2013SOL    HW1 6938   4.043   1.822   2.515
 2013SOL    HW2 6939   3.896   1.847   2.447
 2014SOL     OW 6940   3.036   5.816   3.594
 2014SOL    HW1 6941   3.123   5.824   3.642
 2014SOL    HW2 6942   3.050   5.827   3.496
 2015SOL     OW 6943   3.274   6.417   0.042
 2015SOL    HW1 6944   3.331   6.363   0.104
 2015SOL    HW2 6945   3.257   6.507   0.082
 2016SOL     OW 6946   6.083   5.393   3.816
 2016SOL    HW1 6947   6.014   5.352   3.876
 2016SOL    HW2 6948   6.075   5.493   3.820
 2017SOL     OW 6949   2.236   5.018   2.005
 2017SOL    HW1 6950   2.146   5.032   1.963
 2017SOL    HW2 6951   2.249   4.921   2.026
 2018SOL     OW 6952   0.285   4.105   6.448
 2018SOL    HW1 6953   0.368   4.151   6.416
 2018SOL    HW2 6954   0.220   4.099   6.373
 2019SOL     OW 6955   5.665   1.838   2.708
 2019SOL    HW1 6956   5.629   1.764   2.652
 2019SOL    HW2 6957   5.764   1.827   2.719
 2020SOL     OW 6958   1.719   5.863   3.483
 2020SOL    HW1 6959   1.715   5.838   3.580
 2020SOL    HW2 6960   1.669   5.949   3.469
 2021SOL     OW 6961   1.733   6.919   1.917
 2021SOL    HW1 6962   1.711   6.843   1.978
 2021SOL    HW2 6963   1.701   7.005   1.957
 2022SOL     OW 6964   2.752   4.922   0.900
 2022SOL    HW1 6965   2.763   4.948   0.996
 2022SOL    HW2 6966   2.748   5.005   0.844
 2023SOL     OW 6967   6.241   1.518   6.553
 2023SOL    HW1 6968   6.169   1.497   6.487
 2023SOL    HW2 6969   6.291   1.599   6.523
 2024SOL     OW 6970   6.097   0.521   2.506
 2024SOL    HW1 6971   6.173   0.493   2.447
 2024SOL    HW2 6972   6.115   0.492   2.600
 2025SOL     OW 6973   6.293   0.680   0.968
 2025SOL    HW1 6974   6.362   0.682   0.895
 2025SOL    HW2 6975   6.214   0.627   0.937
 2026SOL     OW 6976   1.493   1.896   5.059
 2026SOL    HW1 6977   1.414   1.943   5.019
 2026SOL    HW2 6978   1.577   1.943   5.031
 2027SOL     OW 6979   1.148   1.475   2.700
 2027SOL    HW1 6980   1.109   1.392   2.740
 2027SOL    HW2 6981   1.182   1.455   2.608
 2028SOL     OW 6982   3.716   4.145   5.987
 2028SOL    HW1 6983   3.721   4.056   5.942
 2028SOL    HW2 6984   3.808   4.186   5.990
 2029SOL     OW 6985   1.757   0.545   0.589
 2029SOL    HW1 6986   1.794   0.457   0.619
 2029SOL    HW2 6987   1.659   0.536   0.572
 2030SOL     OW 6988   1.649   2.510   3.217
 2030SOL    HW1 6989   1.733   2.557   3.242
 2030SOL    HW2 6990   1.606   2.558   3.140
 2031SOL     OW 6991   4.964   0.186   2.593
 2031SOL    HW1 6992   4.976   0.285   2.600
 2031SOL    HW2 6993   5.036   0.148   2.534
 2032SOL     OW 6994   5.549   6.338   1.624
 2032SOL    HW1 6995   5.603   6.421   1.616
 2032SOL    HW2 6996   5.488   6.344   1.702
 2033SOL     OW 6997   6.628   4.941   6.710
 2033SOL    HW1 6998   6.587   4.907   6.795
 2033SOL    HW2 6999   6.555   4.961   6.644
 2034SOL     OW 7000   2.504   6.810   3.510
 2034SOL    HW1 7001   2.437   6.865   3.559
 2034SOL    HW2 7002   2.463   6.722   3.485
 2035SOL     OW 7003   0.209   2.795   1.266
 2035SOL    HW1 7004   0.279   2.745   1.214
 2035SOL    HW2 7005   0.252   2.846   1.340
 2036SOL     OW 7006   0.819   4.269   0.709
 2036SOL    HW1 7007   0.868   4.186   0.683
 2036SOL    HW2 7008   0.737   4.279   0.652
 2037SOL     OW 7009   0.219   1.980   6.333
 2037SOL    HW1 7010   0.288   1.924   6.288
 2037SOL    HW2 7011   0.264   2.057   6.379
 2038SOL     OW 7012   0.975   0.057   5.379
 2038SOL    HW1 7013   1.055   0.005   5.408
 2038SOL    HW2 7014   0.985   0.152   5.409
 2039SOL     OW 7015   1.093   5.343   2.175
 2039SOL    HW1 7016   1.090   5.412   2.103
 2039SOL    HW2 7017   1.070   5.253   2.137
 2040SOL     OW 7018   3.344   3.905   4.479
 2040SOL    HW1 7019   3.264   3.964   4.465
 2040SOL    HW2 7020   3.366   3.901   4.576
 2041SOL     OW 7021   5.740   3.303   0.150
 2041SOL    HW1 7022   5.676   3.226   0.145
 2041SOL    HW2 7023   5.691   3.389   0.137
 2042SOL     OW 7024   3.613   5.697   0.636
 2042SOL    HW1 7025   3.596   5.622   0.701
 2042SOL    HW2 7026   3.650   5.776   0.685
 2043SOL     OW 7027   4.415   4.629   2.408
 2043SOL    HW1 7028   4.364   4.629   2.322
 2043SOL    HW2 7029   4.450   4.537   2.426
 2044SOL     OW 7030   6.377   0.952   2.073
 2044SOL    HW1 7031   6.364   0.852   2.072
 2044SOL    HW2 7032   6.338   0.991   1.990
 2045SOL     OW 7033   2.474   6.009   5.939
 2045SOL    HW1 7034   2.565   6.035   5.972
 2045SOL    HW2 7035   2.404   6.044   6.001
 2046SOL     OW 7036   6.229   6.820   4.957
 2046SOL    HW1 7037   6.224   6.913   4.921
 2046SOL    HW2 7038   6.164   6.810   5.032
 2047SOL     OW 7039   5.324   2.594   0.153
 2047SOL    HW1 7040   5.396   2.607   0.222
 2047SOL    HW2 7041   5.253   2.664   0.166
 2048SOL     OW 7042   4.718   6.832   5.374
 2048SOL    HW1 7043   4.686   6.744   5.410
 2048SOL    HW2 7044   4.792   6.816   5.309
 2049SOL     OW 7045   4.793   6.193   0.584
 2049SOL    HW1 7046   4.722   6.190   0.513
 2049SOL    HW2 7047   4.880   6.220   0.543
 2050SOL     OW 7048   5.506   0.775   4.190
 2050SOL    HW1 7049   5.587   0.717   4.184
 2050SOL    HW2 7050   5.481   0.807   4.099
 2051SOL     OW 7051   2.409   5.124   0.657
 2051SOL    HW1 7052   2.428   5.199   0.593
 2051SOL    HW2 7053   2.353   5.158   0.733
 2052SOL     OW 7054   1.286   2.634   0.992
 2052SOL    HW1 7055   1.222   2.558   1.000
 2052SOL    HW2 7056   1.373   2.608   1.034
 2053SOL     OW 7057   5.114   1.080   0.213
 2053SOL    HW1 7058   5.075   0.990   0.194
 2053SOL    HW2 7059   5.156   1.079   0.304
 2054SOL     OW 7060   6.898   3.774   1.602
 2054SOL    HW1 7061   6.896   3.874   1.596
 2054SOL    HW2 7062   6.921   3.747   1.696
 2055SOL     OW 7063   6.240   1.999   3.941
 2055SOL    HW1 7064   6.202   1.929   4.002
 2055SOL    HW2 7065   6.340   1.999   3.948
 2056SOL     OW 7066   0.609   6.992   2.383
 2056SOL    HW1 7067   0.566   6.954   2.301
 2056SOL    HW2 7068   0.707   6.970   2.382
 2057SOL     OW 7069   6.455   2.365   3.894
 2057SOL    HW1 7070   6.473   2.277   3.851
 2057SOL    HW2 7071   6.470   2.357   3.993
 2058SOL     OW 7072   0.406   1.311   1.893
 2058SOL    HW1 7073   0.317   1.340   1.858
 2058SOL    HW2 7074   0.393   1.253   1.973
 2059SOL     OW 7075   1.945   0.567   6.818
 2059SOL    HW1 7076   1.977   0.624   6.742
 2059SOL    HW2 7077   2.006   0.489   6.829
 2060SOL     OW 7078   0.386   5.370   2.198
 2060SOL    HW1 7079   0.302   5.339   2.153
 2060SOL    HW2 7080   0.426   5.445   2.145
 2061SOL     OW 7081   0.930   1.136   1.371
 2061SOL    HW1 7082   1.020   1.092   1.363
 2061SOL    HW2 7083   0.893   1.120   1.463
 2062SOL     OW 7084   4.153   0.517   3.421
 2062SOL    HW1 7085   4.126   0.587   3.486
 2062SOL    HW2 7086   4.243   0.538   3.384
 2063SOL     OW 7087   2.820   1.859   0.503
 2063SOL    HW1 7088   2.745   1.878   0.439
 2063SOL    HW2 7089   2.861   1.945   0.533
 2064SOL     OW 7090   0.814   2.056   6.969
 2064SOL    HW1 7091   0.805   1.957   6.984
 2064SOL    HW2 7092   0.729   2.091   6.929
 2065SOL     OW 7093   6.468   2.972   2.097
 2065SOL    HW1 7094   6.555   2.953   2.051
 2065SOL    HW2 7095   6.479   2.958   2.195
 2066SOL     OW 7096   1.839   6.856   2.977
 2066SOL    HW1 7097   1.851   6.814   2.887
 2066SOL    HW2 7098   1.763   6.921   2.974
 2067SOL     OW 7099   0.046   0.171   1.162
 2067SOL    HW1 7100   0.127   0.222   1.133
 2067SOL    HW2 7101   0.058   0.074   1.141
 2068SOL     OW 7102   1.710   1.174   5.244
 2068SOL    HW1 7103   1.765   1.218   5.173
 2068SOL    HW2 7104   1.752   1.088   5.271
 2069SOL     OW 7105   0.790   1.820   2.094
 2069SOL    HW1 7106   0.715   1.763   2.061
 2069SOL    HW2 7107   0.874   1.793   2.046
 2070SOL     OW 7108   1.459   1.248   2.971
 2070SOL    HW1 7109   1.444   1.258   2.872
 2070SOL    HW2 7110   1.558   1.239   2.988
 2071SOL     OW 7111   1.475   6.233   4.972
 2071SOL    HW1 7112   1.535   6.170   5.022
 2071SOL    HW2 7113   1.461   6.316   5.027
 2072SOL     OW 7114   4.778   4.510   2.265
 2072SOL    HW1 7115   4.779   4.578   2.191
 2072SOL    HW2 7116   4.749   4.422   2.229
 2073SOL     OW 7117   3.762   6.319   5.420
 2073SOL    HW1 7118   3.823   6.341   5.344
 2073SOL    HW2 7119   3.759   6.220   5.433
 2074SOL     OW 7120   6.401   2.371   2.189
 2074SOL    HW1 7121   6.392   2.329   2.279
 2074SOL    HW2 7122   6.442   2.462   2.198
 2075SOL     OW 7123   3.611   3.752   6.542
 2075SOL    HW1 7124   3.665   3.687   6.596
 2075SOL    HW2 7125   3.663   3.779   6.461
 2076SOL     OW 7126   4.525   0.575   0.919
 2076SOL    HW1 7127   4.512   0.669   0.950
 2076SOL    HW2 7128   4.608   0.537   0.958
 2077SOL     OW 7129   5.502   1.403   3.763
 2077SOL    HW1 7130   5.452   1.368   3.842
 2077SOL    HW2 7131   5.443   1.466   3.711
 2078SOL     OW 7132   4.430   5.598   4.673
 2078SOL    HW1 7133   4.484   5.670   4.716
 2078SOL    HW2 7134   4.454   5.509   4.712
 2079SOL     OW 7135   5.744   0.648   3.534
 2079SOL    HW1 7136   5.769   0.636   3.630
 2079SOL    HW2 7137   5.714   0.742   3.519
 2080SOL     OW 7138   2.893   2.199   4.196
 2080SOL    HW1 7139   2.989   2.190   4.169
 2080SOL    HW2 7140   2.834   2.178   4.119
 2081SOL     OW 7141   0.834   5.914   4.529
 2081SOL    HW1 7142   0.762   5.921   4.460
 2081SOL    HW2 7143   0.861   5.818   4.539
 2082SOL     OW 7144   4.910   0.877   2.150
 2082SOL    HW1 7145   4.895   0.959   2.095
 2082SOL    HW2 7146   4.821   0.838   2.176
 2083SOL     OW 7147   3.307   4.846   5.569
 2083SOL    HW1 7148   3.215   4.829   5.606
 2083SOL    HW2 7149   3.369   4.872   5.643
 2084SOL     OW 7150   0.205   2.977   2.433
 2084SOL    HW1 7151   0.146   2.927   2.370
 2084SOL    HW2 7152   0.244   2.913   2.500
 2085SOL     OW 7153   5.448   6.344   6.342
 2085SOL    HW1 7154   5.414   6.255   6.373
 2085SOL    HW2 7155   5.383   6.415   6.368
 2086SOL     OW 7156   3.411   5.014   0.349
 2086SOL    HW1 7157   3.376   4.970   0.431
 2086SOL    HW2 7158   3.384   5.110   0.348
 2087SOL     OW 7159   6.410   5.844   3.729
 2087SOL    HW1 7160   6.419   5.816   3.633
 2087SOL    HW2 7161   6.314   5.866   3.748
 2088SOL     OW 7162   2.235   0.325   1.057
 2088SOL    HW1 7163   2.299   0.336   0.981
 2088SOL    HW2 7164   2.198   0.232   1.057
 2089SOL     OW 7165   3.024   1.434   6.413
 2089SOL    HW1 7166   3.103   1.492   6.398
 2089SOL    HW2 7167   3.052   1.349   6.458
 2090SOL     OW 7168   3.638   2.875   3.631
 2090SOL    HW1 7169   3.644   2.937   3.708
 2090SOL    HW2 7170   3.547   2.832   3.629
 2091SOL     OW 7171   1.982   5.484   0.605
 2091SOL    HW1 7172   2.076   5.460   0.581
 2091SOL    HW2 7173   1.980   5.526   0.695
 2092SOL     OW 7174   0.109   6.530   1.354
 2092SOL    HW1 7175   0.146   6.438   1.366
 2092SOL    HW2 7176   0.016   6.534   1.393
 2093SOL     OW 7177   0.615   2.730   1.452
 2093SOL    HW1 7178   0.604   2.643   1.404
 2093SOL    HW2 7179   0.712   2.753   1.458
 2094SOL     OW 7180   6.255   0.405   1.859
 2094SOL    HW1 7181   6.247   0.487   1.917
 2094SOL    HW2 7182   6.231   0.429   1.765
 2095SOL     OW 7183   6.870   4.579   5.100
 2095SOL    HW1 7184   6.910   4.659   5.054
 2095SOL    HW2 7185   6.822   4.608   5.183
 2096SOL     OW 7186   4.925   3.710   3.490
 2096SOL    HW1 7187   4.891   3.619   3.471
 2096SOL    HW2 7188   4.932   3.723   3.589
 2097SOL     OW 7189   6.624   3.260   0.057
 2097SOL    HW1 7190   6.664   3.348   0.030
 2097SOL    HW2 7191   6.581   3.269   0.147
 2098SOL     OW 7192   4.823   0.253   4.037
 2098SOL    HW1 7193   4.754   0.252   4.109
 2098SOL    HW2 7194   4.838   0.348   4.008
 2099SOL     OW 7195   3.048   1.903   3.465
 2099SOL    HW1 7196   3.069   1.994   3.502
 2099SOL    HW2 7197   2.976   1.860   3.519
 2100SOL     OW 7198   3.779   4.370   6.646
 2100SOL    HW1 7199   3.766   4.279   6.684
 2100SOL    HW2 7200   3.815   4.363   6.553
 2101SOL     OW 7201   6.843   0.515   2.599
 2101SOL    HW1 7202   6.842   0.562   2.511
 2101SOL    HW2 7203   6.827   0.581   2.672
 2102SOL     OW 7204   0.786   4.890   1.852
 2102SOL    HW1 7205   0.735   4.925   1.930
 2102SOL    HW2 7206   0.883   4.885   1.876
 2103SOL     OW 7207   2.378   3.893   6.196
 2103SOL    HW1 7208   2.453   3.950   6.231
 2103SOL    HW2 7209   2.361   3.918   6.100
 2104SOL     OW 7210   1.750   3.573   5.303
 2104SOL    HW1 7211   1.689   3.494   5.303
 2104SOL    HW2 7212   1.845   3.542   5.314
 2105SOL     OW 7213   6.381   5.695   1.358
 2105SOL    HW1 7214   6.450   5.744   1.412
 2105SOL    HW2 7215   6.392   5.596   1.373
 2106SOL     OW 7216   5.348   5.742   6.343
 2106SOL    HW1 7217   5.336   5.762   6.440
 2106SOL    HW2 7218   5.286   5.668   6.316
 2107SOL     OW 7219   2.962   4.644   6.973
 2107SOL    HW1 7220   3.057   4.658   7.001
 2107SOL    HW2 7221   2.904   4.715   7.015
 2108SOL     OW 7222   5.294   5.027   5.652
 2108SOL    HW1 7223   5.252   5.065   5.570
 2108SOL    HW2 7224   5.247   4.944   5.679
 2109SOL     OW 7225   6.104   6.151   2.488
 2109SOL    HW1 7226   6.140   6.215   2.420
 2109SOL    HW2 7227   6.147   6.169   2.577
 2110SOL     OW 7228   2.156   4.876   5.296
 2110SOL    HW1 7229   2.129   4.808   5.227
 2110SOL    HW2 7230   2.082   4.888   5.362
 2111SOL     OW 7231   1.846   2.526   0.005
 2111SOL    HW1 7232   1.879   2.601   0.061
 2111SOL    HW2 7233   1.903   2.445   0.019
 2112SOL     OW 7234   4.942   3.568   0.470
 2112SOL    HW1 7235   4.929   3.488   0.412
 2112SOL    HW2 7236   5.039   3.592   0.473
 2113SOL     OW 7237   6.545   1.590   2.947
 2113SOL    HW1 7238   6.567   1.651   3.023
 2113SOL    HW2 7239   6.446   1.576   2.944
 2114SOL     OW 7240   1.819   3.564   0.192
 2114SOL    HW1 7241   1.739   3.548   0.134
 2114SOL    HW2 7242   1.858   3.476   0.219
 2115SOL     OW 7243   3.295   5.288   2.208
 2115SOL    HW1 7244   3.226   5.273   2.279
 2115SOL    HW2 7245   3.323   5.384   2.210
 2116SOL     OW 7246   0.304   4.138   3.064
 2116SOL    HW1 7247   0.335   4.066   3.002
 2116SOL    HW2 7248   0.291   4.222   3.013
 2117SOL     OW 7249   0.102   5.153   0.065
 2117SOL    HW1 7250   0.171   5.167   0.136
 2117SOL    HW2 7251   0.029   5.221   0.076
 2118SOL     OW 7252   6.255   3.882   2.471
 2118SOL    HW1 7253   6.343   3.873   2.517
 2118SOL    HW2 7254   6.198   3.802   2.490
 2119SOL     OW 7255   3.271   5.925   0.808
 2119SOL    HW1 7256   3.358   5.972   0.800
 2119SOL    HW2 7257   3.198   5.993   0.821
 2120SOL     OW 7258   6.927   4.889   2.550
 2120SOL    HW1 7259   6.914   4.966   2.488
 2120SOL    HW2 7260   7.014   4.900   2.597
 2121SOL     OW 7261   0.569   4.014   4.710
 2121SOL    HW1 7262   0.589   4.012   4.612
 2121SOL    HW2 7263   0.473   3.988   4.724
 2122SOL     OW 7264   4.655   4.430   5.526
 2122SOL    HW1 7265   4.598   4.411   5.446
 2122SOL    HW2 7266   4.734   4.483   5.498
 2123SOL     OW 7267   4.461   4.650   3.517
 2123SOL    HW1 7268   4.497   4.569   3.470
 2123SOL    HW2 7269   4.431   4.624   3.609
 2124SOL     OW 7270   3.138   1.278   1.756
 2124SOL    HW1 7271   3.167   1.253   1.663
 2124SOL    HW2 7272   3.160   1.374   1.772
 2125SOL     OW 7273   2.742   6.834   0.938
 2125SOL    HW1 7274   2.721   6.898   1.012
 2125SOL    HW2 7275   2.836   6.849   0.908
 2126SOL     OW 7276   2.739   0.441   1.972
 2126SOL    HW1 7277   2.691   0.529   1.977
 2126SOL    HW2 7278   2.704   0.380   2.043
 2127SOL     OW 7279   5.586   3.084   4.897
 2127SOL    HW1 7280   5.656   3.115   4.962
 2127SOL    HW2 7281   5.622   3.009   4.842
 2128SOL     OW 7282   0.837   4.458   4.140
 2128SOL    HW1 7283   0.834   4.519   4.061
 2128SOL    HW2 7284   0.771   4.490   4.208
 2129SOL     OW 7285   3.761   2.098   5.586
 2129SOL    HW1 7286   3.766   2.196   5.606
 2129SOL    HW2 7287   3.665   2.071   5.578
 2130SOL     OW 7288   4.465   0.175   3.231
 2130SOL    HW1 7289   4.507   0.167   3.141
 2130SOL    HW2 7290   4.371   0.142   3.227
 2131SOL     OW 7291   5.356   1.790   6.909
 2131SOL    HW1 7292   5.374   1.854   6.834
 2131SOL    HW2 7293   5.258   1.776   6.918
 2132SOL     OW 7294   2.263   3.668   0.958
 2132SOL    HW1 7295   2.356   3.671   0.995
 2132SOL    HW2 7296   2.241   3.574   0.932
 2133SOL     OW 7297   2.492   3.811   5.900
 2133SOL    HW1 7298   2.581   3.843   5.931
 2133SOL    HW2 7299   2.505   3.738   5.833
 2134SOL     OW 7300   0.334   0.143   0.566
 2134SOL    HW1 7301   0.277   0.108   0.641
 2134SOL    HW2 7302   0.427   0.108   0.577
 2135SOL     OW 7303   6.412   4.390   5.425
 2135SOL    HW1 7304   6.372   4.353   5.509
 2135SOL    HW2 7305   6.509   4.410   5.440
 2136SOL     OW 7306   0.746   4.979   1.120
 2136SOL    HW1 7307   0.745   4.927   1.205
 2136SOL    HW2 7308   0.692   5.063   1.132
 2137SOL     OW 7309   1.471   6.679   4.375
 2137SOL    HW1 7310   1.375   6.663   4.353
 2137SOL    HW2 7311   1.489   6.650   4.469
 2138SOL     OW 7312   5.068   1.523   1.663
 2138SOL    HW1 7313   5.151   1.535   1.717
 2138SOL    HW2 7314   4.996   1.582   1.699
 2139SOL     OW 7315   3.166   0.170   5.867
 2139SOL    HW1 7316   3.095   0.131   5.925
 2139SOL    HW2 7317   3.255   0.158   5.911
 2140SOL     OW 7318   2.555   1.643   4.467
 2140SOL    HW1 7319   2.585   1.732   4.434
 2140SOL    HW2 7320   2.524   1.587   4.390
 2141SOL     OW 7321   6.820   3.153   3.161
 2141SOL    HW1 7322   6.859   3.205   3.237
 2141SOL    HW2 7323   6.890   3.141   3.090
 2142SOL     OW 7324   1.701   2.237   2.662
 2142SOL    HW1 7325   1.705   2.175   2.584
 2142SOL    HW2 7326   1.606   2.264   2.678
 2143SOL     OW 7327   1.064   4.642   6.287
 2143SOL    HW1 7328   1.040   4.556   6.243
 2143SOL    HW2 7329   1.013   4.652   6.373
 2144SOL     OW 7330   6.492   4.586   3.341
 2144SOL    HW1 7331   6.443   4.614   3.259
 2144SOL    HW2 7332   6.510   4.666   3.398
 2145SOL     OW 7333   4.680   1.356   3.618
 2145SOL    HW1 7334   4.611   1.419   3.655
 2145SOL    HW2 7335   4.642   1.264   3.612
 2146SOL     OW 7336   2.329   2.752   0.429
 2146SOL    HW1 7337   2.423   2.721   0.444
 2146SOL    HW2 7338   2.295   2.797   0.511
 2147SOL     OW 7339   5.849   6.880   4.201
 2147SOL    HW1 7340   5.771   6.912   4.148
 2147SOL    HW2 7341   5.840   6.912   4.295
 2148SOL     OW 7342   0.550   3.373   5.970
 2148SOL    HW1 7343   0.486   3.445   5.944
 2148SOL    HW2 7344   0.560   3.371   6.069
 2149SOL     OW 7345   0.952   0.047   0.197
 2149SOL    HW1 7346   0.857   0.073   0.210
 2149SOL    HW2 7347   0.959   6.977   0.184
 2150SOL     OW 7348   1.618   3.058   1.389
 2150SOL    HW1 7349   1.628   3.014   1.300
 2150SOL    HW2 7350   1.564   3.000   1.449
 2151SOL     OW 7351   0.641   5.330   0.835
 2151SOL    HW1 7352   0.566   5.280   0.878
 2151SOL    HW2 7353   0.619   5.346   0.738
 2152SOL     OW 7354   5.395   5.749   3.825
 2152SOL    HW1 7355   5.429   5.702   3.744
 2152SOL    HW2 7356   5.422   5.699   3.907
 2153SOL     OW 7357   5.140   0.727   3.837
 2153SOL    HW1 7358   5.154   0.659   3.765
 2153SOL    HW2 7359   5.068   0.790   3.810
 2154SOL     OW 7360   2.890   0.600   2.812
 2154SOL    HW1 7361   2.874   0.537   2.736
 2154SOL    HW2 7362   2.975   0.651   2.796
 2155SOL     OW 7363   4.018   0.917   0.760
 2155SOL    HW1 7364   4.073   0.948   0.837
 2155SOL    HW2 7365   4.044   0.966   0.677
 2156SOL     OW 7366   5.256   1.611   5.211
 2156SOL    HW1 7367   5.239   1.599   5.309
 2156SOL    HW2 7368   5.180   1.570   5.159
 2157SOL     OW 7369   3.540   6.505   4.192
 2157SOL    HW1 7370   3.516   6.441   4.265
 2157SOL    HW2 7371   3.460   6.522   4.135
 2158SOL     OW 7372   2.929   6.991   0.324
 2158SOL    HW1 7373   2.931   0.039   0.389
 2158SOL    HW2 7374   2.836   6.982   0.287
 2159SOL     OW 7375   0.803   0.546   5.694
 2159SOL    HW1 7376   0.823   0.644   5.684
 2159SOL    HW2 7377   0.753   0.531   5.779
 2160SOL     OW 7378   5.694   0.206   0.213
 2160SOL    HW1 7379   5.663   0.182   0.305
 2160SOL    HW2 7380   5.699   0.124   0.156
 2161SOL     OW 7381   1.445   2.807   1.406
 2161SOL    HW1 7382   1.354   2.848   1.408
 2161SOL    HW2 7383   1.493   2.836   1.324
 2162SOL     OW 7384   1.604   6.727   1.596
 2162SOL    HW1 7385   1.588   6.821   1.625
 2162SOL    HW2 7386   1.555   6.664   1.656
 2163SOL     OW 7387   2.045   2.792   2.920
 2163SOL    HW1 7388   2.105   2.836   2.854
 2163SOL    HW2 7389   1.963   2.848   2.932
 2164SOL     OW 7390   2.028   3.263   2.366
 2164SOL    HW1 7391   2.053   3.170   2.338
 2164SOL    HW2 7392   1.998   3.262   2.462
 2165SOL     OW 7393   6.618   1.302   4.457
 2165SOL    HW1 7394   6.683   1.366   4.416
 2165SOL    HW2 7395   6.532   1.350   4.476
 2166SOL     OW 7396   0.185   3.585   2.366
 2166SOL    HW1 7397   0.174   3.677   2.328
 2166SOL    HW2 7398   0.101   3.558   2.412
 2167SOL     OW 7399   2.427   1.653   2.700
 2167SOL    HW1 7400   2.397   1.587   2.631
 2167SOL    HW2 7401   2.352   1.715   2.722
 2168SOL     OW 7402   1.821   1.661   3.308
 2168SOL    HW1 7403   1.846   1.587   3.244
 2168SOL    HW2 7404   1.746   1.631   3.366
 2169SOL     OW 7405   6.904   6.879   1.356
 2169SOL    HW1 7406   6.957   6.900   1.438
 2169SOL    HW2 7407   6.954   6.812   1.301
 2170SOL     OW 7408   1.333   4.209   5.998
 2170SOL    HW1 7409   1.325   4.239   5.903
 2170SOL    HW2 7410   1.244   4.214   6.043
 2171SOL     OW 7411   6.801   6.153   1.129
 2171SOL    HW1 7412   6.736   6.229   1.123
 2171SOL    HW2 7413   6.802   6.104   1.042
 2172SOL     OW 7414   2.139   1.517   5.285
 2172SOL    HW1 7415   2.079   1.471   5.349
 2172SOL    HW2 7416   2.199   1.451   5.241
 2173SOL     OW 7417   5.495   0.986   5.629
 2173SOL    HW1 7418   5.510   1.076   5.588
 2173SOL    HW2 7419   5.578   0.958   5.677
 2174SOL     OW 7420   5.641   0.540   6.233
 2174SOL    HW1 7421   5.637   0.450   6.276
 2174SOL    HW2 7422   5.600   0.608   6.294
 2175SOL     OW 7423   2.681   3.954   5.281
 2175SOL    HW1 7424   2.712   4.036   5.329
 2175SOL    HW2 7425   2.600   3.975   5.227
 2176SOL     OW 7426   5.216   2.336   2.439
 2176SOL    HW1 7427   5.289   2.300   2.497
 2176SOL    HW2 7428   5.128   2.321   2.484
 2177SOL     OW 7429   0.673   0.864   4.860
 2177SOL    HW1 7430   0.735   0.898   4.790
 2177SOL    HW2 7431   0.683   0.765   4.868
 2178SOL     OW 7432   1.514   1.880   2.567
 2178SOL    HW1 7433   1.417   1.868   2.550
 2178SOL    HW2 7434   1.539   1.837   2.654
 2179SOL     OW 7435   1.846   4.228   6.649
 2179SOL    HW1 7436   1.908   4.232   6.570
 2179SOL    HW2 7437   1.759   4.271   6.626
 2180SOL     OW 7438   0.725   5.833   2.900
 2180SOL    HW1 7439   0.768   5.916   2.864
 2180SOL    HW2 7440   0.795   5.761   2.910
 2181SOL     OW 7441   3.957   4.867   4.636
 2181SOL    HW1 7442   3.882   4.861   4.701
 2181SOL    HW2 7443   4.044   4.862   4.684
 2182SOL     OW 7444   0.060   6.257   2.214
 2182SOL    HW1 7445   0.140   6.296   2.168
 2182SOL    HW2 7446   0.084   6.235   2.309
 2183SOL     OW 7447   3.174   3.350   6.652
 2183SOL    HW1 7448   3.080   3.380   6.666
 2183SOL    HW2 7449   3.174   3.252   6.631
 2184SOL     OW 7450   6.396   1.451   0.506
 2184SOL    HW1 7451   6.483   1.415   0.539
 2184SOL    HW2 7452   6.347   1.496   0.581
 2185SOL     OW 7453   1.188   0.579   6.623
 2185SOL    HW1 7454   1.111   0.567   6.686
 2185SOL    HW2 7455   1.180   0.668   6.578
 2186SOL     OW 7456   6.790   5.852   5.507
 2186SOL    HW1 7457   6.870   5.853   5.447
 2186SOL    HW2 7458   6.795   5.772   5.567
 2187SOL     OW 7459   6.782   5.392   1.841
 2187SOL    HW1 7460   6.731   5.465   1.796
 2187SOL    HW2 7461   6.795   5.316   1.777
 2188SOL     OW 7462   2.678   0.870   0.440
 2188SOL    HW1 7463   2.610   0.942   0.454
 2188SOL    HW2 7464   2.683   0.847   0.342
 2189SOL     OW 7465   2.303   1.484   1.479
 2189SOL    HW1 7466   2.276   1.577   1.453
 2189SOL    HW2 7467   2.270   1.464   1.571
 2190SOL     OW 7468   6.422   3.935   1.665
 2190SOL    HW1 7469   6.371   3.928   1.579
 2190SOL    HW2 7470   6.492   3.864   1.668
 2191SOL     OW 7471   2.895   0.580   6.717
 2191SOL    HW1 7472   2.833   0.509   6.753
 2191SOL    HW2 7473   2.970   0.536   6.668
 2192SOL     OW 7474   5.088   1.929   2.035
 2192SOL    HW1 7475   5.042   2.003   1.987
 2192SOL    HW2 7476   5.183   1.956   2.054
 2193SOL     OW 7477   1.861   6.674   5.671
 2193SOL    HW1 7478   1.871   6.768   5.703
 2193SOL    HW2 7479   1.951   6.633   5.659
 2194SOL     OW 7480   0.690   4.202   6.155
 2194SOL    HW1 7481   0.631   4.149   6.095
 2194SOL    HW2 7482   0.785   4.171   6.145
 2195SOL     OW 7483   0.633   3.277   4.884
 2195SOL    HW1 7484   0.609   3.182   4.867
 2195SOL    HW2 7485   0.560   3.337   4.850
 2196SOL     OW 7486   3.216   0.607   6.754
 2196SOL    HW1 7487   3.236   0.566   6.665
 2196SOL    HW2 7488   3.127   0.652   6.750
 2197SOL     OW 7489   3.635   5.660   5.845
 2197SOL    HW1 7490   3.625   5.676   5.944
 2197SOL    HW2 7491   3.568   5.591   5.816
 2198SOL     OW 7492   1.029   0.827   0.315
 2198SOL    HW1 7493   1.013   0.736   0.355
 2198SOL    HW2 7494   1.127   0.846   0.315
 2199SOL     OW 7495   4.237   6.657   4.218
 2199SOL    HW1 7496   4.222   6.701   4.129
 2199SOL    HW2 7497   4.265   6.725   4.285
 2200SOL     OW 7498   2.668   1.916   3.858
 2200SOL    HW1 7499   2.705   1.870   3.777
 2200SOL    HW2 7500   2.665   1.851   3.934
 2201SOL     OW 7501   5.830   3.799   4.575
 2201SOL    HW1 7502   5.833   3.873   4.508
 2201SOL    HW2 7503   5.832   3.711   4.528
 2202SOL     OW 7504   3.532   6.888   2.449
 2202SOL    HW1 7505   3.449   6.930   2.413
 2202SOL    HW2 7506   3.574   6.830   2.379
 2203SOL     OW 7507   1.833   5.063   1.227
 2203SOL    HW1 7508   1.932   5.059   1.214
 2203SOL    HW2 7509   1.794   4.971   1.217
 2204SOL     OW 7510   5.960   2.867   0.717
 2204SOL    HW1 7511   6.013   2.859   0.633
 2204SOL    HW2 7512   5.870   2.825   0.703
 2205SOL     OW 7513   6.850   5.638   0.883
 2205SOL    HW1 7514   6.830   5.583   0.965
 2205SOL    HW2 7515   6.800   5.601   0.805
 2206SOL     OW 7516   4.040   2.534   5.860
 2206SOL    HW1 7517   3.997   2.624   5.866
 2206SOL    HW2 7518   3.973   2.464   5.886
 2207SOL     OW 7519   4.819   5.793   1.116
 2207SOL    HW1 7520   4.914   5.802   1.087
 2207SOL    HW2 7521   4.760   5.844   1.054
 2208SOL     OW 7522   6.834   6.699   3.466
 2208SOL    HW1 7523   6.888   6.736   3.541
 2208SOL    HW2 7524   6.845   6.600   3.463
 2209SOL     OW 7525   2.934   6.085   3.948
 2209SOL    HW1 7526   2.921   6.133   3.861
 2209SOL    HW2 7527   2.925   5.986   3.933
 2210SOL     OW 7528   4.607   0.030   1.564
 2210SOL    HW1 7529   4.618   0.066   1.472
 2210SOL    HW2 7530   4.677   6.989   1.581
 2211SOL     OW 7531   1.313   1.738   0.992
 2211SOL    HW1 7532   1.274   1.656   1.035
 2211SOL    HW2 7533   1.244   1.782   0.936
 2212SOL     OW 7534   3.362   5.758   6.649
 2212SOL    HW1 7535   3.416   5.686   6.605
 2212SOL    HW2 7536   3.292   5.791   6.586
 2213SOL     OW 7537   3.716   1.802   4.959
 2213SOL    HW1 7538   3.630   1.768   4.920
 2213SOL    HW2 7539   3.710   1.901   4.971
 2214SOL     OW 7540   4.310   4.134   6.675
 2214SOL    HW1 7541   4.217   4.102   6.657
 2214SOL    HW2 7542   4.347   4.085   6.754
 2215SOL     OW 7543   3.731   0.044   6.793
 2215SOL    HW1 7544   3.770   6.986   6.764
 2215SOL    HW2 7545   3.796   0.118   6.774
 2216SOL     OW 7546   0.636   6.720   6.276
 2216SOL    HW1 7547   0.706   6.741   6.344
 2216SOL    HW2 7548   0.550   6.699   6.323
 2217SOL     OW 7549   4.585   1.418   3.996
 2217SOL    HW1 7550   4.563   1.345   4.061
 2217SOL    HW2 7551   4.583   1.381   3.903
 2218SOL     OW 7552   0.418   5.561   5.340
 2218SOL    HW1 7553   0.463   5.586   5.426
 2218SOL    HW2 7554   0.449   5.622   5.267
 2219SOL     OW 7555   5.593   1.017   1.258
 2219SOL    HW1 7556   5.653   0.993   1.181
 2219SOL    HW2 7557   5.555   0.933   1.296
 2220SOL     OW 7558   0.108   5.926   4.541
 2220SOL    HW1 7559   0.053   5.859   4.492
 2220SOL    HW2 7560   0.057   6.012   4.548
 2221SOL     OW 7561   6.231   1.104   4.077
 2221SOL    HW1 7562   6.259   1.019   4.121
 2221SOL    HW2 7563   6.307   1.142   4.025
 2222SOL     OW 7564   4.631   0.498   2.559
 2222SOL    HW1 7565   4.564   0.555   2.510
 2222SOL    HW2 7566   4.719   0.546   2.562
 2223SOL     OW 7567   0.951   6.535   5.078
 2223SOL    HW1 7568   1.002   6.475   5.140
 2223SOL    HW2 7569   0.970   6.509   4.983
 2224SOL     OW 7570   5.602   3.826   0.387
 2224SOL    HW1 7571   5.667   3.768   0.436
 2224SOL    HW2 7572   5.622   3.825   0.289
 2225SOL     OW 7573   6.772   6.410   2.254
 2225SOL    HW1 7574   6.796   6.373   2.164
 2225SOL    HW2 7575   6.833   6.486   2.276
 2226SOL     OW 7576   2.539   4.692   6.994
 2226SOL    HW1 7577   2.618   4.685   0.025
 2226SOL    HW2 7578   2.566   4.673   6.900
 2227SOL     OW 7579   4.094   1.933   1.776
 2227SOL    HW1 7580   4.090   1.977   1.687
 2227SOL    HW2 7581   4.062   1.997   1.846
 2228SOL     OW 7582   5.364   5.474   6.903
 2228SOL    HW1 7583   5.299   5.500   6.974
 2228SOL    HW2 7584   5.438   5.420   6.943
 2229SOL     OW 7585   3.442   3.240   3.784
 2229SOL    HW1 7586   3.348   3.253   3.751
 2229SOL    HW2 7587   3.495   3.191   3.716
 2230SOL     OW 7588   6.012   0.400   6.720
 2230SOL    HW1 7589   6.105   0.378   6.750
 2230SOL    HW2 7590   5.979   0.327   6.660
 2231SOL     OW 7591   1.130   7.000   6.294
 2231SOL    HW1 7592   1.167   6.922   6.244
 2231SOL    HW2 7593   1.091   6.969   6.381
 2232SOL     OW 7594   1.549   0.725   5.536
 2232SOL    HW1 7595   1.588   0.728   5.444
 2232SOL    HW2 7596   1.498   0.640   5.548
 2233SOL     OW 7597   3.030   4.728   0.860
 2233SOL    HW1 7598   2.966   4.797   0.826
 2233SOL    HW2 7599   3.096   4.707   0.788
 2234SOL     OW 7600   4.932   2.068   1.800
 2234SOL    HW1 7601   4.962   2.145   1.856
 2234SOL    HW2 7602   4.910   2.100   1.708
 2235SOL     OW 7603   1.132   1.779   3.236
 2235SOL    HW1 7604   1.090   1.734   3.315
 2235SOL    HW2 7605   1.143   1.714   3.162
 2236SOL     OW 7606   2.651   4.994   5.345
 2236SOL    HW1 7607   2.697   5.052   5.278
 2236SOL    HW2 7608   2.666   4.898   5.321
 2237SOL     OW 7609   6.389   5.738   5.588
 2237SOL    HW1 7610   6.451   5.664   5.613
 2237SOL    HW2 7611   6.391   5.809   5.658
 2238SOL     OW 7612   5.814   3.450   1.889
 2238SOL    HW1 7613   5.906   3.416   1.869
 2238SOL    HW2 7614   5.820   3.532   1.946
 2239SOL     OW 7615   4.849   6.654   3.035
 2239SOL    HW1 7616   4.878   6.709   2.956
 2239SOL    HW2 7617   4.770   6.599   3.010
 2240SOL     OW 7618   4.688   5.067   2.443
 2240SOL    HW1 7619   4.591   5.075   2.463
 2240SOL    HW2 7620   4.704   4.986   2.387
 2241SOL     OW 7621   0.592   1.453   2.575
 2241SOL    HW1 7622   0.530   1.397   2.520
 2241SOL    HW2 7623   0.561   1.453   2.670
 2242SOL     OW 7624   5.299   2.344   3.604
 2242SOL    HW1 7625   5.300   2.432   3.558
 2242SOL    HW2 7626   5.391   2.321   3.636
 2243SOL     OW 7627   2.129   6.743   0.864
 2243SOL    HW1 7628   2.124   6.689   0.948
 2243SOL    HW2 7629   2.199   6.813   0.874
 2244SOL     OW 7630   2.239   1.183   0.717
 2244SOL    HW1 7631   2.290   1.238   0.651
 2244SOL    HW2 7632   2.149   1.161   0.680
 2245SOL     OW 7633   0.363   0.637   0.225
 2245SOL    HW1 7634   0.351   0.610   0.321
 2245SOL    HW2 7635   0.430   0.578   0.182
 2246SOL     OW 7636   3.576   1.986   5.173
 2246SOL    HW1 7637   3.546   1.969   5.079
 2246SOL    HW2 7638   3.619   2.076   5.178
 2247SOL     OW 7639   3.517   2.905   2.809
 2247SOL    HW1 7640   3.439   2.920   2.749
 2247SOL    HW2 7641   3.485   2.892   2.903
 2248SOL     OW 7642   4.631   4.128   5.225
 2248SOL    HW1 7643   4.652   4.189   5.301
 2248SOL    HW2 7644   4.691   4.048   5.229
 2249SOL     OW 7645   1.553   6.502   3.040
 2249SOL    HW1 7646   1.558   6.601   3.032
 2249SOL    HW2 7647   1.566   6.476   3.136
 2250SOL     OW 7648   4.521   5.776   6.334
 2250SOL    HW1 7649   4.585   5.753   6.408
 2250SOL    HW2 7650   4.500   5.874   6.338
 2251SOL     OW 7651   5.396   6.432   5.312
 2251SOL    HW1 7652   5.469   6.370   5.340
 2251SOL    HW2 7653   5.379   6.421   5.214
 2252SOL     OW 7654   4.382   1.929   2.139
 2252SOL    HW1 7655   4.282   1.931   2.148
 2252SOL    HW2 7656   4.424   1.937   2.229
 2253SOL     OW 7657   0.709   3.403   0.971
 2253SOL    HW1 7658   0.701   3.438   1.064
 2253SOL    HW2 7659   0.800   3.427   0.935
 2254SOL     OW 7660   3.653   4.089   2.831
 2254SOL    HW1 7661   3.724   4.018   2.829
 2254SOL    HW2 7662   3.692   4.174   2.866
 2255SOL     OW 7663   2.537   3.369   6.079
 2255SOL    HW1 7664   2.467   3.429   6.041
 2255SOL    HW2 7665   2.620   3.422   6.097
 2256SOL     OW 7666   5.261   6.986   1.357
 2256SOL    HW1 7667   5.290   6.890   1.360
 2256SOL    HW2 7668   5.167   6.994   1.391
 2257SOL     OW 7669   6.852   0.910   5.299
 2257SOL    HW1 7670   6.791   0.841   5.339
 2257SOL    HW2 7671   6.877   0.976   5.370
 2258SOL     OW 7672   2.854   5.516   3.941
 2258SOL    HW1 7673   2.847   5.547   4.036
 2258SOL    HW2 7674   2.784   5.447   3.923
 2259SOL     OW 7675   5.867   2.209   4.861
 2259SOL    HW1 7676   5.839   2.165   4.946
 2259SOL    HW2 7677   5.818   2.295   4.850
 2260SOL     OW 7678   0.490   3.965   1.372
 2260SOL    HW1 7679   0.404   4.010   1.351
 2260SOL    HW2 7680   0.546   4.026   1.429
 2261SOL     OW 7681   5.305   3.636   6.826
 2261SOL    HW1 7682   5.244   3.714   6.837
 2261SOL    HW2 7683   5.308   3.610   6.729
 2262SOL     OW 7684   6.177   6.858   4.339
 2262SOL    HW1 7685   6.250   6.800   4.376
 2262SOL    HW2 7686   6.092   6.806   4.334
 2263SOL     OW 7687   2.108   4.416   6.552
 2263SOL    HW1 7688   2.086   4.473   6.473
 2263SOL    HW2 7689   2.081   4.321   6.534
 2264SOL     OW 7690   3.167   6.820   6.050
 2264SOL    HW1 7691   3.224   6.894   6.084
 2264SOL    HW2 7692   3.189   6.802   5.954
 2265SOL     OW 7693   6.686   6.328   4.296
 2265SOL    HW1 7694   6.650   6.332   4.389
 2265SOL    HW2 7695   6.671   6.417   4.251
 2266SOL     OW 7696   4.219   3.092   6.697
 2266SOL    HW1 7697   4.158   3.128   6.768
 2266SOL    HW2 7698   4.168   3.082   6.611
 2267SOL     OW 7699   4.917   2.662   4.349
 2267SOL    HW1 7700   4.872   2.577   4.324
 2267SOL    HW2 7701   4.847   2.731   4.372
 2268SOL     OW 7702   1.218   5.689   4.551
 2268SOL    HW1 7703   1.273   5.766   4.585
 2268SOL    HW2 7704   1.193   5.630   4.628
 2269SOL     OW 7705   1.678   2.373   5.347
 2269SOL    HW1 7706   1.725   2.460   5.331
 2269SOL    HW2 7707   1.731   2.318   5.412
 2270SOL     OW 7708   4.749   1.594   5.853
 2270SOL    HW1 7709   4.719   1.550   5.937
 2270SOL    HW2 7710   4.691   1.673   5.834
 2271SOL     OW 7711   4.553   5.514   5.275
 2271SOL    HW1 7712   4.526   5.488   5.368
 2271SOL    HW2 7713   4.470   5.527   5.219
 2272SOL     OW 7714   5.274   1.372   6.182
 2272SOL    HW1 7715   5.322   1.397   6.266
 2272SOL    HW2 7716   5.335   1.316   6.125
 2273SOL     OW 7717   0.786   2.355   2.983
 2273SOL    HW1 7718   0.880   2.348   2.950
 2273SOL    HW2 7719   0.757   2.265   3.017
 2274SOL     OW 7720   0.489   1.673   0.005
 2274SOL    HW1 7721   0.392   1.669   7.013
 2274SOL    HW2 7722   0.524   1.580   0.019
 2275SOL     OW 7723   5.600   4.424   2.855
 2275SOL    HW1 7724   5.658   4.493   2.812
 2275SOL    HW2 7725   5.504   4.449   2.844
 2276SOL     OW 7726   2.054   2.036   1.140
 2276SOL    HW1 7727   2.074   2.103   1.211
 2276SOL    HW2 7728   2.110   2.055   1.060
 2277SOL     OW 7729   3.787   3.337   3.641
 2277SOL    HW1 7730   3.808   3.414   3.579
 2277SOL    HW2 7731   3.704   3.291   3.609
 2278SOL     OW 7732   0.594   2.592   3.616
 2278SOL    HW1 7733   0.557   2.505   3.586
 2278SOL    HW2 7734   0.686   2.578   3.653
 2279SOL     OW 7735   0.411   5.267   5.500
 2279SOL    HW1 7736   0.424   5.191   5.563
 2279SOL    HW2 7737   0.395   5.351   5.551
 2280SOL     OW 7738   4.694   1.908   5.604
 2280SOL    HW1 7739   4.599   1.876   5.609
 2280SOL    HW2 7740   4.699   2.001   5.641
 2281SOL     OW 7741   5.828   6.735   2.604
 2281SOL    HW1 7742   5.842   6.751   2.701
 2281SOL    HW2 7743   5.875   6.805   2.551
 2282SOL     OW 7744   4.103   6.886   5.318
 2282SOL    HW1 7745   4.106   6.786   5.306
 2282SOL    HW2 7746   4.195   6.923   5.310
 2283SOL     OW 7747   0.206   0.485   3.913
 2283SOL    HW1 7748   0.272   0.491   3.987
 2283SOL    HW2 7749   0.113   0.491   3.951
 2284SOL     OW 7750   1.086   2.644   6.933
 2284SOL    HW1 7751   1.184   2.624   6.933
 2284SOL    HW2 7752   1.036   2.565   6.969
 2285SOL     OW 7753   1.587   4.317   6.588
 2285SOL    HW1 7754   1.519   4.244   6.598
 2285SOL    HW2 7755   1.572   4.366   6.503
 2286SOL     OW 7756   4.928   5.050   3.378
 2286SOL    HW1 7757   4.861   4.984   3.344
 2286SOL    HW2 7758   4.908   5.071   3.474
 2287SOL     OW 7759   1.668   1.158   3.194
 2287SOL    HW1 7760   1.714   1.170   3.107
 2287SOL    HW2 7761   1.614   1.074   3.193
 2288SOL     OW 7762   0.184   5.536   2.687
 2288SOL    HW1 7763   0.201   5.558   2.590
 2288SOL    HW2 7764   0.087   5.549   2.707
 2289SOL     OW 7765   0.308   5.592   0.950
 2289SOL    HW1 7766   0.236   5.617   0.886
 2289SOL    HW2 7767   0.272   5.595   1.044
 2290SOL     OW 7768   0.687   5.824   0.232
 2290SOL    HW1 7769   0.697   5.854   0.137
 2290SOL    HW2 7770   0.718   5.730   0.241
 2291SOL     OW 7771   2.429   1.551   0.344
 2291SOL    HW1 7772   2.438   1.505   0.256
 2291SOL    HW2 7773   2.492   1.510   0.410
 2292SOL     OW 7774   1.570   1.367   5.008
 2292SOL    HW1 7775   1.507   1.421   4.952
 2292SOL    HW2 7776   1.539   1.367   5.103
 2293SOL     OW 7777   5.254   4.346   2.596
 2293SOL    HW1 7778   5.328   4.291   2.635
 2293SOL    HW2 7779   5.168   4.295   2.599
 2294SOL     OW 7780   3.487   5.937   6.785
 2294SOL    HW1 7781   3.432   6.019   6.798
 2294SOL    HW2 7782   3.433   5.867   6.738
 2295SOL     OW 7783   0.602   2.048   1.104
 2295SOL    HW1 7784   0.507   2.063   1.131
 2295SOL    HW2 7785   0.661   2.048   1.185
 2296SOL     OW 7786   2.988   6.495   0.419
 2296SOL    HW1 7787   2.995   6.593   0.440
 2296SOL    HW2 7788   2.918   6.454   0.478
 2297SOL     OW 7789   4.392   6.333   5.901
 2297SOL    HW1 7790   4.375   6.357   5.996
 2297SOL    HW2 7791   4.337   6.392   5.842
 2298SOL     OW 7792   4.168   3.048   6.418
 2298SOL    HW1 7793   4.112   2.965   6.425
 2298SOL    HW2 7794   4.263   3.023   6.400
 2299SOL     OW 7795   4.580   6.225   0.393
 2299SOL    HW1 7796   4.509   6.167   0.352
 2299SOL    HW2 7797   4.568   6.320   0.362
 2300SOL     OW 7798   1.612   4.490   1.674
 2300SOL    HW1 7799   1.602   4.491   1.774
 2300SOL    HW2 7800   1.708   4.509   1.651
 2301SOL     OW 7801   4.026   3.629   1.705
 2301SOL    HW1 7802   4.065   3.631   1.797
 2301SOL    HW2 7803   3.948   3.566   1.703
 2302SOL     OW 7804   2.729   5.899   3.046
 2302SOL    HW1 7805   2.669   5.948   3.108
 2302SOL    HW2 7806   2.789   5.838   3.098
 2303SOL     OW 7807   0.524   3.034   4.930
 2303SOL    HW1 7808   0.458   3.000   4.997
 2303SOL    HW2 7809   0.495   3.007   4.838
 2304SOL     OW 7810   2.558   0.848   4.099
 2304SOL    HW1 7811   2.470   0.812   4.068
 2304SOL    HW2 7812   2.576   0.936   4.055
 2305SOL     OW 7813   4.051   5.499   1.916
 2305SOL    HW1 7814   3.970   5.485   1.972
 2305SOL    HW2 7815   4.048   5.591   1.877
 2306SOL     OW 7816   0.883   3.595   0.628
 2306SOL    HW1 7817   0.805   3.656   0.611
 2306SOL    HW2 7818   0.961   3.624   0.572
 2307SOL     OW 7819   0.521   2.411   2.775
 2307SOL    HW1 7820   0.547   2.470   2.852
 2307SOL    HW2 7821   0.603   2.368   2.737
 2308SOL     OW 7822   0.287   0.400   7.015
 2308SOL    HW1 7823   0.219   0.432   0.052
 2308SOL    HW2 7824   0.246   0.400   6.923
 2309SOL     OW 7825   3.463   4.997   5.749
 2309SOL    HW1 7826   3.382   5.053   5.731
 2309SOL    HW2 7827   3.492   5.009   5.844
 2310SOL     OW 7828   5.404   1.568   2.329
 2310SOL    HW1 7829   5.335   1.548   2.399
 2310SOL    HW2 7830   5.386   1.657   2.288
 2311SOL     OW 7831   2.780   0.203   2.918
 2311SOL    HW1 7832   2.869   0.187   2.874
 2311SOL    HW2 7833   2.785   0.284   2.976
 2312SOL     OW 7834   2.637   0.731   2.808
 2312SOL    HW1 7835   2.718   0.674   2.810
 2312SOL    HW2 7836   2.646   0.798   2.733
 2313SOL     OW 7837   5.304   4.065   1.893
 2313SOL    HW1 7838   5.242   4.112   1.830
 2313SOL    HW2 7839   5.272   3.971   1.907
 2314SOL     OW 7840   6.095   0.179   2.643
 2314SOL    HW1 7841   6.056   0.248   2.704
 2314SOL    HW2 7842   6.035   0.098   2.642
 2315SOL     OW 7843   4.410   6.076   5.270
 2315SOL    HW1 7844   4.384   6.172   5.279
 2315SOL    HW2 7845   4.490   6.069   5.209
 2316SOL     OW 7846   2.918   2.151   5.957
 2316SOL    HW1 7847   2.880   2.200   6.036
 2316SOL    HW2 7848   3.015   2.132   5.973
 2317SOL     OW 7849   6.727   5.938   3.482
 2317SOL    HW1 7850   6.790   5.860   3.476
 2317SOL    HW2 7851   6.637   5.910   3.449
 2318SOL     OW 7852   1.630   5.047   5.431
 2318SOL    HW1 7853   1.541   5.068   5.391
 2318SOL    HW2 7854   1.700   5.051   5.359
 2319SOL     OW 7855   2.183   4.951   3.777
 2319SOL    HW1 7856   2.256   4.934   3.843
 2319SOL    HW2 7857   2.096   4.920   3.815
 2320SOL     OW 7858   1.481   2.418   5.183
 2320SOL    HW1 7859   1.496   2.430   5.085
 2320SOL    HW2 7860   1.569   2.403   5.228
 2321SOL     OW 7861   2.325   4.765   6.028
 2321SOL    HW1 7862   2.266   4.834   6.068
 2321SOL    HW2 7863   2.378   4.805   5.953
 2322SOL     OW 7864   0.913   3.874   1.620
 2322SOL    HW1 7865   0.894   3.864   1.717
 2322SOL    HW2 7866   0.936   3.785   1.580
 2323SOL     OW 7867   2.342   4.962   1.677
 2323SOL    HW1 7868   2.287   4.886   1.714
 2323SOL    HW2 7869   2.433   4.959   1.717
 2324SOL     OW 7870   7.007   5.366   2.564
 2324SOL    HW1 7871   7.018   5.456   2.520
 2324SOL    HW2 7872   0.056   5.308   2.539
 2325SOL     OW 7873   0.252   5.343   1.784
 2325SOL    HW1 7874   0.193   5.354   1.704
 2325SOL    HW2 7875   0.323   5.413   1.783
 2326SOL     OW 7876   1.519   0.765   6.445
 2326SOL    HW1 7877   1.451   0.744   6.375
 2326SOL    HW2 7878   1.474   0.793   6.529
 2327SOL     OW 7879   6.836   0.649   2.988
 2327SOL    HW1 7880   6.851   0.673   3.084
 2327SOL    HW2 7881   6.918   0.670   2.935
 2328SOL     OW 7882   2.375   2.654   2.488
 2328SOL    HW1 7883   2.336   2.562   2.484
 2328SOL    HW2 7884   2.302   2.722   2.479
 2329SOL     OW 7885   0.873   5.471   3.393
 2329SOL    HW1 7886   0.904   5.376   3.405
 2329SOL    HW2 7887   0.929   5.515   3.322
 2330SOL     OW 7888   6.608   2.612   0.472
 2330SOL    HW1 7889   6.550   2.531   0.482
 2330SOL    HW2 7890   6.700   2.591   0.506
 2331SOL     OW 7891   4.096   6.104   0.412
 2331SOL    HW1 7892   4.105   6.020   0.464
 2331SOL    HW2 7893   4.102   6.183   0.474
 2332SOL     OW 7894   5.313   6.743   6.261
 2332SOL    HW1 7895   5.343   6.825   6.211
 2332SOL    HW2 7896   5.250   6.769   6.333
 2333SOL     OW 7897   0.176   4.607   2.712
 2333SOL    HW1 7898   0.093   4.553   2.694
 2333SOL    HW2 7899   0.169   4.694   2.664
 2334SOL     OW 7900   3.079   1.330   5.601
 2334SOL    HW1 7901   3.115   1.422   5.616
 2334SOL    HW2 7902   3.149   1.263   5.627
 2335SOL     OW 7903   6.394   1.344   3.275
 2335SOL    HW1 7904   6.355   1.345   3.367
 2335SOL    HW2 7905   6.460   1.269   3.267
 2336SOL     OW 7906   2.060   1.834   2.892
 2336SOL    HW1 7907   2.022   1.750   2.853
 2336SOL    HW2 7908   2.004   1.912   2.862
 2337SOL     OW 7909   4.390   1.826   1.341
 2337SOL    HW1 7910   4.364   1.908   1.391
 2337SOL    HW2 7911   4.444   1.851   1.261
 2338SOL     OW 7912   0.062   4.307   4.391
 2338SOL    HW1 7913   0.040   4.238   4.460
 2338SOL    HW2 7914   7.020   4.307   4.321
 2339SOL     OW 7915   4.155   3.494   2.799
 2339SOL    HW1 7916   4.144   3.451   2.709
 2339SOL    HW2 7917   4.118   3.434   2.870
 2340SOL     OW 7918   1.753   5.553   6.360
 2340SOL    HW1 7919   1.688   5.477   6.352
 2340SOL    HW2 7920   1.769   5.593   6.270
 2341SOL     OW 7921   2.306   4.573   3.534
 2341SOL    HW1 7922   2.236   4.510   3.567
 2341SOL    HW2 7923   2.386   4.567   3.594
 2342SOL     OW 7924   3.015   0.285   4.245
 2342SOL    HW1 7925   2.944   0.348   4.212
 2342SOL    HW2 7926   2.979   0.192   4.248
 2343SOL     OW 7927   1.616   6.800   2.163
 2343SOL    HW1 7928   1.576   6.783   2.253
 2343SOL    HW2 7929   1.677   6.879   2.168
 2344SOL     OW 7930   5.585   4.144   0.914
 2344SOL    HW1 7931   5.534   4.229   0.901
 2344SOL    HW2 7932   5.644   4.153   0.995
 2345SOL     OW 7933   2.622   5.919   4.715
 2345SOL    HW1 7934   2.678   5.898   4.795
 2345SOL    HW2 7935   2.681   5.943   4.638
 2346SOL     OW 7936   4.090   4.449   6.272
 2346SOL    HW1 7937   4.120   4.483   6.184
 2346SOL    HW2 7938   4.009   4.392   6.259
 2347SOL     OW 7939   1.174   2.516   1.710
 2347SOL    HW1 7940   1.135   2.552   1.626
 2347SOL    HW2 7941   1.269   2.488   1.694
 2348SOL     OW 7942   0.551   4.964   2.873
 2348SOL    HW1 7943   0.546   5.014   2.959
 2348SOL    HW2 7944   0.469   4.983   2.819
 2349SOL     OW 7945   0.422   4.676   6.529
 2349SOL    HW1 7946   0.422   4.770   6.494
 2349SOL    HW2 7947   0.473   4.617   6.468
 2350SOL     OW 7948   6.513   3.899   6.521
 2350SOL    HW1 7949   6.414   3.903   6.527
 2350SOL    HW2 7950   6.541   3.814   6.475
 2351SOL     OW 7951   2.427   5.102   3.213
 2351SOL    HW1 7952   2.344   5.123   3.263
 2351SOL    HW2 7953   2.470   5.021   3.253
 2352SOL     OW 7954   0.259   3.112   3.700
 2352SOL    HW1 7955   0.170   3.125   3.745
 2352SOL    HW2 7956   0.332   3.114   3.768
 2353SOL     OW 7957   3.597   5.844   5.104
 2353SOL    HW1 7958   3.510   5.891   5.123
 2353SOL    HW2 7959   3.646   5.893   5.032
 2354SOL     OW 7960   2.379   2.047   3.477
 2354SOL    HW1 7961   2.376   2.022   3.574
 2354SOL    HW2 7962   2.466   2.017   3.438
 2355SOL     OW 7963   2.144   5.892   4.955
 2355SOL    HW1 7964   2.128   5.927   4.862
 2355SOL    HW2 7965   2.057   5.874   4.999
 2356SOL     OW 7966   0.010   3.329   0.308
 2356SOL    HW1 7967   6.999   3.259   0.367
 2356SOL    HW2 7968   0.065   3.392   0.364
 2357SOL     OW 7969   2.618   6.689   2.574
 2357SOL    HW1 7970   2.673   6.634   2.512
 2357SOL    HW2 7971   2.644   6.669   2.668
 2358SOL     OW 7972   3.629   4.570   6.500
 2358SOL    HW1 7973   3.619   4.661   6.540
 2358SOL    HW2 7974   3.688   4.515   6.558
 2359SOL     OW 7975   1.452   0.491   4.809
 2359SOL    HW1 7976   1.388   0.442   4.750
 2359SOL    HW2 7977   1.515   0.426   4.851
 2360SOL     OW 7978   6.626   3.111   0.579
 2360SOL    HW1 7979   6.558   3.173   0.617
 2360SOL    HW2 7980   6.590   3.017   0.579
 2361SOL     OW 7981   3.791   1.578   5.934
 2361SOL    HW1 7982   3.885   1.593   5.902
 2361SOL    HW2 7983   3.731   1.646   5.892
 2362SOL     OW 7984   3.504   5.561   3.443
 2362SOL    HW1 7985   3.414   5.577   3.402
 2362SOL    HW2 7986   3.503   5.476   3.494
 2363SOL     OW 7987   3.796   1.476   3.854
 2363SOL    HW1 7988   3.790   1.390   3.905
 2363SOL    HW2 7989   3.748   1.466   3.766
 2364SOL     OW 7990   0.851   2.673   1.101
 2364SOL    HW1 7991   0.881   2.583   1.134
 2364SOL    HW2 7992   0.864   2.679   1.002
 2365SOL     OW 7993   5.776   2.152   6.447
 2365SOL    HW1 7994   5.824   2.096   6.514
 2365SOL    HW2 7995   5.699   2.198   6.492
 2366SOL     OW 7996   3.901   5.103   0.958
 2366SOL    HW1 7997   3.812   5.131   0.994
 2366SOL    HW2 7998   3.892   5.015   0.912
 2367SOL     OW 7999   2.119   3.003   6.969
 2367SOL    HW1 8000   2.077   3.005   6.879
 2367SOL    HW2 8001   2.181   2.925   6.976
 2368SOL     OW 8002   6.323   6.397   3.433
 2368SOL    HW1 8003   6.367   6.405   3.343
 2368SOL    HW2 8004   6.251   6.466   3.441
 2369SOL     OW 8005   2.430   0.267   3.739
 2369SOL    HW1 8006   2.372   0.282   3.659
 2369SOL    HW2 8007   2.522   0.241   3.709
 2370SOL     OW 8008   5.266   2.283   6.735
 2370SOL    HW1 8009   5.352   2.296   6.784
 2370SOL    HW2 8010   5.217   2.369   6.730
 2371SOL     OW 8011   2.738   6.845   1.957
 2371SOL    HW1 8012   2.717   6.750   1.935
 2371SOL    HW2 8013   2.735   6.858   2.056
 2372SOL     OW 8014   6.440   3.293   2.314
 2372SOL    HW1 8015   6.452   3.364   2.384
 2372SOL    HW2 8016   6.485   3.323   2.230
 2373SOL     OW 8017   2.112   3.619   6.479
 2373SOL    HW1 8018   2.134   3.545   6.543
 2373SOL    HW2 8019   2.029   3.666   6.509
 2374SOL     OW 8020   6.107   2.467   4.530
 2374SOL    HW1 8021   6.089   2.403   4.605
 2374SOL    HW2 8022   6.206   2.473   4.515
 2375SOL     OW 8023   3.576   5.558   4.801
 2375SOL    HW1 8024   3.593   5.461   4.819
 2375SOL    HW2 8025   3.592   5.577   4.705
 2376SOL     OW 8026   6.399   3.021   4.632
 2376SOL    HW1 8027   6.486   2.990   4.670
 2376SOL    HW2 8028   6.328   3.013   4.702
 2377SOL     OW 8029   3.035   3.242   3.928
 2377SOL    HW1 8030   3.048   3.198   3.838
 2377SOL    HW2 8031   3.001   3.335   3.915
 2378SOL     OW 8032   5.235   2.914   6.271
 2378SOL    HW1 8033   5.296   2.861   6.331
 2378SOL    HW2 8034   5.211   2.859   6.191
 2379SOL     OW 8035   6.383   0.251   0.706
 2379SOL    HW1 8036   6.390   0.174   0.642
 2379SOL    HW2 8037   6.398   0.217   0.799
 2380SOL     OW 8038   6.408   2.316   1.495
 2380SOL    HW1 8039   6.508   2.326   1.498
 2380SOL    HW2 8040   6.383   2.224   1.525
 2381SOL     OW 8041   1.544   6.329   3.264
 2381SOL    HW1 8042   1.535   6.361   3.358
 2381SOL    HW2 8043   1.519   6.233   3.258
 2382SOL     OW 8044   2.132   3.222   5.086
 2382SOL    HW1 8045   2.080   3.244   5.004
 2382SOL    HW2 8046   2.213   3.169   5.061
 2383SOL     OW 8047   6.176   5.975   1.262
 2383SOL    HW1 8048   6.099   5.977   1.327
 2383SOL    HW2 8049   6.148   5.928   1.179
 2384SOL     OW 8050   4.668   1.897   1.650
 2384SOL    HW1 8051   4.669   1.993   1.622
 2384SOL    HW2 8052   4.574   1.871   1.674
 2385SOL     OW 8053   0.555   2.027   6.454
 2385SOL    HW1 8054   0.495   2.105   6.475
 2385SOL    HW2 8055   0.648   2.059   6.438
 2386SOL     OW 8056   5.073   5.583   3.987
 2386SOL    HW1 8057   5.117   5.652   3.929
 2386SOL    HW2 8058   5.134   5.560   4.063
 2387SOL     OW 8059   1.673   1.373   4.031
 2387SOL    HW1 8060   1.671   1.435   3.953
 2387SOL    HW2 8061   1.703   1.423   4.113
 2388SOL     OW 8062   6.425   2.363   4.160
 2388SOL    HW1 8063   6.378   2.287   4.204
 2388SOL    HW2 8064   6.382   2.450   4.186
 2389SOL     OW 8065   4.059   5.095   3.130
 2389SOL    HW1 8066   4.152   5.075   3.160
 2389SOL    HW2 8067   4.052   5.193   3.109
 2390SOL     OW 8068   3.308   4.091   1.810
 2390SOL    HW1 8069   3.317   3.992   1.805
 2390SOL    HW2 8070   3.363   4.126   1.885
 2391SOL     OW 8071   4.542   5.281   5.605
 2391SOL    HW1 8072   4.508   5.225   5.681
 2391SOL    HW2 8073   4.487   5.364   5.598
 2392SOL     OW 8074   3.600   0.750   6.989
 2392SOL    HW1 8075   3.519   0.792   6.948
 2392SOL    HW2 8076   3.658   0.821   0.000
 2393SOL     OW 8077   4.392   4.681   5.945
 2393SOL    HW1 8078   4.489   4.661   5.955
 2393SOL    HW2 8079   4.379   4.776   5.918
 2394SOL     OW 8080   0.833   4.198   4.999
 2394SOL    HW1 8081   0.809   4.101   4.991
 2394SOL    HW2 8082   0.768   4.244   5.059
 2395SOL     OW 8083   3.752   6.714   5.924
 2395SOL    HW1 8084   3.743   6.660   6.008
 2395SOL    HW2 8085   3.723   6.808   5.941
 2396SOL     OW 8086   4.280   4.571   0.260
 2396SOL    HW1 8087   4.373   4.607   0.269
 2396SOL    HW2 8088   4.218   4.626   0.316
 2397SOL     OW 8089   0.488   3.821   4.966
 2397SOL    HW1 8090   0.446   3.730   4.976
 2397SOL    HW2 8091   0.440   3.887   5.024
 2398SOL     OW 8092   4.341   4.668   5.564
 2398SOL    HW1 8093   4.428   4.705   5.597
 2398SOL    HW2 8094   4.273   4.673   5.637
 2399SOL     OW 8095   4.531   2.179   1.566
 2399SOL    HW1 8096   4.525   2.183   1.466
 2399SOL    HW2 8097   4.509   2.269   1.604
 2400SOL     OW 8098   2.488   5.260   1.068
 2400SOL    HW1 8099   2.488   5.349   1.022
 2400SOL    HW2 8100   2.425   5.262   1.146
 2401SOL     OW 8101   6.537   6.507   5.841
 2401SOL    HW1 8102   6.566   6.481   5.748
 2401SOL    HW2 8103   6.452   6.559   5.836
 2402SOL     OW 8104   6.927   7.005   4.346
 2402SOL    HW1 8105   6.970   0.051   4.296
 2402SOL    HW2 8106   6.886   6.940   4.282
 2403SOL     OW 8107   0.759   2.025   5.383
 2403SOL    HW1 8108   0.701   2.042   5.304
 2403SOL    HW2 8109   0.800   2.110   5.414
 2404SOL     OW 8110   1.499   0.526   0.680
 2404SOL    HW1 8111   1.487   0.442   0.732
 2404SOL    HW2 8112   1.422   0.538   0.618
 2405SOL     OW 8113   3.021   3.742   1.636
 2405SOL    HW1 8114   2.922   3.753   1.640
 2405SOL    HW2 8115   3.048   3.713   1.545
 2406SOL     OW 8116   4.785   1.579   0.662
 2406SOL    HW1 8117   4.716   1.588   0.734
 2406SOL    HW2 8118   4.808   1.669   0.626
 2407SOL     OW 8119   5.454   0.968   3.325
 2407SOL    HW1 8120   5.487   0.883   3.365
 2407SOL    HW2 8121   5.448   0.960   3.226
 2408SOL     OW 8122   4.691   4.274   2.127
 2408SOL    HW1 8123   4.717   4.179   2.112
 2408SOL    HW2 8124   4.615   4.298   2.068
 2409SOL     OW 8125   1.849   4.075   0.345
 2409SOL    HW1 8126   1.924   4.009   0.338
 2409SOL    HW2 8127   1.766   4.035   0.306
 2410SOL     OW 8128   4.108   3.167   2.674
 2410SOL    HW1 8129   4.072   3.185   2.765
 2410SOL    HW2 8130   4.152   3.077   2.672
 2411SOL     OW 8131   5.578   0.115   4.405
 2411SOL    HW1 8132   5.527   0.114   4.319
 2411SOL    HW2 8133   5.540   0.046   4.467
 2412SOL     OW 8134   4.856   3.432   1.081
 2412SOL    HW1 8135   4.954   3.411   1.082
 2412SOL    HW2 8136   4.817   3.410   0.992
 2413SOL     OW 8137   4.990   0.371   2.139
 2413SOL    HW1 8138   5.017   0.452   2.191
 2413SOL    HW2 8139   4.891   0.357   2.148
 2414SOL     OW 8140   5.391   3.122   4.119
 2414SOL    HW1 8141   5.410   3.134   4.022
 2414SOL    HW2 8142   5.380   3.024   4.139
 2415SOL     OW 8143   4.933   1.400   3.693
 2415SOL    HW1 8144   4.838   1.393   3.662
 2415SOL    HW2 8145   4.939   1.364   3.786
 2416SOL     OW 8146   4.905   1.737   5.682
 2416SOL    HW1 8147   4.853   1.661   5.722
 2416SOL    HW2 8148   4.842   1.809   5.653
 2417SOL     OW 8149   2.947   3.290   4.185
 2417SOL    HW1 8150   2.864   3.245   4.219
 2417SOL    HW2 8151   2.967   3.257   4.093
 2418SOL     OW 8152   4.079   3.246   3.194
 2418SOL    HW1 8153   4.076   3.311   3.119
 2418SOL    HW2 8154   4.084   3.153   3.158
 2419SOL     OW 8155   0.419   0.109   2.990
 2419SOL    HW1 8156   0.437   0.178   2.920
 2419SOL    HW2 8157   0.359   0.038   2.952
 2420SOL     OW 8158   2.248   0.118   1.900
 2420SOL    HW1 8159   2.300   0.200   1.873
 2420SOL    HW2 8160   2.264   0.100   1.997
 2421SOL     OW 8161   2.850   2.273   3.869
 2421SOL    HW1 8162   2.910   2.349   3.896
 2421SOL    HW2 8163   2.754   2.302   3.876
 2422SOL     OW 8164   4.629   1.720   0.983
 2422SOL    HW1 8165   4.700   1.759   0.925
 2422SOL    HW2 8166   4.598   1.789   1.049
 2423SOL     OW 8167   2.366   5.650   2.791
 2423SOL    HW1 8168   2.443   5.640   2.854
 2423SOL    HW2 8169   2.327   5.559   2.772
 2424SOL     OW 8170   5.392   0.523   1.189
 2424SOL    HW1 8171   5.407   0.424   1.188
 2424SOL    HW2 8172   5.428   0.563   1.105
 2425SOL     OW 8173   6.404   6.612   4.397
 2425SOL    HW1 8174   6.479   6.590   4.334
 2425SOL    HW2 8175   6.324   6.556   4.373
 2426SOL     OW 8176   2.598   5.135   4.128
 2426SOL    HW1 8177   2.656   5.057   4.152
 2426SOL    HW2 8178   2.564   5.178   4.212
 2427SOL     OW 8179   6.421   0.188   5.352
 2427SOL    HW1 8180   6.371   0.102   5.349
 2427SOL    HW2 8181   6.490   0.184   5.425
 2428SOL     OW 8182   6.444   0.698   0.768
 2428SOL    HW1 8183   6.463   0.610   0.723
 2428SOL    HW2 8184   6.528   0.752   0.773
 2429SOL     OW 8185   4.882   5.712   2.106
 2429SOL    HW1 8186   4.800   5.705   2.049
 2429SOL    HW2 8187   4.945   5.777   2.065
 2430SOL     OW 8188   5.617   1.062   2.443
 2430SOL    HW1 8189   5.703   1.097   2.405
 2430SOL    HW2 8190   5.553   1.137   2.458
 2431SOL     OW 8191   4.085   0.581   2.187
 2431SOL    HW1 8192   3.999   0.536   2.162
 2431SOL    HW2 8193   4.065   0.660   2.245
 2432SOL     OW 8194   2.153   6.210   2.400
 2432SOL    HW1 8195   2.066   6.169   2.428
 2432SOL    HW2 8196   2.140   6.265   2.318
 2433SOL     OW 8197   3.765   6.961   0.045
 2433SOL    HW1 8198   3.709   7.025   0.098
 2433SOL    HW2 8199   3.797   7.006   6.990
 2434SOL     OW 8200   3.939   3.284   5.849
 2434SOL    HW1 8201   3.896   3.364   5.892
 2434SOL    HW2 8202   3.946   3.210   5.917
 2435SOL     OW 8203   5.722   5.673   5.197
 2435SOL    HW1 8204   5.819   5.698   5.188
 2435SOL    HW2 8205   5.701   5.599   5.132
 2436SOL     OW 8206   2.942   5.636   0.254
 2436SOL    HW1 8207   2.988   5.640   0.342
 2436SOL    HW2 8208   2.881   5.557   0.251
 2437SOL     OW 8209   6.767   0.293   6.174
 2437SOL    HW1 8210   6.679   0.249   6.159
 2437SOL    HW2 8211   6.797   0.275   6.268
 2438SOL     OW 8212   2.833   2.954   0.952
 2438SOL    HW1 8213   2.907   3.005   0.910
 2438SOL    HW2 8214   2.781   3.014   1.012
 2439SOL     OW 8215   6.073   4.570   4.738
 2439SOL    HW1 8216   6.111   4.532   4.822
 2439SOL    HW2 8217   6.057   4.668   4.750
 2440SOL     OW 8218   6.140   5.058   6.231
 2440SOL    HW1 8219   6.100   4.968   6.247
 2440SOL    HW2 8220   6.223   5.049   6.176
 2441SOL     OW 8221   6.086   2.117   0.954
 2441SOL    HW1 8222   6.030   2.187   0.997
 2441SOL    HW2 8223   6.155   2.085   1.019
 2442SOL     OW 8224   6.935   3.569   5.091
 2442SOL    HW1 8225   6.938   3.543   5.187
 2442SOL    HW2 8226   7.002   3.514   5.040
 2443SOL     OW 8227   2.721   4.908   5.691
 2443SOL    HW1 8228   2.766   4.819   5.683
 2443SOL    HW2 8229   2.704   4.945   5.600
 2444SOL     OW 8230   3.185   3.283   5.460
 2444SOL    HW1 8231   3.100   3.270   5.510
 2444SOL    HW2 8232   3.231   3.366   5.492
 2445SOL     OW 8233   0.824   0.316   0.669
 2445SOL    HW1 8234   0.917   0.301   0.703
 2445SOL    HW2 8235   0.782   0.228   0.647
 2446SOL     OW 8236   5.333   3.663   6.224
 2446SOL    HW1 8237   5.384   3.584   6.190
 2446SOL    HW2 8238   5.298   3.716   6.146
 2447SOL     OW 8239   0.392   2.772   6.572
 2447SOL    HW1 8240   0.340   2.786   6.657
 2447SOL    HW2 8241   0.379   2.851   6.512
 2448SOL     OW 8242   0.396   0.641   4.424
 2448SOL    HW1 8243   0.319   0.642   4.489
 2448SOL    HW2 8244   0.477   0.604   4.469
 2449SOL     OW 8245   0.616   2.839   4.716
 2449SOL    HW1 8246   0.667   2.818   4.800
 2449SOL    HW2 8247   0.679   2.836   4.638
 2450SOL     OW 8248   1.172   3.537   1.931
 2450SOL    HW1 8249   1.261   3.546   1.975
 2450SOL    HW2 8250   1.108   3.601   1.973
 2451SOL     OW 8251   2.772   6.428   4.823
 2451SOL    HW1 8252   2.690   6.428   4.880
 2451SOL    HW2 8253   2.761   6.365   4.747
 2452SOL     OW 8254   2.156   2.068   4.267
 2452SOL    HW1 8255   2.160   2.166   4.245
 2452SOL    HW2 8256   2.240   2.024   4.237
 2453SOL     OW 8257   0.255   3.635   1.566
 2453SOL    HW1 8258   0.344   3.679   1.559
 2453SOL    HW2 8259   0.228   3.628   1.662
 2454SOL     OW 8260   2.154   7.000   1.674
 2454SOL    HW1 8261   2.184   0.004   1.764
 2454SOL    HW2 8262   2.058   6.972   1.680
 2455SOL     OW 8263   5.068   3.877   1.149
 2455SOL    HW1 8264   5.021   3.791   1.129
 2455SOL    HW2 8265   5.152   3.883   1.096
 2456SOL     OW 8266   2.855   6.945   1.229
 2456SOL    HW1 8267   2.777   6.993   1.188
 2456SOL    HW2 8268   2.830   6.910   1.319
 2457SOL     OW 8269   6.006   6.002   1.494
 2457SOL    HW1 8270   6.072   6.036   1.561
 2457SOL    HW2 8271   5.915   6.038   1.516
 2458SOL     OW 8272   0.557   5.617   2.910
 2458SOL    HW1 8273   0.479   5.668   2.874
 2458SOL    HW2 8274   0.631   5.681   2.932
 2459SOL     OW 8275   0.807   1.254   0.474
 2459SOL    HW1 8276   0.886   1.294   0.426
 2459SOL    HW2 8277   0.825   1.158   0.494
 2460SOL     OW 8278   3.270   5.029   1.215
 2460SOL    HW1 8279   3.313   4.963   1.276
 2460SOL    HW2 8280   3.239   5.108   1.267
 2461SOL     OW 8281   5.195   1.072   3.531
 2461SOL    HW1 8282   5.103   1.105   3.509
 2461SOL    HW2 8283   5.263   1.129   3.485
 2462SOL     OW 8284   2.881   4.415   6.269
 2462SOL    HW1 8285   2.951   4.380   6.332
 2462SOL    HW2 8286   2.918   4.417   6.176
 2463SOL     OW 8287   7.017   2.222   4.310
 2463SOL    HW1 8288   0.046   2.217   4.228
 2463SOL    HW2 8289   0.039   2.265   4.384
 2464SOL     OW 8290   1.426   3.711   0.949
 2464SOL    HW1 8291   1.499   3.673   1.006
 2464SOL    HW2 8292   1.465   3.776   0.883
 2465SOL     OW 8293   5.680   5.304   2.498
 2465SOL    HW1 8294   5.646   5.221   2.543
 2465SOL    HW2 8295   5.609   5.374   2.499
 2466SOL     OW 8296   3.523   1.541   1.747
 2466SOL    HW1 8297   3.586   1.509   1.676
 2466SOL    HW2 8298   3.575   1.576   1.825
 2467SOL     OW 8299   6.872   1.493   5.120
 2467SOL    HW1 8300   6.829   1.502   5.210
 2467SOL    HW2 8301   6.967   1.523   5.125
 2468SOL     OW 8302   6.697   3.906   0.531
 2468SOL    HW1 8303   6.663   3.998   0.510
 2468SOL    HW2 8304   6.785   3.892   0.486
 2469SOL     OW 8305   3.085   2.851   5.617
 2469SOL    HW1 8306   3.073   2.884   5.711
 2469SOL    HW2 8307   3.155   2.905   5.572
 2470SOL     OW 8308   5.729   2.678   0.713
 2470SOL    HW1 8309   5.644   2.663   0.764
 2470SOL    HW2 8310   5.709   2.678   0.615
 2471SOL     OW 8311   0.293   1.076   3.618
 2471SOL    HW1 8312   0.311   1.020   3.699
 2471SOL    HW2 8313   0.222   1.033   3.563
 2472SOL     OW 8314   5.730   1.531   3.783
 2472SOL    HW1 8315   5.723   1.620   3.739
 2472SOL    HW2 8316   5.650   1.476   3.759
 2473SOL     OW 8317   0.521   6.502   5.154
 2473SOL    HW1 8318   0.583   6.580   5.160
 2473SOL    HW2 8319   0.573   6.419   5.134
 2474SOL     OW 8320   5.967   6.250   4.384
 2474SOL    HW1 8321   5.975   6.150   4.374
 2474SOL    HW2 8322   6.038   6.282   4.447
 2475SOL     OW 8323   4.640   2.216   5.960
 2475SOL    HW1 8324   4.544   2.186   5.960
 2475SOL    HW2 8325   4.671   2.227   6.054
 2476SOL     OW 8326   0.353   1.830   3.539
 2476SOL    HW1 8327   0.442   1.786   3.550
 2476SOL    HW2 8328   0.284   1.760   3.518
 2477SOL     OW 8329   4.496   4.831   2.131
 2477SOL    HW1 8330   4.554   4.885   2.070
 2477SOL    HW2 8331   4.524   4.736   2.128
 2478SOL     OW 8332   7.026   0.021   3.221
 2478SOL    HW1 8333   0.006   0.071   3.307
 2478SOL    HW2 8334   0.006   0.086   3.145
 2479SOL     OW 8335   0.287   2.066   6.929
 2479SOL    HW1 8336   0.281   2.070   7.028
 2479SOL    HW2 8337   0.196   2.075   6.889
 2480SOL     OW 8338   0.377   5.138   2.326
 2480SOL    HW1 8339   0.396   5.233   2.302
 2480SOL    HW2 8340   0.377   5.082   2.243
 2481SOL     OW 8341   3.883   4.939   2.251
 2481SOL    HW1 8342   3.923   5.029   2.233
 2481SOL    HW2 8343   3.786   4.940   2.226
 2482SOL     OW 8344   4.772   2.689   3.977
 2482SOL    HW1 8345   4.802   2.784   3.988
 2482SOL    HW2 8346   4.700   2.670   4.043
 2483SOL     OW 8347   0.364   2.929   6.859
 2483SOL    HW1 8348   0.360   2.977   6.947
 2483SOL    HW2 8349   0.453   2.884   6.849
 2484SOL     OW 8350   3.876   3.481   6.448
 2484SOL    HW1 8351   3.956   3.537   6.427
 2484SOL    HW2 8352   3.837   3.510   6.536
 2485SOL     OW 8353   0.239   6.206   0.574
 2485SOL    HW1 8354   0.310   6.270   0.601
 2485SOL    HW2 8355   0.182   6.183   0.654
 2486SOL     OW 8356   0.605   4.972   3.865
 2486SOL    HW1 8357   0.516   4.930   3.844
 2486SOL    HW2 8358   0.629   4.953   3.960
 2487SOL     OW 8359   3.245   1.531   1.774
 2487SOL    HW1 8360   3.342   1.525   1.751
 2487SOL    HW2 8361   3.231   1.609   1.835
 2488SOL     OW 8362   2.873   6.142   6.439
 2488SOL    HW1 8363   2.877   6.232   6.482
 2488SOL    HW2 8364   2.926   6.144   6.354
 2489SOL     OW 8365   6.840   5.704   4.170
 2489SOL    HW1 8366   6.843   5.799   4.139
 2489SOL    HW2 8367   6.933   5.666   4.168
 2490SOL     OW 8368   5.181   3.190   1.689
 2490SOL    HW1 8369   5.223   3.249   1.758
 2490SOL    HW2 8370   5.216   3.214   1.599
 2491SOL     OW 8371   6.939   4.468   2.770
 2491SOL    HW1 8372   6.866   4.501   2.711
 2491SOL    HW2 8373   6.977   4.383   2.732
 2492SOL     OW 8374   4.026   1.545   6.181
 2492SOL    HW1 8375   4.081   1.586   6.109
 2492SOL    HW2 8376   3.987   1.459   6.147
 2493SOL     OW 8377   6.677   1.545   4.900
 2493SOL    HW1 8378   6.580   1.549   4.877
 2493SOL    HW2 8379   6.688   1.533   4.999
 2494SOL     OW 8380   4.401   4.494   0.731
 2494SOL    HW1 8381   4.472   4.550   0.773
 2494SOL    HW2 8382   4.426   4.398   0.738
 2495SOL     OW 8383   6.748   0.939   3.025
 2495SOL    HW1 8384   6.679   0.903   2.962
 2495SOL    HW2 8385   6.794   0.863   3.070
 2496SOL     OW 8386   1.536   5.510   0.011
 2496SOL    HW1 8387   1.553   5.434   6.977
 2496SOL    HW2 8388   1.545   5.597   6.991
 2497SOL     OW 8389   5.590   0.378   0.001
 2497SOL    HW1 8390   5.622   0.348   0.091
 2497SOL    HW2 8391   5.668   0.407   6.975
 2498SOL     OW 8392   0.765   2.768   4.940
 2498SOL    HW1 8393   0.739   2.814   5.026
 2498SOL    HW2 8394   0.738   2.672   4.944
 2499SOL     OW 8395   5.233   0.726   0.088
 2499SOL    HW1 8396   5.155   0.759   0.142
 2499SOL    HW2 8397   5.270   0.802   0.034
 2500SOL     OW 8398   4.005   4.069   6.553
 2500SOL    HW1 8399   4.053   4.136   6.497
 2500SOL    HW2 8400   3.908   4.069   6.530
 2501SOL     OW 8401   6.192   4.610   1.026
 2501SOL    HW1 8402   6.262   4.604   0.955
 2501SOL    HW2 8403   6.234   4.590   1.115
 2502SOL     OW 8404   0.509   6.820   3.234
 2502SOL    HW1 8405   0.422   6.863   3.212
 2502SOL    HW2 8406   0.563   6.880   3.293
 2503SOL     OW 8407   5.407   0.100   4.179
 2503SOL    HW1 8408   5.416   0.093   4.080
 2503SOL    HW2 8409   5.335   0.039   4.211
 2504SOL     OW 8410   2.159   4.030   3.114
 2504SOL    HW1 8411   2.189   4.125   3.119
 2504SOL    HW2 8412   2.192   3.989   3.029
 2505SOL     OW 8413   5.141   3.980   4.570
 2505SOL    HW1 8414   5.191   4.009   4.489
 2505SOL    HW2 8415   5.182   3.896   4.607
 2506SOL     OW 8416   0.878   1.281   0.725
 2506SOL    HW1 8417   0.838   1.371   0.743
 2506SOL    HW2 8418   0.858   1.255   0.630
 2507SOL     OW 8419   6.619   6.552   6.859
 2507SOL    HW1 8420   6.520   6.547   6.842
 2507SOL    HW2 8421   6.658   6.460   6.854
 2508SOL     OW 8422   2.407   2.361   1.699
 2508SOL    HW1 8423   2.440   2.440   1.647
 2508SOL    HW2 8424   2.475   2.288   1.697
 2509SOL     OW 8425   5.560   1.418   3.340
 2509SOL    HW1 8426   5.632   1.473   3.382
 2509SOL    HW2 8427   5.537   1.455   3.250
 2510SOL     OW 8428   3.972   5.773   2.388
 2510SOL    HW1 8429   3.945   5.694   2.333
 2510SOL    HW2 8430   4.066   5.762   2.418
 2511SOL     OW 8431   1.215   6.864   3.139
 2511SOL    HW1 8432   1.191   6.773   3.107
 2511SOL    HW2 8433   1.133   6.922   3.138
 2512SOL     OW 8434   5.821   3.262   4.122
 2512SOL    HW1 8435   5.753   3.316   4.072
 2512SOL    HW2 8436   5.787   3.241   4.214
 2513SOL     OW 8437   0.296   4.483   1.164
 2513SOL    HW1 8438   0.356   4.472   1.085
 2513SOL    HW2 8439   0.211   4.528   1.136
 2514SOL     OW 8440   0.228   2.706   3.710
 2514SOL    HW1 8441   0.275   2.773   3.653
 2514SOL    HW2 8442   0.228   2.617   3.663
 2515SOL     OW 8443   1.233   4.574   0.140
 2515SOL    HW1 8444   1.218   4.613   0.230
 2515SOL    HW2 8445   1.331   4.573   0.119
 2516SOL     OW 8446   5.008   6.564   3.992
 2516SOL    HW1 8447   5.028   6.632   3.922
 2516SOL    HW2 8448   4.915   6.578   4.027
 2517SOL     OW 8449   1.930   5.459   0.972
 2517SOL    HW1 8450   2.023   5.443   1.005
 2517SOL    HW2 8451   1.886   5.371   0.954
 2518SOL     OW 8452   2.029   3.054   6.716
 2518SOL    HW1 8453   1.996   2.994   6.642
 2518SOL    HW2 8454   1.995   3.147   6.701
 2519SOL     OW 8455   5.967   4.196   5.249
 2519SOL    HW1 8456   6.009   4.278   5.211
 2519SOL    HW2 8457   5.958   4.126   5.178
 2520SOL     OW 8458   3.486   5.541   1.963
 2520SOL    HW1 8459   3.415   5.606   1.936
 2520SOL    HW2 8460   3.464   5.451   1.928
 2521SOL     OW 8461   5.606   6.740   6.041
 2521SOL    HW1 8462   5.525   6.683   6.055
 2521SOL    HW2 8463   5.623   6.795   6.123
 2522SOL     OW 8464   2.719   4.734   4.447
 2522SOL    HW1 8465   2.645   4.787   4.487
 2522SOL    HW2 8466   2.743   4.659   4.509
 2523SOL     OW 8467   0.882   2.267   5.491
 2523SOL    HW1 8468   0.948   2.194   5.506
 2523SOL    HW2 8469   0.826   2.279   5.572
 2524SOL     OW 8470   1.547   0.073   4.621
 2524SOL    HW1 8471   1.542   0.041   4.715
 2524SOL    HW2 8472   1.608   0.152   4.616
 2525SOL     OW 8473   2.562   4.735   2.600
 2525SOL    HW1 8474   2.640   4.759   2.543
 2525SOL    HW2 8475   2.521   4.650   2.566
 2526SOL     OW 8476   2.067   2.215   4.757
 2526SOL    HW1 8477   2.004   2.293   4.760
 2526SOL    HW2 8478   2.110   2.210   4.666
 2527SOL     OW 8479   6.670   0.234   4.131
 2527SOL    HW1 8480   6.597   0.168   4.113
 2527SOL    HW2 8481   6.645   0.323   4.093
 2528SOL     OW 8482   5.894   5.204   0.107
 2528SOL    HW1 8483   5.867   5.271   0.037
 2528SOL    HW2 8484   5.987   5.224   0.137
 2529SOL     OW 8485   5.069   4.026   5.355
 2529SOL    HW1 8486   5.105   3.935   5.336
 2529SOL    HW2 8487   4.989   4.044   5.299
 2530SOL     OW 8488   1.199   6.233   3.503
 2530SOL    HW1 8489   1.159   6.320   3.473
 2530SOL    HW2 8490   1.173   6.161   3.439
 2531SOL     OW 8491   5.103   1.166   6.949
 2531SOL    HW1 8492   5.130   1.197   0.011
 2531SOL    HW2 8493   5.023   1.107   6.956
 2532SOL     OW 8494   0.825   4.846   5.862
 2532SOL    HW1 8495   0.745   4.820   5.808
 2532SOL    HW2 8496   0.895   4.775   5.853
 2533SOL     OW 8497   5.729   0.043   5.492
 2533SOL    HW1 8498   5.761   6.995   5.437
 2533SOL    HW2 8499   5.793   0.120   5.483
 2534SOL     OW 8500   0.009   1.974   3.080
 2534SOL    HW1 8501   0.020   2.009   3.173
 2534SOL    HW2 8502   0.085   2.008   3.024
 2535SOL     OW 8503   2.536   1.091   2.827
 2535SOL    HW1 8504   2.449   1.140   2.826
 2535SOL    HW2 8505   2.582   1.105   2.915
 2536SOL     OW 8506   0.458   0.868   4.290
 2536SOL    HW1 8507   0.393   0.940   4.312
 2536SOL    HW2 8508   0.443   0.790   4.352
 2537SOL     OW 8509   3.990   6.378   2.171
 2537SOL    HW1 8510   4.040   6.298   2.137
 2537SOL    HW2 8511   4.007   6.388   2.269
 2538SOL     OW 8512   0.617   4.547   4.971
 2538SOL    HW1 8513   0.701   4.596   4.996
 2538SOL    HW2 8514   0.548   4.613   4.941
 2539SOL     OW 8515   2.178   0.589   5.320
 2539SOL    HW1 8516   2.132   0.563   5.236
 2539SOL    HW2 8517   2.126   0.556   5.399
 2540SOL     OW 8518   5.199   2.041   2.375
 2540SOL    HW1 8519   5.195   2.119   2.313
 2540SOL    HW2 8520   5.119   1.983   2.362
 2541SOL     OW 8521   1.052   1.765   5.986
 2541SOL    HW1 8522   0.954   1.780   5.996
 2541SOL    HW2 8523   1.089   1.827   5.917
 2542SOL     OW 8524   4.093   2.136   3.745
 2542SOL    HW1 8525   4.029   2.121   3.820
 2542SOL    HW2 8526   4.151   2.214   3.766
 2543SOL     OW 8527   6.820   1.732   4.744
 2543SOL    HW1 8528   6.912   1.725   4.780
 2543SOL    HW2 8529   6.763   1.659   4.782
 2544SOL     OW 8530   6.913   6.356   2.020
 2544SOL    HW1 8531   6.991   6.337   2.079
 2544SOL    HW2 8532   6.946   6.392   1.933
 2545SOL     OW 8533   6.789   1.665   0.263
 2545SOL    HW1 8534   6.775   1.692   0.358
 2545SOL    HW2 8535   6.732   1.586   0.242
 2546SOL     OW 8536   6.176   3.182   2.440
 2546SOL    HW1 8537   6.258   3.219   2.397
 2546SOL    HW2 8538   6.097   3.200   2.382
 2547SOL     OW 8539   5.681   4.190   1.183
 2547SOL    HW1 8540   5.643   4.270   1.229
 2547SOL    HW2 8541   5.686   4.114   1.247
 2548SOL     OW 8542   6.347   0.880   5.687
 2548SOL    HW1 8543   6.273   0.932   5.730
 2548SOL    HW2 8544   6.435   0.914   5.721
 2549SOL     OW 8545   2.622   5.197   0.813
 2549SOL    HW1 8546   2.551   5.149   0.762
 2549SOL    HW2 8547   2.586   5.225   0.902
 2550SOL     OW 8548   3.905   6.542   0.844
 2550SOL    HW1 8549   3.826   6.592   0.806
 2550SOL    HW2 8550   3.989   6.578   0.804
 2551SOL     OW 8551   3.458   4.780   1.126
 2551SOL    HW1 8552   3.469   4.824   1.215
 2551SOL    HW2 8553   3.405   4.839   1.065
 2552SOL     OW 8554   2.335   4.143   1.820
 2552SOL    HW1 8555   2.347   4.208   1.895
 2552SOL    HW2 8556   2.315   4.052   1.857
 2553SOL     OW 8557   4.798   1.217   0.040
 2553SOL    HW1 8558   4.814   1.127   7.028
 2553SOL    HW2 8559   4.703   1.244   0.024
 2554SOL     OW 8560   1.032   5.521   1.247
 2554SOL    HW1 8561   1.035   5.462   1.327
 2554SOL    HW2 8562   1.112   5.504   1.189
 2555SOL     OW 8563   0.272   6.625   5.150
 2555SOL    HW1 8564   0.362   6.585   5.168
 2555SOL    HW2 8565   0.217   6.623   5.233
 2556SOL     OW 8566   4.490   0.115   1.104
 2556SOL    HW1 8567   4.427   0.191   1.119
 2556SOL    HW2 8568   4.445   0.043   1.052
 2557SOL     OW 8569   2.901   1.108   6.890
 2557SOL    HW1 8570   2.922   1.021   6.846
 2557SOL    HW2 8571   2.876   1.176   6.820
 2558SOL     OW 8572   5.335   1.795   1.535
 2558SOL    HW1 8573   5.246   1.761   1.507
 2558SOL    HW2 8574   5.403   1.771   1.465
 2559SOL     OW 8575   6.967   5.568   3.057
 2559SOL    HW1 8576   0.032   5.602   3.058
 2559SOL    HW2 8577   6.960   5.489   3.119
 2560SOL     OW 8578   4.585   2.508   1.965
 2560SOL    HW1 8579   4.498   2.460   1.982
 2560SOL    HW2 8580   4.635   2.517   2.052
 2561SOL     OW 8581   3.133   0.133   4.520
 2561SOL    HW1 8582   3.087   0.162   4.604
 2561SOL    HW2 8583   3.108   0.195   4.445
 2562SOL     OW 8584   1.640   6.394   5.296
 2562SOL    HW1 8585   1.590   6.320   5.340
 2562SOL    HW2 8586   1.733   6.364   5.275
 2563SOL     OW 8587   3.633   2.948   6.608
 2563SOL    HW1 8588   3.659   2.940   6.511
 2563SOL    HW2 8589   3.688   3.021   6.651
 2564SOL     OW 8590   1.615   1.900   0.223
 2564SOL    HW1 8591   1.715   1.900   0.223
 2564SOL    HW2 8592   1.582   1.818   0.175
 2565SOL     OW 8593   0.658   0.914   0.812
 2565SOL    HW1 8594   0.700   0.835   0.767
 2565SOL    HW2 8595   0.636   0.984   0.744
 2566SOL     OW 8596   2.890   0.901   0.701
 2566SOL    HW1 8597   2.984   0.935   0.690
 2566SOL    HW2 8598   2.840   0.914   0.615
 2567SOL     OW 8599   1.967   0.688   6.548
 2567SOL    HW1 8600   2.031   0.752   6.505
 2567SOL    HW2 8601   1.894   0.665   6.483
 2568SOL     OW 8602   2.156   5.526   1.304
 2568SOL    HW1 8603   2.240   5.500   1.352
 2568SOL    HW2 8604   2.081   5.536   1.370
 2569SOL     OW 8605   1.897   6.400   6.887
 2569SOL    HW1 8606   1.804   6.426   6.860
 2569SOL    HW2 8607   1.944   6.359   6.808
 2570SOL     OW 8608   0.779   6.270   3.853
 2570SOL    HW1 8609   0.850   6.228   3.796
 2570SOL    HW2 8610   0.818   6.292   3.943
 2571SOL     OW 8611   3.170   4.089   2.991
 2571SOL    HW1 8612   3.116   4.168   2.962
 2571SOL    HW2 8613   3.195   4.099   3.087
 2572SOL     OW 8614   2.794   5.154   2.685
 2572SOL    HW1 8615   2.872   5.092   2.692
 2572SOL    HW2 8616   2.714   5.103   2.653
 2573SOL     OW 8617   6.377   0.996   3.387
 2573SOL    HW1 8618   6.322   1.045   3.454
 2573SOL    HW2 8619   6.384   1.050   3.303
 2574SOL     OW 8620   0.518   3.630   2.064
 2574SOL    HW1 8621   0.550   3.538   2.041
 2574SOL    HW2 8622   0.558   3.696   2.001
 2575SOL     OW 8623   4.747   3.499   5.691
 2575SOL    HW1 8624   4.767   3.571   5.625
 2575SOL    HW2 8625   4.740   3.411   5.645
 2576SOL     OW 8626   0.736   0.377   3.639
 2576SOL    HW1 8627   0.744   0.319   3.557
 2576SOL    HW2 8628   0.657   0.437   3.629
 2577SOL     OW 8629   1.895   4.828   1.889
 2577SOL    HW1 8630   1.927   4.923   1.901
 2577SOL    HW2 8631   1.834   4.824   1.810
 2578SOL     OW 8632   4.587   2.238   5.057
 2578SOL    HW1 8633   4.506   2.283   5.021
 2578SOL    HW2 8634   4.563   2.147   5.091
 2579SOL     OW 8635   0.205   1.153   6.373
 2579SOL    HW1 8636   0.172   1.247   6.376
 2579SOL    HW2 8637   0.252   1.132   6.459
 2580SOL     OW 8638   1.697   1.447   5.798
 2580SOL    HW1 8639   1.657   1.524   5.848
 2580SOL    HW2 8640   1.783   1.475   5.757
 2581SOL     OW 8641   6.235   6.282   4.516
 2581SOL    HW1 8642   6.229   6.374   4.476
 2581SOL    HW2 8643   6.226   6.289   4.616
 2582SOL     OW 8644   0.183   4.833   2.567
 2582SOL    HW1 8645   0.262   4.891   2.590
 2582SOL    HW2 8646   0.182   4.817   2.469
 2583SOL     OW 8647   2.708   0.957   6.621
 2583SOL    HW1 8648   2.741   1.047   6.594
 2583SOL    HW2 8649   2.608   0.954   6.610
 2584SOL     OW 8650   4.512   0.426   3.287
 2584SOL    HW1 8651   4.511   0.445   3.386
 2584SOL    HW2 8652   4.478   0.334   3.271
 2585SOL     OW 8653   4.115   1.478   1.964
 2585SOL    HW1 8654   4.201   1.528   1.977
 2585SOL    HW2 8655   4.127   1.408   1.894
 2586SOL     OW 8656   0.108   1.263   4.444
 2586SOL    HW1 8657   0.032   1.220   4.493
 2586SOL    HW2 8658   0.176   1.296   4.509
 2587SOL     OW 8659   6.743   5.229   2.437
 2587SOL    HW1 8660   6.839   5.257   2.439
 2587SOL    HW2 8661   6.717   5.193   2.527
 2588SOL     OW 8662   4.395   0.335   2.370
 2588SOL    HW1 8663   4.408   0.395   2.291
 2588SOL    HW2 8664   4.345   0.383   2.442
 2589SOL     OW 8665   4.699   6.433   1.346
 2589SOL    HW1 8666   4.721   6.374   1.268
 2589SOL    HW2 8667   4.609   6.408   1.383
 2590SOL     OW 8668   3.186   6.332   3.469
 2590SOL    HW1 8669   3.177   6.294   3.562
 2590SOL    HW2 8670   3.270   6.385   3.463
 2591SOL     OW 8671   6.403   0.157   0.986
 2591SOL    HW1 8672   6.343   0.202   1.051
 2591SOL    HW2 8673   6.481   0.116   1.035
 2592SOL     OW 8674   2.998   4.813   1.886
 2592SOL    HW1 8675   2.939   4.734   1.900
 2592SOL    HW2 8676   3.010   4.862   1.972
 2593SOL     OW 8677   3.560   6.773   2.981
 2593SOL    HW1 8678   3.640   6.821   2.944
 2593SOL    HW2 8679   3.501   6.744   2.906
 2594SOL     OW 8680   1.198   5.875   6.665
 2594SOL    HW1 8681   1.253   5.905   6.587
 2594SOL    HW2 8682   1.155   5.788   6.644
 2595SOL     OW 8683   0.004   2.601   4.051
 2595SOL    HW1 8684   0.088   2.550   4.073
 2595SOL    HW2 8685   6.954   2.549   4.082
 2596SOL     OW 8686   3.907   2.113   1.237
 2596SOL    HW1 8687   3.999   2.140   1.209
 2596SOL    HW2 8688   3.852   2.194   1.257
 2597SOL     OW 8689   2.251   2.617   6.738
 2597SOL    HW1 8690   2.256   2.641   6.641
 2597SOL    HW2 8691   2.157   2.592   6.762
 2598SOL     OW 8692   6.474   1.020   2.770
 2598SOL    HW1 8693   6.449   1.080   2.846
 2598SOL    HW2 8694   6.393   1.005   2.713
 2599SOL     OW 8695   4.915   5.951   6.441
 2599SOL    HW1 8696   4.921   5.953   6.341
 2599SOL    HW2 8697   4.848   6.019   6.472
 2600SOL     OW 8698   0.180   2.328   4.128
 2600SOL    HW1 8699   0.160   2.342   4.031
 2600SOL    HW2 8700   0.248   2.256   4.138
 2601SOL     OW 8701   3.759   4.169   5.001
 2601SOL    HW1 8702   3.826   4.201   4.933
 2601SOL    HW2 8703   3.751   4.070   4.996
 2602SOL     OW 8704   6.225   6.094   5.936
 2602SOL    HW1 8705   6.288   6.166   5.907
 2602SOL    HW2 8706   6.275   6.023   5.986
 2603SOL     OW 8707   1.581   2.110   6.766
 2603SOL    HW1 8708   1.630   2.102   6.679
 2603SOL    HW2 8709   1.647   2.111   6.842
 2604SOL     OW 8710   5.884   1.446   1.041
 2604SOL    HW1 8711   5.861   1.462   0.945
 2604SOL    HW2 8712   5.813   1.390   1.083
 2605SOL     OW 8713   6.235   3.378   4.263
 2605SOL    HW1 8714   6.332   3.365   4.284
 2605SOL    HW2 8715   6.207   3.312   4.193
 2606SOL     OW 8716   6.904   4.367   0.952
 2606SOL    HW1 8717   6.897   4.302   1.028
 2606SOL    HW2 8718   6.851   4.334   0.874
 2607SOL     OW 8719   1.098   1.628   4.306
 2607SOL    HW1 8720   1.161   1.664   4.238
 2607SOL    HW2 8721   1.017   1.591   4.260
 2608SOL     OW 8722   4.948   0.199   0.865
 2608SOL    HW1 8723   5.027   0.217   0.807
 2608SOL    HW2 8724   4.964   0.236   0.957
 2609SOL     OW 8725   0.544   3.318   3.587
 2609SOL    HW1 8726   0.506   3.262   3.513
 2609SOL    HW2 8727   0.470   3.349   3.647
 2610SOL     OW 8728   5.517   5.551   4.369
 2610SOL    HW1 8729   5.604   5.519   4.330
 2610SOL    HW2 8730   5.507   5.649   4.351
 2611SOL     OW 8731   2.959   5.377   2.239
 2611SOL    HW1 8732   2.905   5.315   2.182
 2611SOL    HW2 8733   2.990   5.454   2.183
 2612SOL     OW 8734   0.479   6.958   5.269
 2612SOL    HW1 8735   0.556   6.901   5.300
 2612SOL    HW2 8736   0.444   6.923   5.182
 2613SOL     OW 8737   3.746   0.764   0.781
 2613SOL    HW1 8738   3.672   0.699   0.799
 2613SOL    HW2 8739   3.834   0.719   0.793
 2614SOL     OW 8740   6.612   6.163   6.645
 2614SOL    HW1 8741   6.671   6.140   6.568
 2614SOL    HW2 8742   6.519   6.182   6.612
 2615SOL     OW 8743   5.693   4.259   1.690
 2615SOL    HW1 8744   5.690   4.176   1.746
 2615SOL    HW2 8745   5.600   4.283   1.661
 2616SOL     OW 8746   4.125   3.590   1.959
 2616SOL    HW1 8747   4.207   3.533   1.967
 2616SOL    HW2 8748   4.118   3.649   2.040
 2617SOL     OW 8749   2.653   0.052   1.082
 2617SOL    HW1 8750   2.625   0.057   0.986
 2617SOL    HW2 8751   2.652   0.144   1.122
 2618SOL     OW 8752   1.093   0.044   0.438
 2618SOL    HW1 8753   1.181   0.084   0.466
 2618SOL    HW2 8754   1.075   0.067   0.343
 2619SOL     OW 8755   5.983   1.985   1.614
 2619SOL    HW1 8756   5.905   1.976   1.553
 2619SOL    HW2 8757   6.067   1.960   1.566
 2620SOL     OW 8758   1.488   5.373   4.145
 2620SOL    HW1 8759   1.439   5.436   4.206
 2620SOL    HW2 8760   1.425   5.302   4.113
 2621SOL     OW 8761   0.335   5.218   4.096
 2621SOL    HW1 8762   0.249   5.241   4.051
 2621SOL    HW2 8763   0.344   5.118   4.101
 2622SOL     OW 8764   2.450   2.481   5.653
 2622SOL    HW1 8765   2.514   2.487   5.730
 2622SOL    HW2 8766   2.432   2.384   5.634
 2623SOL     OW 8767   3.261   0.334   6.518
 2623SOL    HW1 8768   3.324   0.335   6.596
 2623SOL    HW2 8769   3.244   0.239   6.491
 2624SOL     OW 8770   6.490   1.918   4.135
 2624SOL    HW1 8771   6.562   1.962   4.081
 2624SOL    HW2 8772   6.502   1.818   4.131
 2625SOL     OW 8773   3.858   0.045   6.137
 2625SOL    HW1 8774   3.931   0.019   6.074
 2625SOL    HW2 8775   3.770   0.022   6.097
 2626SOL     OW 8776   2.254   0.172   2.685
 2626SOL    HW1 8777   2.336   0.229   2.682
 2626SOL    HW2 8778   2.245   0.132   2.776
 2627SOL     OW 8779   0.490   1.206   4.940
 2627SOL    HW1 8780   0.391   1.195   4.928
 2627SOL    HW2 8781   0.537   1.157   4.867
 2628SOL     OW 8782   3.830   6.180   6.592
 2628SOL    HW1 8783   3.742   6.223   6.573
 2628SOL    HW2 8784   3.877   6.230   6.665
 2629SOL     OW 8785   2.965   3.787   1.196
 2629SOL    HW1 8786   2.950   3.855   1.268
 2629SOL    HW2 8787   2.911   3.705   1.216
 2630SOL     OW 8788   2.756   2.317   2.402
 2630SOL    HW1 8789   2.701   2.372   2.465
 2630SOL    HW2 8790   2.727   2.221   2.409
 2631SOL     OW 8791   4.112   6.135   4.741
 2631SOL    HW1 8792   4.027   6.117   4.692
 2631SOL    HW2 8793   4.123   6.069   4.815
 2632SOL     OW 8794   4.754   0.887   1.042
 2632SOL    HW1 8795   4.720   0.963   1.098
 2632SOL    HW2 8796   4.818   0.922   0.974
 2633SOL     OW 8797   6.733   2.735   6.848
 2633SOL    HW1 8798   6.675   2.680   6.788
 2633SOL    HW2 8799   6.686   2.820   6.873
 2634SOL     OW 8800   3.187   5.356   1.143
 2634SOL    HW1 8801   3.255   5.330   1.074
 2634SOL    HW2 8802   3.100   5.313   1.122
 2635SOL     OW 8803   6.270   4.789   3.460
 2635SOL    HW1 8804   6.299   4.790   3.364
 2635SOL    HW2 8805   6.233   4.699   3.483
 2636SOL     OW 8806   5.931   6.371   4.934
 2636SOL    HW1 8807   5.972   6.430   5.003
 2636SOL    HW2 8808   5.834   6.393   4.924
 2637SOL     OW 8809   5.349   6.500   2.468
 2637SOL    HW1 8810   5.403   6.498   2.552
 2637SOL    HW2 8811   5.252   6.511   2.491
 2638SOL     OW 8812   5.161   5.677   0.822
 2638SOL    HW1 8813   5.095   5.676   0.746
 2638SOL    HW2 8814   5.208   5.766   0.823
 2639SOL     OW 8815   6.856   6.246   6.277
 2639SOL    HW1 8816   6.879   6.230   6.181
 2639SOL    HW2 8817   6.757   6.262   6.285
 2640SOL     OW 8818   6.394   6.663   6.625
 2640SOL    HW1 8819   6.367   6.758   6.607
 2640SOL    HW2 8820   6.459   6.633   6.556
 2641SOL     OW 8821   6.129   5.310   0.231
 2641SOL    HW1 8822   6.058   5.346   0.292
 2641SOL    HW2 8823   6.170   5.229   0.272
 2642SOL     OW 8824   6.582   0.849   4.211
 2642SOL    HW1 8825   6.484   0.864   4.214
 2642SOL    HW2 8826   6.606   0.804   4.125
 2643SOL     OW 8827   2.345   0.468   2.139
 2643SOL    HW1 8828   2.290   0.539   2.097
 2643SOL    HW2 8829   2.403   0.425   2.070
 2644SOL     OW 8830   0.141   5.814   5.432
 2644SOL    HW1 8831   0.102   5.732   5.473
 2644SOL    HW2 8832   0.076   5.854   5.368
 2645SOL     OW 8833   6.148   5.769   6.138
 2645SOL    HW1 8834   6.184   5.684   6.175
 2645SOL    HW2 8835   6.166   5.773   6.040
 2646SOL     OW 8836   6.102   6.246   0.005
 2646SOL    HW1 8837   6.128   6.150   0.016
 2646SOL    HW2 8838   6.019   6.251   6.978
 2647SOL     OW 8839   3.304   3.277   0.332
 2647SOL    HW1 8840   3.363   3.355   0.356
 2647SOL    HW2 8841   3.350   3.192   0.360
 2648SOL     OW 8842   4.233   1.304   3.543
 2648SOL    HW1 8843   4.216   1.399   3.572
 2648SOL    HW2 8844   4.311   1.267   3.594
 2649SOL     OW 8845   3.328   2.777   5.189
 2649SOL    HW1 8846   3.381   2.803   5.109
 2649SOL    HW2 8847   3.272   2.854   5.219
 2650SOL     OW 8848   6.606   6.886   2.610
 2650SOL    HW1 8849   6.624   6.973   2.656
 2650SOL    HW2 8850   6.519   6.849   2.642
 2651SOL     OW 8851   0.216   7.020   3.574
 2651SOL    HW1 8852   0.121   0.022   3.566
 2651SOL    HW2 8853   0.265   0.015   3.491
 2652SOL     OW 8854   3.411   2.882   3.058
 2652SOL    HW1 8855   3.327   2.931   3.083
 2652SOL    HW2 8856   3.459   2.855   3.141
 2653SOL     OW 8857   6.678   5.369   0.508
 2653SOL    HW1 8858   6.593   5.404   0.470
 2653SOL    HW2 8859   6.660   5.284   0.558
 2654SOL     OW 8860   6.161   1.368   5.917
 2654SOL    HW1 8861   6.249   1.387   5.872
 2654SOL    HW2 8862   6.159   1.412   6.006
 2655SOL     OW 8863   4.698   5.664   4.922
 2655SOL    HW1 8864   4.716   5.575   4.881
 2655SOL    HW2 8865   4.677   5.730   4.850
 2656SOL     OW 8866   5.546   3.438   4.408
 2656SOL    HW1 8867   5.488   3.514   4.436
 2656SOL    HW2 8868   5.501   3.351   4.433
 2657SOL     OW 8869   3.271   2.460   6.040
 2657SOL    HW1 8870   3.187   2.514   6.050
 2657SOL    HW2 8871   3.308   2.440   6.131
 2658SOL     OW 8872   6.035   3.989   5.412
 2658SOL    HW1 8873   6.002   4.071   5.364
 2658SOL    HW2 8874   5.986   3.981   5.500
 2659SOL     OW 8875   6.521   1.644   3.423
 2659SOL    HW1 8876   6.530   1.649   3.324
 2659SOL    HW2 8877   6.425   1.650   3.449
 2660SOL     OW 8878   6.815   2.280   2.681
 2660SOL    HW1 8879   6.760   2.197   2.694
 2660SOL    HW2 8880   6.906   2.267   2.721
 2661SOL     OW 8881   3.671   6.728   2.255
 2661SOL    HW1 8882   3.718   6.644   2.281
 2661SOL    HW2 8883   3.736   6.788   2.208
 2662SOL     OW 8884   3.565   0.735   3.721
 2662SOL    HW1 8885   3.658   0.766   3.700
 2662SOL    HW2 8886   3.500   0.807   3.700
 2663SOL     OW 8887   0.651   4.001   2.929
 2663SOL    HW1 8888   0.719   3.967   2.994
 2663SOL    HW2 8889   0.627   3.928   2.866
 2664SOL     OW 8890   4.201   4.032   1.719
 2664SOL    HW1 8891   4.146   4.098   1.667
 2664SOL    HW2 8892   4.287   4.075   1.747
 2665SOL     OW 8893   4.894   0.530   4.842
 2665SOL    HW1 8894   4.902   0.537   4.743
 2665SOL    HW2 8895   4.985   0.519   4.882
 2666SOL     OW 8896   5.031   6.366   1.877
 2666SOL    HW1 8897   5.054   6.293   1.813
 2666SOL    HW2 8898   4.978   6.436   1.829
 2667SOL     OW 8899   1.606   5.484   3.290
 2667SOL    HW1 8900   1.675   5.435   3.344
 2667SOL    HW2 8901   1.643   5.573   3.263
 2668SOL     OW 8902   6.498   2.358   5.886
 2668SOL    HW1 8903   6.569   2.417   5.847
 2668SOL    HW2 8904   6.523   2.262   5.872
 2669SOL     OW 8905   4.333   5.723   5.361
 2669SOL    HW1 8906   4.363   5.704   5.268
 2669SOL    HW2 8907   4.390   5.795   5.401
 2670SOL     OW 8908   2.171   6.991   5.434
 2670SOL    HW1 8909   2.260   6.979   5.478
 2670SOL    HW2 8910   2.122   0.037   5.478
 2671SOL     OW 8911   3.196   4.595   6.297
 2671SOL    HW1 8912   3.173   4.506   6.336
 2671SOL    HW2 8913   3.283   4.589   6.248
 2672SOL     OW 8914   1.315   4.094   0.213
 2672SOL    HW1 8915   1.387   4.162   0.210
 2672SOL    HW2 8916   1.249   4.112   0.140
 2673SOL     OW 8917   4.240   2.337   3.842
 2673SOL    HW1 8918   4.289   2.365   3.924
 2673SOL    HW2 8919   4.295   2.357   3.761
 2674SOL     OW 8920   6.130   5.526   5.442
 2674SOL    HW1 8921   6.057   5.478   5.490
 2674SOL    HW2 8922   6.163   5.468   5.367
 2675SOL     OW 8923   0.706   4.192   5.269
 2675SOL    HW1 8924   0.617   4.229   5.295
 2675SOL    HW2 8925   0.734   4.122   5.334
 2676SOL     OW 8926   4.663   0.446   1.894
 2676SOL    HW1 8927   4.694   0.443   1.989
 2676SOL    HW2 8928   4.577   0.497   1.889
 2677SOL     OW 8929   2.615   4.613   2.327
 2677SOL    HW1 8930   2.696   4.672   2.329
 2677SOL    HW2 8931   2.622   4.551   2.248
 2678SOL     OW 8932   0.082   6.664   6.299
 2678SOL    HW1 8933   0.076   6.725   6.220
 2678SOL    HW2 8934   7.019   6.640   6.330
 2679SOL     OW 8935   2.854   4.956   1.171
 2679SOL    HW1 8936   2.912   4.885   1.132
 2679SOL    HW2 8937   2.840   4.938   1.269
 2680SOL     OW 8938   1.589   2.261   1.394
 2680SOL    HW1 8939   1.661   2.241   1.459
 2680SOL    HW2 8940   1.513   2.197   1.406
 2681SOL     OW 8941   1.796   1.821   2.559
 2681SOL    HW1 8942   1.731   1.833   2.634
 2681SOL    HW2 8943   1.878   1.775   2.592
 2682SOL     OW 8944   5.991   2.214   4.092
 2682SOL    HW1 8945   6.028   2.166   4.012
 2682SOL    HW2 8946   5.900   2.249   4.070
 2683SOL     OW 8947   1.547   0.407   1.185
 2683SOL    HW1 8948   1.480   0.356   1.131
 2683SOL    HW2 8949   1.634   0.411   1.136
 2684SOL     OW 8950   2.521   5.610   3.299
 2684SOL    HW1 8951   2.578   5.572   3.373
 2684SOL    HW2 8952   2.427   5.578   3.310
 2685SOL     OW 8953   5.579   6.186   5.361
 2685SOL    HW1 8954   5.567   6.140   5.449
 2685SOL    HW2 8955   5.674   6.215   5.351
 2686SOL     OW 8956   1.064   2.944   4.641
 2686SOL    HW1 8957   1.051   2.866   4.579
 2686SOL    HW2 8958   1.082   2.910   4.733
 2687SOL     OW 8959   4.712   4.710   3.012
 2687SOL    HW1 8960   4.658   4.755   3.083
 2687SOL    HW2 8961   4.792   4.766   2.989
 2688SOL     OW 8962   4.324   5.080   5.641
 2688SOL    HW1 8963   4.265   5.160   5.656
 2688SOL    HW2 8964   4.286   5.024   5.568
 2689SOL     OW 8965   0.095   3.356   4.183
 2689SOL    HW1 8966   0.114   3.454   4.191
 2689SOL    HW2 8967   0.180   3.304   4.193
 2690SOL     OW 8968   3.581   2.863   3.307
 2690SOL    HW1 8969   3.632   2.869   3.393
 2690SOL    HW2 8970   3.484   2.853   3.326
 2691SOL     OW 8971   1.148   5.595   1.682
 2691SOL    HW1 8972   1.159   5.692   1.658
 2691SOL    HW2 8973   1.057   5.564   1.654
 2692SOL     OW 8974   0.323   5.290   3.147
 2692SOL    HW1 8975   0.405   5.235   3.154
 2692SOL    HW2 8976   0.346   5.386   3.163
 2693SOL     OW 8977   1.829   3.291   2.860
 2693SOL    HW1 8978   1.828   3.315   2.763
 2693SOL    HW2 8979   1.923   3.283   2.891
 2694SOL     OW 8980   2.712   0.934   3.106
 2694SOL    HW1 8981   2.680   0.946   3.200
 2694SOL    HW2 8982   2.658   0.864   3.060
 2695SOL     OW 8983   3.744   2.154   2.820
 2695SOL    HW1 8984   3.673   2.174   2.886
 2695SOL    HW2 8985   3.704   2.146   2.729
 2696SOL     OW 8986   3.987   3.973   5.119
 2696SOL    HW1 8987   3.979   4.060   5.070
 2696SOL    HW2 8988   4.037   3.907   5.062
 2697SOL     OW 8989   2.654   2.106   4.048
 2697SOL    HW1 8990   2.588   2.062   4.109
 2697SOL    HW2 8991   2.667   2.049   3.966
 2698SOL     OW 8992   2.173   3.358   6.586
 2698SOL    HW1 8993   2.242   3.333   6.653
 2698SOL    HW2 8994   2.207   3.338   6.494
 2699SOL     OW 8995   2.823   5.787   2.816
 2699SOL    HW1 8996   2.832   5.688   2.827
 2699SOL    HW2 8997   2.772   5.825   2.893
 2700SOL     OW 8998   1.727   4.467   2.979
 2700SOL    HW1 8999   1.643   4.521   2.978
 2700SOL    HW2 9000   1.716   4.387   2.919
 2701SOL     OW 9001   3.563   0.146   5.611
 2701SOL    HW1 9002   3.654   0.104   5.621
 2701SOL    HW2 9003   3.570   0.245   5.623
 2702SOL     OW 9004   7.019   6.551   2.987
 2702SOL    HW1 9005   7.004   6.641   3.027
 2702SOL    HW2 9006   0.088   6.533   2.980
 2703SOL     OW 9007   1.540   1.623   3.413
 2703SOL    HW1 9008   1.506   1.707   3.372
 2703SOL    HW2 9009   1.574   1.642   3.505
 2704SOL     OW 9010   1.115   6.419   0.000
 2704SOL    HW1 9011   1.058   6.481   6.975
 2704SOL    HW2 9012   1.082   6.325   7.018
 2705SOL     OW 9013   0.047   4.227   2.650
 2705SOL    HW1 9014   0.079   4.133   2.661
 2705SOL    HW2 9015   0.092   4.268   2.570
 2706SOL     OW 9016   6.756   2.408   2.261
 2706SOL    HW1 9017   6.769   2.347   2.182
 2706SOL    HW2 9018   6.708   2.359   2.334
 2707SOL     OW 9019   2.423   1.624   6.201
 2707SOL    HW1 9020   2.516   1.596   6.223
 2707SOL    HW2 9021   2.371   1.545   6.169
 2708SOL     OW 9022   2.012   4.158   0.815
 2708SOL    HW1 9023   2.085   4.212   0.856
 2708SOL    HW2 9024   2.020   4.161   0.715
 2709SOL     OW 9025   3.956   6.866   1.388
 2709SOL    HW1 9026   3.862   6.874   1.422
 2709SOL    HW2 9027   3.965   6.918   1.303
 2710SOL     OW 9028   6.301   4.396   2.650
 2710SOL    HW1 9029   6.251   4.438   2.725
 2710SOL    HW2 9030   6.247   4.403   2.566
 2711SOL     OW 9031   1.017   6.593   1.839
 2711SOL    HW1 9032   1.039   6.540   1.758
 2711SOL    HW2 9033   1.041   6.689   1.824
 2712SOL     OW 9034   3.457   5.095   2.879
 2712SOL    HW1 9035   3.493   5.021   2.822
 2712SOL    HW2 9036   3.363   5.116   2.853
 2713SOL     OW 9037   2.346   2.320   5.044
 2713SOL    HW1 9038   2.380   2.411   5.020
 2713SOL    HW2 9039   2.390   2.289   5.128
 2714SOL     OW 9040   5.533   0.216   5.863
 2714SOL    HW1 9041   5.479   0.240   5.943
 2714SOL    HW2 9042   5.573   0.125   5.876
 2715SOL     OW 9043   6.127   0.058   0.653
 2715SOL    HW1 9044   6.095   0.096   0.740
 2715SOL    HW2 9045   6.050   0.048   0.591
 2716SOL     OW 9046   0.011   6.728   2.626
 2716SOL    HW1 9047   6.944   6.704   2.640
 2716SOL    HW2 9048   0.021   6.776   2.539
 2717SOL     OW 9049   1.033   0.419   2.896
 2717SOL    HW1 9050   0.965   0.362   2.941
 2717SOL    HW2 9051   1.103   0.361   2.854
 2718SOL     OW 9052   0.677   4.586   3.308
 2718SOL    HW1 9053   0.645   4.638   3.229
 2718SOL    HW2 9054   0.762   4.539   3.286
 2719SOL     OW 9055   4.384   4.594   3.154
 2719SOL    HW1 9056   4.443   4.514   3.161
 2719SOL    HW2 9057   4.361   4.611   3.059
 2720SOL     OW 9058   0.534   6.112   3.824
 2720SOL    HW1 9059   0.597   6.185   3.852
 2720SOL    HW2 9060   0.550   6.031   3.881
 2721SOL     OW 9061   5.146   6.450   4.524
 2721SOL    HW1 9062   5.195   6.535   4.542
 2721SOL    HW2 9063   5.050   6.470   4.507
 2722SOL     OW 9064   1.103   6.047   1.401
 2722SOL    HW1 9065   1.098   6.023   1.304
 2722SOL    HW2 9066   1.192   6.087   1.421
 2723SOL     OW 9067   2.154   1.400   4.978
 2723SOL    HW1 9068   2.186   1.479   4.926
 2723SOL    HW2 9069   2.212   1.386   5.058
 2724SOL     OW 9070   3.721   5.923   6.635
 2724SOL    HW1 9071   3.762   6.013   6.620
 2724SOL    HW2 9072   3.653   5.928   6.707
 2725SOL     OW 9073   2.651   4.586   3.572
 2725SOL    HW1 9074   2.598   4.509   3.608
 2725SOL    HW2 9075   2.647   4.662   3.637
 2726SOL     OW 9076   4.885   6.683   2.378
 2726SOL    HW1 9077   4.949   6.738   2.325
 2726SOL    HW2 9078   4.931   6.644   2.457
 2727SOL     OW 9079   2.139   5.771   3.365
 2727SOL    HW1 9080   2.096   5.772   3.275
 2727SOL    HW2 9081   2.077   5.813   3.432
 2728SOL     OW 9082   3.790   6.470   4.951
 2728SOL    HW1 9083   3.767   6.413   5.030
 2728SOL    HW2 9084   3.765   6.565   4.971
 2729SOL     OW 9085   6.806   4.870   2.184
 2729SOL    HW1 9086   6.741   4.857   2.109
 2729SOL    HW2 9087   6.817   4.784   2.234
 2730SOL     OW 9088   1.361   4.445   1.536
 2730SOL    HW1 9089   1.447   4.471   1.580
 2730SOL    HW2 9090   1.311   4.527   1.509
 2731SOL     OW 9091   2.866   3.954   0.969
 2731SOL    HW1 9092   2.932   3.960   0.893
 2731SOL    HW2 9093   2.900   3.889   1.037
 2732SOL     OW 9094   5.343   2.856   4.163
 2732SOL    HW1 9095   5.296   2.829   4.079
 2732SOL    HW2 9096   5.286   2.833   4.242
 2733SOL     OW 9097   2.336   0.511   5.863
 2733SOL    HW1 9098   2.435   0.510   5.847
 2733SOL    HW2 9099   2.316   0.557   5.949
 2734SOL     OW 9100   2.419   6.987   3.704
 2734SOL    HW1 9101   2.482   0.035   3.698
 2734SOL    HW2 9102   2.328   7.021   3.730
 2735SOL     OW 9103   1.707   4.830   1.151
 2735SOL    HW1 9104   1.627   4.819   1.211
 2735SOL    HW2 9105   1.678   4.872   1.065
 2736SOL     OW 9106   3.705   6.634   6.473
 2736SOL    HW1 9107   3.616   6.667   6.504
 2736SOL    HW2 9108   3.768   6.630   6.551
 2737SOL     OW 9109   4.312   3.358   5.465
 2737SOL    HW1 9110   4.385   3.292   5.445
 2737SOL    HW2 9111   4.352   3.448   5.483
 2738SOL     OW 9112   5.760   4.301   4.118
 2738SOL    HW1 9113   5.797   4.393   4.101
 2738SOL    HW2 9114   5.833   4.234   4.106
 2739SOL     OW 9115   5.032   3.829   0.559
 2739SOL    HW1 9116   5.075   3.790   0.478
 2739SOL    HW2 9117   4.935   3.845   0.542
 2740SOL     OW 9118   6.277   2.311   3.121
 2740SOL    HW1 9119   6.282   2.406   3.150
 2740SOL    HW2 9120   6.193   2.297   3.068
 2741SOL     OW 9121   1.526   2.678   4.930
 2741SOL    HW1 9122   1.606   2.709   4.981
 2741SOL    HW2 9123   1.536   2.704   4.834
 2742SOL     OW 9124   2.747   6.242   5.389
 2742SOL    HW1 9125   2.696   6.158   5.404
 2742SOL    HW2 9126   2.810   6.230   5.312
 2743SOL     OW 9127   6.231   4.791   0.650
 2743SOL    HW1 9128   6.172   4.841   0.588
 2743SOL    HW2 9129   6.196   4.800   0.744
 2744SOL     OW 9130   4.352   0.420   0.526
 2744SOL    HW1 9131   4.388   0.344   0.472
 2744SOL    HW2 9132   4.419   0.494   0.528
 2745SOL     OW 9133   2.159   5.669   1.095
 2745SOL    HW1 9134   2.152   5.606   1.173
 2745SOL    HW2 9135   2.226   5.741   1.116
 2746SOL     OW 9136   1.165   2.427   6.672
 2746SOL    HW1 9137   1.253   2.462   6.639
 2746SOL    HW2 9138   1.096   2.499   6.665
 2747SOL     OW 9139   5.124   5.715   3.699
 2747SOL    HW1 9140   5.170   5.775   3.632
 2747SOL    HW2 9141   5.089   5.634   3.652
 2748SOL     OW 9142   4.537   0.797   4.546
 2748SOL    HW1 9143   4.495   0.830   4.462
 2748SOL    HW2 9144   4.623   0.845   4.562
 2749SOL     OW 9145   5.051   4.061   3.664
 2749SOL    HW1 9146   4.953   4.044   3.658
 2749SOL    HW2 9147   5.076   4.135   3.602
 2750SOL     OW 9148   0.404   6.412   0.535
 2750SOL    HW1 9149   0.398   6.478   0.460
 2750SOL    HW2 9150   0.391   6.459   0.622
 2751SOL     OW 9151   1.781   0.108   0.142
 2751SOL    HW1 9152   1.801   0.201   0.174
 2751SOL    HW2 9153   1.750   0.053   0.220
 2752SOL     OW 9154   6.646   6.479   5.585
 2752SOL    HW1 9155   6.600   6.401   5.542
 2752SOL    HW2 9156   6.744   6.472   5.570
 2753SOL     OW 9157   3.309   5.084   5.328
 2753SOL    HW1 9158   3.378   5.016   5.303
 2753SOL    HW2 9159   3.312   5.159   5.261
 2754SOL     OW 9160   0.949   5.870   4.085
 2754SOL    HW1 9161   0.876   5.901   4.146
 2754SOL    HW2 9162   1.036   5.867   4.135
 2755SOL     OW 9163   3.894   6.029   2.290
 2755SOL    HW1 9164   3.907   5.944   2.340
 2755SOL    HW2 9165   3.980   6.080   2.289
 2756SOL     OW 9166   0.277   3.121   5.423
 2756SOL    HW1 9167   0.250   3.170   5.340
 2756SOL    HW2 9168   0.215   3.045   5.438
 2757SOL     OW 9169   4.575   3.783   6.766
 2757SOL    HW1 9170   4.648   3.851   6.760
 2757SOL    HW2 9171   4.616   3.691   6.770
 2758SOL     OW 9172   0.218   6.697   2.150
 2758SOL    HW1 9173   0.198   6.738   2.061
 2758SOL    HW2 9174   0.170   6.609   2.158
 2759SOL     OW 9175   3.422   3.377   5.282
 2759SOL    HW1 9176   3.363   3.320   5.339
 2759SOL    HW2 9177   3.516   3.367   5.312
 2760SOL     OW 9178   5.994   5.686   2.301
 2760SOL    HW1 9179   6.048   5.754   2.251
 2760SOL    HW2 9180   6.052   5.609   2.326
 2761SOL     OW 9181   1.661   3.079   3.137
 2761SOL    HW1 9182   1.591   3.148   3.153
 2761SOL    HW2 9183   1.751   3.115   3.165
 2762SOL     OW 9184   3.273   1.609   0.942
 2762SOL    HW1 9185   3.296   1.560   1.027
 2762SOL    HW2 9186   3.323   1.695   0.939
 2763SOL     OW 9187   5.999   1.478   3.832
 2763SOL    HW1 9188   6.012   1.463   3.930
 2763SOL    HW2 9189   5.903   1.502   3.815
 2764SOL     OW 9190   0.457   2.949   3.112
 2764SOL    HW1 9191   0.553   2.965   3.136
 2764SOL    HW2 9192   0.438   2.989   3.023
 2765SOL     OW 9193   5.960   6.407   6.015
 2765SOL    HW1 9194   6.035   6.400   5.949
 2765SOL    HW2 9195   5.915   6.496   6.004
 2766SOL     OW 9196   4.650   0.077   0.211
 2766SOL    HW1 9197   4.586   0.139   0.166
 2766SOL    HW2 9198   4.659   7.022   0.157
 2767SOL     OW 9199   0.966   4.717   6.546
 2767SOL    HW1 9200   0.994   4.810   6.524
 2767SOL    HW2 9201   1.037   4.674   6.602
 2768SOL     OW 9202   3.686   6.586   1.304
 2768SOL    HW1 9203   3.751   6.620   1.371
 2768SOL    HW2 9204   3.605   6.644   1.304
 2769SOL     OW 9205   0.983   4.580   5.553
 2769SOL    HW1 9206   0.939   4.654   5.502
 2769SOL    HW2 9207   0.987   4.603   5.650
 2770SOL     OW 9208   2.147   0.056   1.057
 2770SOL    HW1 9209   2.104   6.996   1.074
 2770SOL    HW2 9210   2.124   0.087   0.965
 2771SOL     OW 9211   4.509   6.996   5.385
 2771SOL    HW1 9212   4.590   6.939   5.370
 2771SOL    HW2 9213   4.537   0.061   5.403
 2772SOL     OW 9214   5.101   1.546   3.555
 2772SOL    HW1 9215   5.056   1.634   3.541
 2772SOL    HW2 9216   5.037   1.482   3.597
 2773SOL     OW 9217   6.150   2.628   5.324
 2773SOL    HW1 9218   6.243   2.665   5.329
 2773SOL    HW2 9219   6.131   2.575   5.406
 2774SOL     OW 9220   6.109   0.743   3.790
 2774SOL    HW1 9221   6.133   0.703   3.702
 2774SOL    HW2 9222   6.192   0.775   3.837
 2775SOL     OW 9223   7.021   2.997   4.589
 2775SOL    HW1 9224   7.000   3.005   4.687
 2775SOL    HW2 9225   0.088   2.971   4.578
 2776SOL     OW 9226   4.919   4.547   6.165
 2776SOL    HW1 9227   4.883   4.627   6.117
 2776SOL    HW2 9228   4.871   4.537   6.253
 2777SOL     OW 9229   2.012   2.538   6.799
 2777SOL    HW1 9230   1.978   2.461   6.744
 2777SOL    HW2 9231   1.944   2.562   6.868
 2778SOL     OW 9232   2.924   0.489   6.201
 2778SOL    HW1 9233   2.891   0.542   6.278
 2778SOL    HW2 9234   3.017   0.518   6.177
 2779SOL     OW 9235   4.981   1.276   1.755
 2779SOL    HW1 9236   5.066   1.279   1.806
 2779SOL    HW2 9237   4.963   1.365   1.714
 2780SOL     OW 9238   6.754   1.116   4.886
 2780SOL    HW1 9239   6.660   1.139   4.857
 2780SOL    HW2 9240   6.815   1.190   4.859
 2781SOL     OW 9241   6.435   0.863   3.034
 2781SOL    HW1 9242   6.487   0.848   3.118
 2781SOL    HW2 9243   6.376   0.943   3.045
 2782SOL     OW 9244   5.736   0.932   5.756
 2782SOL    HW1 9245   5.813   0.995   5.752
 2782SOL    HW2 9246   5.720   0.904   5.851
 2783SOL     OW 9247   5.816   3.107   1.665
 2783SOL    HW1 9248   5.776   3.197   1.678
 2783SOL    HW2 9249   5.804   3.053   1.748
 2784SOL     OW 9250   0.190   3.384   1.498
 2784SOL    HW1 9251   0.220   3.471   1.538
 2784SOL    HW2 9252   0.220   3.309   1.557
 2785SOL     OW 9253   5.531   3.645   2.750
 2785SOL    HW1 9254   5.515   3.583   2.673
 2785SOL    HW2 9255   5.472   3.725   2.742
 2786SOL     OW 9256   0.996   6.341   0.621
 2786SOL    HW1 9257   0.962   6.284   0.546
 2786SOL    HW2 9258   1.091   6.364   0.604
 2787SOL     OW 9259   0.644   5.775   6.675
 2787SOL    HW1 9260   0.554   5.760   6.636
 2787SOL    HW2 9261   0.714   5.769   6.604
 2788SOL     OW 9262   2.493   6.827   0.180
 2788SOL    HW1 9263   2.417   6.843   0.243
 2788SOL    HW2 9264   2.564   6.773   0.226
 2789SOL     OW 9265   1.743   1.966   4.378
 2789SOL    HW1 9266   1.791   1.999   4.459
 2789SOL    HW2 9267   1.645   1.981   4.389
 2790SOL     OW 9268   0.448   5.565   1.797
 2790SOL    HW1 9269   0.427   5.658   1.768
 2790SOL    HW2 9270   0.534   5.536   1.755
 2791SOL     OW 9271   0.886   3.142   4.449
 2791SOL    HW1 9272   0.950   3.074   4.484
 2791SOL    HW2 9273   0.916   3.233   4.476
 2792SOL     OW 9274   2.965   1.734   6.051
 2792SOL    HW1 9275   2.951   1.788   5.969
 2792SOL    HW2 9276   3.004   1.645   6.026
 2793SOL     OW 9277   3.522   3.755   6.931
 2793SOL    HW1 9278   3.445   3.790   6.985
 2793SOL    HW2 9279   3.507   3.658   6.911
 2794SOL     OW 9280   1.722   2.145   6.994
 2794SOL    HW1 9281   1.777   2.095   0.033
 2794SOL    HW2 9282   1.669   2.216   0.011
 2795SOL     OW 9283   1.197   6.548   0.969
 2795SOL    HW1 9284   1.284   6.597   0.975
 2795SOL    HW2 9285   1.133   6.599   0.912
 2796SOL     OW 9286   2.093   6.116   6.767
 2796SOL    HW1 9287   2.150   6.045   6.809
 2796SOL    HW2 9288   1.998   6.084   6.761
 2797SOL     OW 9289   4.662   4.294   4.013
 2797SOL    HW1 9290   4.702   4.249   4.093
 2797SOL    HW2 9291   4.676   4.393   4.021
 2798SOL     OW 9292   5.272   1.578   1.848
 2798SOL    HW1 9293   5.324   1.646   1.899
 2798SOL    HW2 9294   5.333   1.505   1.817
 2799SOL     OW 9295   3.526   6.562   4.818
 2799SOL    HW1 9296   3.582   6.480   4.830
 2799SOL    HW2 9297   3.459   6.567   4.892
 2800SOL     OW 9298   4.501   0.888   6.139
 2800SOL    HW1 9299   4.596   0.920   6.146
 2800SOL    HW2 9300   4.459   0.888   6.230
 2801SOL     OW 9301   0.218   4.603   3.761
 2801SOL    HW1 9302   0.258   4.643   3.679
 2801SOL    HW2 9303   0.119   4.592   3.748
 2802SOL     OW 9304   1.456   5.225   4.858
 2802SOL    HW1 9305   1.500   5.199   4.772
 2802SOL    HW2 9306   1.357   5.218   4.849
 2803SOL     OW 9307   3.543   2.214   6.861
 2803SOL    HW1 9308   3.639   2.209   6.835
 2803SOL    HW2 9309   3.497   2.283   6.805
 2804SOL     OW 9310   6.305   2.447   3.593
 2804SOL    HW1 9311   6.207   2.456   3.574
 2804SOL    HW2 9312   6.321   2.364   3.645
 2805SOL     OW 9313   4.033   4.707   0.321
 2805SOL    HW1 9314   4.018   4.803   0.345
 2805SOL    HW2 9315   3.977   4.649   0.380
 2806SOL     OW 9316   0.225   3.453   5.293
 2806SOL    HW1 9317   0.137   3.493   5.317
 2806SOL    HW2 9318   0.299   3.509   5.331
 2807SOL     OW 9319   4.682   1.109   3.981
 2807SOL    HW1 9320   4.704   1.038   3.915
 2807SOL    HW2 9321   4.583   1.127   3.980
 2808SOL     OW 9322   1.342   5.806   5.955
 2808SOL    HW1 9323   1.266   5.799   6.019
 2808SOL    HW2 9324   1.409   5.872   5.989
 2809SOL     OW 9325   0.765   5.983   1.274
 2809SOL    HW1 9326   0.782   6.038   1.356
 2809SOL    HW2 9327   0.671   5.948   1.276
 2810SOL     OW 9328   0.954   6.050   2.796
 2810SOL    HW1 9329   1.051   6.036   2.813
 2810SOL    HW2 9330   0.939   6.144   2.766
 2811SOL     OW 9331   1.163   1.235   0.590
 2811SOL    HW1 9332   1.141   1.328   0.620
 2811SOL    HW2 9333   1.078   1.183   0.581
 2812SOL     OW 9334   1.522   1.354   0.584
 2812SOL    HW1 9335   1.474   1.336   0.669
 2812SOL    HW2 9336   1.496   1.285   0.516
 2813SOL     OW 9337   0.700   3.162   1.127
 2813SOL    HW1 9338   0.691   3.224   1.050
 2813SOL    HW2 9339   0.785   3.111   1.119
 2814SOL     OW 9340   2.589   4.353   0.098
 2814SOL    HW1 9341   2.629   4.270   0.137
 2814SOL    HW2 9342   2.577   4.421   0.170
 2815SOL     OW 9343   0.103   5.399   4.606
 2815SOL    HW1 9344   0.202   5.403   4.591
 2815SOL    HW2 9345   0.085   5.376   4.702
 2816SOL     OW 9346   0.990   5.120   4.996
 2816SOL    HW1 9347   0.915   5.186   4.986
 2816SOL    HW2 9348   1.010   5.107   5.093
 2817SOL     OW 9349   2.949   0.866   2.515
 2817SOL    HW1 9350   2.883   0.914   2.573
 2817SOL    HW2 9351   3.031   0.922   2.504
 2818SOL     OW 9352   1.530   0.662   7.029
 2818SOL    HW1 9353   1.594   0.739   0.003
 2818SOL    HW2 9354   1.576   0.579   0.031
 2819SOL     OW 9355   0.939   0.594   6.726
 2819SOL    HW1 9356   0.900   0.504   6.706
 2819SOL    HW2 9357   0.882   0.665   6.684
 2820SOL     OW 9358   1.753   1.873   6.898
 2820SOL    HW1 9359   1.666   1.827   6.919
 2820SOL    HW2 9360   1.757   1.959   6.948
 2821SOL     OW 9361   3.380   2.738   6.088
 2821SOL    HW1 9362   3.403   2.710   6.181
 2821SOL    HW2 9363   3.315   2.673   6.049
 2822SOL     OW 9364   4.345   2.989   0.541
 2822SOL    HW1 9365   4.394   3.075   0.524
 2822SOL    HW2 9366   4.256   2.992   0.494
 2823SOL     OW 9367   5.067   3.843   1.642
 2823SOL    HW1 9368   5.075   3.757   1.593
 2823SOL    HW2 9369   5.122   3.839   1.725
 2824SOL     OW 9370   0.622   4.693   5.345
 2824SOL    HW1 9371   0.555   4.657   5.281
 2824SOL    HW2 9372   0.605   4.657   5.436
 2825SOL     OW 9373   5.296   1.870   5.939
 2825SOL    HW1 9374   5.388   1.873   5.977
 2825SOL    HW2 9375   5.299   1.829   5.848
 2826SOL     OW 9376   3.070   3.276   0.190
 2826SOL    HW1 9377   3.028   3.357   0.231
 2826SOL    HW2 9378   3.161   3.262   0.231
 2827SOL     OW 9379   5.886   1.965   6.639
 2827SOL    HW1 9380   5.912   2.012   6.723
 2827SOL    HW2 9381   5.788   1.943   6.642
 2828SOL     OW 9382   1.503   4.225   0.850
 2828SOL    HW1 9383   1.594   4.258   0.874
 2828SOL    HW2 9384   1.480   4.253   0.757
 2829SOL     OW 9385   3.600   3.471   1.847
 2829SOL    HW1 9386   3.654   3.536   1.901
 2829SOL    HW2 9387   3.661   3.415   1.791
 2830SOL     OW 9388   3.109   5.869   4.574
 2830SOL    HW1 9389   3.133   5.965   4.588
 2830SOL    HW2 9390   3.188   5.811   4.591
 2831SOL     OW 9391   6.922   1.840   2.186
 2831SOL    HW1 9392   6.960   1.857   2.096
 2831SOL    HW2 9393   6.896   1.743   2.194
 2832SOL     OW 9394   1.006   3.199   2.356
 2832SOL    HW1 9395   0.940   3.262   2.315
 2832SOL    HW2 9396   1.071   3.250   2.411
 2833SOL     OW 9397   6.791   2.778   2.535
 2833SOL    HW1 9398   6.867   2.762   2.472
 2833SOL    HW2 9399   6.824   2.776   2.629
 2834SOL     OW 9400   3.937   0.294   4.441
 2834SOL    HW1 9401   3.970   0.339   4.358
 2834SOL    HW2 9402   3.890   0.361   4.498
 2835SOL     OW 9403   6.839   1.005   6.830
 2835SOL    HW1 9404   6.876   0.957   6.909
 2835SOL    HW2 9405   6.913   1.048   6.779
 2836SOL     OW 9406   3.071   5.307   2.828
 2836SOL    HW1 9407   2.974   5.290   2.845
 2836SOL    HW2 9408   3.108   5.365   2.900
 2837SOL     OW 9409   5.144   4.368   2.016
 2837SOL    HW1 9410   5.158   4.454   2.065
 2837SOL    HW2 9411   5.232   4.336   1.981
 2838SOL     OW 9412   6.761   3.826   6.294
 2838SOL    HW1 9413   6.672   3.872   6.286
 2838SOL    HW2 9414   6.801   3.815   6.203
 2839SOL     OW 9415   5.874   2.617   5.733
 2839SOL    HW1 9416   5.938   2.594   5.807
 2839SOL    HW2 9417   5.845   2.712   5.741
 2840SOL     OW 9418   5.738   5.996   4.352
 2840SOL    HW1 9419   5.713   6.034   4.441
 2840SOL    HW2 9420   5.837   5.983   4.348
 2841SOL     OW 9421   5.380   3.895   2.243
 2841SOL    HW1 9422   5.433   3.974   2.275
 2841SOL    HW2 9423   5.420   3.862   2.158
 2842SOL     OW 9424   0.686   7.021   3.309
 2842SOL    HW1 9425   0.625   0.068   3.332
 2842SOL    HW2 9426   0.748   7.003   3.385
 2843SOL     OW 9427   2.325   2.780   3.907
 2843SOL    HW1 9428   2.364   2.724   3.980
 2843SOL    HW2 9429   2.372   2.761   3.821
 2844SOL     OW 9430   5.255   3.629   0.997
 2844SOL    HW1 9431   5.238   3.606   1.093
 2844SOL    HW2 9432   5.296   3.720   0.992
 2845SOL     OW 9433   3.108   2.072   1.597
 2845SOL    HW1 9434   3.202   2.103   1.609
 2845SOL    HW2 9435   3.045   2.149   1.606
 2846SOL     OW 9436   5.884   6.963   6.570
 2846SOL    HW1 9437   5.957   6.927   6.512
 2846SOL    HW2 9438   5.811   6.895   6.578
 2847SOL     OW 9439   5.029   5.032   0.961
 2847SOL    HW1 9440   4.990   5.012   1.051
 2847SOL    HW2 9441   4.957   5.067   0.900
 2848SOL     OW 9442   0.572   4.238   6.417
 2848SOL    HW1 9443   0.579   4.337   6.416
 2848SOL    HW2 9444   0.617   4.200   6.336
 2849SOL     OW 9445   5.326   0.883   1.767
 2849SOL    HW1 9446   5.265   0.811   1.798
 2849SOL    HW2 9447   5.281   0.936   1.695
 2850SOL     OW 9448   0.614   0.640   2.091
 2850SOL    HW1 9449   0.684   0.687   2.038
 2850SOL    HW2 9450   0.614   0.675   2.185
 2851SOL     OW 9451   3.403   2.829   1.616
 2851SOL    HW1 9452   3.408   2.818   1.517
 2851SOL    HW2 9453   3.453   2.912   1.642
 2852SOL     OW 9454   0.134   5.463   5.382
 2852SOL    HW1 9455   0.126   5.378   5.330
 2852SOL    HW2 9456   0.225   5.502   5.368
 2853SOL     OW 9457   0.432   4.290   5.318
 2853SOL    HW1 9458   0.343   4.254   5.291
 2853SOL    HW2 9459   0.434   4.388   5.299
 2854SOL     OW 9460   2.740   0.471   5.944
 2854SOL    HW1 9461   2.709   0.547   5.887
 2854SOL    HW2 9462   2.808   0.504   6.010
 2855SOL     OW 9463   2.052   0.979   4.409
 2855SOL    HW1 9464   2.046   0.978   4.309
 2855SOL    HW2 9465   2.087   0.891   4.441
 2856SOL     OW 9466   0.580   5.244   4.481
 2856SOL    HW1 9467   0.664   5.262   4.532
 2856SOL    HW2 9468   0.602   5.189   4.401
 2857SOL     OW 9469   6.605   4.093   1.248
 2857SOL    HW1 9470   6.645   4.005   1.224
 2857SOL    HW2 9471   6.665   4.140   1.314
 2858SOL     OW 9472   5.787   4.601   3.164
 2858SOL    HW1 9473   5.842   4.649   3.231
 2858SOL    HW2 9474   5.724   4.539   3.211
 2859SOL     OW 9475   5.981   5.001   1.553
 2859SOL    HW1 9476   5.914   4.960   1.614
 2859SOL    HW2 9477   6.060   4.940   1.545
 2860SOL     OW 9478   1.337   0.192   3.099
 2860SOL    HW1 9479   1.238   0.181   3.109
 2860SOL    HW2 9480   1.372   0.242   3.178
 2861SOL     OW 9481   5.052   4.322   6.105
 2861SOL    HW1 9482   5.151   4.327   6.116
 2861SOL    HW2 9483   5.012   4.413   6.121
 2862SOL     OW 9484   4.624   0.980   0.753
 2862SOL    HW1 9485   4.683   0.909   0.714
 2862SOL    HW2 9486   4.544   0.994   0.694
 2863SOL     OW 9487   5.913   2.377   5.312
 2863SOL    HW1 9488   5.985   2.408   5.250
 2863SOL    HW2 9489   5.928   2.416   5.403
 2864SOL     OW 9490   4.013   4.298   1.050
 2864SOL    HW1 9491   4.042   4.226   0.987
 2864SOL    HW2 9492   3.951   4.361   1.003
 2865SOL     OW 9493   5.900   5.438   5.581
 2865SOL    HW1 9494   5.917   5.399   5.672
 2865SOL    HW2 9495   5.837   5.516   5.590
 2866SOL     OW 9496   3.715   4.635   0.734
 2866SOL    HW1 9497   3.724   4.604   0.829
 2866SOL    HW2 9498   3.697   4.733   0.733
 2867SOL     OW 9499   6.655   6.341   2.947
 2867SOL    HW1 9500   6.644   6.400   3.027
 2867SOL    HW2 9501   6.623   6.390   2.866
 2868SOL     OW 9502   0.270   0.014   5.453
 2868SOL    HW1 9503   0.360   7.015   5.418
 2868SOL    HW2 9504   0.230   0.081   5.390
 2869SOL     OW 9505   6.107   4.924   4.477
 2869SOL    HW1 9506   6.140   4.893   4.566
 2869SOL    HW2 9507   6.088   4.845   4.419
 2870SOL     OW 9508   0.832   0.722   1.936
 2870SOL    HW1 9509   0.927   0.729   1.965
 2870SOL    HW2 9510   0.786   0.810   1.948
 2871SOL     OW 9511   4.724   1.485   3.355
 2871SOL    HW1 9512   4.705   1.429   3.435
 2871SOL    HW2 9513   4.805   1.450   3.307
 2872SOL     OW 9514   2.727   2.045   2.393
 2872SOL    HW1 9515   2.773   1.966   2.434
 2872SOL    HW2 9516   2.641   2.015   2.351
 2873SOL     OW 9517   1.258   0.337   2.225
 2873SOL    HW1 9518   1.258   0.350   2.126
 2873SOL    HW2 9519   1.167   0.306   2.255
 2874SOL     OW 9520   1.989   1.062   3.702
 2874SOL    HW1 9521   1.950   1.108   3.622
 2874SOL    HW2 9522   1.987   1.124   3.780
 2875SOL     OW 9523   2.469   0.200   3.359
 2875SOL    HW1 9524   2.563   0.231   3.348
 2875SOL    HW2 9525   2.411   0.276   3.389
 2876SOL     OW 9526   1.050   6.352   1.062
 2876SOL    HW1 9527   0.950   6.350   1.070
 2876SOL    HW2 9528   1.081   6.446   1.048
 2877SOL     OW 9529   1.824   2.615   4.961
 2877SOL    HW1 9530   1.830   2.638   4.863
 2877SOL    HW2 9531   1.909   2.571   4.989
 2878SOL     OW 9532   3.901   2.978   4.765
 2878SOL    HW1 9533   3.927   2.894   4.814
 2878SOL    HW2 9534   3.951   3.055   4.803
 2879SOL     OW 9535   5.145   5.127   7.017
 2879SOL    HW1 9536   5.116   5.034   6.995
 2879SOL    HW2 9537   5.229   5.148   6.966
 2880SOL     OW 9538   1.828   1.586   3.736
 2880SOL    HW1 9539   1.853   1.624   3.825
 2880SOL    HW2 9540   1.912   1.565   3.685
 2881SOL     OW 9541   5.218   5.191   0.838
 2881SOL    HW1 9542   5.300   5.202   0.894
 2881SOL    HW2 9543   5.157   5.124   0.882
 2882SOL     OW 9544   4.609   6.424   0.046
 2882SOL    HW1 9545   4.658   6.456   6.994
 2882SOL    HW2 9546   4.633   6.329   0.065
 2883SOL     OW 9547   5.784   6.303   3.812
 2883SOL    HW1 9548   5.776   6.393   3.854
 2883SOL    HW2 9549   5.724   6.238   3.861
 2884SOL     OW 9550   6.333   5.497   3.846
 2884SOL    HW1 9551   6.347   5.546   3.932
 2884SOL    HW2 9552   6.247   5.446   3.850
 2885SOL     OW 9553   0.805   2.767   3.760
 2885SOL    HW1 9554   0.728   2.805   3.709
 2885SOL    HW2 9555   0.890   2.804   3.724
 2886SOL     OW 9556   2.485   4.540   5.020
 2886SOL    HW1 9557   2.582   4.556   5.000
 2886SOL    HW2 9558   2.477   4.472   5.092
 2887SOL     OW 9559   6.703   5.585   2.648
 2887SOL    HW1 9560   6.687   5.537   2.561
 2887SOL    HW2 9561   6.692   5.683   2.635
 2888SOL     OW 9562   5.549   6.898   6.813
 2888SOL    HW1 9563   5.529   6.832   6.885
 2888SOL    HW2 9564   5.548   6.991   6.851
 2889SOL     OW 9565   4.512   6.549   4.649
 2889SOL    HW1 9566   4.485   6.618   4.716
 2889SOL    HW2 9567   4.461   6.464   4.666
 2890SOL     OW 9568   1.187   2.687   0.595
 2890SOL    HW1 9569   1.107   2.744   0.575
 2890SOL    HW2 9570   1.255   2.698   0.523
 2891SOL     OW 9571   0.936   1.542   5.592
 2891SOL    HW1 9572   0.887   1.539   5.505
 2891SOL    HW2 9573   1.008   1.472   5.593
 2892SOL     OW 9574   5.391   4.576   1.879
 2892SOL    HW1 9575   5.417   4.485   1.910
 2892SOL    HW2 9576   5.445   4.600   1.798
 2893SOL     OW 9577   6.666   5.481   4.876
 2893SOL    HW1 9578   6.617   5.502   4.791
 2893SOL    HW2 9579   6.607   5.503   4.954
 2894SOL     OW 9580   1.731   5.629   0.984
 2894SOL    HW1 9581   1.812   5.572   0.969
 2894SOL    HW2 9582   1.759   5.725   0.992
 2895SOL     OW 9583   4.711   6.911   6.313
 2895SOL    HW1 9584   4.787   6.907   6.248
 2895SOL    HW2 9585   4.742   6.949   6.399
 2896SOL     OW 9586   6.347   0.577   5.075
 2896SOL    HW1 9587   6.363   0.541   5.166
 2896SOL    HW2 9588   6.375   0.510   5.006
 2897SOL     OW 9589   3.202   5.168   3.277
 2897SOL    HW1 9590   3.228   5.090   3.335
 2897SOL    HW2 9591   3.206   5.141   3.181
 2898SOL     OW 9592   5.393   2.490   3.324
 2898SOL    HW1 9593   5.314   2.547   3.301
 2898SOL    HW2 9594   5.477   2.542   3.314
 2899SOL     OW 9595   6.411   3.258   0.672
 2899SOL    HW1 9596   6.344   3.187   0.693
 2899SOL    HW2 9597   6.364   3.341   0.643
 2900SOL     OW 9598   2.488   2.534   6.079
 2900SOL    HW1 9599   2.510   2.606   6.014
 2900SOL    HW2 9600   2.488   2.446   6.032
 2901SOL     OW 9601   1.153   3.798   2.450
 2901SOL    HW1 9602   1.150   3.700   2.429
 2901SOL    HW2 9603   1.097   3.817   2.530
 2902SOL     OW 9604   5.713   5.237   3.484
 2902SOL    HW1 9605   5.742   5.225   3.579
 2902SOL    HW2 9606   5.747   5.161   3.429
 2903SOL     OW 9607   6.516   4.756   0.450
 2903SOL    HW1 9608   6.491   4.852   0.440
 2903SOL    HW2 9609   6.569   4.727   0.370
 2904SOL     OW 9610   2.938   4.799   4.774
 2904SOL    HW1 9611   3.029   4.805   4.816
 2904SOL    HW2 9612   2.886   4.727   4.819
 2905SOL     OW 9613   1.395   5.246   1.201
 2905SOL    HW1 9614   1.388   5.154   1.164
 2905SOL    HW2 9615   1.474   5.251   1.263
 2906SOL     OW 9616   6.992   5.986   5.840
 2906SOL    HW1 9617   6.922   5.919   5.815
 2906SOL    HW2 9618   0.025   6.000   5.763
 2907SOL     OW 9619   0.197   1.051   5.403
 2907SOL    HW1 9620   0.201   1.042   5.303
 2907SOL    HW2 9621   0.272   0.999   5.444
 2908SOL     OW 9622   4.217   7.008   3.858
 2908SOL    HW1 9623   4.284   0.001   3.787
 2908SOL    HW2 9624   4.125   7.010   3.819
 2909SOL     OW 9625   6.956   6.784   1.744
 2909SOL    HW1 9626   0.018   6.795   1.783
 2909SOL    HW2 9627   6.904   6.868   1.757
 2910SOL     OW 9628   1.112   0.981   4.457
 2910SOL    HW1 9629   1.161   0.909   4.408
 2910SOL    HW2 9630   1.142   1.071   4.424
 2911SOL     OW 9631   0.264   3.811   5.739
 2911SOL    HW1 9632   0.261   3.793   5.640
 2911SOL    HW2 9633   0.345   3.866   5.760
 2912SOL     OW 9634   0.971   1.505   2.177
 2912SOL    HW1 9635   1.069   1.522   2.184
 2912SOL    HW2 9636   0.931   1.503   2.268
 2913SOL     OW 9637   1.163   6.956   2.766
 2913SOL    HW1 9638   1.139   6.925   2.674
 2913SOL    HW2 9639   1.080   6.967   2.820
 2914SOL     OW 9640   3.772   4.534   1.240
 2914SOL    HW1 9641   3.795   4.459   1.303
 2914SOL    HW2 9642   3.685   4.515   1.195
 2915SOL     OW 9643   2.634   0.580   3.972
 2915SOL    HW1 9644   2.719   0.533   3.995
 2915SOL    HW2 9645   2.627   0.664   4.026
 2916SOL     OW 9646   0.835   5.355   0.079
 2916SOL    HW1 9647   0.843   5.391   0.172
 2916SOL    HW2 9648   0.807   5.429   0.017
 2917SOL     OW 9649   2.540   0.414   3.066
 2917SOL    HW1 9650   2.476   0.421   3.143
 2917SOL    HW2 9651   2.508   0.344   3.002
 2918SOL     OW 9652   5.305   2.560   1.309
 2918SOL    HW1 9653   5.268   2.539   1.400
 2918SOL    HW2 9654   5.263   2.644   1.274
 2919SOL     OW 9655   0.373   6.119   5.015
 2919SOL    HW1 9656   0.371   6.204   4.962
 2919SOL    HW2 9657   0.396   6.043   4.953
 2920SOL     OW 9658   2.915   2.251   1.711
 2920SOL    HW1 9659   2.919   2.322   1.780
 2920SOL    HW2 9660   2.867   2.285   1.630
 2921SOL     OW 9661   1.401   6.654   3.653
 2921SOL    HW1 9662   1.404   6.561   3.688
 2921SOL    HW2 9663   1.307   6.679   3.631
 2922SOL     OW 9664   4.133   4.894   3.881
 2922SOL    HW1 9665   4.038   4.884   3.852
 2922SOL    HW2 9666   4.144   4.858   3.974
 2923SOL     OW 9667   0.863   5.451   4.498
 2923SOL    HW1 9668   0.910   5.536   4.473
 2923SOL    HW2 9669   0.922   5.373   4.478
 2924SOL     OW 9670   5.300   1.942   6.428
 2924SOL    HW1 9671   5.265   1.923   6.337
 2924SOL    HW2 9672   5.240   1.902   6.497
 2925SOL     OW 9673   5.429   6.814   4.514
 2925SOL    HW1 9674   5.515   6.829   4.562
 2925SOL    HW2 9675   5.356   6.795   4.581
 2926SOL     OW 9676   6.918   2.303   4.850
 2926SOL    HW1 9677   7.008   2.277   4.885
 2926SOL    HW2 9678   6.867   2.352   4.921
 2927SOL     OW 9679   1.471   1.749   2.255
 2927SOL    HW1 9680   1.496   1.652   2.257
 2927SOL    HW2 9681   1.378   1.759   2.291
 2928SOL     OW 9682   5.526   2.746   7.007
 2928SOL    HW1 9683   5.444   2.689   7.005
 2928SOL    HW2 9684   5.564   2.752   6.915
 2929SOL     OW 9685   2.567   1.769   3.479
 2929SOL    HW1 9686   2.636   1.744   3.546
 2929SOL    HW2 9687   2.598   1.850   3.428
 2930SOL     OW 9688   0.259   3.604   4.270
 2930SOL    HW1 9689   0.289   3.699   4.271
 2930SOL    HW2 9690   0.260   3.568   4.364
 2931SOL     OW 9691   5.558   4.993   5.605
 2931SOL    HW1 9692   5.467   5.029   5.628
 2931SOL    HW2 9693   5.548   4.904   5.561
 2932SOL     OW 9694   6.371   4.975   1.318
 2932SOL    HW1 9695   6.458   5.021   1.335
 2932SOL    HW2 9696   6.387   4.878   1.297
 2933SOL     OW 9697   1.438   6.960   0.292
 2933SOL    HW1 9698   1.364   6.946   0.227
 2933SOL    HW2 9699   1.436   0.026   0.325
 2934SOL     OW 9700   4.717   5.054   2.018
 2934SOL    HW1 9701   4.693   5.151   2.025
 2934SOL    HW2 9702   4.795   5.035   2.078
 2935SOL     OW 9703   1.046   2.905   5.854
 2935SOL    HW1 9704   1.093   2.993   5.846
 2935SOL    HW2 9705   0.965   2.906   5.794
 2936SOL     OW 9706   4.567   0.157   2.114
 2936SOL    HW1 9707   4.509   0.092   2.162
 2936SOL    HW2 9708   4.625   0.109   2.049
 2937SOL     OW 9709   5.953   3.389   3.045
 2937SOL    HW1 9710   5.924   3.304   3.001
 2937SOL    HW2 9711   5.997   3.448   2.978
 2938SOL     OW 9712   0.500   4.772   0.261
 2938SOL    HW1 9713   0.530   4.702   0.196
 2938SOL    HW2 9714   0.401   4.764   0.275
 2939SOL     OW 9715   6.884   6.163   1.575
 2939SOL    HW1 9716   6.835   6.158   1.662
 2939SOL    HW2 9717   6.818   6.174   1.501
 2940SOL     OW 9718   4.490   6.129   4.018
 2940SOL    HW1 9719   4.584   6.164   4.024
 2940SOL    HW2 9720   4.429   6.202   3.986
 2941SOL     OW 9721   2.671   4.946   2.918
 2941SOL    HW1 9722   2.588   4.956   2.863
 2941SOL    HW2 9723   2.657   4.989   3.007
 2942SOL     OW 9724   3.615   2.141   1.666
 2942SOL    HW1 9725   3.634   2.217   1.727
 2942SOL    HW2 9726   3.697   2.086   1.654
 2943SOL     OW 9727   5.958   3.285   3.525
 2943SOL    HW1 9728   5.989   3.194   3.552
 2943SOL    HW2 9729   5.895   3.320   3.594
 2944SOL     OW 9730   1.511   5.922   2.838
 2944SOL    HW1 9731   1.434   5.865   2.813
 2944SOL    HW2 9732   1.480   6.016   2.854
 2945SOL     OW 9733   5.764   3.709   1.526
 2945SOL    HW1 9734   5.728   3.676   1.439
 2945SOL    HW2 9735   5.705   3.782   1.561
 2946SOL     OW 9736   3.559   2.931   4.397
 2946SOL    HW1 9737   3.554   3.001   4.469
 2946SOL    HW2 9738   3.651   2.930   4.358
 2947SOL     OW 9739   6.530   4.934   0.854
 2947SOL    HW1 9740   6.566   4.941   0.947
 2947SOL    HW2 9741   6.438   4.896   0.857
 2948SOL     OW 9742   6.901   3.899   1.893
 2948SOL    HW1 9743   6.820   3.863   1.938
 2948SOL    HW2 9744   6.888   3.997   1.875
 2949SOL     OW 9745   1.485   6.557   0.523
 2949SOL    HW1 9746   1.434   6.482   0.565
 2949SOL    HW2 9747   1.423   6.630   0.497
 2950SOL     OW 9748   6.210   5.638   2.645
 2950SOL    HW1 9749   6.302   5.669   2.666
 2950SOL    HW2 9750   6.157   5.713   2.606
 2951SOL     OW 9751   0.679   2.417   1.476
 2951SOL    HW1 9752   0.692   2.317   1.473
 2951SOL    HW2 9753   0.766   2.462   1.460
 2952SOL     OW 9754   0.029   1.974   4.757
 2952SOL    HW1 9755   0.114   1.965   4.705
 2952SOL    HW2 9756   6.980   1.974   4.693
 2953SOL     OW 9757   1.996   5.761   3.119
 2953SOL    HW1 9758   1.943   5.706   3.055
 2953SOL    HW2 9759   1.983   5.858   3.099
 2954SOL     OW 9760   0.580   4.503   6.370
 2954SOL    HW1 9761   0.631   4.502   6.456
 2954SOL    HW2 9762   0.635   4.549   6.300
 2955SOL     OW 9763   1.546   4.406   6.324
 2955SOL    HW1 9764   1.591   4.364   6.245
 2955SOL    HW2 9765   1.589   4.495   6.343
 2956SOL     OW 9766   5.496   4.348   4.141
 2956SOL    HW1 9767   5.436   4.292   4.198
 2956SOL    HW2 9768   5.581   4.298   4.124
 2957SOL     OW 9769   2.276   5.266   1.845
 2957SOL    HW1 9770   2.323   5.235   1.762
 2957SOL    HW2 9771   2.241   5.187   1.895
 2958SOL     OW 9772   1.345   4.176   2.071
 2958SOL    HW1 9773   1.306   4.217   1.988
 2958SOL    HW2 9774   1.397   4.246   2.120
 2959SOL     OW 9775   0.206   4.002   3.908
 2959SOL    HW1 9776   0.142   3.940   3.864
 2959SOL    HW2 9777   0.160   4.053   3.980
 2960SOL     OW 9778   4.864   6.285   0.856
 2960SOL    HW1 9779   4.837   6.287   0.760
 2960SOL    HW2 9780   4.783   6.285   0.914
 2961SOL     OW 9781   5.487   2.626   1.564
 2961SOL    HW1 9782   5.395   2.658   1.540
 2961SOL    HW2 9783   5.481   2.537   1.608
 2962SOL     OW 9784   0.356   7.020   3.840
 2962SOL    HW1 9785   0.415   0.070   3.851
 2962SOL    HW2 9786   0.337   7.005   3.743
 2963SOL     OW 9787   1.441   0.291   5.115
 2963SOL    HW1 9788   1.391   0.264   5.197
 2963SOL    HW2 9789   1.466   0.388   5.122
 2964SOL     OW 9790   1.544   0.501   6.491
 2964SOL    HW1 9791   1.628   0.491   6.543
 2964SOL    HW2 9792   1.522   0.598   6.481
 2965SOL     OW 9793   6.223   0.367   6.086
 2965SOL    HW1 9794   6.195   0.444   6.142
 2965SOL    HW2 9795   6.213   0.282   6.138
 2966SOL     OW 9796   3.499   4.898   2.694
 2966SOL    HW1 9797   3.490   4.889   2.595
 2966SOL    HW2 9798   3.547   4.818   2.730
 2967SOL     OW 9799   6.019   6.544   5.133
 2967SOL    HW1 9800   6.036   6.481   5.208
 2967SOL    HW2 9801   6.034   6.638   5.164
 2968SOL     OW 9802   0.971   3.920   1.331
 2968SOL    HW1 9803   0.961   3.944   1.428
 2968SOL    HW2 9804   1.068   3.909   1.310
 2969SOL     OW 9805   4.557   2.267   4.759
 2969SOL    HW1 9806   4.545   2.212   4.676
 2969SOL    HW2 9807   4.471   2.269   4.810
 2970SOL     OW 9808   2.473   2.870   5.961
 2970SOL    HW1 9809   2.473   2.952   6.019
 2970SOL    HW2 9810   2.494   2.896   5.867
 2971SOL     OW 9811   4.858   3.713   6.921
 2971SOL    HW1 9812   4.800   3.683   6.996
 2971SOL    HW2 9813   4.878   3.636   6.861
 2972SOL     OW 9814   6.969   5.446   6.823
 2972SOL    HW1 9815   6.922   5.372   6.871
 2972SOL    HW2 9816   6.967   5.529   6.880
 2973SOL     OW 9817   5.819   0.891   4.244
 2973SOL    HW1 9818   5.880   0.814   4.260
 2973SOL    HW2 9819   5.752   0.897   4.318
 2974SOL     OW 9820   5.256   6.277   2.247
 2974SOL    HW1 9821   5.318   6.348   2.215
 2974SOL    HW2 9822   5.263   6.269   2.346
 2975SOL     OW 9823   6.651   3.841   4.772
 2975SOL    HW1 9824   6.582   3.841   4.844
 2975SOL    HW2 9825   6.730   3.786   4.801
 2976SOL     OW 9826   3.558   0.589   1.427
 2976SOL    HW1 9827   3.647   0.628   1.407
 2976SOL    HW2 9828   3.540   0.513   1.365
 2977SOL     OW 9829   1.161   1.121   1.740
 2977SOL    HW1 9830   1.102   1.154   1.813
 2977SOL    HW2 9831   1.169   1.192   1.669
 2978SOL     OW 9832   3.040   5.284   0.106
 2978SOL    HW1 9833   3.137   5.295   0.130
 2978SOL    HW2 9834   3.023   5.327   0.017
 2979SOL     OW 9835   2.915   1.069   5.265
 2979SOL    HW1 9836   2.855   1.052   5.186
 2979SOL    HW2 9837   2.860   1.075   5.348
 2980SOL     OW 9838   3.538   3.274   4.281
 2980SOL    HW1 9839   3.474   3.200   4.300
 2980SOL    HW2 9840   3.527   3.303   4.185
 2981SOL     OW 9841   2.842   1.706   1.806
 2981SOL    HW1 9842   2.852   1.614   1.768
 2981SOL    HW2 9843   2.778   1.704   1.883
 2982SOL     OW 9844   1.931   0.904   0.897
 2982SOL    HW1 9845   1.881   0.925   0.981
 2982SOL    HW2 9846   1.935   0.986   0.840
 2983SOL     OW 9847   6.608   3.114   5.958
 2983SOL    HW1 9848   6.575   3.083   5.868
 2983SOL    HW2 9849   6.545   3.182   5.995
 2984SOL     OW 9850   0.300   6.350   1.740
 2984SOL    HW1 9851   0.385   6.306   1.713
 2984SOL    HW2 9852   0.223   6.303   1.696
 2985SOL     OW 9853   6.403   0.389   6.457
 2985SOL    HW1 9854   6.342   0.467   6.470
 2985SOL    HW2 9855   6.490   0.407   6.504
 2986SOL     OW 9856   3.393   3.317   1.995
 2986SOL    HW1 9857   3.462   3.342   1.927
 2986SOL    HW2 9858   3.433   3.319   2.086
 2987SOL     OW 9859   2.060   5.601   4.632
 2987SOL    HW1 9860   2.159   5.599   4.644
 2987SOL    HW2 9861   2.038   5.627   4.538
 2988SOL     OW 9862   6.749   2.172   6.183
 2988SOL    HW1 9863   6.776   2.150   6.277
 2988SOL    HW2 9864   6.689   2.100   6.148
 2989SOL     OW 9865   5.798   3.611   4.870
 2989SOL    HW1 9866   5.770   3.646   4.960
 2989SOL    HW2 9867   5.874   3.665   4.835
 2990SOL     OW 9868   5.700   1.663   5.687
 2990SOL    HW1 9869   5.632   1.649   5.759
 2990SOL    HW2 9870   5.787   1.624   5.716
 2991SOL     OW 9871   6.722   3.405   0.440
 2991SOL    HW1 9872   6.812   3.361   0.430
 2991SOL    HW2 9873   6.700   3.413   0.537
 2992SOL     OW 9874   0.969   3.817   5.089
 2992SOL    HW1 9875   0.884   3.842   5.042
 2992SOL    HW2 9876   1.018   3.750   5.033
 2993SOL     OW 9877   3.197   5.058   0.824
 2993SOL    HW1 9878   3.190   5.158   0.824
 2993SOL    HW2 9879   3.126   5.020   0.765
 2994SOL     OW 9880   3.071   4.960   4.513
 2994SOL    HW1 9881   3.099   4.917   4.599
 2994SOL    HW2 9882   3.057   5.058   4.529
 2995SOL     OW 9883   4.534   1.085   1.925
 2995SOL    HW1 9884   4.573   1.177   1.920
 2995SOL    HW2 9885   4.486   1.064   1.840
 2996SOL     OW 9886   6.450   1.268   4.070
 2996SOL    HW1 9887   6.373   1.328   4.093
 2996SOL    HW2 9888   6.536   1.313   4.093
 2997SOL     OW 9889   5.003   6.078   4.135
 2997SOL    HW1 9890   5.051   6.015   4.073
 2997SOL    HW2 9891   4.966   6.154   4.083
 2998SOL     OW 9892   2.396   0.819   1.737
 2998SOL    HW1 9893   2.428   0.742   1.681
 2998SOL    HW2 9894   2.443   0.903   1.708
 2999SOL     OW 9895   2.031   4.440   0.562
 2999SOL    HW1 9896   2.031   4.341   0.545
 2999SOL    HW2 9897   2.123   4.476   0.548
 3000SOL     OW 9898   2.077   4.008   5.168
 3000SOL    HW1 9899   2.102   4.084   5.227
 3000SOL    HW2 9900   2.156   3.981   5.113
 3001SOL     OW 9901   4.189   0.736   6.258
 3001SOL    HW1 9902   4.190   0.739   6.158
 3001SOL    HW2 9903   4.170   0.828   6.293
 3002SOL     OW 9904   1.381   2.282   2.072
 3002SOL    HW1 9905   1.387   2.377   2.039
 3002SOL    HW2 9906   1.420   2.276   2.164
 3003SOL     OW 9907   1.294   5.924   1.053
 3003SOL    HW1 9908   1.247   6.012   1.048
 3003SOL    HW2 9909   1.392   5.940   1.064
 3004SOL     OW 9910   3.097   6.568   3.892
 3004SOL    HW1 9911   3.165   6.623   3.941
 3004SOL    HW2 9912   3.006   6.607   3.908
 3005SOL     OW 9913   2.918   2.134   0.567
 3005SOL    HW1 9914   2.873   2.207   0.618
 3005SOL    HW2 9915   2.945   2.168   0.477
 3006SOL     OW 9916   5.584   1.531   5.917
 3006SOL    HW1 9917   5.543   1.562   6.002
 3006SOL    HW2 9918   5.623   1.439   5.930
 3007SOL     OW 9919   6.055   5.500   5.956
 3007SOL    HW1 9920   6.120   5.526   5.885
 3007SOL    HW2 9921   6.100   5.502   6.046
 3008SOL     OW 9922   4.903   4.269   5.377
 3008SOL    HW1 9923   4.911   4.368   5.391
 3008SOL    HW2 9924   4.988   4.224   5.407
 3009SOL     OW 9925   5.466   3.258   1.667
 3009SOL    HW1 9926   5.512   3.273   1.755
 3009SOL    HW2 9927   5.450   3.161   1.654
 3010SOL     OW 9928   4.752   5.123   1.549
 3010SOL    HW1 9929   4.689   5.077   1.486
 3010SOL    HW2 9930   4.843   5.082   1.541
 3011SOL     OW 9931   5.715   6.903   0.616
 3011SOL    HW1 9932   5.661   6.862   0.542
 3011SOL    HW2 9933   5.806   6.925   0.582
 3012SOL     OW 9934   2.456   1.195   4.675
 3012SOL    HW1 9935   2.461   1.295   4.685
 3012SOL    HW2 9936   2.384   1.172   4.609
 3013SOL     OW 9937   0.806   5.119   5.713
 3013SOL    HW1 9938   0.821   5.040   5.774
 3013SOL    HW2 9939   0.714   5.155   5.728
 3014SOL     OW 9940   4.275   0.099   6.631
 3014SOL    HW1 9941   4.253   0.185   6.586
 3014SOL    HW2 9942   4.302   0.031   6.562
 3015SOL     OW 9943   2.601   0.274   6.137
 3015SOL    HW1 9944   2.631   0.317   6.052
 3015SOL    HW2 9945   2.534   0.202   6.116
 3016SOL     OW 9946   2.888   0.540   4.219
 3016SOL    HW1 9947   2.801   0.589   4.229
 3016SOL    HW2 9948   2.918   0.544   4.124
 3017SOL     OW 9949   1.163   5.972   0.483
 3017SOL    HW1 9950   1.092   5.993   0.416
 3017SOL    HW2 9951   1.248   6.017   0.457
 3018SOL     OW 9952   3.354   2.052   2.135
 3018SOL    HW1 9953   3.433   2.025   2.081
 3018SOL    HW2 9954   3.276   2.069   2.075
 3019SOL     OW 9955   1.471   7.018   5.965
 3019SOL    HW1 9956   1.430   6.992   5.878
 3019SOL    HW2 9957   1.428   0.073   5.999
 3020SOL     OW 9958   4.833   4.564   6.822
 3020SOL    HW1 9959   4.918   4.538   6.867
 3020SOL    HW2 9960   4.791   4.482   6.782
 3021SOL     OW 9961   5.291   0.205   4.498
 3021SOL    HW1 9962   5.215   0.216   4.434
 3021SOL    HW2 9963   5.256   0.173   4.586
 3022SOL     OW 9964   4.585   6.838   4.265
 3022SOL    HW1 9965   4.594   6.848   4.166
 3022SOL    HW2 9966   4.575   6.741   4.288
 3023SOL     OW 9967   5.705   4.383   4.835
 3023SOL    HW1 9968   5.615   4.339   4.831
 3023SOL    HW2 9969   5.702   4.470   4.786
 3024SOL     OW 9970   0.138   0.973   0.545
 3024SOL    HW1 9971   0.101   0.977   0.452
 3024SOL    HW2 9972   0.191   1.055   0.564
 3025SOL     OW 9973   4.014   5.567   0.948
 3025SOL    HW1 9974   4.103   5.521   0.945
 3025SOL    HW2 9975   3.948   5.516   0.892
 3026SOL     OW 9976   0.303   0.601   2.383
 3026SOL    HW1 9977   0.355   0.548   2.317
 3026SOL    HW2 9978   0.353   0.604   2.470
 3027SOL     OW 9979   4.003   6.811   0.528
 3027SOL    HW1 9980   4.036   6.757   0.451
 3027SOL    HW2 9981   4.048   6.900   0.528
 3028SOL     OW 9982   3.521   3.565   4.565
 3028SOL    HW1 9983   3.423   3.547   4.579
 3028SOL    HW2 9984   3.533   3.628   4.489
 3029SOL     OW 9985   6.941   2.967   4.954
 3029SOL    HW1 9986   6.868   2.900   4.968
 3029SOL    HW2 9987   6.908   3.040   4.894
 3030SOL     OW 9988   1.384   2.565   6.544
 3030SOL    HW1 9989   1.377   2.662   6.522
 3030SOL    HW2 9990   1.473   2.547   6.585
 3031SOL     OW 9991   0.263   5.662   0.327
 3031SOL    HW1 9992   0.332   5.733   0.312
 3031SOL    HW2 9993   0.278   5.586   0.264
 3032SOL     OW 9994   2.733   6.946   3.384
 3032SOL    HW1 9995   2.658   6.901   3.431
 3032SOL    HW2 9996   2.711   0.013   3.369
 3033SOL     OW 9997   1.643   1.420   6.170
 3033SOL    HW1 9998   1.573   1.462   6.228
 3033SOL    HW2 9999   1.734   1.442   6.206
 3034SOL     OW10000   5.453   3.343   3.636
 3034SOL    HW110001   5.464   3.424   3.694
 3034SOL    HW210002   5.373   3.356   3.578
 3035SOL     OW10003   6.999   3.632   0.066
 3035SOL    HW110004   6.947   3.591   0.141
 3035SOL    HW210005   0.010   3.719   0.097
 3036SOL     OW10006   3.487   2.789   5.734
 3036SOL    HW110007   3.410   2.729   5.712
 3036SOL    HW210008   3.467   2.882   5.702
 3037SOL     OW10009   0.869   4.888   6.817
 3037SOL    HW110010   0.914   4.890   6.906
 3037SOL    HW210011   0.778   4.848   6.826
 3038SOL     OW10012   5.955   4.954   5.707
 3038SOL    HW110013   5.983   5.028   5.768
 3038SOL    HW210014   5.912   4.993   5.626
 3039SOL     OW10015   5.582   3.832   5.714
 3039SOL    HW110016   5.539   3.758   5.764
 3039SOL    HW210017   5.578   3.916   5.769
 3040SOL     OW10018   3.890   6.127   5.882
 3040SOL    HW110019   3.967   6.082   5.838
 3040SOL    HW210020   3.920   6.170   5.967
 3041SOL     OW10021   1.566   5.395   6.216
 3041SOL    HW110022   1.514   5.475   6.185
 3041SOL    HW210023   1.523   5.312   6.184
 3042SOL     OW10024   0.131   4.577   4.480
 3042SOL    HW110025   0.104   4.502   4.419
 3042SOL    HW210026   0.115   4.664   4.434
 3043SOL     OW10027   3.186   4.451   1.607
 3043SOL    HW110028   3.103   4.483   1.563
 3043SOL    HW210029   3.233   4.529   1.651
 3044SOL     OW10030   3.895   3.722   4.684
 3044SOL    HW110031   3.926   3.647   4.742
 3044SOL    HW210032   3.908   3.697   4.588
 3045SOL     OW10033   5.645   1.566   2.221
 3045SOL    HW110034   5.648   1.646   2.161
 3045SOL    HW210035   5.560   1.567   2.274
 3046SOL     OW10036   5.859   5.759   1.594
 3046SOL    HW110037   5.859   5.659   1.602
 3046SOL    HW210038   5.926   5.787   1.526
 3047SOL     OW10039   6.227   1.757   4.147
 3047SOL    HW110040   6.303   1.821   4.155
 3047SOL    HW210041   6.145   1.798   4.187
 3048SOL     OW10042   4.285   4.913   1.543
 3048SOL    HW110043   4.320   5.006   1.532
 3048SOL    HW210044   4.356   4.847   1.519
 3049SOL     OW10045   0.806   2.071   2.249
 3049SOL    HW110046   0.781   1.976   2.231
 3049SOL    HW210047   0.789   2.126   2.168
 3050SOL     OW10048   3.410   2.380   6.674
 3050SOL    HW110049   3.342   2.335   6.616
 3050SOL    HW210050   3.438   2.466   6.631
 3051SOL     OW10051   2.144   4.975   6.069
 3051SOL    HW110052   2.054   5.011   6.090
 3051SOL    HW210053   2.191   5.036   6.006
 3052SOL     OW10054   6.692   6.289   3.905
 3052SOL    HW110055   6.612   6.259   3.956
 3052SOL    HW210056   6.697   6.239   3.818
 3053SOL     OW10057   0.730   4.306   0.107
 3053SOL    HW110058   0.658   4.285   0.040
 3053SOL    HW210059   0.806   4.242   0.095
 3054SOL     OW10060   5.484   0.256   2.901
 3054SOL    HW110061   5.484   0.299   2.811
 3054SOL    HW210062   5.408   0.292   2.955
 3055SOL     OW10063   5.166   6.472   0.563
 3055SOL    HW110064   5.186   6.463   0.465
 3055SOL    HW210065   5.105   6.550   0.577
 3056SOL     OW10066   4.544   1.877   0.395
 3056SOL    HW110067   4.642   1.860   0.401
 3056SOL    HW210068   4.524   1.937   0.318
 3057SOL     OW10069   6.195   3.822   3.380
 3057SOL    HW110070   6.236   3.752   3.321
 3057SOL    HW210071   6.097   3.805   3.389
 3058SOL     OW10072   0.349   5.057   6.059
 3058SOL    HW110073   0.284   5.103   6.119
 3058SOL    HW210074   0.307   4.973   6.023
 3059SOL     OW10075   1.147   2.121   2.024
 3059SOL    HW110076   1.230   2.152   2.071
 3059SOL    HW210077   1.098   2.201   1.988
 3060SOL     OW10078   5.600   3.806   3.449
 3060SOL    HW110079   5.548   3.822   3.533
 3060SOL    HW210080   5.570   3.720   3.408
 3061SOL     OW10081   5.633   6.624   3.104
 3061SOL    HW110082   5.541   6.652   3.079
 3061SOL    HW210083   5.637   6.601   3.201
 3062SOL     OW10084   4.119   5.122   1.123
 3062SOL    HW110085   4.037   5.108   1.068
 3062SOL    HW210086   4.097   5.109   1.219
 3063SOL     OW10087   6.825   4.589   1.137
 3063SOL    HW110088   6.879   4.522   1.086
 3063SOL    HW210089   6.731   4.591   1.101
 3064SOL     OW10090   4.672   1.990   6.231
 3064SOL    HW110091   4.715   2.077   6.255
 3064SOL    HW210092   4.594   1.973   6.291
 3065SOL     OW10093   5.779   1.429   6.284
 3065SOL    HW110094   5.703   1.426   6.220
 3065SOL    HW210095   5.810   1.336   6.304
 3066SOL     OW10096   5.077   0.188   5.804
 3066SOL    HW110097   5.091   0.209   5.901
 3066SOL    HW210098   4.992   0.231   5.773
 3067SOL     OW10099   1.374   1.748   4.739
 3067SOL    HW110100   1.391   1.690   4.659
 3067SOL    HW210101   1.451   1.810   4.751
 3068SOL     OW10102   5.821   0.266   0.789
 3068SOL    HW110103   5.738   0.237   0.835
 3068SOL    HW210104   5.889   0.193   0.791
 3069SOL     OW10105   5.558   6.145   4.030
 3069SOL    HW110106   5.582   6.062   4.080
 3069SOL    HW210107   5.565   6.224   4.092
 3070SOL     OW10108   2.660   1.585   1.269
 3070SOL    HW110109   2.621   1.496   1.291
 3070SOL    HW210110   2.760   1.580   1.272
 3071SOL     OW10111   5.820   4.526   5.110
 3071SOL    HW110112   5.771   4.446   5.074
 3071SOL    HW210113   5.917   4.518   5.087
 3072SOL     OW10114   1.460   6.688   5.813
 3072SOL    HW110115   1.405   6.770   5.802
 3072SOL    HW210116   1.533   6.687   5.744
 3073SOL     OW10117   6.957   5.569   2.384
 3073SOL    HW110118   6.966   5.663   2.353
 3073SOL    HW210119   6.866   5.555   2.422
 3074SOL     OW10120   3.262   2.680   1.785
 3074SOL    HW110121   3.314   2.731   1.717
 3074SOL    HW210122   3.208   2.742   1.841
 3075SOL     OW10123   3.972   5.049   1.707
 3075SOL    HW110124   4.045   5.075   1.771
 3075SOL    HW210125   3.884   5.050   1.755
 3076SOL     OW10126   1.689   1.113   3.937
 3076SOL    HW110127   1.758   1.052   3.976
 3076SOL    HW210128   1.692   1.201   3.984
 3077SOL     OW10129   0.195   3.587   1.816
 3077SOL    HW110130   0.096   3.591   1.827
 3077SOL    HW210131   0.236   3.548   1.899
 3078SOL     OW10132   6.863   3.691   2.231
 3078SOL    HW110133   6.782   3.734   2.270
 3078SOL    HW210134   6.893   3.742   2.151
 3079SOL     OW10135   1.361   4.287   4.366
 3079SOL    HW110136   1.300   4.354   4.408
 3079SOL    HW210137   1.357   4.201   4.417
 3080SOL     OW10138   4.026   4.691   1.460
 3080SOL    HW110139   3.974   4.652   1.383
 3080SOL    HW210140   4.116   4.648   1.464
 3081SOL     OW10141   2.155   3.174   6.038
 3081SOL    HW110142   2.137   3.079   6.012
 3081SOL    HW210143   2.095   3.235   5.986
 3082SOL     OW10144   5.418   4.050   5.001
 3082SOL    HW110145   5.456   3.964   5.035
 3082SOL    HW210146   5.346   4.082   5.063
 3083SOL     OW10147   3.988   5.873   1.408
 3083SOL    HW110148   4.076   5.832   1.431
 3083SOL    HW210149   3.946   5.910   1.490
 3084SOL     OW10150   6.937   5.094   3.961
 3084SOL    HW110151   6.880   5.147   3.898
 3084SOL    HW210152   7.006   5.043   3.909
 3085SOL     OW10153   5.978   5.607   6.975
 3085SOL    HW110154   6.024   5.658   6.902
 3085SOL    HW210155   6.046   5.577   0.013
 3086SOL     OW10156   6.164   6.396   6.299
 3086SOL    HW110157   6.118   6.334   6.236
 3086SOL    HW210158   6.168   6.487   6.259
 3087SOL     OW10159   3.245   0.056   2.461
 3087SOL    HW110160   3.177   0.115   2.505
 3087SOL    HW210161   3.336   0.095   2.473
 3088SOL     OW10162   2.428   3.812   5.362
 3088SOL    HW110163   2.415   3.881   5.290
 3088SOL    HW210164   2.521   3.818   5.398
 3089SOL     OW10165   4.216   5.947   6.073
 3089SOL    HW110166   4.211   6.028   6.015
 3089SOL    HW210167   4.206   5.973   6.169
 3090SOL     OW10168   0.084   2.861   2.034
 3090SOL    HW110169   0.104   2.770   1.998
 3090SOL    HW210170   0.046   2.918   1.961
 3091SOL     OW10171   1.172   2.158   0.177
 3091SOL    HW110172   1.263   2.131   0.145
 3091SOL    HW210173   1.180   2.227   0.248
 3092SOL     OW10174   6.102   1.496   2.102
 3092SOL    HW110175   6.200   1.520   2.102
 3092SOL    HW210176   6.059   1.532   2.185
 3093SOL     OW10177   5.859   5.126   6.513
 3093SOL    HW110178   5.856   5.085   6.422
 3093SOL    HW210179   5.776   5.180   6.528
 3094SOL     OW10180   2.255   1.430   6.123
 3094SOL    HW110181   2.170   1.461   6.081
 3094SOL    HW210182   2.236   1.400   6.217
 3095SOL     OW10183   1.490   3.890   4.729
 3095SOL    HW110184   1.422   3.818   4.746
 3095SOL    HW210185   1.569   3.850   4.684
 3096SOL     OW10186   1.782   3.189   4.578
 3096SOL    HW110187   1.733   3.263   4.624
 3096SOL    HW210188   1.737   3.169   4.491
 3097SOL     OW10189   5.343   3.354   5.372
 3097SOL    HW110190   5.319   3.290   5.444
 3097SOL    HW210191   5.430   3.328   5.330
 3098SOL     OW10192   1.594   3.222   2.262
 3098SOL    HW110193   1.520   3.155   2.269
 3098SOL    HW210194   1.585   3.290   2.334
 3099SOL     OW10195   0.726   6.692   5.168
 3099SOL    HW110196   0.807   6.637   5.146
 3099SOL    HW210197   0.749   6.758   5.239
 3100SOL     OW10198   5.752   4.725   2.156
 3100SOL    HW110199   5.729   4.630   2.139
 3100SOL    HW210200   5.674   4.772   2.197
 3101SOL     OW10201   5.226   0.155   4.990
 3101SOL    HW110202   5.315   0.200   5.002
 3101SOL    HW210203   5.214   0.130   4.894
 3102SOL     OW10204   5.804   4.873   1.756
 3102SOL    HW110205   5.819   4.774   1.760
 3102SOL    HW210206   5.800   4.910   1.849
 3103SOL     OW10207   1.788   1.998   1.774
 3103SOL    HW110208   1.784   2.000   1.874
 3103SOL    HW210209   1.880   1.973   1.745
 3104SOL     OW10210   5.525   2.586   5.392
 3104SOL    HW110211   5.541   2.512   5.327
 3104SOL    HW210212   5.588   2.661   5.373
 3105SOL     OW10213   5.539   4.205   0.425
 3105SOL    HW110214   5.489   4.119   0.436
 3105SOL    HW210215   5.634   4.193   0.455
 3106SOL     OW10216   5.278   1.950   5.665
 3106SOL    HW110217   5.334   2.019   5.619
 3106SOL    HW210218   5.237   1.889   5.597
 3107SOL     OW10219   3.861   2.040   4.976
 3107SOL    HW110220   3.843   2.126   5.024
 3107SOL    HW210221   3.944   2.050   4.920
 3108SOL     OW10222   1.936   4.196   3.383
 3108SOL    HW110223   2.029   4.173   3.355
 3108SOL    HW210224   1.934   4.289   3.419
 3109SOL     OW10225   6.783   6.093   3.255
 3109SOL    HW110226   6.763   6.034   3.334
 3109SOL    HW210227   6.836   6.042   3.188
 3110SOL     OW10228   1.219   5.343   3.762
 3110SOL    HW110229   1.189   5.421   3.709
 3110SOL    HW210230   1.152   5.269   3.755
 3111SOL     OW10231   6.395   3.963   3.793
 3111SOL    HW110232   6.437   4.031   3.733
 3111SOL    HW210233   6.353   4.009   3.871
 3112SOL     OW10234   3.861   1.221   0.432
 3112SOL    HW110235   3.776   1.168   0.443
 3112SOL    HW210236   3.840   1.307   0.387
 3113SOL     OW10237   1.724   0.001   3.236
 3113SOL    HW110238   1.761   6.937   3.243
 3113SOL    HW210239   1.629   7.026   3.205
 3114SOL     OW10240   4.642   6.562   6.184
 3114SOL    HW110241   4.729   6.554   6.136
 3114SOL    HW210242   4.659   6.586   6.280
 3115SOL     OW10243   4.786   5.186   4.472
 3115SOL    HW110244   4.782   5.266   4.412
 3115SOL    HW210245   4.856   5.122   4.439
 3116SOL     OW10246   0.781   1.851   5.944
 3116SOL    HW110247   0.829   1.939   5.934
 3116SOL    HW210248   0.692   1.857   5.899
 3117SOL     OW10249   3.936   6.983   1.107
 3117SOL    HW110250   3.939   0.044   1.063
 3117SOL    HW210251   3.846   6.942   1.092
 3118SOL     OW10252   1.200   2.005   3.413
 3118SOL    HW110253   1.236   2.023   3.505
 3118SOL    HW210254   1.190   1.907   3.400
 3119SOL     OW10255   4.934   5.660   4.234
 3119SOL    HW110256   4.976   5.687   4.147
 3119SOL    HW210257   4.943   5.735   4.299
 3120SOL     OW10258   2.340   5.541   6.922
 3120SOL    HW110259   2.408   5.534   6.848
 3120SOL    HW210260   2.301   5.633   6.923
 3121SOL     OW10261   4.106   2.290   4.100
 3121SOL    HW110262   4.016   2.250   4.120
 3121SOL    HW210263   4.129   2.274   4.004
 3122SOL     OW10264   5.297   5.161   5.891
 3122SOL    HW110265   5.277   5.255   5.864
 3122SOL    HW210266   5.304   5.104   5.810
 3123SOL     OW10267   1.685   2.010   2.965
 3123SOL    HW110268   1.683   2.016   3.065
 3123SOL    HW210269   1.622   2.079   2.927
 3124SOL     OW10270   5.226   0.020   5.655
 3124SOL    HW110271   5.183   0.090   5.712
 3124SOL    HW210272   5.245   0.057   5.564
 3125SOL     OW10273   1.403   1.251   5.606
 3125SOL    HW110274   1.447   1.164   5.583
 3125SOL    HW210275   1.403   1.262   5.705
 3126SOL     OW10276   4.791   4.762   5.639
 3126SOL    HW110277   4.811   4.697   5.712
 3126SOL    HW210278   4.787   4.854   5.677
 3127SOL     OW10279   6.777   1.620   5.340
 3127SOL    HW110280   6.684   1.587   5.358
 3127SOL    HW210281   6.772   1.713   5.302
 3128SOL     OW10282   3.776   0.342   0.549
 3128SOL    HW110283   3.724   0.319   0.467
 3128SOL    HW210284   3.714   0.350   0.627
 3129SOL     OW10285   4.341   4.334   0.077
 3129SOL    HW110286   4.323   4.376   7.017
 3129SOL    HW210287   4.330   4.403   0.149
 3130SOL     OW10288   0.582   5.847   1.958
 3130SOL    HW110289   0.666   5.794   1.971
 3130SOL    HW210290   0.578   5.880   1.863
 3131SOL     OW10291   6.855   3.825   2.807
 3131SOL    HW110292   6.824   3.810   2.900
 3131SOL    HW210293   6.855   3.739   2.757
 3132SOL     OW10294   5.253   4.130   7.027
 3132SOL    HW110295   5.331   4.069   0.012
 3132SOL    HW210296   5.282   4.225   0.010
 3133SOL     OW10297   5.391   6.838   3.831
 3133SOL    HW110298   5.389   6.758   3.891
 3133SOL    HW210299   5.484   6.852   3.796
 3134SOL     OW10300   5.628   4.862   2.526
 3134SOL    HW110301   5.567   4.793   2.487
 3134SOL    HW210302   5.678   4.908   2.454
 3135SOL     OW10303   3.577   6.319   6.832
 3135SOL    HW110304   3.594   6.355   6.740
 3135SOL    HW210305   3.489   6.273   6.834
 3136SOL     OW10306   6.447   0.618   2.867
 3136SOL    HW110307   6.502   0.559   2.926
 3136SOL    HW210308   6.427   0.704   2.915
 3137SOL     OW10309   4.207   5.682   0.225
 3137SOL    HW110310   4.156   5.660   0.308
 3137SOL    HW210311   4.253   5.599   0.192
 3138SOL     OW10312   6.708   6.316   5.254
 3138SOL    HW110313   6.776   6.285   5.188
 3138SOL    HW210314   6.644   6.378   5.209
 3139SOL     OW10315   1.789   5.118   1.700
 3139SOL    HW110316   1.711   5.180   1.706
 3139SOL    HW210317   1.761   5.033   1.655
 3140SOL     OW10318   6.098   5.932   0.075
 3140SOL    HW110319   6.008   5.945   0.117
 3140SOL    HW210320   6.089   5.871   7.025
 3141SOL     OW10321   5.798   1.509   6.683
 3141SOL    HW110322   5.731   1.556   6.741
 3141SOL    HW210323   5.790   1.543   6.589
 3142SOL     OW10324   4.430   1.047   3.839
 3142SOL    HW110325   4.485   0.995   3.774
 3142SOL    HW210326   4.352   1.088   3.792
 3143SOL     OW10327   7.015   1.263   1.228
 3143SOL    HW110328   0.062   1.203   1.204
 3143SOL    HW210329   7.016   1.280   1.327
 3144SOL     OW10330   3.589   4.599   6.893
 3144SOL    HW110331   3.548   4.510   6.915
 3144SOL    HW210332   3.689   4.589   6.890
 3145SOL     OW10333   0.410   5.464   0.170
 3145SOL    HW110334   0.490   5.515   0.201
 3145SOL    HW210335   0.386   5.493   0.077
 3146SOL     OW10336   6.450   2.359   5.001
 3146SOL    HW110337   6.390   2.365   4.921
 3146SOL    HW210338   6.489   2.267   5.006
 3147SOL     OW10339   4.270   0.011   6.873
 3147SOL    HW110340   4.253   0.038   6.778
 3147SOL    HW210341   4.276   0.093   6.931
 3148SOL     OW10342   6.774   4.751   1.352
 3148SOL    HW110343   6.808   4.844   1.370
 3148SOL    HW210344   6.817   4.716   1.269
 3149SOL     OW10345   3.653   3.165   0.389
 3149SOL    HW110346   3.665   3.233   0.461
 3149SOL    HW210347   3.706   3.191   0.309
 3150SOL     OW10348   0.188   0.000   5.707
 3150SOL    HW110349   0.240   6.975   5.772
 3150SOL    HW210350   0.228   7.020   5.616
 3151SOL     OW10351   0.056   0.924   5.782
 3151SOL    HW110352   0.011   1.012   5.798
 3151SOL    HW210353   0.145   0.940   5.739
 3152SOL     OW10354   1.969   2.278   5.796
 3152SOL    HW110355   2.038   2.350   5.811
 3152SOL    HW210356   1.880   2.311   5.825
 3153SOL     OW10357   5.491   5.815   2.209
 3153SOL    HW110358   5.405   5.799   2.256
 3153SOL    HW210359   5.533   5.728   2.184
 3154SOL     OW10360   3.924   1.950   0.911
 3154SOL    HW110361   3.973   1.928   0.996
 3154SOL    HW210362   3.986   1.939   0.833
 3155SOL     OW10363   1.016   4.868   0.023
 3155SOL    HW110364   0.960   4.950   0.034
 3155SOL    HW210365   1.038   4.830   0.113
 3156SOL     OW10366   4.160   4.617   0.754
 3156SOL    HW110367   4.252   4.578   0.743
 3156SOL    HW210368   4.092   4.547   0.733
 3157SOL     OW10369   1.091   0.803   4.676
 3157SOL    HW110370   1.184   0.802   4.714
 3157SOL    HW210371   1.089   0.865   4.598
 3158SOL     OW10372   2.545   0.530   5.666
 3158SOL    HW110373   2.579   0.605   5.723
 3158SOL    HW210374   2.619   0.464   5.650
 3159SOL     OW10375   5.022   7.028   1.535
 3159SOL    HW110376   4.939   7.010   1.481
 3159SOL    HW210377   5.018   0.092   1.571
 3160SOL     OW10378   2.049   0.852   5.552
 3160SOL    HW110379   2.066   0.854   5.453
 3160SOL    HW210380   1.988   0.928   5.576
 3161SOL     OW10381   1.569   2.867   2.163
 3161SOL    HW110382   1.543   2.959   2.193
 3161SOL    HW210383   1.511   2.800   2.208
 3162SOL     OW10384   1.046   5.865   1.608
 3162SOL    HW110385   0.956   5.823   1.620
 3162SOL    HW210386   1.050   5.911   1.519
 3163SOL     OW10387   4.622   4.409   0.336
 3163SOL    HW110388   4.600   4.494   0.289
 3163SOL    HW210389   4.681   4.428   0.415
 3164SOL     OW10390   2.337   0.123   4.493
 3164SOL    HW110391   2.378   0.202   4.449
 3164SOL    HW210392   2.353   0.042   4.437
 3165SOL     OW10393   0.619   6.320   5.997
 3165SOL    HW110394   0.683   6.375   5.943
 3165SOL    HW210395   0.553   6.381   6.042
 3166SOL     OW10396   4.731   1.330   4.650
 3166SOL    HW110397   4.668   1.300   4.721
 3166SOL    HW210398   4.801   1.390   4.690
 3167SOL     OW10399   5.766   2.916   1.419
 3167SOL    HW110400   5.785   2.818   1.426
 3167SOL    HW210401   5.761   2.955   1.511
 3168SOL     OW10402   5.130   1.025   0.476
 3168SOL    HW110403   5.115   1.120   0.501
 3168SOL    HW210404   5.044   0.974   0.484
 3169SOL     OW10405   1.172   4.089   2.518
 3169SOL    HW110406   1.184   3.991   2.506
 3169SOL    HW210407   1.107   4.123   2.449
 3170SOL     OW10408   1.678   3.776   3.520
 3170SOL    HW110409   1.739   3.773   3.442
 3170SOL    HW210410   1.649   3.870   3.537
 3171SOL     OW10411   5.191   1.551   4.376
 3171SOL    HW110412   5.177   1.650   4.389
 3171SOL    HW210413   5.155   1.502   4.456
 3172SOL     OW10414   5.623   4.672   1.355
 3172SOL    HW110415   5.573   4.757   1.373
 3172SOL    HW210416   5.575   4.618   1.287
 3173SOL     OW10417   5.212   2.503   0.450
 3173SOL    HW110418   5.136   2.558   0.415
 3173SOL    HW210419   5.237   2.435   0.382
 3174SOL     OW10420   3.739   2.523   6.750
 3174SOL    HW110421   3.810   2.555   6.687
 3174SOL    HW210422   3.653   2.569   6.730
 3175SOL     OW10423   5.772   6.844   5.351
 3175SOL    HW110424   5.716   6.802   5.280
 3175SOL    HW210425   5.854   6.788   5.366
 3176SOL     OW10426   0.046   4.867   3.800
 3176SOL    HW110427   7.017   4.794   3.836
 3176SOL    HW210428   0.045   4.864   3.700
 3177SOL     OW10429   5.371   3.134   3.829
 3177SOL    HW110430   5.274   3.124   3.805
 3177SOL    HW210431   5.400   3.227   3.809
 3178SOL     OW10432   0.845   0.626   2.941
 3178SOL    HW110433   0.862   0.724   2.934
 3178SOL    HW210434   0.924   0.576   2.905
 3179SOL     OW10435   0.787   2.628   2.264
 3179SOL    HW110436   0.838   2.566   2.205
 3179SOL    HW210437   0.808   2.608   2.360
 3180SOL     OW10438   6.893   6.487   6.407
 3180SOL    HW110439   6.815   6.446   6.454
 3180SOL    HW210440   6.919   6.430   6.329
 3181SOL     OW10441   0.650   5.841   5.431
 3181SOL    HW110442   0.716   5.832   5.357
 3181SOL    HW210443   0.564   5.878   5.394
 3182SOL     OW10444   1.845   0.012   1.463
 3182SOL    HW110445   1.855   0.088   1.398
 3182SOL    HW210446   1.913   6.971   1.443
 3183SOL     OW10447   4.044   3.571   1.026
 3183SOL    HW110448   3.947   3.552   1.014
 3183SOL    HW210449   4.089   3.491   1.066
 3184SOL     OW10450   6.519   1.638   4.205
 3184SOL    HW110451   6.447   1.570   4.215
 3184SOL    HW210452   6.600   1.610   4.258
 3185SOL     OW10453   0.609   6.654   6.628
 3185SOL    HW110454   0.703   6.688   6.633
 3185SOL    HW210455   0.545   6.729   6.642
 3186SOL     OW10456   0.130   2.730   6.319
 3186SOL    HW110457   0.098   2.694   6.407
 3186SOL    HW210458   0.226   2.756   6.327
 3187SOL     OW10459   5.183   7.028   2.524
 3187SOL    HW110460   5.122   6.977   2.584
 3187SOL    HW210461   5.259   6.970   2.495
 3188SOL     OW10462   1.652   6.532   0.768
 3188SOL    HW110463   1.744   6.571   0.776
 3188SOL    HW210464   1.626   6.528   0.671
 3189SOL     OW10465   2.742   1.866   6.108
 3189SOL    HW110466   2.784   1.957   6.106
 3189SOL    HW210467   2.812   1.797   6.086
 3190SOL     OW10468   6.166   6.008   3.832
 3190SOL    HW110469   6.215   6.007   3.919
 3190SOL    HW210470   6.165   6.101   3.796
 3191SOL     OW10471   3.709   5.702   1.650
 3191SOL    HW110472   3.647   5.642   1.599
 3191SOL    HW210473   3.655   5.771   1.699
 3192SOL     OW10474   5.325   1.025   2.761
 3192SOL    HW110475   5.255   1.032   2.832
 3192SOL    HW210476   5.361   0.932   2.758
 3193SOL     OW10477   3.512   5.836   4.804
 3193SOL    HW110478   3.547   5.742   4.808
 3193SOL    HW210479   3.585   5.900   4.827
 3194SOL     OW10480   1.617   6.926   6.312
 3194SOL    HW110481   1.618   6.831   6.346
 3194SOL    HW210482   1.633   6.926   6.213
 3195SOL     OW10483   1.146   0.303   1.159
 3195SOL    HW110484   1.085   0.285   1.236
 3195SOL    HW210485   1.096   0.288   1.073
 3196SOL     OW10486   5.824   0.125   2.417
 3196SOL    HW110487   5.870   0.052   2.467
 3196SOL    HW210488   5.867   0.138   2.328
 3197SOL     OW10489   2.665   0.899   6.324
 3197SOL    HW110490   2.688   0.884   6.420
 3197SOL    HW210491   2.749   0.907   6.270
 3198SOL     OW10492   5.836   2.502   3.813
 3198SOL    HW110493   5.747   2.548   3.814
 3198SOL    HW210494   5.879   2.512   3.903
 3199SOL     OW10495   4.960   3.813   3.229
 3199SOL    HW110496   5.035   3.747   3.221
 3199SOL    HW210497   4.917   3.804   3.319
 3200SOL     OW10498   5.439   3.229   4.594
 3200SOL    HW110499   5.435   3.132   4.571
 3200SOL    HW210500   5.459   3.240   4.691
 3201SOL     OW10501   6.403   4.281   1.895
 3201SOL    HW110502   6.313   4.305   1.860
 3201SOL    HW210503   6.402   4.186   1.929
 3202SOL     OW10504   2.644   3.210   6.431
 3202SOL    HW110505   2.612   3.297   6.395
 3202SOL    HW210506   2.565   3.151   6.451
 3203SOL     OW10507   3.171   6.579   1.904
 3203SOL    HW110508   3.162   6.609   1.809
 3203SOL    HW210509   3.215   6.650   1.958
 3204SOL     OW10510   4.046   0.659   3.887
 3204SOL    HW110511   4.137   0.647   3.927
 3204SOL    HW210512   3.984   0.589   3.923
 3205SOL     OW10513   4.754   3.216   5.655
 3205SOL    HW110514   4.714   3.175   5.738
 3205SOL    HW210515   4.834   3.162   5.627
 3206SOL     OW10516   2.578   4.248   1.016
 3206SOL    HW110517   2.663   4.216   1.058
 3206SOL    HW210518   2.556   4.339   1.051
 3207SOL     OW10519   2.354   5.309   4.254
 3207SOL    HW110520   2.345   5.372   4.178
 3207SOL    HW210521   2.449   5.308   4.286
 3208SOL     OW10522   6.433   4.762   6.356
 3208SOL    HW110523   6.483   4.849   6.351
 3208SOL    HW210524   6.399   4.739   6.265
 3209SOL     OW10525   5.533   6.637   6.398
 3209SOL    HW110526   5.453   6.671   6.348
 3209SOL    HW210527   5.510   6.549   6.441
 3210SOL     OW10528   5.113   5.848   1.715
 3210SOL    HW110529   5.212   5.849   1.728
 3210SOL    HW210530   5.079   5.755   1.729
 3211SOL     OW10531   1.934   6.328   6.621
 3211SOL    HW110532   1.845   6.365   6.594
 3211SOL    HW210533   2.001   6.348   6.550
 3212SOL     OW10534   2.851   6.729   3.280
 3212SOL    HW110535   2.809   6.814   3.312
 3212SOL    HW210536   2.897   6.684   3.356
 3213SOL     OW10537   1.461   6.754   6.091
 3213SOL    HW110538   1.494   6.847   6.073
 3213SOL    HW210539   1.459   6.702   6.006
 3214SOL     OW10540   4.241   0.436   2.565
 3214SOL    HW110541   4.204   0.528   2.575
 3214SOL    HW210542   4.314   0.422   2.633
 3215SOL     OW10543   2.193   2.887   1.710
 3215SOL    HW110544   2.197   2.926   1.802
 3215SOL    HW210545   2.174   2.789   1.716
 3216SOL     OW10546   5.947   5.409   0.942
 3216SOL    HW110547   5.939   5.406   1.041
 3216SOL    HW210548   6.041   5.430   0.916
 3217SOL     OW10549   6.771   5.024   3.371
 3217SOL    HW110550   6.710   4.953   3.403
 3217SOL    HW210551   6.824   4.990   3.293
 3218SOL     OW10552   5.415   1.555   2.756
 3218SOL    HW110553   5.336   1.601   2.797
 3218SOL    HW210554   5.393   1.459   2.739
 3219SOL     OW10555   5.713   1.852   4.844
 3219SOL    HW110556   5.628   1.899   4.868
 3219SOL    HW210557   5.751   1.894   4.762
 3220SOL     OW10558   0.108   3.725   5.978
 3220SOL    HW110559   0.105   3.627   5.954
 3220SOL    HW210560   0.189   3.766   5.936
 3221SOL     OW10561   3.610   1.629   2.000
 3221SOL    HW110562   3.626   1.713   2.052
 3221SOL    HW210563   3.678   1.560   2.025
 3222SOL     OW10564   3.392   1.121   3.290
 3222SOL    HW110565   3.345   1.189   3.234
 3222SOL    HW210566   3.472   1.087   3.240
 3223SOL     OW10567   1.337   5.408   0.744
 3223SOL    HW110568   1.324   5.507   0.756
 3223SOL    HW210569   1.432   5.390   0.720
 3224SOL     OW10570   4.758   2.070   4.373
 3224SOL    HW110571   4.719   2.017   4.448
 3224SOL    HW210572   4.690   2.080   4.300
 3225SOL     OW10573   4.974   1.072   4.669
 3225SOL    HW110574   4.943   1.124   4.748
 3225SOL    HW210575   5.050   1.121   4.625
 3226SOL     OW10576   6.105   0.926   0.670
 3226SOL    HW110577   6.090   0.944   0.767
 3226SOL    HW210578   6.151   1.004   0.628
 3227SOL     OW10579   5.629   4.362   5.411
 3227SOL    HW110580   5.639   4.290   5.342
 3227SOL    HW210581   5.655   4.450   5.371
 3228SOL     OW10582   2.465   4.473   0.349
 3228SOL    HW110583   2.396   4.542   0.331
 3228SOL    HW210584   2.546   4.516   0.388
 3229SOL     OW10585   1.809   2.101   0.551
 3229SOL    HW110586   1.851   2.191   0.540
 3229SOL    HW210587   1.799   2.079   0.648
 3230SOL     OW10588   3.515   6.125   5.333
 3230SOL    HW110589   3.592   6.070   5.368
 3230SOL    HW210590   3.477   6.180   5.407
 3231SOL     OW10591   2.113   2.532   2.705
 3231SOL    HW110592   2.119   2.590   2.786
 3231SOL    HW210593   2.025   2.484   2.705
 3232SOL     OW10594   3.528   4.967   3.766
 3232SOL    HW110595   3.468   4.888   3.765
 3232SOL    HW210596   3.585   4.967   3.683
 3233SOL     OW10597   1.966   6.816   0.137
 3233SOL    HW110598   1.867   6.824   0.126
 3233SOL    HW210599   1.998   6.884   0.203
 3234SOL     OW10600   3.324   3.757   0.786
 3234SOL    HW110601   3.290   3.666   0.762
 3234SOL    HW210602   3.265   3.797   0.856
 3235SOL     OW10603   0.664   1.144   3.440
 3235SOL    HW110604   0.730   1.208   3.480
 3235SOL    HW210605   0.644   1.071   3.506
 3236SOL     OW10606   4.534   0.571   0.648
 3236SOL    HW110607   4.614   0.513   0.632
 3236SOL    HW210608   4.512   0.572   0.745
 3237SOL     OW10609   5.945   1.459   5.774
 3237SOL    HW110610   6.029   1.434   5.822
 3237SOL    HW210611   5.898   1.376   5.743
 3238SOL     OW10612   6.305   4.699   1.737
 3238SOL    HW110613   6.297   4.643   1.820
 3238SOL    HW210614   6.398   4.691   1.701
 3239SOL     OW10615   6.857   0.189   4.960
 3239SOL    HW110616   6.782   0.161   5.020
 3239SOL    HW210617   6.820   0.216   4.871
 3240SOL     OW10618   0.107   0.991   0.278
 3240SOL    HW110619   0.147   0.938   0.203
 3240SOL    HW210620   0.057   1.070   0.242
 3241SOL     OW10621   6.627   3.329   5.128
 3241SOL    HW110622   6.668   3.349   5.040
 3241SOL    HW210623   6.660   3.394   5.196
 3242SOL     OW10624   6.964   3.850   4.512
 3242SOL    HW110625   7.009   3.763   4.493
 3242SOL    HW210626   6.880   3.834   4.564
 3243SOL     OW10627   6.047   4.603   4.027
 3243SOL    HW110628   6.083   4.696   4.038
 3243SOL    HW210629   5.959   4.597   4.073
 3244SOL     OW10630   4.870   6.755   0.434
 3244SOL    HW110631   4.910   6.713   0.515
 3244SOL    HW210632   4.863   6.854   0.447
 3245SOL     OW10633   3.517   6.938   4.471
 3245SOL    HW110634   3.573   7.021   4.478
 3245SOL    HW210635   3.560   6.864   4.523
 3246SOL     OW10636   6.675   6.733   2.927
 3246SOL    HW110637   6.581   6.730   2.892
 3246SOL    HW210638   6.736   6.767   2.855
 3247SOL     OW10639   1.538   4.210   3.622
 3247SOL    HW110640   1.541   4.303   3.585
 3247SOL    HW210641   1.530   4.144   3.547
 3248SOL     OW10642   5.596   2.376   3.118
 3248SOL    HW110643   5.572   2.383   3.214
 3248SOL    HW210644   5.598   2.467   3.077
 3249SOL     OW10645   3.180   3.081   3.255
 3249SOL    HW110646   3.154   3.103   3.161
 3249SOL    HW210647   3.112   3.117   3.318
 3250SOL     OW10648   4.454   5.695   2.617
 3250SOL    HW110649   4.547   5.730   2.601
 3250SOL    HW210650   4.458   5.623   2.686
 3251SOL     OW10651   2.917   2.240   2.626
 3251SOL    HW110652   2.877   2.267   2.538
 3251SOL    HW210653   2.883   2.301   2.698
 3252SOL     OW10654   2.177   1.509   3.305
 3252SOL    HW110655   2.166   1.588   3.246
 3252SOL    HW210656   2.216   1.433   3.253
 3253SOL     OW10657   6.817   3.083   0.107
 3253SOL    HW110658   6.871   3.083   0.023
 3253SOL    HW210659   6.746   3.153   0.101
 3254SOL     OW10660   6.274   6.763   1.671
 3254SOL    HW110661   6.293   6.684   1.613
 3254SOL    HW210662   6.356   6.788   1.722
 3255SOL     OW10663   4.298   6.153   1.923
 3255SOL    HW110664   4.398   6.146   1.912
 3255SOL    HW210665   4.262   6.063   1.949
 3256SOL     OW10666   5.165   2.336   1.203
 3256SOL    HW110667   5.230   2.406   1.233
 3256SOL    HW210668   5.106   2.311   1.280
 3257SOL     OW10669   3.058   1.274   2.669
 3257SOL    HW110670   3.130   1.336   2.702
 3257SOL    HW210671   2.986   1.326   2.624
 3258SOL     OW10672   1.645   5.523   4.420
 3258SOL    HW110673   1.670   5.570   4.336
 3258SOL    HW210674   1.546   5.510   4.423
 3259SOL     OW10675   5.597   4.106   4.290
 3259SOL    HW110676   5.682   4.137   4.247
 3259SOL    HW210677   5.615   4.027   4.348
 3260SOL     OW10678   1.643   4.950   3.385
 3260SOL    HW110679   1.597   5.030   3.346
 3260SOL    HW210680   1.705   4.910   3.317
 3261SOL     OW10681   5.603   0.336   4.245
 3261SOL    HW110682   5.672   0.263   4.248
 3261SOL    HW210683   5.518   0.299   4.207
 3262SOL     OW10684   3.209   1.433   3.581
 3262SOL    HW110685   3.134   1.368   3.566
 3262SOL    HW210686   3.196   1.513   3.522
 3263SOL     OW10687   0.282   0.781   1.871
 3263SOL    HW110688   0.249   0.875   1.880
 3263SOL    HW210689   0.205   0.720   1.848
 3264SOL     OW10690   1.602   4.691   6.939
 3264SOL    HW110691   1.656   4.760   6.890
 3264SOL    HW210692   1.573   4.620   6.875
 3265SOL     OW10693   0.363   5.107   6.723
 3265SOL    HW110694   0.286   5.155   6.765
 3265SOL    HW210695   0.428   5.173   6.686
 3266SOL     OW10696   3.955   5.049   6.010
 3266SOL    HW110697   3.891   5.122   5.989
 3266SOL    HW210698   4.022   5.082   6.077
 3267SOL     OW10699   3.388   6.671   0.749
 3267SOL    HW110700   3.433   6.636   0.667
 3267SOL    HW210701   3.382   6.598   0.817
 3268SOL     OW10702   5.956   5.207   2.163
 3268SOL    HW110703   5.976   5.275   2.092
 3268SOL    HW210704   6.041   5.179   2.207
 3269SOL     OW10705   1.593   4.843   2.157
 3269SOL    HW110706   1.636   4.758   2.127
 3269SOL    HW210707   1.631   4.919   2.106
 3270SOL     OW10708   1.285   2.943   5.450
 3270SOL    HW110709   1.362   2.915   5.392
 3270SOL    HW210710   1.218   2.870   5.453
 3271SOL     OW10711   0.662   4.090   1.546
 3271SOL    HW110712   0.698   4.166   1.491
 3271SOL    HW210713   0.739   4.039   1.585
 3272SOL     OW10714   4.792   5.929   0.665
 3272SOL    HW110715   4.782   5.867   0.587
 3272SOL    HW210716   4.776   6.023   0.635
 3273SOL     OW10717   3.743   4.067   6.462
 3273SOL    HW110718   3.659   4.119   6.476
 3273SOL    HW210719   3.723   3.983   6.411
 3274SOL     OW10720   5.016   0.098   2.175
 3274SOL    HW110721   5.027   0.197   2.164
 3274SOL    HW210722   4.972   0.080   2.262
 3275SOL     OW10723   4.901   0.804   1.594
 3275SOL    HW110724   4.865   0.896   1.580
 3275SOL    HW210725   4.879   0.774   1.687
 3276SOL     OW10726   5.924   5.913   6.668
 3276SOL    HW110727   5.824   5.912   6.668
 3276SOL    HW210728   5.956   6.005   6.649
 3277SOL     OW10729   3.218   2.128   2.424
 3277SOL    HW110730   3.285   2.155   2.356
 3277SOL    HW210731   3.126   2.140   2.387
 3278SOL     OW10732   5.352   0.907   6.592
 3278SOL    HW110733   5.333   0.991   6.642
 3278SOL    HW210734   5.450   0.888   6.594
 3279SOL     OW10735   3.787   6.967   1.737
 3279SOL    HW110736   3.776   0.001   1.814
 3279SOL    HW210737   3.833   6.883   1.769
 3280SOL     OW10738   0.042   3.317   3.888
 3280SOL    HW110739   0.058   3.319   3.987
 3280SOL    HW210740   0.001   3.404   3.860
 3281SOL     OW10741   6.448   2.464   1.760
 3281SOL    HW110742   6.464   2.531   1.833
 3281SOL    HW210743   6.358   2.480   1.720
 3282SOL     OW10744   7.026   4.885   5.152
 3282SOL    HW110745   6.980   4.861   5.066
 3282SOL    HW210746   0.062   4.812   5.176
 3283SOL     OW10747   3.386   1.722   6.842
 3283SOL    HW110748   3.451   1.767   6.903
 3283SOL    HW210749   3.333   1.790   6.793
 3284SOL     OW10750   2.197   6.244   4.716
 3284SOL    HW110751   2.253   6.238   4.634
 3284SOL    HW210752   2.238   6.308   4.781
 3285SOL     OW10753   3.920   2.134   4.480
 3285SOL    HW110754   3.962   2.103   4.566
 3285SOL    HW210755   3.985   2.189   4.429
 3286SOL     OW10756   1.714   2.778   2.776
 3286SOL    HW110757   1.772   2.753   2.698
 3286SOL    HW210758   1.731   2.874   2.800
 3287SOL     OW10759   2.655   0.536   0.989
 3287SOL    HW110760   2.741   0.552   0.941
 3287SOL    HW210761   2.640   0.610   1.055
 3288SOL     OW10762   2.647   5.614   2.061
 3288SOL    HW110763   2.621   5.518   2.071
 3288SOL    HW210764   2.565   5.670   2.050
 3289SOL     OW10765   4.051   0.625   6.797
 3289SOL    HW110766   4.040   0.640   6.895
 3289SOL    HW210767   3.964   0.641   6.751
 3290SOL     OW10768   0.425   5.870   0.306
 3290SOL    HW110769   0.523   5.853   0.301
 3290SOL    HW210770   0.408   5.967   0.323
 3291SOL     OW10771   5.068   6.916   4.510
 3291SOL    HW110772   5.138   6.909   4.439
 3291SOL    HW210773   4.989   6.860   4.485
 3292SOL     OW10774   0.195   2.213   0.347
 3292SOL    HW110775   0.145   2.190   0.430
 3292SOL    HW210776   0.210   2.130   0.293
 3293SOL     OW10777   6.719   4.909   3.006
 3293SOL    HW110778   6.762   4.864   2.927
 3293SOL    HW210779   6.765   4.997   3.022
 3294SOL     OW10780   4.886   2.949   5.304
 3294SOL    HW110781   4.965   2.947   5.241
 3294SOL    HW210782   4.804   2.923   5.254
 3295SOL     OW10783   1.068   2.268   3.002
 3295SOL    HW110784   1.101   2.279   2.908
 3295SOL    HW210785   1.108   2.185   3.041
 3296SOL     OW10786   2.309   0.624   6.106
 3296SOL    HW110787   2.396   0.598   6.148
 3296SOL    HW210788   2.309   0.723   6.088
 3297SOL     OW10789   4.187   1.319   5.051
 3297SOL    HW110790   4.167   1.328   4.953
 3297SOL    HW210791   4.263   1.379   5.075
 3298SOL     OW10792   3.715   3.896   5.814
 3298SOL    HW110793   3.789   3.885   5.747
 3298SOL    HW210794   3.627   3.895   5.766
 3299SOL     OW10795   2.637   5.982   3.881
 3299SOL    HW110796   2.709   5.914   3.866
 3299SOL    HW210797   2.637   6.048   3.806
 3300SOL     OW10798   2.189   0.677   4.167
 3300SOL    HW110799   2.245   0.696   4.247
 3300SOL    HW210800   2.097   0.650   4.196
 3301SOL     OW10801   1.443   1.028   3.182
 3301SOL    HW110802   1.412   1.077   3.264
 3301SOL    HW210803   1.413   1.078   3.100
 3302SOL     OW10804   1.348   5.386   5.258
 3302SOL    HW110805   1.406   5.306   5.246
 3302SOL    HW210806   1.302   5.407   5.171
 3303SOL     OW10807   3.456   3.382   6.663
 3303SOL    HW110808   3.359   3.357   6.667
 3303SOL    HW210809   3.502   3.325   6.594
 3304SOL     OW10810   2.053   3.905   0.309
 3304SOL    HW110811   2.061   3.812   0.346
 3304SOL    HW210812   2.143   3.948   0.309
 3305SOL     OW10813   3.174   2.687   0.396
 3305SOL    HW110814   3.237   2.654   0.466
 3305SOL    HW210815   3.132   2.608   0.350
 3306SOL     OW10816   2.241   0.252   0.078
 3306SOL    HW110817   2.318   0.307   0.112
 3306SOL    HW210818   2.273   0.159   0.059
 3307SOL     OW10819   1.796   5.858   4.707
 3307SOL    HW110820   1.887   5.880   4.742
 3307SOL    HW210821   1.803   5.828   4.612
 3308SOL     OW10822   4.336   4.557   1.289
 3308SOL    HW110823   4.281   4.611   1.226
 3308SOL    HW210824   4.396   4.497   1.237
 3309SOL     OW10825   5.200   3.648   3.291
 3309SOL    HW110826   5.259   3.656   3.211
 3309SOL    HW210827   5.218   3.724   3.353
 3310SOL     OW10828   6.260   4.622   6.159
 3310SOL    HW110829   6.202   4.653   6.084
 3310SOL    HW210830   6.306   4.537   6.133
 3311SOL     OW10831   2.498   3.619   0.381
 3311SOL    HW110832   2.464   3.692   0.322
 3311SOL    HW210833   2.421   3.564   0.413
 3312SOL     OW10834   4.799   2.882   6.523
 3312SOL    HW110835   4.860   2.955   6.492
 3312SOL    HW210836   4.802   2.807   6.457
 3313SOL     OW10837   6.985   0.493   4.051
 3313SOL    HW110838   6.970   0.402   4.088
 3313SOL    HW210839   7.007   0.556   4.126
 3314SOL     OW10840   3.680   5.784   1.920
 3314SOL    HW110841   3.715   5.784   2.013
 3314SOL    HW210842   3.628   5.700   1.904
 3315SOL     OW10843   0.811   5.493   4.016
 3315SOL    HW110844   0.851   5.573   3.971
 3315SOL    HW210845   0.778   5.517   4.107
 3316SOL     OW10846   4.012   2.884   0.035
 3316SOL    HW110847   3.928   2.934   0.055
 3316SOL    HW210848   3.991   2.799   7.016
 3317SOL     OW10849   5.051   2.694   1.710
 3317SOL    HW110850   5.022   2.666   1.801
 3317SOL    HW210851   5.025   2.789   1.694
 3318SOL     OW10852   3.376   3.123   0.806
 3318SOL    HW110853   3.355   3.036   0.761
 3318SOL    HW210854   3.396   3.108   0.903
 3319SOL     OW10855   6.507   5.856   4.102
 3319SOL    HW110856   6.577   5.860   4.173
 3319SOL    HW210857   6.550   5.856   4.012
 3320SOL     OW10858   6.255   6.846   1.978
 3320SOL    HW110859   6.344   6.841   1.934
 3320SOL    HW210860   6.201   6.765   1.953
 3321SOL     OW10861   4.884   2.056   6.952
 3321SOL    HW110862   4.974   2.088   6.981
 3321SOL    HW210863   4.866   2.088   6.858
 3322SOL     OW10864   6.178   3.114   0.701
 3322SOL    HW110865   6.125   3.100   0.618
 3322SOL    HW210866   6.126   3.080   0.780
 3323SOL     OW10867   1.720   1.479   1.469
 3323SOL    HW110868   1.657   1.415   1.514
 3323SOL    HW210869   1.704   1.477   1.371
 3324SOL     OW10870   4.981   5.458   5.417
 3324SOL    HW110871   5.009   5.541   5.465
 3324SOL    HW210872   4.995   5.469   5.319
 3325SOL     OW10873   2.384   4.900   5.004
 3325SOL    HW110874   2.431   4.836   4.943
 3325SOL    HW210875   2.420   4.890   5.097
 3326SOL     OW10876   3.566   2.111   2.315
 3326SOL    HW110877   3.575   2.181   2.244
 3326SOL    HW210878   3.481   2.060   2.301
 3327SOL     OW10879   0.577   5.384   6.364
 3327SOL    HW110880   0.599   5.480   6.347
 3327SOL    HW210881   0.529   5.347   6.285
 3328SOL     OW10882   4.940   2.711   5.400
 3328SOL    HW110883   4.853   2.675   5.368
 3328SOL    HW210884   4.936   2.811   5.403
 3329SOL     OW10885   6.570   6.015   5.542
 3329SOL    HW110886   6.658   5.970   5.527
 3329SOL    HW210887   6.527   5.976   5.623
 3330SOL     OW10888   6.489   3.951   3.040
 3330SOL    HW110889   6.565   3.973   2.979
 3330SOL    HW210890   6.501   3.998   3.128
 3331SOL     OW10891   1.975   3.462   0.691
 3331SOL    HW110892   1.999   3.373   0.729
 3331SOL    HW210893   1.890   3.495   0.733
 3332SOL     OW10894   6.841   4.163   1.820
 3332SOL    HW110895   6.831   4.230   1.894
 3332SOL    HW210896   6.759   4.165   1.762
 3333SOL     OW10897   3.149   5.389   6.451
 3333SOL    HW110898   3.057   5.376   6.412
 3333SOL    HW210899   3.174   5.308   6.503
 3334SOL     OW10900   1.656   3.528   1.848
 3334SOL    HW110901   1.740   3.578   1.829
 3334SOL    HW210902   1.625   3.481   1.766
 3335SOL     OW10903   5.897   3.991   4.402
 3335SOL    HW110904   5.981   3.970   4.351
 3335SOL    HW210905   5.894   4.089   4.423
 3336SOL     OW10906   3.221   5.775   5.900
 3336SOL    HW110907   3.254   5.741   5.988
 3336SOL    HW210908   3.182   5.700   5.847
 3337SOL     OW10909   3.308   1.933   0.584
 3337SOL    HW110910   3.224   1.957   0.632
 3337SOL    HW210911   3.357   1.862   0.635
 3338SOL     OW10912   0.010   4.842   0.517
 3338SOL    HW110913   0.056   4.791   0.444
 3338SOL    HW210914   6.992   4.778   0.578
 3339SOL     OW10915   0.838   5.833   6.471
 3339SOL    HW110916   0.907   5.800   6.406
 3339SOL    HW210917   0.874   5.911   6.521
 3340SOL     OW10918   4.026   0.201   1.861
 3340SOL    HW110919   4.053   0.108   1.884
 3340SOL    HW210920   4.071   0.265   1.923
 3341SOL     OW10921   0.303   0.003   1.501
 3341SOL    HW110922   0.401   7.020   1.489
 3341SOL    HW210923   0.254   6.953   1.464
 3342SOL     OW10924   2.760   0.506   5.240
 3342SOL    HW110925   2.821   0.431   5.214
 3342SOL    HW210926   2.771   0.525   5.338
 3343SOL     OW10927   6.974   2.479   1.209
 3343SOL    HW110928   6.938   2.520   1.125
 3343SOL    HW210929   6.976   2.548   1.281
 3344SOL     OW10930   0.111   3.004   5.896
 3344SOL    HW110931   0.028   2.967   5.855
 3344SOL    HW210932   0.092   3.034   5.989
 3345SOL     OW10933   2.202   3.471   5.596
 3345SOL    HW110934   2.185   3.384   5.642
 3345SOL    HW210935   2.168   3.546   5.653
 3346SOL     OW10936   1.692   5.784   2.531
 3346SOL    HW110937   1.624   5.824   2.469
 3346SOL    HW210938   1.768   5.747   2.479
 3347SOL     OW10939   5.926   4.085   4.062
 3347SOL    HW110940   5.982   4.014   4.105
 3347SOL    HW210941   5.978   4.128   3.988
 3348SOL     OW10942   3.629   3.811   3.006
 3348SOL    HW110943   3.628   3.875   3.083
 3348SOL    HW210944   3.645   3.860   2.921
 3349SOL     OW10945   5.959   3.809   5.855
 3349SOL    HW110946   5.949   3.804   5.756
 3349SOL    HW210947   6.052   3.780   5.881
 3350SOL     OW10948   1.497   2.170   0.937
 3350SOL    HW110949   1.517   2.083   0.982
 3350SOL    HW210950   1.443   2.228   0.998
 3351SOL     OW10951   5.081   2.063   0.389
 3351SOL    HW110952   4.998   2.068   0.333
 3351SOL    HW210953   5.125   2.153   0.390
 3352SOL     OW10954   0.626   3.402   0.501
 3352SOL    HW110955   0.527   3.413   0.498
 3352SOL    HW210956   0.650   3.335   0.571
 3353SOL     OW10957   1.838   6.579   6.273
 3353SOL    HW110958   1.865   6.615   6.184
 3353SOL    HW210959   1.816   6.655   6.334
 3354SOL     OW10960   1.255   0.983   1.958
 3354SOL    HW110961   1.249   1.027   1.869
 3354SOL    HW210962   1.200   1.034   2.024
 3355SOL     OW10963   6.545   1.257   2.933
 3355SOL    HW110964   6.555   1.356   2.922
 3355SOL    HW210965   6.635   1.214   2.932
 3356SOL     OW10966   1.843   3.337   5.537
 3356SOL    HW110967   1.833   3.427   5.577
 3356SOL    HW210968   1.836   3.267   5.608
 3357SOL     OW10969   2.130   5.471   2.159
 3357SOL    HW110970   2.096   5.471   2.065
 3357SOL    HW210971   2.164   5.380   2.182
 3358SOL     OW10972   6.913   4.188   3.626
 3358SOL    HW110973   6.865   4.275   3.639
 3358SOL    HW210974   7.011   4.203   3.639
 3359SOL     OW10975   1.457   1.238   1.856
 3359SOL    HW110976   1.529   1.288   1.808
 3359SOL    HW210977   1.407   1.181   1.791
 3360SOL     OW10978   2.135   0.416   6.166
 3360SOL    HW110979   2.220   0.460   6.137
 3360SOL    HW210980   2.110   0.449   6.258
 3361SOL     OW10981   4.057   0.741   3.154
 3361SOL    HW110982   4.054   0.841   3.164
 3361SOL    HW210983   4.138   0.706   3.202
 3362SOL     OW10984   2.794   1.446   5.272
 3362SOL    HW110985   2.875   1.397   5.238
 3362SOL    HW210986   2.765   1.513   5.204
 3363SOL     OW10987   0.446   1.123   6.230
 3363SOL    HW110988   0.351   1.151   6.217
 3363SOL    HW210989   0.488   1.179   6.302
 3364SOL     OW10990   1.835   4.840   6.208
 3364SOL    HW110991   1.747   4.803   6.237
 3364SOL    HW210992   1.872   4.898   6.281
 3365SOL     OW10993   5.818   1.929   5.681
 3365SOL    HW110994   5.875   1.905   5.602
 3365SOL    HW210995   5.737   1.871   5.683
 3366SOL     OW10996   5.211   0.959   6.334
 3366SOL    HW110997   5.259   0.900   6.269
 3366SOL    HW210998   5.248   0.944   6.426
 3367SOL     OW10999   1.945   0.289   2.020
 3367SOL    HW111000   1.934   0.388   2.006
 3367SOL    HW211001   2.014   0.254   1.956
 3368SOL     OW11002   6.439   1.156   5.899
 3368SOL    HW111003   6.501   1.095   5.849
 3368SOL    HW211004   6.352   1.109   5.915
 3369SOL     OW11005   3.495   6.452   5.996
 3369SOL    HW111006   3.515   6.373   5.938
 3369SOL    HW211007   3.579   6.482   6.040
 3370SOL     OW11008   5.269   0.312   5.505
 3370SOL    HW111009   5.347   0.270   5.553
 3370SOL    HW211010   5.303   0.366   5.428
 3371SOL     OW11011   6.669   4.912   1.667
 3371SOL    HW111012   6.718   4.825   1.671
 3371SOL    HW211013   6.669   4.955   1.757
 3372SOL     OW11014   0.506   2.099   2.865
 3372SOL    HW111015   0.512   2.184   2.813
 3372SOL    HW211016   0.573   2.100   2.939
 3373SOL     OW11017   0.573   2.303   6.284
 3373SOL    HW111018   0.507   2.322   6.357
 3373SOL    HW211019   0.612   2.212   6.299
 3374SOL     OW11020   3.782   5.744   5.304
 3374SOL    HW111021   3.740   5.701   5.384
 3374SOL    HW211022   3.747   5.701   5.221
 3375SOL     OW11023   3.543   4.197   5.151
 3375SOL    HW111024   3.482   4.125   5.117
 3375SOL    HW211025   3.623   4.203   5.092
 3376SOL     OW11026   2.906   3.150   1.894
 3376SOL    HW111027   2.991   3.167   1.943
 3376SOL    HW211028   2.847   3.230   1.901
 3377SOL     OW11029   2.813   5.728   5.695
 3377SOL    HW111030   2.834   5.647   5.641
 3377SOL    HW211031   2.719   5.722   5.730
 3378SOL     OW11032   0.551   1.307   0.778
 3378SOL    HW111033   0.521   1.393   0.738
 3378SOL    HW211034   0.572   1.242   0.705
 3379SOL     OW11035   0.297   4.758   6.149
 3379SOL    HW111036   0.285   4.661   6.169
 3379SOL    HW211037   0.271   4.813   6.228
 3380SOL     OW11038   1.026   3.833   5.921
 3380SOL    HW111039   0.984   3.746   5.896
 3380SOL    HW211040   1.042   3.887   5.838
 3381SOL     OW11041   3.274   3.150   1.224
 3381SOL    HW111042   3.194   3.105   1.263
 3381SOL    HW211043   3.327   3.083   1.171
 3382SOL     OW11044   6.748   0.001   6.790
 3382SOL    HW111045   6.684   7.024   6.714
 3382SOL    HW211046   6.796   6.943   6.800
 3383SOL     OW11047   0.349   3.851   2.966
 3383SOL    HW111048   0.275   3.783   2.973
 3383SOL    HW211049   0.410   3.826   2.892
 3384SOL     OW11050   3.187   3.248   4.441
 3384SOL    HW111051   3.091   3.260   4.417
 3384SOL    HW211052   3.232   3.190   4.373
 3385SOL     OW11053   6.579   3.667   3.442
 3385SOL    HW111054   6.522   3.718   3.507
 3385SOL    HW211055   6.571   3.569   3.460
 3386SOL     OW11056   6.052   3.822   4.716
 3386SOL    HW111057   5.974   3.820   4.654
 3386SOL    HW211058   6.089   3.915   4.718
 3387SOL     OW11059   3.147   2.130   2.989
 3387SOL    HW111060   3.209   2.092   3.058
 3387SOL    HW211061   3.159   2.081   2.903
 3388SOL     OW11062   5.108   2.986   1.879
 3388SOL    HW111063   5.150   3.061   1.827
 3388SOL    HW211064   5.013   2.974   1.851
 3389SOL     OW11065   4.932   4.500   3.120
 3389SOL    HW111066   4.845   4.543   3.142
 3389SOL    HW211067   4.998   4.520   3.193
 3390SOL     OW11068   4.782   2.496   6.099
 3390SOL    HW111069   4.752   2.591   6.113
 3390SOL    HW211070   4.775   2.474   6.002
 3391SOL     OW11071   3.974   1.890   4.104
 3391SOL    HW111072   4.025   1.843   4.175
 3391SOL    HW211073   4.018   1.875   4.015
 3392SOL     OW11074   4.960   5.931   3.534
 3392SOL    HW111075   4.923   5.839   3.548
 3392SOL    HW211076   5.055   5.924   3.503
 3393SOL     OW11077   6.799   0.679   0.096
 3393SOL    HW111078   6.890   0.695   0.135
 3393SOL    HW211079   6.747   0.765   0.096
 3394SOL     OW11080   5.763   1.436   1.431
 3394SOL    HW111081   5.742   1.350   1.384
 3394SOL    HW211082   5.778   1.417   1.528
 3395SOL     OW11083   1.831   3.354   5.135
 3395SOL    HW111084   1.844   3.408   5.052
 3395SOL    HW211085   1.877   3.399   5.212
 3396SOL     OW11086   0.016   4.115   4.590
 3396SOL    HW111087   6.995   4.030   4.574
 3396SOL    HW211088   0.109   4.094   4.618
 3397SOL     OW11089   2.819   6.351   5.635
 3397SOL    HW111090   2.812   6.334   5.537
 3397SOL    HW211091   2.864   6.272   5.679
 3398SOL     OW11092   0.298   0.100   4.379
 3398SOL    HW111093   0.216   0.157   4.383
 3398SOL    HW211094   0.346   0.115   4.292
 3399SOL     OW11095   4.404   5.196   4.439
 3399SOL    HW111096   4.331   5.137   4.473
 3399SOL    HW211097   4.450   5.151   4.363
 3400SOL     OW11098   4.852   2.663   6.353
 3400SOL    HW111099   4.899   2.619   6.430
 3400SOL    HW211100   4.758   2.628   6.347
 3401SOL     OW11101   6.364   4.756   6.635
 3401SOL    HW111102   6.377   4.771   6.537
 3401SOL    HW211103   6.305   4.676   6.648
 3402SOL     OW11104   5.165   5.182   2.494
 3402SOL    HW111105   5.089   5.227   2.448
 3402SOL    HW211106   5.132   5.097   2.537
 3403SOL     OW11107   3.143   2.037   5.140
 3403SOL    HW111108   3.139   2.135   5.119
 3403SOL    HW211109   3.069   2.013   5.203
 3404SOL     OW11110   4.255   0.647   1.372
 3404SOL    HW111111   4.165   0.633   1.331
 3404SOL    HW211112   4.287   0.562   1.412
 3405SOL     OW11113   5.715   3.683   0.925
 3405SOL    HW111114   5.671   3.644   0.844
 3405SOL    HW211115   5.778   3.616   0.965
 3406SOL     OW11116   1.173   4.508   2.001
 3406SOL    HW111117   1.168   4.553   2.090
 3406SOL    HW211118   1.081   4.481   1.973
 3407SOL     OW11119   1.633   5.390   2.784
 3407SOL    HW111120   1.692   5.332   2.729
 3407SOL    HW211121   1.606   5.342   2.867
 3408SOL     OW11122   5.334   4.196   2.837
 3408SOL    HW111123   5.238   4.167   2.842
 3408SOL    HW211124   5.360   4.241   2.922
 3409SOL     OW11125   2.915   0.784   5.822
 3409SOL    HW111126   2.980   0.712   5.797
 3409SOL    HW211127   2.964   0.868   5.845
 3410SOL     OW11128   0.136   0.462   6.788
 3410SOL    HW111129   0.083   0.401   6.729
 3410SOL    HW211130   0.075   0.505   6.855
 3411SOL     OW11131   4.930   2.659   1.943
 3411SOL    HW111132   4.984   2.696   2.019
 3411SOL    HW211133   4.863   2.727   1.913
 3412SOL     OW11134   4.159   5.107   6.692
 3412SOL    HW111135   4.115   5.131   6.605
 3412SOL    HW211136   4.237   5.048   6.675
 3413SOL     OW11137   4.101   1.969   2.225
 3413SOL    HW111138   4.082   1.896   2.290
 3413SOL    HW211139   4.019   2.027   2.215
 3414SOL     OW11140   3.704   1.665   5.511
 3414SOL    HW111141   3.647   1.639   5.433
 3414SOL    HW211142   3.733   1.583   5.561
 3415SOL     OW11143   0.447   5.413   4.248
 3415SOL    HW111144   0.398   5.370   4.172
 3415SOL    HW211145   0.465   5.345   4.319
 3416SOL     OW11146   2.084   5.125   5.717
 3416SOL    HW111147   2.141   5.163   5.790
 3416SOL    HW211148   2.120   5.035   5.691
 3417SOL     OW11149   6.022   0.427   1.646
 3417SOL    HW111150   6.014   0.468   1.737
 3417SOL    HW211151   5.977   0.338   1.645
 3418SOL     OW11152   3.265   1.541   6.339
 3418SOL    HW111153   3.245   1.455   6.292
 3418SOL    HW211154   3.335   1.591   6.288
 3419SOL     OW11155   4.482   3.965   0.393
 3419SOL    HW111156   4.417   4.006   0.328
 3419SOL    HW211157   4.432   3.914   0.463
 3420SOL     OW11158   3.879   2.129   4.162
 3420SOL    HW111159   3.837   2.139   4.252
 3420SOL    HW211160   3.927   2.041   4.157
 3421SOL     OW11161   0.828   6.554   3.852
 3421SOL    HW111162   0.813   6.464   3.810
 3421SOL    HW211163   0.803   6.626   3.787
 3422SOL     OW11164   3.311   1.756   2.246
 3422SOL    HW111165   3.319   1.841   2.195
 3422SOL    HW211166   3.318   1.678   2.184
 3423SOL     OW11167   2.906   0.913   2.038
 3423SOL    HW111168   2.900   1.004   2.078
 3423SOL    HW211169   2.920   0.845   2.110
 3424SOL     OW11170   4.140   1.536   2.263
 3424SOL    HW111171   4.211   1.574   2.321
 3424SOL    HW211172   4.175   1.525   2.170
 3425SOL     OW11173   4.878   4.494   1.676
 3425SOL    HW111174   4.855   4.448   1.762
 3425SOL    HW211175   4.949   4.563   1.694
 3426SOL     OW11176   4.328   3.903   0.668
 3426SOL    HW111177   4.243   3.954   0.656
 3426SOL    HW211178   4.334   3.868   0.761
 3427SOL     OW11179   0.992   1.434   0.303
 3427SOL    HW111180   0.935   1.503   0.259
 3427SOL    HW211181   1.085   1.469   0.312
 3428SOL     OW11182   4.568   4.808   3.248
 3428SOL    HW111183   4.547   4.861   3.330
 3428SOL    HW211184   4.491   4.747   3.227
 3429SOL     OW11185   0.434   3.072   6.606
 3429SOL    HW111186   0.426   3.171   6.591
 3429SOL    HW211187   0.407   3.050   6.700
 3430SOL     OW11188   0.934   6.530   6.839
 3430SOL    HW111189   0.926   6.589   6.758
 3430SOL    HW211190   0.912   6.436   6.814
 3431SOL     OW11191   0.759   6.115   0.111
 3431SOL    HW111192   0.673   6.167   0.118
 3431SOL    HW211193   0.739   6.022   0.082
 3432SOL     OW11194   3.176   2.143   6.660
 3432SOL    HW111195   3.104   2.098   6.712
 3432SOL    HW211196   3.135   2.216   6.604
 3433SOL     OW11197   4.134   0.595   4.912
 3433SOL    HW111198   4.191   0.607   4.831
 3433SOL    HW211199   4.134   0.498   4.939
 3434SOL     OW11200   4.509   2.429   2.746
 3434SOL    HW111201   4.415   2.395   2.734
 3434SOL    HW211202   4.562   2.363   2.799
 3435SOL     OW11203   0.711   1.458   6.768
 3435SOL    HW111204   0.695   1.515   6.687
 3435SOL    HW211205   0.765   1.509   6.835
 3436SOL     OW11206   4.210   0.073   3.295
 3436SOL    HW111207   4.246   0.015   3.368
 3436SOL    HW211208   4.151   0.143   3.335
 3437SOL     OW11209   3.997   0.615   6.434
 3437SOL    HW111210   4.090   0.642   6.408
 3437SOL    HW211211   3.950   0.576   6.355
 3438SOL     OW11212   1.658   3.949   6.518
 3438SOL    HW111213   1.694   3.993   6.600
 3438SOL    HW211214   1.584   4.005   6.480
 3439SOL     OW11215   2.511   6.461   3.355
 3439SOL    HW111216   2.417   6.492   3.345
 3439SOL    HW211217   2.512   6.365   3.383
 3440SOL     OW11218   4.165   1.999   1.088
 3440SOL    HW111219   4.199   1.970   0.998
 3440SOL    HW211220   4.140   1.918   1.141
 3441SOL     OW11221   3.646   0.500   4.375
 3441SOL    HW111222   3.596   0.482   4.290
 3441SOL    HW211223   3.627   0.428   4.441
 3442SOL     OW11224   1.622   4.927   3.038
 3442SOL    HW111225   1.707   4.885   3.070
 3442SOL    HW211226   1.643   5.012   2.990
 3443SOL     OW11227   5.876   0.618   3.776
 3443SOL    HW111228   5.953   0.681   3.778
 3443SOL    HW211229   5.844   0.601   3.870
 3444SOL     OW11230   4.448   5.206   0.520
 3444SOL    HW111231   4.379   5.173   0.585
 3444SOL    HW211232   4.532   5.153   0.532
 3445SOL     OW11233   6.157   4.846   4.771
 3445SOL    HW111234   6.166   4.926   4.830
 3445SOL    HW211235   6.243   4.830   4.723
 3446SOL     OW11236   3.143   6.634   3.097
 3446SOL    HW111237   3.157   6.732   3.085
 3446SOL    HW211238   3.232   6.589   3.110
 3447SOL     OW11239   5.891   4.898   6.007
 3447SOL    HW111240   5.855   4.984   6.044
 3447SOL    HW211241   5.817   4.845   5.967
 3448SOL     OW11242   3.483   2.108   0.977
 3448SOL    HW111243   3.410   2.172   0.954
 3448SOL    HW211244   3.568   2.136   0.934
 3449SOL     OW11245   6.115   6.634   3.385
 3449SOL    HW111246   6.034   6.618   3.441
 3449SOL    HW211247   6.087   6.649   3.290
 3450SOL     OW11248   0.741   2.015   1.338
 3450SOL    HW111249   0.798   2.043   1.415
 3450SOL    HW211250   0.746   1.916   1.327
 3451SOL     OW11251   1.303   5.239   4.005
 3451SOL    HW111252   1.289   5.285   3.917
 3451SOL    HW211253   1.305   5.140   3.992
 3452SOL     OW11254   6.357   2.368   0.289
 3452SOL    HW111255   6.399   2.458   0.304
 3452SOL    HW211256   6.285   2.354   0.357
 3453SOL     OW11257   6.404   5.930   5.779
 3453SOL    HW111258   6.424   5.915   5.876
 3453SOL    HW211259   6.312   5.967   5.769
 3454SOL     OW11260   0.450   1.184   0.256
 3454SOL    HW111261   0.538   1.146   0.226
 3454SOL    HW211262   0.438   1.166   0.354
 3455SOL     OW11263   2.318   2.194   4.571
 3455SOL    HW111264   2.338   2.143   4.654
 3455SOL    HW211265   2.322   2.133   4.492
 3456SOL     OW11266   6.523   0.262   1.458
 3456SOL    HW111267   6.523   0.327   1.534
 3456SOL    HW211268   6.603   0.202   1.466
 3457SOL     OW11269   2.360   5.599   3.773
 3457SOL    HW111270   2.404   5.689   3.781
 3457SOL    HW211271   2.264   5.612   3.746
 3458SOL     OW11272   5.242   5.484   1.082
 3458SOL    HW111273   5.232   5.406   1.143
 3458SOL    HW211274   5.268   5.452   0.991
 3459SOL     OW11275   6.524   6.596   3.288
 3459SOL    HW111276   6.555   6.574   3.381
 3459SOL    HW211277   6.597   6.577   3.223
 3460SOL     OW11278   4.333   3.964   6.075
 3460SOL    HW111279   4.377   3.894   6.019
 3460SOL    HW211280   4.301   3.923   6.161
 3461SOL     OW11281   3.258   5.537   2.501
 3461SOL    HW111282   3.336   5.529   2.438
 3461SOL    HW211283   3.246   5.451   2.550
 3462SOL     OW11284   4.888   3.194   3.330
 3462SOL    HW111285   4.858   3.131   3.401
 3462SOL    HW211286   4.858   3.160   3.241
 3463SOL     OW11287   2.101   2.917   1.154
 3463SOL    HW111288   2.065   2.824   1.147
 3463SOL    HW211289   2.201   2.914   1.153
 3464SOL     OW11290   4.459   2.511   6.612
 3464SOL    HW111291   4.511   2.470   6.687
 3464SOL    HW211292   4.361   2.501   6.630
 3465SOL     OW11293   1.486   3.738   1.854
 3465SOL    HW111294   1.553   3.663   1.851
 3465SOL    HW211295   1.420   3.719   1.927
 3466SOL     OW11296   6.168   4.498   3.816
 3466SOL    HW111297   6.118   4.539   3.892
 3466SOL    HW211298   6.261   4.476   3.845
 3467SOL     OW11299   2.814   2.391   1.461
 3467SOL    HW111300   2.883   2.461   1.484
 3467SOL    HW211301   2.729   2.436   1.435
 3468SOL     OW11302   3.701   1.751   0.860
 3468SOL    HW111303   3.651   1.794   0.935
 3468SOL    HW211304   3.798   1.773   0.868
 3469SOL     OW11305   3.737   5.959   5.684
 3469SOL    HW111306   3.691   5.879   5.722
 3469SOL    HW211307   3.794   6.001   5.755
 3470SOL     OW11308   1.073   3.194   1.386
 3470SOL    HW111309   1.113   3.274   1.430
 3470SOL    HW211310   1.038   3.220   1.296
 3471SOL     OW11311   5.180   3.333   4.473
 3471SOL    HW111312   5.089   3.305   4.502
 3471SOL    HW211313   5.248   3.294   4.536
 3472SOL     OW11314   4.340   1.918   2.868
 3472SOL    HW111315   4.286   1.979   2.926
 3472SOL    HW211316   4.351   1.829   2.913
 3473SOL     OW11317   6.834   4.447   1.991
 3473SOL    HW111318   6.927   4.418   1.971
 3473SOL    HW211319   6.824   4.544   1.968
 3474SOL     OW11320   5.406   4.716   3.945
 3474SOL    HW111321   5.393   4.766   4.031
 3474SOL    HW211322   5.355   4.761   3.872
 3475SOL     OW11323   7.013   4.623   4.166
 3475SOL    HW111324   7.015   4.720   4.142
 3475SOL    HW211325   0.070   4.580   4.139
 3476SOL     OW11326   1.614   0.735   3.759
 3476SOL    HW111327   1.638   0.733   3.856
 3476SOL    HW211328   1.639   0.823   3.720
 3477SOL     OW11329   0.723   4.012   2.335
 3477SOL    HW111330   0.699   3.915   2.337
 3477SOL    HW211331   0.752   4.041   2.426
 3478SOL     OW11332   2.420   1.130   1.188
 3478SOL    HW111333   2.444   1.127   1.091
 3478SOL    HW211334   2.321   1.136   1.198
 3479SOL     OW11335   1.243   4.385   4.811
 3479SOL    HW111336   1.320   4.414   4.868
 3479SOL    HW211337   1.264   4.403   4.715
 3480SOL     OW11338   1.378   4.877   6.880
 3480SOL    HW111339   1.311   4.824   6.827
 3480SOL    HW211340   1.453   4.817   6.909
 3481SOL     OW11341   6.475   0.833   5.448
 3481SOL    HW111342   6.408   0.779   5.499
 3481SOL    HW211343   6.550   0.775   5.420
 3482SOL     OW11344   5.742   3.785   5.121
 3482SOL    HW111345   5.660   3.772   5.176
 3482SOL    HW211346   5.823   3.772   5.178
 3483SOL     OW11347   5.354   2.661   4.888
 3483SOL    HW111348   5.320   2.584   4.943
 3483SOL    HW211349   5.363   2.741   4.947
 3484SOL     OW11350   1.995   3.481   5.356
 3484SOL    HW111351   1.942   3.428   5.422
 3484SOL    HW211352   2.084   3.504   5.394
 3485SOL     OW11353   6.848   2.505   6.439
 3485SOL    HW111354   6.900   2.425   6.407
 3485SOL    HW211355   6.912   2.576   6.468
 3486SOL     OW11356   2.027   6.208   4.935
 3486SOL    HW111357   2.091   6.185   4.862
 3486SOL    HW211358   2.067   6.181   5.023
 3487SOL     OW11359   4.775   1.432   6.457
 3487SOL    HW111360   4.735   1.513   6.500
 3487SOL    HW211361   4.875   1.437   6.463
 3488SOL     OW11362   5.782   0.457   5.088
 3488SOL    HW111363   5.703   0.464   5.027
 3488SOL    HW211364   5.765   0.386   5.157
 3489SOL     OW11365   3.087   6.362   0.837
 3489SOL    HW111366   3.041   6.404   0.759
 3489SOL    HW211367   3.077   6.421   0.917
 3490SOL     OW11368   3.415   6.266   0.203
 3490SOL    HW111369   3.511   6.294   0.208
 3490SOL    HW211370   3.395   6.199   0.274
 3491SOL     OW11371   4.574   4.989   6.309
 3491SOL    HW111372   4.533   5.046   6.237
 3491SOL    HW211373   4.669   4.968   6.284
 3492SOL     OW11374   5.859   4.376   2.156
 3492SOL    HW111375   5.904   4.332   2.234
 3492SOL    HW211376   5.772   4.415   2.185
 3493SOL     OW11377   6.510   3.127   5.422
 3493SOL    HW111378   6.432   3.103   5.479
 3493SOL    HW211379   6.495   3.094   5.329
 3494SOL     OW11380   4.579   1.882   1.951
 3494SOL    HW111381   4.525   1.938   2.015
 3494SOL    HW211382   4.523   1.860   1.872
 3495SOL     OW11383   0.878   2.588   2.530
 3495SOL    HW111384   0.958   2.547   2.574
 3495SOL    HW211385   0.800   2.586   2.593
 3496SOL     OW11386   5.878   5.380   1.206
 3496SOL    HW111387   5.792   5.334   1.187
 3496SOL    HW211388   5.925   5.333   1.280
 3497SOL     OW11389   3.339   6.211   2.558
 3497SOL    HW111390   3.241   6.231   2.553
 3497SOL    HW211391   3.370   6.218   2.653
 3498SOL     OW11392   2.105   2.579   1.479
 3498SOL    HW111393   2.048   2.532   1.412
 3498SOL    HW211394   2.106   2.677   1.460
 3499SOL     OW11395   6.232   5.593   5.106
 3499SOL    HW111396   6.297   5.642   5.165
 3499SOL    HW211397   6.166   5.544   5.162
 3500SOL     OW11398   2.071   1.640   4.710
 3500SOL    HW111399   2.164   1.626   4.675
 3500SOL    HW211400   2.008   1.575   4.667
 3501SOL     OW11401   1.516   0.452   5.413
 3501SOL    HW111402   1.516   0.472   5.315
 3501SOL    HW211403   1.422   0.446   5.446
 3502SOL     OW11404   4.818   2.868   2.187
 3502SOL    HW111405   4.778   2.906   2.103
 3502SOL    HW211406   4.914   2.847   2.172
 3503SOL     OW11407   6.297   6.177   6.661
 3503SOL    HW111408   6.211   6.143   6.624
 3503SOL    HW211409   6.292   6.179   6.761
 3504SOL     OW11410   0.958   1.041   0.515
 3504SOL    HW111411   0.994   1.057   0.423
 3504SOL    HW211412   1.007   0.965   0.557
 3505SOL     OW11413   4.957   4.970   6.479
 3505SOL    HW111414   4.938   5.004   6.571
 3505SOL    HW211415   5.012   4.886   6.485
 3506SOL     OW11416   5.303   4.674   4.814
 3506SOL    HW111417   5.239   4.735   4.861
 3506SOL    HW211418   5.284   4.580   4.841
 3507SOL     OW11419   3.322   0.292   0.569
 3507SOL    HW111420   3.417   0.306   0.595
 3507SOL    HW211421   3.262   0.338   0.635
 3508SOL     OW11422   2.939   2.184   5.469
 3508SOL    HW111423   2.982   2.260   5.421
 3508SOL    HW211424   2.845   2.208   5.494
 3509SOL     OW11425   3.877   5.539   6.531
 3509SOL    HW111426   3.839   5.514   6.442
 3509SOL    HW211427   3.895   5.637   6.534
 3510SOL     OW11428   2.756   1.596   0.637
 3510SOL    HW111429   2.701   1.630   0.713
 3510SOL    HW211430   2.788   1.672   0.581
 3511SOL     OW11431   2.972   4.247   1.709
 3511SOL    HW111432   2.933   4.335   1.736
 3511SOL    HW211433   3.039   4.261   1.637
 3512SOL     OW11434   0.172   5.254   6.408
 3512SOL    HW111435   0.260   5.274   6.450
 3512SOL    HW211436   0.103   5.317   6.443
 3513SOL     OW11437   5.703   1.978   0.352
 3513SOL    HW111438   5.709   1.940   0.260
 3513SOL    HW211439   5.794   1.975   0.394
 3514SOL     OW11440   3.897   1.543   2.375
 3514SOL    HW111441   3.982   1.506   2.337
 3514SOL    HW211442   3.912   1.634   2.411
 3515SOL     OW11443   0.087   5.631   4.178
 3515SOL    HW111444   0.062   5.540   4.212
 3515SOL    HW211445   0.162   5.668   4.234
 3516SOL     OW11446   4.403   0.341   1.236
 3516SOL    HW111447   4.471   0.409   1.264
 3516SOL    HW211448   4.379   0.356   1.139
 3517SOL     OW11449   6.125   0.340   1.000
 3517SOL    HW111450   6.073   0.352   1.085
 3517SOL    HW211451   6.094   0.407   0.933
 3518SOL     OW11452   5.413   0.849   5.410
 3518SOL    HW111453   5.334   0.790   5.427
 3518SOL    HW211454   5.442   0.892   5.496
 3519SOL     OW11455   3.556   0.559   1.119
 3519SOL    HW111456   3.546   0.657   1.137
 3519SOL    HW211457   3.653   0.539   1.101
 3520SOL     OW11458   2.743   6.287   4.524
 3520SOL    HW111459   2.790   6.375   4.531
 3520SOL    HW211460   2.788   6.231   4.454
 3521SOL     OW11461   2.213   3.206   0.572
 3521SOL    HW111462   2.178   3.155   0.651
 3521SOL    HW211463   2.305   3.239   0.592
 3522SOL     OW11464   0.305   5.492   6.586
 3522SOL    HW111465   0.341   5.582   6.561
 3522SOL    HW211466   0.381   5.428   6.597
 3523SOL     OW11467   1.811   5.600   6.901
 3523SOL    HW111468   1.750   5.633   6.829
 3523SOL    HW211469   1.764   5.604   6.989
 3524SOL     OW11470   5.386   1.227   3.406
 3524SOL    HW111471   5.416   1.132   3.394
 3524SOL    HW211472   5.458   1.288   3.374
 3525SOL     OW11473   6.241   4.127   2.974
 3525SOL    HW111474   6.326   4.103   2.927
 3525SOL    HW211475   6.244   4.092   3.068
 3526SOL     OW11476   0.729   6.684   3.255
 3526SOL    HW111477   0.644   6.735   3.239
 3526SOL    HW211478   0.746   6.624   3.176
 3527SOL     OW11479   0.426   2.720   5.797
 3527SOL    HW111480   0.435   2.626   5.765
 3527SOL    HW211481   0.397   2.778   5.721
 3528SOL     OW11482   2.358   5.846   4.683
 3528SOL    HW111483   2.299   5.860   4.603
 3528SOL    HW211484   2.453   5.863   4.657
 3529SOL     OW11485   4.530   5.260   0.917
 3529SOL    HW111486   4.500   5.305   0.833
 3529SOL    HW211487   4.542   5.328   0.989
 3530SOL     OW11488   6.991   6.972   2.060
 3530SOL    HW111489   0.036   6.910   2.035
 3530SOL    HW211490   6.920   6.921   2.108
 3531SOL     OW11491   5.475   1.731   0.163
 3531SOL    HW111492   5.552   1.790   0.137
 3531SOL    HW211493   5.401   1.741   0.097
 3532SOL     OW11494   2.255   1.413   1.770
 3532SOL    HW111495   2.157   1.434   1.767
 3532SOL    HW211496   2.268   1.314   1.768
 3533SOL     OW11497   1.171   1.568   3.077
 3533SOL    HW111498   1.125   1.480   3.084
 3533SOL    HW211499   1.267   1.558   3.101
 3534SOL     OW11500   0.404   1.547   1.016
 3534SOL    HW111501   0.480   1.485   1.033
 3534SOL    HW211502   0.436   1.624   0.960
 3535SOL     OW11503   2.828   5.946   4.536
 3535SOL    HW111504   2.831   6.010   4.460
 3535SOL    HW211505   2.920   5.910   4.553
 3536SOL     OW11506   3.408   2.027   2.816
 3536SOL    HW111507   3.323   2.069   2.785
 3536SOL    HW211508   3.442   2.077   2.896
 3537SOL     OW11509   1.914   6.027   2.954
 3537SOL    HW111510   1.869   5.964   2.892
 3537SOL    HW211511   2.004   6.053   2.918
 3538SOL     OW11512   3.399   5.214   3.883
 3538SOL    HW111513   3.401   5.114   3.876
 3538SOL    HW211514   3.448   5.253   3.805
 3539SOL     OW11515   3.292   3.688   4.343
 3539SOL    HW111516   3.363   3.674   4.274
 3539SOL    HW211517   3.307   3.776   4.390
 3540SOL     OW11518   1.894   1.920   3.430
 3540SOL    HW111519   1.896   1.825   3.398
 3540SOL    HW211520   1.971   1.970   3.390
 3541SOL     OW11521   3.114   4.166   5.191
 3541SOL    HW111522   3.029   4.155   5.140
 3541SOL    HW211523   3.182   4.102   5.157
 3542SOL     OW11524   0.412   5.517   1.364
 3542SOL    HW111525   0.459   5.601   1.393
 3542SOL    HW211526   0.446   5.490   1.273
 3543SOL     OW11527   6.493   2.754   5.047
 3543SOL    HW111528   6.447   2.842   5.040
 3543SOL    HW211529   6.462   2.694   4.973
 3544SOL     OW11530   2.048   5.754   6.712
 3544SOL    HW111531   2.037   5.661   6.677
 3544SOL    HW211532   2.100   5.752   6.797
 3545SOL     OW11533   3.313   5.339   0.151
 3545SOL    HW111534   3.370   5.415   0.182
 3545SOL    HW211535   3.354   5.298   0.070
 3546SOL     OW11536   6.069   4.579   2.715
 3546SOL    HW111537   6.077   4.656   2.778
 3546SOL    HW211538   6.068   4.612   2.621
 3547SOL     OW11539   4.788   4.633   3.745
 3547SOL    HW111540   4.770   4.705   3.812
 3547SOL    HW211541   4.725   4.557   3.759
 3548SOL     OW11542   4.492   3.123   5.408
 3548SOL    HW111543   4.512   3.061   5.332
 3548SOL    HW211544   4.562   3.195   5.410
 3549SOL     OW11545   6.136   3.841   2.764
 3549SOL    HW111546   6.124   3.809   2.859
 3549SOL    HW211547   6.092   3.929   2.753
 3550SOL     OW11548   5.793   2.258   2.433
 3550SOL    HW111549   5.809   2.260   2.334
 3550SOL    HW211550   5.880   2.256   2.481
 3551SOL     OW11551   2.256   6.824   3.062
 3551SOL    HW111552   2.244   6.749   2.998
 3551SOL    HW211553   2.351   6.825   3.095
 3552SOL     OW11554   6.920   4.453   3.038
 3552SOL    HW111555   6.903   4.547   3.068
 3552SOL    HW211556   6.938   4.453   2.939
 3553SOL     OW11557   5.994   2.219   3.252
 3553SOL    HW111558   5.990   2.310   3.294
 3553SOL    HW211559   5.936   2.217   3.171
 3554SOL     OW11560   4.042   5.564   6.735
 3554SOL    HW111561   4.021   5.592   6.829
 3554SOL    HW211562   3.960   5.526   6.692
 3555SOL     OW11563   1.044   2.882   3.732
 3555SOL    HW111564   1.100   2.847   3.657
 3555SOL    HW211565   1.078   2.973   3.758
 3556SOL     OW11566   3.840   0.704   6.643
 3556SOL    HW111567   3.766   0.770   6.628
 3556SOL    HW211568   3.911   0.718   6.575
 3557SOL     OW11569   0.851   1.014   4.692
 3557SOL    HW111570   0.921   0.943   4.690
 3557SOL    HW211571   0.893   1.102   4.716
 3558SOL     OW11572   6.762   5.552   1.142
 3558SOL    HW111573   6.762   5.467   1.195
 3558SOL    HW211574   6.671   5.567   1.104
 3559SOL     OW11575   0.668   1.158   5.599
 3559SOL    HW111576   0.652   1.254   5.619
 3559SOL    HW211577   0.664   1.143   5.500
 3560SOL     OW11578   6.684   6.303   1.829
 3560SOL    HW111579   6.764   6.263   1.875
 3560SOL    HW211580   6.693   6.403   1.829
 3561SOL     OW11581   4.303   4.680   4.256
 3561SOL    HW111582   4.403   4.678   4.267
 3561SOL    HW211583   4.260   4.699   4.345
 3562SOL     OW11584   4.659   2.618   2.604
 3562SOL    HW111585   4.693   2.547   2.543
 3562SOL    HW211586   4.611   2.576   2.681
 3563SOL     OW11587   4.552   0.566   1.362
 3563SOL    HW111588   4.500   0.604   1.438
 3563SOL    HW211589   4.580   0.640   1.301
 3564SOL     OW11590   0.186   4.338   2.918
 3564SOL    HW111591   0.176   4.320   2.820
 3564SOL    HW211592   0.107   4.390   2.950
 3565SOL     OW11593   1.917   0.274   4.937
 3565SOL    HW111594   1.818   0.257   4.938
 3565SOL    HW211595   1.965   0.189   4.916
 3566SOL     OW11596   0.739   3.983   5.474
 3566SOL    HW111597   0.733   3.890   5.437
 3566SOL    HW211598   0.771   3.979   5.568
 3567SOL     OW11599   0.010   2.893   0.705
 3567SOL    HW111600   0.048   2.897   0.797
 3567SOL    HW211601   6.949   2.939   0.704
 3568SOL     OW11602   5.227   3.878   3.496
 3568SOL    HW111603   5.298   3.882   3.567
 3568SOL    HW211604   5.138   3.864   3.539
 3569SOL     OW11605   3.845   3.339   3.927
 3569SOL    HW111606   3.867   3.258   3.981
 3569SOL    HW211607   3.816   3.312   3.835
 3570SOL     OW11608   0.472   2.480   5.709
 3570SOL    HW111609   0.570   2.500   5.707
 3570SOL    HW211610   0.442   2.449   5.619
 3571SOL     OW11611   2.582   6.779   5.040
 3571SOL    HW111612   2.576   6.830   4.954
 3571SOL    HW211613   2.674   6.741   5.049
 3572SOL     OW11614   5.056   4.900   1.905
 3572SOL    HW111615   5.024   4.885   1.998
 3572SOL    HW211616   5.110   4.984   1.902
 3573SOL     OW11617   0.831   3.854   3.103
 3573SOL    HW111618   0.802   3.774   3.156
 3573SOL    HW211619   0.881   3.917   3.163
 3574SOL     OW11620   1.876   1.593   5.650
 3574SOL    HW111621   1.915   1.536   5.578
 3574SOL    HW211622   1.841   1.678   5.610
 3575SOL     OW11623   5.539   0.114   6.953
 3575SOL    HW111624   5.513   0.051   7.026
 3575SOL    HW211625   5.572   0.200   6.992
 3576SOL     OW11626   0.997   2.476   0.674
 3576SOL    HW111627   1.076   2.535   0.654
 3576SOL    HW211628   1.011   2.431   0.762
 3577SOL     OW11629   2.127   2.649   5.494
 3577SOL    HW111630   2.158   2.645   5.399
 3577SOL    HW211631   2.206   2.652   5.555
 3578SOL     OW11632   3.395   2.655   6.341
 3578SOL    HW111633   3.307   2.647   6.387
 3578SOL    HW211634   3.460   2.590   6.380
 3579SOL     OW11635   0.708   3.537   1.700
 3579SOL    HW111636   0.790   3.481   1.687
 3579SOL    HW211637   0.632   3.479   1.730
 3580SOL     OW11638   0.749   4.314   2.298
 3580SOL    HW111639   0.696   4.327   2.382
 3580SOL    HW211640   0.754   4.217   2.277
 3581SOL     OW11641   1.163   0.347   2.608
 3581SOL    HW111642   1.219   0.285   2.664
 3581SOL    HW211643   1.068   0.316   2.609
 3582SOL     OW11644   4.359   5.275   6.534
 3582SOL    HW111645   4.288   5.327   6.582
 3582SOL    HW211646   4.359   5.300   6.437
 3583SOL     OW11647   1.205   4.708   0.972
 3583SOL    HW111648   1.114   4.749   0.966
 3583SOL    HW211649   1.221   4.673   1.064
 3584SOL     OW11650   6.593   5.077   4.987
 3584SOL    HW111651   6.678   5.117   4.954
 3584SOL    HW211652   6.576   5.107   5.081
 3585SOL     OW11653   3.478   1.400   3.705
 3585SOL    HW111654   3.533   1.452   3.640
 3585SOL    HW211655   3.382   1.402   3.676
 3586SOL     OW11656   7.023   2.268   5.260
 3586SOL    HW111657   0.028   2.325   5.186
 3586SOL    HW211658   0.066   2.257   5.329
 3587SOL     OW11659   3.187   0.096   6.450
 3587SOL    HW111660   3.233   0.009   6.432
 3587SOL    HW211661   3.090   0.078   6.469
 3588SOL     OW11662   6.255   5.121   4.869
 3588SOL    HW111663   6.282   5.137   4.774
 3588SOL    HW211664   6.231   5.209   4.912
 3589SOL     OW11665   0.172   0.400   5.747
 3589SOL    HW111666   0.099   0.337   5.717
 3589SOL    HW211667   0.171   0.405   5.847
 3590SOL     OW11668   0.042   5.508   6.568
 3590SOL    HW111669   0.002   5.520   6.659
 3590SOL    HW211670   0.142   5.513   6.575
 3591SOL     OW11671   6.059   1.176   6.866
 3591SOL    HW111672   6.074   1.103   6.933
 3591SOL    HW211673   6.006   1.249   6.908
 3592SOL     OW11674   1.350   6.156   1.424
 3592SOL    HW111675   1.432   6.115   1.384
 3592SOL    HW211676   1.377   6.230   1.486
 3593SOL     OW11677   3.942   3.113   5.415
 3593SOL    HW111678   3.974   3.167   5.493
 3593SOL    HW211679   3.852   3.075   5.435
 3594SOL     OW11680   4.380   4.780   4.967
 3594SOL    HW111681   4.394   4.681   4.975
 3594SOL    HW211682   4.462   4.828   4.999
 3595SOL     OW11683   5.326   6.253   4.404
 3595SOL    HW111684   5.254   6.289   4.463
 3595SOL    HW211685   5.387   6.195   4.458
 3596SOL     OW11686   4.051   1.634   3.277
 3596SOL    HW111687   3.987   1.683   3.218
 3596SOL    HW211688   4.087   1.554   3.228
 3597SOL     OW11689   2.977   3.213   5.637
 3597SOL    HW111690   2.925   3.258   5.710
 3597SOL    HW211691   2.914   3.177   5.569
 3598SOL     OW11692   0.727   5.690   4.693
 3598SOL    HW111693   0.732   5.758   4.766
 3598SOL    HW211694   0.794   5.618   4.710
 3599SOL     OW11695   3.050   1.296   4.933
 3599SOL    HW111696   2.960   1.255   4.948
 3599SOL    HW211697   3.121   1.231   4.961
 3600SOL     OW11698   3.175   3.232   6.975
 3600SOL    HW111699   3.146   3.250   0.040
 3600SOL    HW211700   3.210   3.317   6.935
 3601SOL     OW11701   4.596   1.119   5.007
 3601SOL    HW111702   4.595   1.218   5.024
 3601SOL    HW211703   4.677   1.095   4.954
 3602SOL     OW11704   2.086   1.690   1.119
 3602SOL    HW111705   2.039   1.603   1.108
 3602SOL    HW211706   2.030   1.751   1.175
 3603SOL     OW11707   2.743   0.202   5.359
 3603SOL    HW111708   2.833   0.211   5.401
 3603SOL    HW211709   2.675   0.184   5.430
 3604SOL     OW11710   0.136   0.339   3.556
 3604SOL    HW111711   0.222   0.298   3.587
 3604SOL    HW211712   0.131   0.434   3.588
 3605SOL     OW11713   1.081   6.826   4.100
 3605SOL    HW111714   1.073   6.735   4.141
 3605SOL    HW211715   1.177   6.854   4.100
 3606SOL     OW11716   2.382   0.010   2.458
 3606SOL    HW111717   2.381   0.105   2.487
 3606SOL    HW211718   2.352   6.980   2.533
 3607SOL     OW11719   6.000   1.641   3.070
 3607SOL    HW111720   5.972   1.611   2.979
 3607SOL    HW211721   5.924   1.688   3.114
 3608SOL     OW11722   2.913   1.809   5.771
 3608SOL    HW111723   2.838   1.874   5.755
 3608SOL    HW211724   2.893   1.723   5.725
 3609SOL     OW11725   3.729   0.642   5.182
 3609SOL    HW111726   3.636   0.610   5.197
 3609SOL    HW211727   3.731   0.704   5.104
 3610SOL     OW11728   1.723   0.791   5.703
 3610SOL    HW111729   1.636   0.794   5.653
 3610SOL    HW211730   1.769   0.705   5.684
 3611SOL     OW11731   5.352   4.519   2.811
 3611SOL    HW111732   5.318   4.575   2.887
 3611SOL    HW211733   5.288   4.444   2.795
 3612SOL     OW11734   5.712   1.107   0.165
 3612SOL    HW111735   5.735   1.106   0.263
 3612SOL    HW211736   5.743   1.194   0.125
 3613SOL     OW11737   4.407   6.645   2.503
 3613SOL    HW111738   4.416   6.604   2.412
 3613SOL    HW211739   4.423   6.743   2.497
 3614SOL     OW11740   3.929   5.527   6.994
 3614SOL    HW111741   3.919   5.442   0.016
 3614SOL    HW211742   3.861   5.594   7.026
 3615SOL     OW11743   5.785   2.358   5.860
 3615SOL    HW111744   5.766   2.448   5.821
 3615SOL    HW211745   5.843   2.306   5.797
 3616SOL     OW11746   1.172   2.316   0.424
 3616SOL    HW111747   1.191   2.277   0.514
 3616SOL    HW211748   1.114   2.396   0.433
 3617SOL     OW11749   3.748   6.028   5.431
 3617SOL    HW111750   3.743   6.020   5.530
 3617SOL    HW211751   3.752   5.937   5.390
 3618SOL     OW11752   1.026   5.050   4.232
 3618SOL    HW111753   1.037   5.119   4.160
 3618SOL    HW211754   1.115   5.011   4.254
 3619SOL     OW11755   6.016   3.096   1.956
 3619SOL    HW111756   6.113   3.079   1.972
 3619SOL    HW211757   5.967   3.010   1.947
 3620SOL     OW11758   5.497   5.554   4.698
 3620SOL    HW111759   5.512   5.542   4.796
 3620SOL    HW211760   5.418   5.614   4.684
 3621SOL     OW11761   4.013   3.168   3.635
 3621SOL    HW111762   3.966   3.085   3.604
 3621SOL    HW211763   3.947   3.244   3.636
 3622SOL     OW11764   1.556   6.447   5.928
 3622SOL    HW111765   1.524   6.539   5.907
 3622SOL    HW211766   1.563   6.436   6.027
 3623SOL     OW11767   1.144   5.776   6.176
 3623SOL    HW111768   1.152   5.866   6.217
 3623SOL    HW211769   1.204   5.712   6.224
 3624SOL     OW11770   2.585   2.137   1.974
 3624SOL    HW111771   2.608   2.202   2.047
 3624SOL    HW211772   2.661   2.074   1.961
 3625SOL     OW11773   6.717   2.299   0.934
 3625SOL    HW111774   6.787   2.227   0.928
 3625SOL    HW211775   6.628   2.257   0.952
 3626SOL     OW11776   1.826   3.136   5.300
 3626SOL    HW111777   1.825   3.213   5.364
 3626SOL    HW211778   1.857   3.168   5.211
 3627SOL     OW11779   3.568   1.984   1.946
 3627SOL    HW111780   3.610   2.070   1.976
 3627SOL    HW211781   3.542   1.992   1.850
 3628SOL     OW11782   6.550   1.965   2.018
 3628SOL    HW111783   6.527   2.062   2.006
 3628SOL    HW211784   6.479   1.909   1.977
 3629SOL     OW11785   1.716   1.530   4.620
 3629SOL    HW111786   1.812   1.501   4.614
 3629SOL    HW211787   1.697   1.565   4.712
 3630SOL     OW11788   6.831   2.060   1.806
 3630SOL    HW111789   6.895   1.991   1.838
 3630SOL    HW211790   6.875   2.116   1.735
 3631SOL     OW11791   2.199   6.691   1.776
 3631SOL    HW111792   2.218   6.768   1.715
 3631SOL    HW211793   2.116   6.711   1.829
 3632SOL     OW11794   4.481   3.774   1.673
 3632SOL    HW111795   4.532   3.691   1.653
 3632SOL    HW211796   4.391   3.769   1.629
 3633SOL     OW11797   4.072   4.309   6.957
 3633SOL    HW111798   4.138   4.236   6.974
 3633SOL    HW211799   4.088   4.384   7.021
 3634SOL     OW11800   2.829   5.447   6.607
 3634SOL    HW111801   2.757   5.380   6.624
 3634SOL    HW211802   2.868   5.433   6.516
 3635SOL     OW11803   1.117   6.194   2.202
 3635SOL    HW111804   1.061   6.131   2.148
 3635SOL    HW211805   1.083   6.196   2.296
 3636SOL     OW11806   0.531   5.266   6.033
 3636SOL    HW111807   0.512   5.325   5.955
 3636SOL    HW211808   0.467   5.189   6.033
 3637SOL     OW11809   5.787   3.017   6.784
 3637SOL    HW111810   5.719   3.074   6.830
 3637SOL    HW211811   5.770   3.017   6.686
 3638SOL     OW11812   6.993   3.137   3.683
 3638SOL    HW111813   6.991   3.211   3.749
 3638SOL    HW211814   6.902   3.096   3.675
 3639SOL     OW11815   4.127   3.475   4.167
 3639SOL    HW111816   4.159   3.429   4.085
 3639SOL    HW211817   4.120   3.574   4.149
 3640SOL     OW11818   4.293   2.034   1.477
 3640SOL    HW111819   4.197   2.051   1.496
 3640SOL    HW211820   4.350   2.086   1.541
 3641SOL     OW11821   5.963   4.084   2.049
 3641SOL    HW111822   5.993   4.103   2.143
 3641SOL    HW211823   6.043   4.069   1.992
 3642SOL     OW11824   4.929   3.486   6.243
 3642SOL    HW111825   4.907   3.391   6.223
 3642SOL    HW211826   5.016   3.490   6.293
 3643SOL     OW11827   4.191   5.792   4.903
 3643SOL    HW111828   4.186   5.851   4.984
 3643SOL    HW211829   4.102   5.751   4.886
 3644SOL     OW11830   2.997   0.472   1.881
 3644SOL    HW111831   3.001   0.559   1.833
 3644SOL    HW211832   2.901   0.447   1.898
 3645SOL     OW11833   1.304   3.567   3.877
 3645SOL    HW111834   1.362   3.520   3.944
 3645SOL    HW211835   1.306   3.516   3.791
 3646SOL     OW11836   1.599   5.132   6.043
 3646SOL    HW111837   1.573   5.051   5.990
 3646SOL    HW211838   1.596   5.110   6.141
 3647SOL     OW11839   2.649   6.561   6.928
 3647SOL    HW111840   2.611   6.654   6.930
 3647SOL    HW211841   2.580   6.497   6.961
 3648SOL     OW11842   4.866   5.513   3.287
 3648SOL    HW111843   4.773   5.550   3.294
 3648SOL    HW211844   4.870   5.447   3.212
 3649SOL     OW11845   5.592   2.218   0.388
 3649SOL    HW111846   5.638   2.133   0.360
 3649SOL    HW211847   5.618   2.240   0.482
 3650SOL     OW11848   5.555   6.191   5.937
 3650SOL    HW111849   5.593   6.117   5.992
 3650SOL    HW211850   5.470   6.161   5.893
 3651SOL     OW11851   0.902   2.101   5.940
 3651SOL    HW111852   0.860   2.170   5.999
 3651SOL    HW211853   0.984   2.140   5.897
 3652SOL     OW11854   4.409   1.848   1.743
 3652SOL    HW111855   4.356   1.794   1.678
 3652SOL    HW211856   4.375   1.942   1.745
 3653SOL     OW11857   1.652   1.582   0.770
 3653SOL    HW111858   1.707   1.639   0.709
 3653SOL    HW211859   1.594   1.521   0.715
 3654SOL     OW11860   4.432   6.707   1.862
 3654SOL    HW111861   4.447   6.608   1.864
 3654SOL    HW211862   4.344   6.727   1.820
 3655SOL     OW11863   0.954   0.520   4.099
 3655SOL    HW111864   0.948   0.620   4.088
 3655SOL    HW211865   0.864   0.484   4.123
 3656SOL     OW11866   0.198   0.483   1.334
 3656SOL    HW111867   0.273   0.541   1.366
 3656SOL    HW211868   0.148   0.448   1.413
 3657SOL     OW11869   5.631   5.407   6.179
 3657SOL    HW111870   5.587   5.318   6.189
 3657SOL    HW211871   5.584   5.459   6.107
 3658SOL     OW11872   1.969   4.894   5.504
 3658SOL    HW111873   1.880   4.895   5.549
 3658SOL    HW211874   2.041   4.879   5.572
 3659SOL     OW11875   0.349   2.965   6.391
 3659SOL    HW111876   0.385   3.019   6.466
 3659SOL    HW211877   0.419   2.954   6.321
 3660SOL     OW11878   4.621   5.680   5.582
 3660SOL    HW111879   4.576   5.726   5.505
 3660SOL    HW211880   4.601   5.729   5.667
 3661SOL     OW11881   0.345   1.325   4.570
 3661SOL    HW111882   0.419   1.261   4.550
 3661SOL    HW211883   0.381   1.419   4.570
 3662SOL     OW11884   3.178   2.128   5.985
 3662SOL    HW111885   3.207   2.222   5.965
 3662SOL    HW211886   3.237   2.064   5.937
 3663SOL     OW11887   2.511   2.598   6.647
 3663SOL    HW111888   2.493   2.572   6.552
 3663SOL    HW211889   2.425   2.595   6.699
 3664SOL     OW11890   2.985   1.782   0.961
 3664SOL    HW111891   3.006   1.758   0.866
 3664SOL    HW211892   3.038   1.862   0.988
 3665SOL     OW11893   0.484   5.588   5.611
 3665SOL    HW111894   0.520   5.679   5.634
 3665SOL    HW211895   0.394   5.576   5.653
 3666SOL     OW11896   2.093   3.320   4.213
 3666SOL    HW111897   2.128   3.272   4.132
 3666SOL    HW211898   2.089   3.256   4.290
 3667SOL     OW11899   1.822   6.823   0.987
 3667SOL    HW111900   1.835   6.748   0.922
 3667SOL    HW211901   1.758   6.794   1.059
 3668SOL     OW11902   6.404   1.114   0.961
 3668SOL    HW111903   6.371   1.099   1.054
 3668SOL    HW211904   6.504   1.107   0.960
 3669SOL     OW11905   0.736   0.798   3.199
 3669SOL    HW111906   0.805   0.743   3.246
 3669SOL    HW211907   0.770   0.825   3.109
 3670SOL     OW11908   2.437   0.318   1.835
 3670SOL    HW111909   2.386   0.361   1.761
 3670SOL    HW211910   2.533   0.306   1.808
 3671SOL     OW11911   6.975   1.084   4.606
 3671SOL    HW111912   6.906   1.145   4.645
 3671SOL    HW211913   0.011   1.057   4.678
 3672SOL     OW11914   3.817   7.002   3.504
 3672SOL    HW111915   3.789   0.050   3.446
 3672SOL    HW211916   3.838   6.923   3.446
 3673SOL     OW11917   3.226   0.408   1.470
 3673SOL    HW111918   3.141   0.386   1.423
 3673SOL    HW211919   3.300   0.416   1.402
 3674SOL     OW11920   0.546   4.587   6.746
 3674SOL    HW111921   0.472   4.608   6.682
 3674SOL    HW211922   0.628   4.559   6.696
 3675SOL     OW11923   0.349   0.869   4.030
 3675SOL    HW111924   0.423   0.876   4.097
 3675SOL    HW211925   0.263   0.896   4.074
 3676SOL     OW11926   3.430   1.164   5.334
 3676SOL    HW111927   3.414   1.079   5.384
 3676SOL    HW211928   3.413   1.149   5.237
 3677SOL     OW11929   1.575   1.272   4.595
 3677SOL    HW111930   1.596   1.369   4.609
 3677SOL    HW211931   1.496   1.263   4.534
 3678SOL     OW11932   1.857   0.921   3.458
 3678SOL    HW111933   1.840   0.823   3.448
 3678SOL    HW211934   1.828   0.951   3.549
 3679SOL     OW11935   3.716   0.379   2.459
 3679SOL    HW111936   3.717   0.475   2.430
 3679SOL    HW211937   3.810   0.348   2.476
 3680SOL     OW11938   3.318   2.113   4.562
 3680SOL    HW111939   3.255   2.053   4.512
 3680SOL    HW211940   3.274   2.144   4.646
 3681SOL     OW11941   1.006   6.497   4.039
 3681SOL    HW111942   0.952   6.447   4.106
 3681SOL    HW211943   0.948   6.523   3.962
 3682SOL     OW11944   4.954   2.015   0.619
 3682SOL    HW111945   4.985   2.079   0.689
 3682SOL    HW211946   5.004   2.032   0.534
 3683SOL     OW11947   6.630   1.468   0.845
 3683SOL    HW111948   6.645   1.443   0.941
 3683SOL    HW211949   6.610   1.566   0.839
 3684SOL     OW11950   2.573   5.973   5.413
 3684SOL    HW111951   2.534   5.909   5.348
 3684SOL    HW211952   2.657   5.935   5.452
 3685SOL     OW11953   2.020   6.248   4.449
 3685SOL    HW111954   1.965   6.193   4.385
 3685SOL    HW211955   1.969   6.262   4.534
 3686SOL     OW11956   0.264   3.834   0.756
 3686SOL    HW111957   0.203   3.829   0.677
 3686SOL    HW211958   0.211   3.848   0.839
 3687SOL     OW11959   5.809   4.595   4.170
 3687SOL    HW111960   5.860   4.623   4.252
 3687SOL    HW211961   5.729   4.654   4.160
 3688SOL     OW11962   6.823   2.925   1.364
 3688SOL    HW111963   6.805   2.950   1.459
 3688SOL    HW211964   6.890   2.988   1.325
 3689SOL     OW11965   1.041   1.051   6.285
 3689SOL    HW111966   0.996   1.050   6.374
 3689SOL    HW211967   0.991   0.993   6.221
 3690SOL     OW11968   5.571   5.133   1.970
 3690SOL    HW111969   5.641   5.064   1.989
 3690SOL    HW211970   5.615   5.217   1.937
 3691SOL     OW11971   1.582   2.743   0.479
 3691SOL    HW111972   1.508   2.684   0.447
 3691SOL    HW211973   1.564   2.772   0.573
 3692SOL     OW11974   1.186   3.256   5.278
 3692SOL    HW111975   1.258   3.325   5.281
 3692SOL    HW211976   1.160   3.230   5.371
 3693SOL     OW11977   0.264   1.516   3.005
 3693SOL    HW111978   0.183   1.573   2.992
 3693SOL    HW211979   0.241   1.420   2.988
 3694SOL     OW11980   6.393   0.051   2.852
 3694SOL    HW111981   6.381   0.129   2.913
 3694SOL    HW211982   6.388   0.082   2.757
 3695SOL     OW11983   5.994   3.597   3.291
 3695SOL    HW111984   5.938   3.672   3.254
 3695SOL    HW211985   6.090   3.614   3.271
 3696SOL     OW11986   4.203   0.712   4.252
 3696SOL    HW111987   4.146   0.679   4.327
 3696SOL    HW211988   4.285   0.756   4.290
 3697SOL     OW11989   6.683   6.066   2.942
 3697SOL    HW111990   6.681   6.164   2.924
 3697SOL    HW211991   6.628   6.046   3.023
 3698SOL     OW11992   2.104   0.288   3.737
 3698SOL    HW111993   2.166   0.366   3.731
 3698SOL    HW211994   2.027   0.310   3.797
 3699SOL     OW11995   2.477   2.306   3.552
 3699SOL    HW111996   2.496   2.324   3.649
 3699SOL    HW211997   2.402   2.240   3.544
 3700SOL     OW11998   1.105   4.471   5.049
 3700SOL    HW111999   1.136   4.438   4.960
 3700SOL    HW212000   1.051   4.400   5.093
 3701SOL     OW12001   0.350   1.270   2.635
 3701SOL    HW112002   0.315   1.182   2.667
 3701SOL    HW212003   0.314   1.343   2.693
 3702SOL     OW12004   6.379   3.761   3.586
 3702SOL    HW112005   6.378   3.809   3.674
 3702SOL    HW212006   6.307   3.798   3.527
 3703SOL     OW12007   1.545   1.330   3.386
 3703SOL    HW112008   1.537   1.427   3.363
 3703SOL    HW212009   1.615   1.288   3.327
 3704SOL     OW12010   5.970   0.595   0.959
 3704SOL    HW112011   5.882   0.567   0.999
 3704SOL    HW212012   5.954   0.641   0.872
 3705SOL     OW12013   5.730   4.134   3.597
 3705SOL    HW112014   5.806   4.193   3.572
 3705SOL    HW212015   5.675   4.177   3.668
 3706SOL     OW12016   1.060   4.963   6.507
 3706SOL    HW112017   1.016   5.004   6.587
 3706SOL    HW212018   1.034   5.014   6.425
 3707SOL     OW12019   1.331   4.454   3.591
 3707SOL    HW112020   1.378   4.456   3.679
 3707SOL    HW212021   1.237   4.425   3.604
 3708SOL     OW12022   2.012   6.331   0.816
 3708SOL    HW112023   1.956   6.408   0.848
 3708SOL    HW212024   2.028   6.341   0.718
 3709SOL     OW12025   0.843   1.424   1.920
 3709SOL    HW112026   0.912   1.464   1.980
 3709SOL    HW212027   0.867   1.441   1.824
 3710SOL     OW12028   1.629   3.864   5.247
 3710SOL    HW112029   1.613   3.765   5.254
 3710SOL    HW212030   1.650   3.889   5.153
 3711SOL     OW12031   1.752   5.543   4.691
 3711SOL    HW112032   1.713   5.569   4.603
 3711SOL    HW212033   1.797   5.623   4.732
 3712SOL     OW12034   3.004   5.419   4.673
 3712SOL    HW112035   2.973   5.509   4.642
 3712SOL    HW212036   3.098   5.426   4.706
 3713SOL     OW12037   5.940   0.544   4.876
 3713SOL    HW112038   6.028   0.588   4.895
 3713SOL    HW212039   5.895   0.521   4.963
 3714SOL     OW12040   0.293   4.185   0.288
 3714SOL    HW112041   0.389   4.158   0.303
 3714SOL    HW212042   0.291   4.267   0.230
 3715SOL     OW12043   6.113   4.522   3.527
 3715SOL    HW112044   6.125   4.542   3.624
 3715SOL    HW212045   6.174   4.447   3.502
 3716SOL     OW12046   5.295   5.903   5.298
 3716SOL    HW112047   5.351   5.821   5.306
 3716SOL    HW212048   5.354   5.983   5.284
 3717SOL     OW12049   4.385   0.751   0.470
 3717SOL    HW112050   4.429   0.681   0.527
 3717SOL    HW212051   4.348   0.823   0.529
 3718SOL     OW12052   6.116   6.663   6.134
 3718SOL    HW112053   6.187   6.696   6.070
 3718SOL    HW212054   6.035   6.720   6.124
 3719SOL     OW12055   2.922   4.354   0.352
 3719SOL    HW112056   2.900   4.305   0.267
 3719SOL    HW212057   2.890   4.300   0.430
 3720SOL     OW12058   0.076   2.814   0.998
 3720SOL    HW112059   0.003   2.882   1.006
 3720SOL    HW212060   0.113   2.794   1.088
 3721SOL     OW12061   6.402   0.494   5.345
 3721SOL    HW112062   6.389   0.401   5.378
 3721SOL    HW212063   6.400   0.557   5.422
 3722SOL     OW12064   5.525   6.250   2.040
 3722SOL    HW112065   5.492   6.316   2.108
 3722SOL    HW212066   5.620   6.228   2.059
 3723SOL     OW12067   4.673   3.843   6.370
 3723SOL    HW112068   4.630   3.926   6.406
 3723SOL    HW212069   4.723   3.865   6.286
 3724SOL     OW12070   0.404   3.821   4.523
 3724SOL    HW112071   0.378   3.835   4.427
 3724SOL    HW212072   0.503   3.835   4.533
 3725SOL     OW12073   1.336   5.927   6.903
 3725SOL    HW112074   1.322   6.004   6.965
 3725SOL    HW212075   1.282   5.941   6.819
 3726SOL     OW12076   6.247   3.882   5.600
 3726SOL    HW112077   6.323   3.822   5.576
 3726SOL    HW212078   6.190   3.898   5.520
 3727SOL     OW12079   6.812   2.435   4.105
 3727SOL    HW112080   6.792   2.351   4.157
 3727SOL    HW212081   6.735   2.498   4.113
 3728SOL     OW12082   2.386   4.704   0.845
 3728SOL    HW112083   2.369   4.625   0.904
 3728SOL    HW212084   2.483   4.708   0.822
 3729SOL     OW12085   7.001   6.858   5.808
 3729SOL    HW112086   6.969   6.807   5.728
 3729SOL    HW212087   0.041   6.924   5.779
 3730SOL     OW12088   4.822   5.044   4.731
 3730SOL    HW112089   4.741   4.987   4.714
 3730SOL    HW212090   4.827   5.115   4.661
 3731SOL     OW12091   0.296   2.187   0.988
 3731SOL    HW112092   0.323   2.261   1.050
 3731SOL    HW212093   0.208   2.209   0.947
 3732SOL     OW12094   3.675   3.219   6.935
 3732SOL    HW112095   3.708   3.258   6.849
 3732SOL    HW212096   3.579   3.195   6.926
 3733SOL     OW12097   1.114   0.661   3.719
 3733SOL    HW112098   1.163   0.737   3.676
 3733SOL    HW212099   1.068   0.608   3.648
 3734SOL     OW12100   3.429   0.060   1.486
 3734SOL    HW112101   3.349   0.063   1.545
 3734SOL    HW212102   3.404   0.021   1.398
 3735SOL     OW12103   4.738   0.244   3.092
 3735SOL    HW112104   4.711   0.155   3.055
 3735SOL    HW212105   4.801   0.289   3.028
 3736SOL     OW12106   6.968   1.340   0.169
 3736SOL    HW112107   0.033   1.308   0.181
 3736SOL    HW212108   6.969   1.432   0.131
 3737SOL     OW12109   6.076   2.087   2.588
 3737SOL    HW112110   6.109   1.995   2.565
 3737SOL    HW212111   6.151   2.141   2.625
 3738SOL     OW12112   0.670   0.654   1.196
 3738SOL    HW112113   0.668   0.737   1.139
 3738SOL    HW212114   0.677   0.679   1.292
 3739SOL     OW12115   2.983   4.149   6.800
 3739SOL    HW112116   2.903   4.185   6.848
 3739SOL    HW212117   3.066   4.178   6.847
 3740SOL     OW12118   5.342   6.114   6.436
 3740SOL    HW112119   5.317   6.020   6.457
 3740SOL    HW212120   5.264   6.174   6.454
 3741SOL     OW12121   5.178   3.727   0.293
 3741SOL    HW112122   5.087   3.732   0.250
 3741SOL    HW212123   5.233   3.660   0.245
 3742SOL     OW12124   4.719   5.527   1.097
 3742SOL    HW112125   4.723   5.465   1.176
 3742SOL    HW212126   4.748   5.618   1.126
 3743SOL     OW12127   3.483   4.145   0.677
 3743SOL    HW112128   3.558   4.202   0.711
 3743SOL    HW212129   3.445   4.091   0.752
 3744SOL     OW12130   6.572   6.467   2.707
 3744SOL    HW112131   6.474   6.484   2.711
 3744SOL    HW212132   6.591   6.397   2.637
 3745SOL     OW12133   4.788   2.876   2.691
 3745SOL    HW112134   4.730   2.800   2.661
 3745SOL    HW212135   4.818   2.928   2.611
 3746SOL     OW12136   6.215   0.283   4.476
 3746SOL    HW112137   6.126   0.326   4.458
 3746SOL    HW212138   6.222   0.260   4.573
 3747SOL     OW12139   3.359   5.952   5.204
 3747SOL    HW112140   3.404   6.026   5.253
 3747SOL    HW212141   3.276   5.987   5.159
 3748SOL     OW12142   4.990   2.304   4.144
 3748SOL    HW112143   4.909   2.299   4.085
 3748SOL    HW212144   4.964   2.279   4.238
 3749SOL     OW12145   6.642   6.334   2.474
 3749SOL    HW112146   6.678   6.366   2.387
 3749SOL    HW212147   6.549   6.301   2.462
 3750SOL     OW12148   5.462   3.895   1.224
 3750SOL    HW112149   5.378   3.914   1.275
 3750SOL    HW212150   5.441   3.886   1.127
 3751SOL     OW12151   0.896   4.251   1.884
 3751SOL    HW112152   0.801   4.220   1.877
 3751SOL    HW212153   0.952   4.202   1.817
 3752SOL     OW12154   0.375   6.650   5.859
 3752SOL    HW112155   0.450   6.653   5.793
 3752SOL    HW212156   0.408   6.612   5.945
 3753SOL     OW12157   6.864   0.893   5.029
 3753SOL    HW112158   6.804   0.961   4.987
 3753SOL    HW212159   6.854   0.895   5.128
 3754SOL     OW12160   6.452   6.015   1.271
 3754SOL    HW112161   6.503   5.957   1.335
 3754SOL    HW212162   6.354   6.002   1.286
 3755SOL     OW12163   4.885   2.967   2.466
 3755SOL    HW112164   4.821   2.948   2.392
 3755SOL    HW212165   4.973   2.923   2.446
 3756SOL     OW12166   3.364   0.228   6.749
 3756SOL    HW112167   3.407   0.286   6.818
 3756SOL    HW212168   3.382   0.132   6.769
 3757SOL     OW12169   4.091   4.762   6.561
 3757SOL    HW112170   4.031   4.727   6.633
 3757SOL    HW212171   4.043   4.834   6.511
 3758SOL     OW12172   7.008   0.288   2.783
 3758SOL    HW112173   0.007   0.255   2.873
 3758SOL    HW212174   0.008   0.223   2.713
 3759SOL     OW12175   5.096   5.415   0.656
 3759SOL    HW112176   5.046   5.500   0.641
 3759SOL    HW212177   5.062   5.370   0.738
 3760SOL     OW12178   1.896   1.995   5.771
 3760SOL    HW112179   1.943   2.083   5.766
 3760SOL    HW212180   1.893   1.964   5.866
 3761SOL     OW12181   0.336   6.750   4.322
 3761SOL    HW112182   0.279   6.687   4.269
 3761SOL    HW212183   0.403   6.793   4.261
 3762SOL     OW12184   0.441   3.646   6.649
 3762SOL    HW112185   0.474   3.720   6.590
 3762SOL    HW212186   0.519   3.599   6.691
 3763SOL     OW12187   6.719   3.816   5.800
 3763SOL    HW112188   6.801   3.861   5.765
 3763SOL    HW212189   6.645   3.826   5.733
 3764SOL     OW12190   2.670   6.779   4.362
 3764SOL    HW112191   2.615   6.762   4.443
 3764SOL    HW212192   2.742   6.846   4.383
 3765SOL     OW12193   6.071   1.428   3.522
 3765SOL    HW112194   6.052   1.424   3.620
 3765SOL    HW212195   6.117   1.514   3.500
 3766SOL     OW12196   1.645   0.239   4.928
 3766SOL    HW112197   1.636   0.265   5.024
 3766SOL    HW212198   1.627   0.141   4.918
 3767SOL     OW12199   1.093   4.718   0.521
 3767SOL    HW112200   1.179   4.718   0.469
 3767SOL    HW212201   1.071   4.624   0.549
 3768SOL     OW12202   4.324   6.690   1.120
 3768SOL    HW112203   4.229   6.697   1.089
 3768SOL    HW212204   4.330   6.716   1.216
 3769SOL     OW12205   4.457   6.825   4.768
 3769SOL    HW112206   4.540   6.875   4.741
 3769SOL    HW212207   4.377   6.879   4.744
 3770SOL     OW12208   2.154   1.967   0.227
 3770SOL    HW112209   2.170   2.025   0.147
 3770SOL    HW212210   2.215   1.995   0.301
 3771SOL     OW12211   4.421   1.463   5.114
 3771SOL    HW112212   4.401   1.531   5.043
 3771SOL    HW212213   4.518   1.438   5.109
 3772SOL     OW12214   4.521   0.655   2.354
 3772SOL    HW112215   4.451   0.615   2.296
 3772SOL    HW212216   4.482   0.732   2.404
 3773SOL     OW12217   6.774   2.000   0.658
 3773SOL    HW112218   6.803   2.083   0.611
 3773SOL    HW212219   6.676   2.006   0.680
 3774SOL     OW12220   0.887   2.316   2.340
 3774SOL    HW112221   0.892   2.355   2.248
 3774SOL    HW212222   0.885   2.216   2.333
 3775SOL     OW12223   5.722   2.949   3.509
 3775SOL    HW112224   5.819   2.951   3.484
 3775SOL    HW212225   5.679   3.035   3.484
 3776SOL     OW12226   2.726   3.331   6.917
 3776SOL    HW112227   2.649   3.268   6.904
 3776SOL    HW212228   2.810   3.279   6.932
 3777SOL     OW12229   1.758   3.599   3.190
 3777SOL    HW112230   1.804   3.683   3.161
 3777SOL    HW212231   1.771   3.586   3.289
 3778SOL     OW12232   2.393   6.410   2.146
 3778SOL    HW112233   2.469   6.351   2.173
 3778SOL    HW212234   2.422   6.468   2.071
 3779SOL     OW12235   2.327   5.023   6.746
 3779SOL    HW112236   2.281   4.936   6.761
 3779SOL    HW212237   2.422   5.007   6.720
 3780SOL     OW12238   2.783   0.067   4.106
 3780SOL    HW112239   2.729   0.146   4.078
 3780SOL    HW212240   2.772   0.053   4.205
 3781SOL     OW12241   2.366   5.572   4.748
 3781SOL    HW112242   2.339   5.668   4.740
 3781SOL    HW212243   2.426   5.561   4.827
 3782SOL     OW12244   2.235   1.329   2.996
 3782SOL    HW112245   2.227   1.289   3.087
 3782SOL    HW212246   2.307   1.398   2.997
 3783SOL     OW12247   5.033   6.084   5.642
 3783SOL    HW112248   5.018   6.033   5.727
 3783SOL    HW212249   5.048   6.180   5.663
 3784SOL     OW12250   5.120   2.089   3.974
 3784SOL    HW112251   5.216   2.080   4.003
 3784SOL    HW212252   5.075   2.159   4.030
 3785SOL     OW12253   1.359   1.893   1.749
 3785SOL    HW112254   1.438   1.929   1.700
 3785SOL    HW212255   1.360   1.924   1.843
 3786SOL     OW12256   3.292   5.840   2.641
 3786SOL    HW112257   3.348   5.905   2.589
 3786SOL    HW212258   3.214   5.812   2.587
 3787SOL     OW12259   4.467   1.205   4.146
 3787SOL    HW112260   4.426   1.207   4.237
 3787SOL    HW212261   4.419   1.137   4.090
 3788SOL     OW12262   6.150   3.629   2.152
 3788SOL    HW112263   6.101   3.565   2.211
 3788SOL    HW212264   6.219   3.677   2.206
 3789SOL     OW12265   1.523   5.632   2.677
 3789SOL    HW112266   1.563   5.681   2.599
 3789SOL    HW212267   1.580   5.553   2.699
 3790SOL     OW12268   2.283   2.813   3.201
 3790SOL    HW112269   2.215   2.752   3.160
 3790SOL    HW212270   2.364   2.760   3.226
 3791SOL     OW12271   6.293   0.419   2.335
 3791SOL    HW112272   6.226   0.415   2.262
 3791SOL    HW212273   6.293   0.332   2.386
 3792SOL     OW12274   0.107   6.859   6.109
 3792SOL    HW112275   0.082   6.941   6.161
 3792SOL    HW212276   0.174   6.884   6.038
 3793SOL     OW12277   1.370   6.433   2.847
 3793SOL    HW112278   1.422   6.467   2.925
 3793SOL    HW212279   1.391   6.336   2.833
 3794SOL     OW12280   4.037   6.533   2.795
 3794SOL    HW112281   3.984   6.610   2.832
 3794SOL    HW212282   4.092   6.565   2.718
 3795SOL     OW12283   4.952   0.339   1.131
 3795SOL    HW112284   5.016   0.403   1.175
 3795SOL    HW212285   4.952   0.252   1.181
 3796SOL     OW12286   1.325   3.100   0.794
 3796SOL    HW112287   1.267   3.018   0.799
 3796SOL    HW212288   1.386   3.093   0.715
 3797SOL     OW12289   0.185   5.599   2.179
 3797SOL    HW112290   0.175   5.522   2.117
 3797SOL    HW212291   0.269   5.649   2.158
 3798SOL     OW12292   0.873   4.230   1.414
 3798SOL    HW112293   0.970   4.229   1.393
 3798SOL    HW212294   0.853   4.303   1.479
 3799SOL     OW12295   1.350   0.389   5.678
 3799SOL    HW112296   1.312   0.479   5.657
 3799SOL    HW212297   1.296   0.345   5.749
 3800SOL     OW12298   5.222   2.466   5.042
 3800SOL    HW112299   5.157   2.416   4.985
 3800SOL    HW212300   5.256   2.405   5.114
 3801SOL     OW12301   0.336   0.309   6.518
 3801SOL    HW112302   0.269   0.243   6.550
 3801SOL    HW212303   0.298   0.361   6.442
 3802SOL     OW12304   1.237   2.308   5.545
 3802SOL    HW112305   1.337   2.314   5.551
 3802SOL    HW212306   1.208   2.217   5.573
 3803SOL     OW12307   3.738   1.023   1.174
 3803SOL    HW112308   3.769   1.054   1.084
 3803SOL    HW212309   3.682   0.941   1.163
 3804SOL     OW12310   4.588   2.923   5.212
 3804SOL    HW112311   4.574   2.825   5.224
 3804SOL    HW212312   4.614   2.943   5.117
 3805SOL     OW12313   1.906   3.640   1.808
 3805SOL    HW112314   1.981   3.597   1.759
 3805SOL    HW212315   1.941   3.683   1.892
 3806SOL     OW12316   3.365   1.207   0.730
 3806SOL    HW112317   3.358   1.212   0.630
 3806SOL    HW212318   3.304   1.276   0.770
 3807SOL     OW12319   1.855   6.981   2.612
 3807SOL    HW112320   1.942   7.024   2.585
 3807SOL    HW212321   1.829   7.014   2.703
 3808SOL     OW12322   3.022   0.630   0.599
 3808SOL    HW112323   3.027   0.548   0.542
 3808SOL    HW212324   3.111   0.676   0.599
 3809SOL     OW12325   4.352   0.343   6.468
 3809SOL    HW112326   4.303   0.381   6.546
 3809SOL    HW212327   4.354   0.410   6.394
 3810SOL     OW12328   2.407   3.138   6.142
 3810SOL    HW112329   2.470   3.214   6.129
 3810SOL    HW212330   2.349   3.128   6.061
 3811SOL     OW12331   1.042   0.801   6.137
 3811SOL    HW112332   1.032   0.701   6.140
 3811SOL    HW212333   1.121   0.828   6.192
 3812SOL     OW12334   5.340   1.574   5.712
 3812SOL    HW112335   5.381   1.524   5.789
 3812SOL    HW212336   5.295   1.509   5.651
 3813SOL     OW12337   3.949   4.792   1.890
 3813SOL    HW112338   3.853   4.785   1.918
 3813SOL    HW212339   4.007   4.785   1.971
 3814SOL     OW12340   1.785   7.019   2.268
 3814SOL    HW112341   1.847   0.005   2.190
 3814SOL    HW212342   1.831   6.963   2.337
 3815SOL     OW12343   5.454   2.112   1.565
 3815SOL    HW112344   5.492   2.100   1.656
 3815SOL    HW212345   5.364   2.068   1.560
 3816SOL     OW12346   0.044   6.740   1.191
 3816SOL    HW112347   7.015   6.728   1.110
 3816SOL    HW212348   0.051   6.653   1.239
 3817SOL     OW12349   4.854   1.265   5.573
 3817SOL    HW112350   4.773   1.322   5.588
 3817SOL    HW212351   4.827   1.169   5.569
 3818SOL     OW12352   4.705   5.836   2.670
 3818SOL    HW112353   4.792   5.788   2.675
 3818SOL    HW212354   4.663   5.839   2.761
 3819SOL     OW12355   5.714   4.516   6.086
 3819SOL    HW112356   5.710   4.537   6.183
 3819SOL    HW212357   5.665   4.431   6.068
 3820SOL     OW12358   4.974   6.346   3.745
 3820SOL    HW112359   5.063   6.343   3.791
 3820SOL    HW212360   4.902   6.325   3.810
 3821SOL     OW12361   0.648   4.609   1.364
 3821SOL    HW112362   0.721   4.613   1.296
 3821SOL    HW212363   0.642   4.516   1.401
 3822SOL     OW12364   1.203   4.888   1.765
 3822SOL    HW112365   1.131   4.821   1.781
 3822SOL    HW212366   1.271   4.883   1.839
 3823SOL     OW12367   2.396   2.948   5.684
 3823SOL    HW112368   2.468   3.013   5.657
 3823SOL    HW212369   2.310   2.974   5.641
 3824SOL     OW12370   6.657   2.216   6.705
 3824SOL    HW112371   6.579   2.212   6.643
 3824SOL    HW212372   6.632   2.174   6.792
 3825SOL     OW12373   6.556   6.537   6.117
 3825SOL    HW112374   6.561   6.530   6.017
 3825SOL    HW212375   6.526   6.630   6.141
 3826SOL     OW12376   6.895   2.108   0.903
 3826SOL    HW112377   6.826   2.074   0.839
 3826SOL    HW212378   6.945   2.031   0.942
 3827SOL     OW12379   5.493   2.443   1.016
 3827SOL    HW112380   5.528   2.453   1.110
 3827SOL    HW212381   5.455   2.351   1.005
 3828SOL     OW12382   4.308   1.075   1.301
 3828SOL    HW112383   4.298   1.153   1.363
 3828SOL    HW212384   4.241   1.084   1.227
 3829SOL     OW12385   0.826   4.899   3.708
 3829SOL    HW112386   0.872   4.946   3.633
 3829SOL    HW212387   0.745   4.951   3.735
 3830SOL     OW12388   3.100   0.378   5.642
 3830SOL    HW112389   3.105   0.285   5.679
 3830SOL    HW212390   3.115   0.374   5.543
 3831SOL     OW12391   4.522   2.020   2.382
 3831SOL    HW112392   4.529   2.090   2.311
 3831SOL    HW212393   4.476   2.057   2.463
 3832SOL     OW12394   5.081   0.460   2.545
 3832SOL    HW112395   5.124   0.474   2.634
 3832SOL    HW212396   5.143   0.409   2.485
 3833SOL     OW12397   1.959   6.194   1.290
 3833SOL    HW112398   2.019   6.131   1.241
 3833SOL    HW212399   1.912   6.146   1.364
 3834SOL     OW12400   2.524   2.628   0.724
 3834SOL    HW112401   2.479   2.601   0.809
 3834SOL    HW212402   2.612   2.670   0.744
 3835SOL     OW12403   3.527   5.544   4.024
 3835SOL    HW112404   3.457   5.478   4.050
 3835SOL    HW212405   3.612   5.496   4.001
 3836SOL     OW12406   1.728   2.846   5.092
 3836SOL    HW112407   1.743   2.935   5.049
 3836SOL    HW212408   1.783   2.777   5.046
 3837SOL     OW12409   3.238   3.505   6.926
 3837SOL    HW112410   3.178   3.561   6.869
 3837SOL    HW212411   3.329   3.546   6.928
 3838SOL     OW12412   5.781   3.172   5.067
 3838SOL    HW112413   5.831   3.230   5.002
 3838SOL    HW212414   5.820   3.080   5.066
 3839SOL     OW12415   6.999   5.975   6.193
 3839SOL    HW112416   0.041   5.907   6.214
 3839SOL    HW212417   7.002   6.048   6.262
 3840SOL     OW12418   2.506   0.806   3.687
 3840SOL    HW112419   2.587   0.856   3.721
 3840SOL    HW212420   2.534   0.714   3.658
 3841SOL     OW12421   1.122   3.857   4.755
 3841SOL    HW112422   1.200   3.804   4.721
 3841SOL    HW212423   1.136   3.954   4.733
 3842SOL     OW12424   1.811   5.195   6.974
 3842SOL    HW112425   1.846   5.220   6.884
 3842SOL    HW212426   1.715   5.221   6.982
 3843SOL     OW12427   5.689   4.144   0.180
 3843SOL    HW112428   5.608   4.155   0.239
 3843SOL    HW212429   5.754   4.217   0.200
 3844SOL     OW12430   2.604   4.134   5.696
 3844SOL    HW112431   2.610   4.230   5.721
 3844SOL    HW212432   2.683   4.109   5.640
 3845SOL     OW12433   3.207   3.311   3.626
 3845SOL    HW112434   3.244   3.303   3.533
 3845SOL    HW212435   3.113   3.342   3.621
 3846SOL     OW12436   6.850   4.224   4.136
 3846SOL    HW112437   6.799   4.193   4.216
 3846SOL    HW212438   6.792   4.218   4.055
 3847SOL     OW12439   0.547   7.027   0.633
 3847SOL    HW112440   0.542   7.005   0.536
 3847SOL    HW212441   0.488   6.966   0.685
 3848SOL     OW12442   2.799   5.441   1.119
 3848SOL    HW112443   2.711   5.395   1.103
 3848SOL    HW212444   2.871   5.391   1.070
 3849SOL     OW12445   2.483   1.830   6.054
 3849SOL    HW112446   2.581   1.847   6.066
 3849SOL    HW212447   2.453   1.761   6.120
 3850SOL     OW12448   2.099   3.915   1.338
 3850SOL    HW112449   2.111   3.969   1.421
 3850SOL    HW212450   2.035   3.960   1.277
 3851SOL     OW12451   2.355   2.885   1.165
 3851SOL    HW112452   2.375   2.798   1.211
 3851SOL    HW212453   2.402   2.887   1.077
 3852SOL     OW12454   4.750   0.963   5.221
 3852SOL    HW112455   4.747   0.864   5.229
 3852SOL    HW212456   4.666   0.996   5.176
 3853SOL     OW12457   1.260   3.018   1.942
 3853SOL    HW112458   1.216   3.006   2.031
 3853SOL    HW212459   1.325   2.944   1.926
 3854SOL     OW12460   1.774   3.105   4.983
 3854SOL    HW112461   1.694   3.164   4.977
 3854SOL    HW212462   1.855   3.154   4.951
 3855SOL     OW12463   6.725   1.854   5.509
 3855SOL    HW112464   6.733   1.889   5.415
 3855SOL    HW212465   6.754   1.925   5.573
 3856SOL     OW12466   0.923   6.647   5.417
 3856SOL    HW112467   0.897   6.729   5.367
 3856SOL    HW212468   0.864   6.636   5.497
 3857SOL     OW12469   1.065   0.195   6.715
 3857SOL    HW112470   0.976   0.240   6.713
 3857SOL    HW212471   1.135   0.260   6.684
 3858SOL     OW12472   2.587   5.146   7.008
 3858SOL    HW112473   2.610   5.154   6.911
 3858SOL    HW212474   2.516   5.077   7.020
 3859SOL     OW12475   6.458   2.813   1.471
 3859SOL    HW112476   6.439   2.747   1.398
 3859SOL    HW212477   6.404   2.896   1.455
 3860SOL     OW12478   2.251   6.134   5.091
 3860SOL    HW112479   2.349   6.126   5.112
 3860SOL    HW212480   2.209   6.043   5.094
 3861SOL     OW12481   4.131   4.551   0.049
 3861SOL    HW112482   4.067   4.628   0.041
 3861SOL    HW212483   4.190   4.565   0.128
 3862SOL     OW12484   0.893   5.637   5.532
 3862SOL    HW112485   0.894   5.713   5.597
 3862SOL    HW212486   0.926   5.554   5.577
 3863SOL     OW12487   3.123   3.627   0.267
 3863SOL    HW112488   3.180   3.626   0.349
 3863SOL    HW212489   3.052   3.558   0.275
 3864SOL     OW12490   3.041   1.198   0.567
 3864SOL    HW112491   3.003   1.268   0.627
 3864SOL    HW212492   2.970   1.167   0.503
 3865SOL     OW12493   3.991   0.809   2.327
 3865SOL    HW112494   3.942   0.885   2.370
 3865SOL    HW212495   4.071   0.844   2.279
 3866SOL     OW12496   3.071   6.514   6.332
 3866SOL    HW112497   3.121   6.428   6.339
 3866SOL    HW212498   2.979   6.496   6.297
 3867SOL     OW12499   1.958   4.488   3.414
 3867SOL    HW112500   1.877   4.545   3.402
 3867SOL    HW212501   2.027   4.513   3.345
 3868SOL     OW12502   2.813   5.517   2.880
 3868SOL    HW112503   2.850   5.450   2.944
 3868SOL    HW212504   2.737   5.476   2.829
 3869SOL     OW12505   0.515   1.203   3.896
 3869SOL    HW112506   0.503   1.217   3.798
 3869SOL    HW212507   0.551   1.111   3.913
 3870SOL     OW12508   4.136   4.129   0.647
 3870SOL    HW112509   4.111   4.064   0.575
 3870SOL    HW212510   4.091   4.217   0.630
 3871SOL     OW12511   3.302   1.151   4.918
 3871SOL    HW112512   3.263   1.128   4.829
 3871SOL    HW212513   3.395   1.114   4.924
 3872SOL     OW12514   4.412   4.214   0.687
 3872SOL    HW112515   4.324   4.167   0.687
 3872SOL    HW212516   4.486   4.147   0.677
 3873SOL     OW12517   5.304   4.798   2.026
 3873SOL    HW112518   5.317   4.892   1.994
 3873SOL    HW212519   5.357   4.736   1.969
 3874SOL     OW12520   4.724   5.970   5.775
 3874SOL    HW112521   4.668   5.888   5.790
 3874SOL    HW212522   4.675   6.034   5.716
 3875SOL     OW12523   2.017   4.140   0.541
 3875SOL    HW112524   1.949   4.130   0.469
 3875SOL    HW212525   2.082   4.064   0.538
 3876SOL     OW12526   5.548   3.792   2.049
 3876SOL    HW112527   5.635   3.825   2.087
 3876SOL    HW212528   5.556   3.783   1.950
 3877SOL     OW12529   4.809   1.828   2.113
 3877SOL    HW112530   4.741   1.850   2.044
 3877SOL    HW212531   4.899   1.860   2.082
 3878SOL     OW12532   4.678   6.067   4.631
 3878SOL    HW112533   4.723   6.151   4.662
 3878SOL    HW212534   4.579   6.074   4.648
 3879SOL     OW12535   2.604   5.992   0.861
 3879SOL    HW112536   2.601   5.960   0.766
 3879SOL    HW212537   2.549   6.075   0.870
 3880SOL     OW12538   5.859   1.834   4.158
 3880SOL    HW112539   5.854   1.735   4.145
 3880SOL    HW212540   5.828   1.880   4.074
 3881SOL     OW12541   0.489   6.077   0.738
 3881SOL    HW112542   0.536   6.052   0.653
 3881SOL    HW212543   0.427   6.002   0.765
 3882SOL     OW12544   0.258   6.146   6.662
 3882SOL    HW112545   0.248   6.245   6.649
 3882SOL    HW212546   0.345   6.116   6.622
 3883SOL     OW12547   3.564   1.888   6.977
 3883SOL    HW112548   3.645   1.893   6.918
 3883SOL    HW212549   3.496   1.954   6.946
 3884SOL     OW12550   1.982   5.289   5.524
 3884SOL    HW112551   2.020   5.229   5.594
 3884SOL    HW212552   1.896   5.328   5.557
 3885SOL     OW12553   6.893   1.343   4.813
 3885SOL    HW112554   6.988   1.373   4.801
 3885SOL    HW212555   6.834   1.422   4.827
 3886SOL     OW12556   0.392   5.933   5.398
 3886SOL    HW112557   0.301   5.891   5.402
 3886SOL    HW212558   0.417   5.966   5.489
 3887SOL     OW12559   5.727   2.905   4.775
 3887SOL    HW112560   5.812   2.944   4.739
 3887SOL    HW212561   5.662   2.892   4.701
 3888SOL     OW12562   5.604   2.035   2.123
 3888SOL    HW112563   5.677   1.996   2.066
 3888SOL    HW212564   5.635   2.123   2.160
 3889SOL     OW12565   6.334   5.891   6.703
 3889SOL    HW112566   6.360   5.986   6.721
 3889SOL    HW212567   6.296   5.884   6.611
 3890SOL     OW12568   6.901   3.289   2.790
 3890SOL    HW112569   6.971   3.260   2.724
 3890SOL    HW212570   6.811   3.260   2.758
 3891SOL     OW12571   4.990   5.581   5.740
 3891SOL    HW112572   4.909   5.526   5.723
 3891SOL    HW212573   5.064   5.523   5.773
 3892SOL     OW12574   5.630   5.661   4.089
 3892SOL    HW112575   5.571   5.708   4.154
 3892SOL    HW212576   5.724   5.659   4.124
 3893SOL     OW12577   2.877   6.517   4.578
 3893SOL    HW112578   2.944   6.510   4.503
 3893SOL    HW212579   2.908   6.586   4.644
 3894SOL     OW12580   5.151   5.439   6.453
 3894SOL    HW112581   5.093   5.363   6.483
 3894SOL    HW212582   5.222   5.456   6.522
 3895SOL     OW12583   1.750   1.858   5.554
 3895SOL    HW112584   1.757   1.902   5.644
 3895SOL    HW212585   1.727   1.927   5.485
 3896SOL     OW12586   6.041   3.554   0.113
 3896SOL    HW112587   5.993   3.491   0.053
 3896SOL    HW212588   6.116   3.506   0.158
 3897SOL     OW12589   3.339   6.570   3.579
 3897SOL    HW112590   3.279   6.646   3.601
 3897SOL    HW212591   3.415   6.603   3.523
 3898SOL     OW12592   2.927   3.557   4.263
 3898SOL    HW112593   2.908   3.465   4.231
 3898SOL    HW212594   2.925   3.620   4.185
 3899SOL     OW12595   4.377   2.178   6.233
 3899SOL    HW112596   4.434   2.256   6.204
 3899SOL    HW212597   4.413   2.094   6.192
 3900SOL     OW12598   0.655   2.626   3.980
 3900SOL    HW112599   0.701   2.675   3.906
 3900SOL    HW212600   0.556   2.626   3.963
 3901SOL     OW12601   2.966   5.494   5.607
 3901SOL    HW112602   2.992   5.522   5.515
 3901SOL    HW212603   3.038   5.521   5.671
 3902SOL     OW12604   4.332   5.034   3.218
 3902SOL    HW112605   4.357   5.126   3.249
 3902SOL    HW212606   4.319   4.975   3.297
 3903SOL     OW12607   3.772   3.818   6.274
 3903SOL    HW112608   3.859   3.848   6.235
 3903SOL    HW212609   3.756   3.722   6.249
 3904SOL     OW12610   2.012   6.948   0.382
 3904SOL    HW112611   2.018   6.955   0.481
 3904SOL    HW212612   1.915   6.947   0.355
 3905SOL     OW12613   4.934   0.333   6.279
 3905SOL    HW112614   4.968   0.378   6.362
 3905SOL    HW212615   4.915   0.237   6.299
 3906SOL     OW12616   6.783   5.882   4.651
 3906SOL    HW112617   6.689   5.852   4.666
 3906SOL    HW212618   6.783   5.974   4.611
 3907SOL     OW12619   0.287   1.921   4.600
 3907SOL    HW112620   0.372   1.941   4.550
 3907SOL    HW212621   0.212   1.915   4.535
 3908SOL     OW12622   2.159   0.723   4.880
 3908SOL    HW112623   2.132   0.817   4.901
 3908SOL    HW212624   2.259   0.716   4.886
 3909SOL     OW12625   5.224   3.812   1.882
 3909SOL    HW112626   5.205   3.755   1.963
 3909SOL    HW212627   5.293   3.766   1.825
 3910SOL     OW12628   2.775   2.983   1.324
 3910SOL    HW112629   2.703   2.925   1.362
 3910SOL    HW212630   2.736   3.048   1.259
 3911SOL     OW12631   0.280   1.109   1.226
 3911SOL    HW112632   0.251   1.038   1.290
 3911SOL    HW212633   0.273   1.074   1.132
 3912SOL     OW12634   4.603   4.297   0.069
 3912SOL    HW112635   4.630   4.315   0.164
 3912SOL    HW212636   4.505   4.313   0.059
 3913SOL     OW12637   4.062   5.002   1.357
 3913SOL    HW112638   4.114   4.941   1.417
 3913SOL    HW212639   3.964   4.979   1.362
 3914SOL     OW12640   7.013   1.502   0.536
 3914SOL    HW112641   0.053   1.541   0.475
 3914SOL    HW212642   7.005   1.559   0.617
 3915SOL     OW12643   6.050   0.473   5.256
 3915SOL    HW112644   6.144   0.497   5.230
 3915SOL    HW212645   5.986   0.533   5.209
 3916SOL     OW12646   1.540   2.226   2.322
 3916SOL    HW112647   1.614   2.270   2.271
 3916SOL    HW212648   1.578   2.155   2.381
 3917SOL     OW12649   4.431   5.285   2.287
 3917SOL    HW112650   4.458   5.209   2.346
 3917SOL    HW212651   4.512   5.334   2.257
 3918SOL     OW12652   4.560   0.090   0.668
 3918SOL    HW112653   4.486   0.156   0.662
 3918SOL    HW212654   4.619   0.112   0.746
 3919SOL     OW12655   5.206   5.649   3.273
 3919SOL    HW112656   5.218   5.554   3.243
 3919SOL    HW212657   5.117   5.660   3.316
 3920SOL     OW12658   3.475   2.010   5.432
 3920SOL    HW112659   3.516   1.996   5.342
 3920SOL    HW212660   3.392   2.065   5.422
 3921SOL     OW12661   1.494   3.272   5.785
 3921SOL    HW112662   1.453   3.338   5.724
 3921SOL    HW212663   1.576   3.232   5.742
 3922SOL     OW12664   5.065   2.713   4.127
 3922SOL    HW112665   5.104   2.626   4.156
 3922SOL    HW212666   4.975   2.725   4.168
 3923SOL     OW12667   5.741   1.085   1.665
 3923SOL    HW112668   5.678   1.063   1.740
 3923SOL    HW212669   5.695   1.144   1.599
 3924SOL     OW12670   5.295   4.508   4.524
 3924SOL    HW112671   5.358   4.529   4.449
 3924SOL    HW212672   5.343   4.453   4.593
 3925SOL     OW12673   4.186   5.773   1.549
 3925SOL    HW112674   4.147   5.791   1.639
 3925SOL    HW212675   4.265   5.713   1.558
 3926SOL     OW12676   0.837   6.123   4.995
 3926SOL    HW112677   0.820   6.029   5.025
 3926SOL    HW212678   0.932   6.148   5.018
 3927SOL     OW12679   5.939   0.196   5.265
 3927SOL    HW112680   5.971   0.288   5.246
 3927SOL    HW212681   5.980   0.162   5.350
 3928SOL     OW12682   4.616   6.010   2.481
 3928SOL    HW112683   4.519   6.024   2.499
 3928SOL    HW212684   4.655   5.951   2.552
 3929SOL     OW12685   1.214   0.973   5.595
 3929SOL    HW112686   1.163   1.020   5.523
 3929SOL    HW212687   1.311   0.993   5.586
 3930SOL     OW12688   2.196   5.897   4.481
 3930SOL    HW112689   2.220   5.970   4.417
 3930SOL    HW212690   2.187   5.811   4.432
 3931SOL     OW12691   0.755   2.428   0.232
 3931SOL    HW112692   0.826   2.467   0.291
 3931SOL    HW212693   0.776   2.332   0.215
 3932SOL     OW12694   2.238   4.121   2.575
 3932SOL    HW112695   2.254   4.022   2.573
 3932SOL    HW212696   2.271   4.161   2.490
 3933SOL     OW12697   2.162   6.393   1.377
 3933SOL    HW112698   2.111   6.324   1.325
 3933SOL    HW212699   2.259   6.387   1.353
 3934SOL     OW12700   2.102   6.449   1.647
 3934SOL    HW112701   2.102   6.425   1.550
 3934SOL    HW212702   2.133   6.543   1.659
 3935SOL     OW12703   0.354   2.339   4.805
 3935SOL    HW112704   0.368   2.438   4.796
 3935SOL    HW212705   0.420   2.302   4.871
 3936SOL     OW12706   0.258   4.114   4.233
 3936SOL    HW112707   0.290   4.186   4.294
 3936SOL    HW212708   0.181   4.148   4.179
 3937SOL     OW12709   0.900   6.366   0.254
 3937SOL    HW112710   0.810   6.408   0.241
 3937SOL    HW212711   0.898   6.272   0.221
 3938SOL     OW12712   0.633   3.886   0.247
 3938SOL    HW112713   0.718   3.870   0.297
 3938SOL    HW212714   0.574   3.805   0.256
 3939SOL     OW12715   1.685   6.807   3.871
 3939SOL    HW112716   1.705   6.817   3.773
 3939SOL    HW212717   1.600   6.755   3.882
 3940SOL     OW12718   2.389   5.966   6.327
 3940SOL    HW112719   2.486   5.963   6.347
 3940SOL    HW212720   2.337   5.934   6.406
 3941SOL     OW12721   5.529   5.632   2.436
 3941SOL    HW112722   5.464   5.578   2.383
 3941SOL    HW212723   5.603   5.664   2.376
 3942SOL     OW12724   6.537   6.593   6.408
 3942SOL    HW112725   6.502   6.499   6.403
 3942SOL    HW212726   6.492   6.649   6.338
 3943SOL     OW12727   1.560   3.569   0.087
 3943SOL    HW112728   1.545   3.666   0.071
 3943SOL    HW212729   1.481   3.530   0.134
 3944SOL     OW12730   4.634   3.576   6.361
 3944SOL    HW112731   4.629   3.676   6.359
 3944SOL    HW212732   4.728   3.549   6.384
 3945SOL     OW12733   6.566   0.818   3.298
 3945SOL    HW112734   6.587   0.759   3.376
 3945SOL    HW212735   6.504   0.891   3.326
 3946SOL     OW12736   6.217   2.755   0.820
 3946SOL    HW112737   6.282   2.817   0.862
 3946SOL    HW212738   6.130   2.803   0.805
 3947SOL     OW12739   5.801   6.632   2.204
 3947SOL    HW112740   5.763   6.701   2.142
 3947SOL    HW212741   5.726   6.586   2.252
 3948SOL     OW12742   2.369   1.067   5.099
 3948SOL    HW112743   2.343   1.059   5.003
 3948SOL    HW212744   2.336   0.988   5.149
 3949SOL     OW12745   5.980   0.283   2.231
 3949SOL    HW112746   5.998   0.371   2.187
 3949SOL    HW212747   6.065   0.248   2.271
 3950SOL     OW12748   2.926   4.566   1.593
 3950SOL    HW112749   2.915   4.557   1.692
 3950SOL    HW212750   2.844   4.531   1.547
 3951SOL     OW12751   6.920   2.717   3.312
 3951SOL    HW112752   6.978   2.796   3.331
 3951SOL    HW212753   6.949   2.640   3.368
 3952SOL     OW12754   5.653   4.609   6.807
 3952SOL    HW112755   5.710   4.527   6.809
 3952SOL    HW212756   5.565   4.589   6.850
 3953SOL     OW12757   3.466   3.902   5.699
 3953SOL    HW112758   3.469   3.973   5.769
 3953SOL    HW212759   3.427   3.939   5.615
 3954SOL     OW12760   1.365   3.450   5.201
 3954SOL    HW112761   1.330   3.406   5.118
 3954SOL    HW212762   1.457   3.415   5.221
 3955SOL     OW12763   5.978   3.241   0.309
 3955SOL    HW112764   5.960   3.228   0.406
 3955SOL    HW212765   5.892   3.261   0.262
 3956SOL     OW12766   6.646   2.855   5.431
 3956SOL    HW112767   6.573   2.892   5.488
 3956SOL    HW212768   6.623   2.868   5.335
 3957SOL     OW12769   0.771   1.981   1.766
 3957SOL    HW112770   0.756   2.053   1.834
 3957SOL    HW212771   0.797   1.896   1.812
 3958SOL     OW12772   5.539   6.021   1.219
 3958SOL    HW112773   5.553   6.111   1.261
 3958SOL    HW212774   5.548   5.950   1.290
 3959SOL     OW12775   2.592   4.892   1.786
 3959SOL    HW112776   2.623   4.932   1.872
 3959SOL    HW212777   2.591   4.792   1.795
 3960SOL     OW12778   5.762   2.955   0.373
 3960SOL    HW112779   5.704   2.993   0.302
 3960SOL    HW212780   5.711   2.886   0.424
 3961SOL     OW12781   0.038   1.017   1.373
 3961SOL    HW112782   0.004   1.039   1.465
 3961SOL    HW212783   7.003   1.051   1.305
 3962SOL     OW12784   0.076   0.233   6.026
 3962SOL    HW112785   7.018   0.197   5.993
 3962SOL    HW212786   0.085   0.329   6.000
 3963SOL     OW12787   5.019   4.172   3.949
 3963SOL    HW112788   4.954   4.106   3.913
 3963SOL    HW212789   5.010   4.258   3.899
 3964SOL     OW12790   5.743   4.840   0.401
 3964SOL    HW112791   5.711   4.934   0.413
 3964SOL    HW212792   5.728   4.811   0.307
 3965SOL     OW12793   3.530   3.859   1.040
 3965SOL    HW112794   3.539   3.768   1.000
 3965SOL    HW212795   3.476   3.854   1.124
 3966SOL     OW12796   6.921   3.408   5.825
 3966SOL    HW112797   6.966   3.361   5.750
 3966SOL    HW212798   6.984   3.414   5.903
 3967SOL     OW12799   2.216   6.812   0.265
 3967SOL    HW112800   2.212   6.714   0.247
 3967SOL    HW212801   2.131   6.842   0.306
 3968SOL     OW12802   4.778   2.415   0.747
 3968SOL    HW112803   4.877   2.416   0.733
 3968SOL    HW212804   4.735   2.487   0.693
 3969SOL     OW12805   6.965   6.571   0.593
 3969SOL    HW112806   0.023   6.620   0.596
 3969SOL    HW212807   6.957   6.511   0.672
 3970SOL     OW12808   5.645   4.501   3.654
 3970SOL    HW112809   5.619   4.553   3.736
 3970SOL    HW212810   5.736   4.461   3.667
 3971SOL     OW12811   0.496   5.700   3.805
 3971SOL    HW112812   0.519   5.776   3.867
 3971SOL    HW212813   0.580   5.657   3.774
 3972SOL     OW12814   1.324   0.209   6.040
 3972SOL    HW112815   1.271   0.236   5.959
 3972SOL    HW212816   1.264   0.206   6.120
 3973SOL     OW12817   4.118   3.677   2.521
 3973SOL    HW112818   4.211   3.705   2.545
 3973SOL    HW212819   4.113   3.577   2.522
 3974SOL     OW12820   4.923   0.735   6.591
 3974SOL    HW112821   4.856   0.698   6.526
 3974SOL    HW212822   5.008   0.684   6.584
 3975SOL     OW12823   0.311   6.914   4.545
 3975SOL    HW112824   0.311   7.000   4.494
 3975SOL    HW212825   0.313   6.837   4.481
 3976SOL     OW12826   1.201   3.084   5.695
 3976SOL    HW112827   1.270   3.112   5.762
 3976SOL    HW212828   1.246   3.041   5.617
 3977SOL     OW12829   3.378   5.512   5.041
 3977SOL    HW112830   3.377   5.434   4.978
 3977SOL    HW212831   3.472   5.537   5.061
 3978SOL     OW12832   5.766   3.416   6.200
 3978SOL    HW112833   5.842   3.352   6.196
 3978SOL    HW212834   5.801   3.509   6.209
 3979SOL     OW12835   0.962   5.987   3.106
 3979SOL    HW112836   0.972   6.021   3.012
 3979SOL    HW212837   0.900   6.047   3.157
 3980SOL     OW12838   5.496   3.774   3.989
 3980SOL    HW112839   5.491   3.774   4.089
 3980SOL    HW212840   5.552   3.851   3.958
 3981SOL     OW12841   6.938   1.253   6.252
 3981SOL    HW112842   6.921   1.264   6.350
 3981SOL    HW212843   6.939   1.343   6.209
 3982SOL     OW12844   2.207   2.960   4.481
 3982SOL    HW112845   2.257   3.046   4.492
 3982SOL    HW212846   2.236   2.894   4.550
 3983SOL     OW12847   3.363   0.773   3.984
 3983SOL    HW112848   3.282   0.735   3.940
 3983SOL    HW212849   3.346   0.783   4.082
 3984SOL     OW12850   1.438   5.520   2.434
 3984SOL    HW112851   1.515   5.494   2.376
 3984SOL    HW212852   1.470   5.539   2.526
 3985SOL     OW12853   2.070   2.261   1.293
 3985SOL    HW112854   2.120   2.228   1.373
 3985SOL    HW212855   2.135   2.299   1.227
 3986SOL     OW12856   0.145   2.492   2.462
 3986SOL    HW112857   0.145   2.397   2.493
 3986SOL    HW212858   0.236   2.516   2.429
 3987SOL     OW12859   1.452   4.406   4.995
 3987SOL    HW112860   1.456   4.313   5.031
 3987SOL    HW212861   1.544   4.436   4.970
 3988SOL     OW12862   4.789   6.864   1.742
 3988SOL    HW112863   4.784   6.908   1.831
 3988SOL    HW212864   4.871   6.895   1.694
 3989SOL     OW12865   3.985   0.893   5.781
 3989SOL    HW112866   4.046   0.849   5.715
 3989SOL    HW212867   3.911   0.939   5.731
 3990SOL     OW12868   6.229   1.622   3.753
 3990SOL    HW112869   6.145   1.579   3.787
 3990SOL    HW212870   6.307   1.587   3.805
 3991SOL     OW12871   0.208   2.242   3.361
 3991SOL    HW112872   0.300   2.203   3.374
 3991SOL    HW212873   0.140   2.178   3.396
 3992SOL     OW12874   5.300   3.620   6.538
 3992SOL    HW112875   5.282   3.548   6.472
 3992SOL    HW212876   5.332   3.702   6.490
 3993SOL     OW12877   1.783   0.738   3.973
 3993SOL    HW112878   1.772   0.823   4.023
 3993SOL    HW212879   1.877   0.732   3.938
 3994SOL     OW12880   3.390   2.030   3.615
 3994SOL    HW112881   3.463   2.093   3.593
 3994SOL    HW212882   3.306   2.058   3.567
 3995SOL     OW12883   1.447   3.404   2.512
 3995SOL    HW112884   1.455   3.312   2.551
 3995SOL    HW212885   1.390   3.400   2.430
 3996SOL     OW12886   6.515   6.465   5.124
 3996SOL    HW112887   6.512   6.559   5.091
 3996SOL    HW212888   6.433   6.417   5.091
 3997SOL     OW12889   5.777   3.587   4.078
 3997SOL    HW112890   5.702   3.542   4.127
 3997SOL    HW212891   5.744   3.619   3.989
 3998SOL     OW12892   4.614   2.152   3.709
 3998SOL    HW112893   4.586   2.249   3.710
 3998SOL    HW212894   4.612   2.118   3.615
 3999SOL     OW12895   4.910   3.049   0.650
 3999SOL    HW112896   4.969   3.119   0.692
 3999SOL    HW212897   4.916   2.964   0.702
 4000SOL     OW12898   2.494   4.845   3.136
 4000SOL    HW112899   2.507   4.861   3.233
 4000SOL    HW212900   2.545   4.764   3.108
 4001SOL     OW12901   0.426   6.210   4.235
 4001SOL    HW112902   0.374   6.127   4.216
 4001SOL    HW212903   0.437   6.221   4.334
 4002SOL     OW12904   3.935   4.068   4.816
 4002SOL    HW112905   4.032   4.044   4.821
 4002SOL    HW212906   3.903   4.058   4.722
 4003SOL     OW12907   2.058   0.980   4.886
 4003SOL    HW112908   2.010   0.971   4.799
 4003SOL    HW212909   2.153   1.006   4.869
 4004SOL     OW12910   2.071   4.770   4.766
 4004SOL    HW112911   2.136   4.724   4.825
 4004SOL    HW212912   2.089   4.868   4.766
 4005SOL     OW12913   4.962   2.967   0.389
 4005SOL    HW112914   4.947   3.022   0.471
 4005SOL    HW212915   4.970   3.028   0.309
 4006SOL     OW12916   6.923   5.266   2.046
 4006SOL    HW112917   6.870   5.191   2.085
 4006SOL    HW212918   6.868   5.312   1.976
 4007SOL     OW12919   0.959   1.190   1.961
 4007SOL    HW112920   0.904   1.267   1.930
 4007SOL    HW212921   0.968   1.192   2.060
 4008SOL     OW12922   3.146   1.245   1.454
 4008SOL    HW112923   3.175   1.336   1.482
 4008SOL    HW212924   3.222   1.196   1.412
 4009SOL     OW12925   4.029   2.582   0.674
 4009SOL    HW112926   4.126   2.606   0.669
 4009SOL    HW212927   3.978   2.660   0.709
 4010SOL     OW12928   1.821   4.448   0.752
 4010SOL    HW112929   1.919   4.449   0.733
 4010SOL    HW212930   1.802   4.380   0.823
 4011SOL     OW12931   6.328   6.781   5.973
 4011SOL    HW112932   6.364   6.870   5.944
 4011SOL    HW212933   6.308   6.725   5.892
 4012SOL     OW12934   5.841   5.731   2.522
 4012SOL    HW112935   5.907   5.730   2.447
 4012SOL    HW212936   5.827   5.638   2.555
 4013SOL     OW12937   6.844   1.587   6.921
 4013SOL    HW112938   6.753   1.585   6.963
 4013SOL    HW212939   6.911   1.621   6.986
 4014SOL     OW12940   3.781   5.741   2.178
 4014SOL    HW112941   3.719   5.702   2.246
 4014SOL    HW212942   3.821   5.825   2.213
 4015SOL     OW12943   4.413   5.505   5.953
 4015SOL    HW112944   4.372   5.578   6.007
 4015SOL    HW212945   4.511   5.500   5.972
 4016SOL     OW12946   5.000   4.889   4.508
 4016SOL    HW112947   5.090   4.874   4.550
 4016SOL    HW212948   4.932   4.908   4.579
 4017SOL     OW12949   1.547   6.071   5.384
 4017SOL    HW112950   1.618   6.054   5.452
 4017SOL    HW212951   1.587   6.070   5.293
 4018SOL     OW12952   4.434   5.502   1.326
 4018SOL    HW112953   4.530   5.473   1.321
 4018SOL    HW212954   4.424   5.591   1.280
 4019SOL     OW12955   6.879   3.456   2.071
 4019SOL    HW112956   6.830   3.463   1.984
 4019SOL    HW212957   6.913   3.546   2.098
 4020SOL     OW12958   6.919   5.723   4.447
 4020SOL    HW112959   6.863   5.789   4.496
 4020SOL    HW212960   6.899   5.729   4.349
 4021SOL     OW12961   4.393   5.341   6.272
 4021SOL    HW112962   4.481   5.297   6.290
 4021SOL    HW212963   4.367   5.327   6.177
 4022SOL     OW12964   2.797   6.159   0.933
 4022SOL    HW112965   2.740   6.091   0.885
 4022SOL    HW212966   2.743   6.204   1.003
 4023SOL     OW12967   0.394   1.672   4.435
 4023SOL    HW112968   0.442   1.752   4.398
 4023SOL    HW212969   0.418   1.591   4.381
 4024SOL     OW12970   0.090   6.286   5.310
 4024SOL    HW112971   0.177   6.245   5.281
 4024SOL    HW212972   0.089   6.295   5.409
 4025SOL     OW12973   6.918   4.657   3.831
 4025SOL    HW112974   6.956   4.613   3.913
 4025SOL    HW212975   6.892   4.587   3.765
 4026SOL     OW12976   0.437   6.729   3.825
 4026SOL    HW112977   0.382   6.810   3.844
 4026SOL    HW212978   0.525   6.735   3.873
 4027SOL     OW12979   3.479   4.954   4.976
 4027SOL    HW112980   3.574   4.941   4.949
 4027SOL    HW212981   3.465   4.913   5.067
 4028SOL     OW12982   5.095   1.528   3.920
 4028SOL    HW112983   5.063   1.499   4.010
 4028SOL    HW212984   5.097   1.450   3.858
 4029SOL     OW12985   1.163   6.620   0.661
 4029SOL    HW112986   1.194   6.681   0.587
 4029SOL    HW212987   1.069   6.643   0.686
 4030SOL     OW12988   0.487   1.593   2.273
 4030SOL    HW112989   0.539   1.538   2.207
 4030SOL    HW212990   0.397   1.613   2.235
 4031SOL     OW12991   5.657   6.113   0.229
 4031SOL    HW112992   5.696   6.174   0.298
 4031SOL    HW212993   5.565   6.085   0.256
 4032SOL     OW12994   5.080   0.980   2.969
 4032SOL    HW112995   5.129   1.053   3.017
 4032SOL    HW212996   5.075   0.899   3.028
 4033SOL     OW12997   2.409   2.696   2.818
 4033SOL    HW112998   2.390   2.636   2.741
 4033SOL    HW212999   2.447   2.643   2.894
 4034SOL     OW13000   1.503   2.292   4.697
 4034SOL    HW113001   1.406   2.268   4.700
 4034SOL    HW213002   1.516   2.366   4.630
 4035SOL     OW13003   4.692   2.139   1.960
 4035SOL    HW113004   4.672   2.051   1.917
 4035SOL    HW213005   4.721   2.204   1.890
 4036SOL     OW13006   3.254   5.623   3.387
 4036SOL    HW113007   3.194   5.696   3.353
 4036SOL    HW213008   3.222   5.593   3.477
 4037SOL     OW13009   2.268   2.104   6.564
 4037SOL    HW113010   2.174   2.128   6.539
 4037SOL    HW213011   2.307   2.045   6.493
 4038SOL     OW13012   3.435   4.733   5.878
 4038SOL    HW113013   3.390   4.807   5.928
 4038SOL    HW213014   3.513   4.769   5.827
 4039SOL     OW13015   5.613   5.049   1.657
 4039SOL    HW113016   5.667   4.980   1.705
 4039SOL    HW213017   5.674   5.108   1.604
 4040SOL     OW13018   3.512   0.498   5.195
 4040SOL    HW113019   3.463   0.536   5.274
 4040SOL    HW213020   3.485   0.403   5.183
 4041SOL     OW13021   1.326   5.259   1.889
 4041SOL    HW113022   1.380   5.212   1.958
 4041SOL    HW213023   1.380   5.334   1.850
 4042SOL     OW13024   0.179   1.719   3.194
 4042SOL    HW113025   0.267   1.762   3.175
 4042SOL    HW213026   0.122   1.723   3.112
 4043SOL     OW13027   5.031   3.168   6.050
 4043SOL    HW113028   4.984   3.192   6.135
 4043SOL    HW213029   4.980   3.096   6.003
 4044SOL     OW13030   5.002   4.118   3.157
 4044SOL    HW113031   5.043   4.030   3.181
 4044SOL    HW213032   5.046   4.191   3.210
 4045SOL     OW13033   4.551   1.147   5.569
 4045SOL    HW113034   4.481   1.103   5.625
 4045SOL    HW213035   4.609   1.078   5.527
 4046SOL     OW13036   5.293   1.693   3.921
 4046SOL    HW113037   5.217   1.630   3.932
 4046SOL    HW213038   5.344   1.671   3.838
 4047SOL     OW13039   3.288   2.741   6.735
 4047SOL    HW113040   3.249   2.790   6.813
 4047SOL    HW213041   3.214   2.704   6.679
 4048SOL     OW13042   4.895   1.846   2.718
 4048SOL    HW113043   4.920   1.787   2.641
 4048SOL    HW213044   4.804   1.822   2.749
 4049SOL     OW13045   4.121   4.069   0.910
 4049SOL    HW113046   4.061   3.994   0.935
 4049SOL    HW213047   4.102   4.098   0.816
 4050SOL     OW13048   0.354   5.018   2.687
 4050SOL    HW113049   0.437   5.011   2.632
 4050SOL    HW213050   0.336   5.114   2.708
 4051SOL     OW13051   5.782   0.820   5.506
 4051SOL    HW113052   5.880   0.821   5.489
 4051SOL    HW213053   5.762   0.857   5.596
 4052SOL     OW13054   5.250   1.921   3.520
 4052SOL    HW113055   5.198   1.865   3.456
 4052SOL    HW213056   5.215   1.906   3.613
 4053SOL     OW13057   0.839   4.865   4.136
 4053SOL    HW113058   0.857   4.831   4.043
 4053SOL    HW213059   0.920   4.912   4.171
 4054SOL     OW13060   4.359   3.912   0.948
 4054SOL    HW113061   4.361   3.843   1.020
 4054SOL    HW213062   4.273   3.962   0.951
 4055SOL     OW13063   0.136   4.181   0.532
 4055SOL    HW113064   0.106   4.136   0.617
 4055SOL    HW213065   0.235   4.193   0.535
 4056SOL     OW13066   4.825   3.421   6.856
 4056SOL    HW113067   4.867   3.412   6.766
 4056SOL    HW213068   4.829   3.334   6.904
 4057SOL     OW13069   0.116   3.792   0.533
 4057SOL    HW113070   0.052   3.806   0.458
 4057SOL    HW213071   0.207   3.773   0.496
 4058SOL     OW13072   2.818   0.456   4.859
 4058SOL    HW113073   2.893   0.447   4.794
 4058SOL    HW213074   2.774   0.544   4.847
 4059SOL     OW13075   0.179   1.410   3.784
 4059SOL    HW113076   0.190   1.316   3.818
 4059SOL    HW213077   0.261   1.437   3.734
 4060SOL     OW13078   0.002   6.190   4.506
 4060SOL    HW113079   7.026   6.259   4.434
 4060SOL    HW213080   6.942   6.180   4.549
 4061SOL     OW13081   1.489   4.846   1.363
 4061SOL    HW113082   1.485   4.887   1.455
 4061SOL    HW213083   1.402   4.862   1.316
 4062SOL     OW13084   1.717   3.652   0.786
 4062SOL    HW113085   1.744   3.692   0.873
 4062SOL    HW213086   1.651   3.578   0.802
 4063SOL     OW13087   4.325   0.231   0.732
 4063SOL    HW113088   4.317   0.296   0.656
 4063SOL    HW213089   4.248   0.168   0.730
 4064SOL     OW13090   2.084   1.188   5.641
 4064SOL    HW113091   2.134   1.102   5.631
 4064SOL    HW213092   2.028   1.184   5.724
 4065SOL     OW13093   2.301   0.507   1.260
 4065SOL    HW113094   2.266   0.456   1.181
 4065SOL    HW213095   2.346   0.443   1.323
 4066SOL     OW13096   0.896   3.648   3.668
 4066SOL    HW113097   0.947   3.618   3.588
 4066SOL    HW213098   0.842   3.572   3.705
 4067SOL     OW13099   5.506   5.179   0.701
 4067SOL    HW113100   5.444   5.245   0.659
 4067SOL    HW213101   5.550   5.220   0.781
 4068SOL     OW13102   2.295   2.781   5.006
 4068SOL    HW113103   2.285   2.878   4.982
 4068SOL    HW213104   2.294   2.771   5.106
 4069SOL     OW13105   5.259   6.546   6.525
 4069SOL    HW113106   5.189   6.496   6.577
 4069SOL    HW213107   5.275   6.635   6.569
 4070SOL     OW13108   1.100   3.761   3.843
 4070SOL    HW113109   1.181   3.707   3.861
 4070SOL    HW213110   1.034   3.707   3.791
 4071SOL     OW13111   1.198   0.724   5.294
 4071SOL    HW113112   1.249   0.748   5.212
 4071SOL    HW213113   1.116   0.782   5.300
 4072SOL     OW13114   2.864   6.070   2.881
 4072SOL    HW113115   2.843   6.129   2.959
 4072SOL    HW213116   2.829   5.978   2.899
 4073SOL     OW13117   4.679   5.092   6.843
 4073SOL    HW113118   4.652   5.160   6.774
 4073SOL    HW213119   4.609   5.087   6.914
 4074SOL     OW13120   1.775   5.879   2.779
 4074SOL    HW113121   1.680   5.884   2.812
 4074SOL    HW213122   1.775   5.858   2.682
 4075SOL     OW13123   6.527   0.484   0.639
 4075SOL    HW113124   6.527   0.478   0.539
 4075SOL    HW213125   6.489   0.400   0.677
 4076SOL     OW13126   2.231   5.072   4.260
 4076SOL    HW113127   2.298   5.145   4.242
 4076SOL    HW213128   2.239   5.043   4.355
 4077SOL     OW13129   2.993   0.317   2.299
 4077SOL    HW113130   2.908   0.368   2.285
 4077SOL    HW213131   3.061   0.347   2.233
 4078SOL     OW13132   3.587   4.944   2.145
 4078SOL    HW113133   3.498   4.967   2.106
 4078SOL    HW213134   3.636   4.882   2.084
 4079SOL     OW13135   0.385   2.211   3.780
 4079SOL    HW113136   0.431   2.227   3.867
 4079SOL    HW213137   0.355   2.116   3.775
 4080SOL     OW13138   6.792   2.099   5.631
 4080SOL    HW113139   6.805   2.138   5.722
 4080SOL    HW213140   6.733   2.159   5.577
 4081SOL     OW13141   0.930   3.167   3.791
 4081SOL    HW113142   0.864   3.164   3.716
 4081SOL    HW213143   0.881   3.153   3.878
 4082SOL     OW13144   0.490   3.652   0.774
 4082SOL    HW113145   0.402   3.699   0.770
 4082SOL    HW213146   0.541   3.682   0.855
 4083SOL     OW13147   6.547   2.782   4.726
 4083SOL    HW113148   6.494   2.702   4.755
 4083SOL    HW213149   6.568   2.775   4.628
 4084SOL     OW13150   6.735   1.516   4.328
 4084SOL    HW113151   6.761   1.608   4.357
 4084SOL    HW213152   6.809   1.475   4.275
 4085SOL     OW13153   2.587   6.349   0.346
 4085SOL    HW113154   2.487   6.359   0.340
 4085SOL    HW213155   2.616   6.272   0.289
 4086SOL     OW13156   0.987   4.340   0.902
 4086SOL    HW113157   0.914   4.323   0.836
 4086SOL    HW213158   1.027   4.253   0.932
 4087SOL     OW13159   2.727   1.600   2.710
 4087SOL    HW113160   2.776   1.591   2.797
 4087SOL    HW213161   2.629   1.613   2.728
 4088SOL     OW13162   6.344   1.935   0.546
 4088SOL    HW113163   6.248   1.944   0.520
 4088SOL    HW213164   6.390   1.873   0.482
 4089SOL     OW13165   1.266   1.613   5.646
 4089SOL    HW113166   1.309   1.565   5.570
 4089SOL    HW213167   1.313   1.701   5.661
 4090SOL     OW13168   1.993   4.595   6.362
 4090SOL    HW113169   2.052   4.676   6.359
 4090SOL    HW213170   1.952   4.581   6.272
 4091SOL     OW13171   3.781   6.797   0.376
 4091SOL    HW113172   3.831   6.831   0.456
 4091SOL    HW213173   3.733   6.873   0.332
 4092SOL     OW13174   6.726   2.124   4.768
 4092SOL    HW113175   6.795   2.196   4.777
 4092SOL    HW213176   6.739   2.057   4.841
 4093SOL     OW13177   5.829   6.741   4.876
 4093SOL    HW113178   5.740   6.696   4.879
 4093SOL    HW213179   5.855   6.769   4.968
 4094SOL     OW13180   2.862   4.407   5.335
 4094SOL    HW113181   2.879   4.474   5.263
 4094SOL    HW213182   2.949   4.372   5.369
 4095SOL     OW13183   1.903   3.834   5.891
 4095SOL    HW113184   1.907   3.865   5.986
 4095SOL    HW213185   1.911   3.914   5.830
 4096SOL     OW13186   4.287   4.631   2.182
 4096SOL    HW113187   4.192   4.653   2.159
 4096SOL    HW213188   4.337   4.611   2.097
 4097SOL     OW13189   2.892   3.719   4.058
 4097SOL    HW113190   2.811   3.776   4.045
 4097SOL    HW213191   2.968   3.757   4.004
 4098SOL     OW13192   0.255   2.797   2.209
 4098SOL    HW113193   0.351   2.806   2.185
 4098SOL    HW213194   0.199   2.840   2.138
 4099SOL     OW13195   2.936   6.354   1.726
 4099SOL    HW113196   2.884   6.319   1.803
 4099SOL    HW213197   2.890   6.331   1.641
 4100SOL     OW13198   3.477   6.375   2.999
 4100SOL    HW113199   3.461   6.451   3.062
 4100SOL    HW213200   3.465   6.288   3.049
 4101SOL     OW13201   4.436   1.092   6.942
 4101SOL    HW113202   4.436   1.125   0.008
 4101SOL    HW213203   4.410   1.167   6.881
 4102SOL     OW13204   5.507   1.200   0.452
 4102SOL    HW113205   5.586   1.184   0.510
 4102SOL    HW213206   5.488   1.118   0.398
 4103SOL     OW13207   0.102   0.131   2.204
 4103SOL    HW113208   0.033   0.078   2.156
 4103SOL    HW213209   0.186   0.133   2.150
 4104SOL     OW13210   1.485   4.909   2.575
 4104SOL    HW113211   1.475   4.919   2.674
 4104SOL    HW213212   1.571   4.861   2.554
 4105SOL     OW13213   5.415   5.402   0.301
 4105SOL    HW113214   5.359   5.326   0.267
 4105SOL    HW213215   5.506   5.397   0.258
 4106SOL     OW13216   0.252   3.749   5.170
 4106SOL    HW113217   0.163   3.795   5.170
 4106SOL    HW213218   0.241   3.654   5.139
 4107SOL     OW13219   6.971   1.087   0.839
 4107SOL    HW113220   6.927   1.024   0.774
 4107SOL    HW213221   6.971   1.046   0.930
 4108SOL     OW13222   6.588   3.070   5.151
 4108SOL    HW113223   6.603   3.022   5.064
 4108SOL    HW213224   6.625   3.163   5.144
 4109SOL     OW13225   2.777   6.370   3.394
 4109SOL    HW113226   2.799   6.439   3.463
 4109SOL    HW213227   2.692   6.394   3.348
 4110SOL     OW13228   4.163   3.226   5.286
 4110SOL    HW113229   4.216   3.282   5.351
 4110SOL    HW213230   4.080   3.194   5.331
 4111SOL     OW13231   4.467   3.412   6.572
 4111SOL    HW113232   4.427   3.395   6.662
 4111SOL    HW213233   4.564   3.388   6.574
 4112SOL     OW13234   3.551   0.738   4.477
 4112SOL    HW113235   3.527   0.726   4.573
 4112SOL    HW213236   3.617   0.668   4.450
 4113SOL     OW13237   3.766   5.731   4.597
 4113SOL    HW113238   3.702   5.674   4.544
 4113SOL    HW213239   3.836   5.767   4.535
 4114SOL     OW13240   3.142   2.106   2.704
 4114SOL    HW113241   3.189   2.100   2.616
 4114SOL    HW213242   3.069   2.173   2.698
 4115SOL     OW13243   5.510   4.829   2.227
 4115SOL    HW113244   5.486   4.891   2.302
 4115SOL    HW213245   5.437   4.829   2.159
 4116SOL     OW13246   3.329   1.175   2.259
 4116SOL    HW113247   3.377   1.215   2.337
 4116SOL    HW213248   3.261   1.109   2.292
 4117SOL     OW13249   0.855   5.427   1.924
 4117SOL    HW113250   0.926   5.356   1.929
 4117SOL    HW213251   0.793   5.407   1.849
 4118SOL     OW13252   2.446   6.704   0.789
 4118SOL    HW113253   2.482   6.741   0.875
 4118SOL    HW213254   2.392   6.775   0.743
 4119SOL     OW13255   4.629   0.868   3.596
 4119SOL    HW113256   4.690   0.879   3.674
 4119SOL    HW213257   4.654   0.785   3.545
 4120SOL     OW13258   3.935   1.092   2.418
 4120SOL    HW113259   4.016   1.123   2.368
 4120SOL    HW213260   3.854   1.141   2.385
 4121SOL     OW13261   6.657   2.978   4.906
 4121SOL    HW113262   6.624   2.909   4.841
 4121SOL    HW213263   6.711   3.046   4.858
 4122SOL     OW13264   1.721   5.725   6.650
 4122SOL    HW113265   1.737   5.661   6.575
 4122SOL    HW213266   1.709   5.817   6.612
 4123SOL     OW13267   4.645   4.235   6.068
 4123SOL    HW113268   4.649   4.324   6.024
 4123SOL    HW213269   4.567   4.232   6.131
 4124SOL     OW13270   4.657   6.384   3.770
 4124SOL    HW113271   4.654   6.476   3.730
 4124SOL    HW213272   4.576   6.333   3.739
 4125SOL     OW13273   4.928   1.070   0.906
 4125SOL    HW113274   4.995   1.127   0.954
 4125SOL    HW213275   4.846   1.125   0.887
 4126SOL     OW13276   1.954   5.026   4.596
 4126SOL    HW113277   1.885   5.095   4.575
 4126SOL    HW213278   1.927   4.939   4.556
 4127SOL     OW13279   6.065   4.093   4.727
 4127SOL    HW113280   6.128   4.122   4.800
 4127SOL    HW213281   5.971   4.116   4.752
 4128SOL     OW13282   1.131   1.942   2.280
 4128SOL    HW113283   1.048   1.894   2.310
 4128SOL    HW213284   1.126   1.960   2.182
 4129SOL     OW13285   5.883   2.166   6.188
 4129SOL    HW113286   5.861   2.158   6.285
 4129SOL    HW213287   5.888   2.075   6.147
 4130SOL     OW13288   5.967   3.351   1.293
 4130SOL    HW113289   5.927   3.299   1.369
 4130SOL    HW213290   5.933   3.314   1.206
 4131SOL     OW13291   6.532   4.146   3.242
 4131SOL    HW113292   6.541   4.223   3.179
 4131SOL    HW213293   6.620   4.128   3.286
 4132SOL     OW13294   5.130   2.126   4.543
 4132SOL    HW113295   5.091   2.216   4.523
 4132SOL    HW213296   5.120   2.067   4.464
 4133SOL     OW13297   2.686   2.207   1.233
 4133SOL    HW113298   2.754   2.227   1.303
 4133SOL    HW213299   2.704   2.116   1.194
 4134SOL     OW13300   1.177   1.770   6.813
 4134SOL    HW113301   1.239   1.691   6.816
 4134SOL    HW213302   1.190   1.825   6.896
 4135SOL     OW13303   1.251   0.589   1.176
 4135SOL    HW113304   1.305   0.510   1.205
 4135SOL    HW213305   1.160   0.559   1.149
 4136SOL     OW13306   1.045   1.689   3.476
 4136SOL    HW113307   0.997   1.607   3.507
 4136SOL    HW213308   1.106   1.720   3.549
 4137SOL     OW13309   3.843   3.872   5.317
 4137SOL    HW113310   3.895   3.878   5.232
 4137SOL    HW213311   3.864   3.786   5.363
 4138SOL     OW13312   4.044   5.391   2.866
 4138SOL    HW113313   3.971   5.398   2.934
 4138SOL    HW213314   4.004   5.374   2.776
 4139SOL     OW13315   2.160   0.759   0.502
 4139SOL    HW113316   2.200   0.785   0.414
 4139SOL    HW213317   2.224   0.783   0.576
 4140SOL     OW13318   4.695   1.499   5.416
 4140SOL    HW113319   4.677   1.596   5.402
 4140SOL    HW213320   4.627   1.461   5.479
 4141SOL     OW13321   5.556   5.584   0.754
 4141SOL    HW113322   5.473   5.547   0.797
 4141SOL    HW213323   5.627   5.514   0.751
 4142SOL     OW13324   6.567   2.911   1.683
 4142SOL    HW113325   6.511   2.886   1.604
 4142SOL    HW213326   6.639   2.843   1.696
 4143SOL     OW13327   0.568   2.027   1.565
 4143SOL    HW113328   0.638   2.009   1.634
 4143SOL    HW213329   0.608   2.018   1.474
 4144SOL     OW13330   4.644   0.743   2.140
 4144SOL    HW113331   4.618   0.686   2.218
 4144SOL    HW213332   4.570   0.744   2.073
 4145SOL     OW13333   3.254   0.031   2.887
 4145SOL    HW113334   3.181   0.092   2.854
 4145SOL    HW213335   3.221   7.008   2.966
 4146SOL     OW13336   5.232   5.663   0.051
 4146SOL    HW113337   5.163   5.680   7.009
 4146SOL    HW213338   5.186   5.634   0.135
 4147SOL     OW13339   2.989   2.584   5.812
 4147SOL    HW113340   2.979   2.578   5.712
 4147SOL    HW213341   2.983   2.680   5.840
 4148SOL     OW13342   5.731   0.174   2.953
 4148SOL    HW113343   5.636   0.199   2.936
 4148SOL    HW213344   5.739   0.074   2.955
 4149SOL     OW13345   5.238   4.564   1.530
 4149SOL    HW113346   5.220   4.622   1.609
 4149SOL    HW213347   5.204   4.609   1.447
 4150SOL     OW13348   4.751   0.666   5.882
 4150SOL    HW113349   4.836   0.650   5.932
 4150SOL    HW213350   4.675   0.622   5.929
 4151SOL     OW13351   0.375   5.611   0.625
 4151SOL    HW113352   0.406   5.517   0.605
 4151SOL    HW213353   0.340   5.653   0.541
 4152SOL     OW13354   3.753   4.332   1.425
 4152SOL    HW113355   3.730   4.393   1.501
 4152SOL    HW213356   3.695   4.251   1.428
 4153SOL     OW13357   6.250   5.530   6.199
 4153SOL    HW113358   6.342   5.504   6.228
 4153SOL    HW213359   6.184   5.499   6.268
 4154SOL     OW13360   4.614   2.713   5.669
 4154SOL    HW113361   4.591   2.640   5.734
 4154SOL    HW213362   4.647   2.672   5.583
 4155SOL     OW13363   1.354   2.944   1.052
 4155SOL    HW113364   1.340   3.042   1.067
 4155SOL    HW213365   1.266   2.897   1.051
 4156SOL     OW13366   6.333   6.932   5.389
 4156SOL    HW113367   6.349   6.937   5.488
 4156SOL    HW213368   6.372   6.848   5.353
 4157SOL     OW13369   3.361   0.770   4.271
 4157SOL    HW113370   3.310   0.824   4.337
 4157SOL    HW213371   3.442   0.731   4.315
 4158SOL     OW13372   0.797   0.243   4.310
 4158SOL    HW113373   0.804   0.162   4.251
 4158SOL    HW213374   0.723   0.230   4.375
 4159SOL     OW13375   0.689   3.518   5.516
 4159SOL    HW113376   0.714   3.483   5.607
 4159SOL    HW213377   0.699   3.446   5.448
 4160SOL     OW13378   1.308   1.074   0.758
 4160SOL    HW113379   1.394   1.029   0.732
 4160SOL    HW213380   1.259   1.102   0.676
 4161SOL     OW13381   6.136   1.814   0.318
 4161SOL    HW113382   6.068   1.816   0.245
 4161SOL    HW213383   6.112   1.741   0.383
 4162SOL     OW13384   0.025   6.642   4.870
 4162SOL    HW113385   0.021   6.607   4.776
 4162SOL    HW213386   0.119   6.641   4.902
 4163SOL     OW13387   6.308   0.853   4.168
 4163SOL    HW113388   6.279   0.816   4.257
 4163SOL    HW213389   6.302   0.781   4.099
 4164SOL     OW13390   2.771   6.816   6.433
 4164SOL    HW113391   2.750   6.912   6.451
 4164SOL    HW213392   2.692   6.759   6.458
 4165SOL     OW13393   2.845   5.743   2.544
 4165SOL    HW113394   2.832   5.753   2.643
 4165SOL    HW213395   2.763   5.702   2.504
 4166SOL     OW13396   5.924   2.527   1.269
 4166SOL    HW113397   5.845   2.578   1.304
 4166SOL    HW213398   5.986   2.506   1.344
 4167SOL     OW13399   2.479   3.204   1.267
 4167SOL    HW113400   2.416   3.200   1.345
 4167SOL    HW213401   2.447   3.142   1.196
 4168SOL     OW13402   1.360   4.511   0.888
 4168SOL    HW113403   1.314   4.591   0.927
 4168SOL    HW213404   1.333   4.429   0.939
 4169SOL     OW13405   6.217   3.676   4.509
 4169SOL    HW113406   6.190   3.684   4.605
 4169SOL    HW213407   6.165   3.603   4.466
 4170SOL     OW13408   4.161   2.283   5.277
 4170SOL    HW113409   4.156   2.363   5.217
 4170SOL    HW213410   4.101   2.211   5.242
 4171SOL     OW13411   5.395   3.447   1.385
 4171SOL    HW113412   5.394   3.348   1.395
 4171SOL    HW213413   5.385   3.490   1.475
 4172SOL     OW13414   2.614   0.874   0.151
 4172SOL    HW113415   2.556   0.953   0.136
 4172SOL    HW213416   2.621   0.821   0.067
 4173SOL     OW13417   5.683   3.476   5.392
 4173SOL    HW113418   5.783   3.471   5.394
 4173SOL    HW213419   5.654   3.570   5.411
 4174SOL     OW13420   5.310   0.622   4.356
 4174SOL    HW113421   5.343   0.542   4.407
 4174SOL    HW213422   5.386   0.662   4.304
 4175SOL     OW13423   3.518   1.643   3.414
 4175SOL    HW113424   3.536   1.698   3.495
 4175SOL    HW213425   3.425   1.605   3.420
 4176SOL     OW13426   6.227   5.439   3.106
 4176SOL    HW113427   6.289   5.512   3.135
 4176SOL    HW213428   6.179   5.466   3.023
 4177SOL     OW13429   6.613   5.077   2.685
 4177SOL    HW113430   6.693   5.124   2.723
 4177SOL    HW213431   6.545   5.065   2.757
 4178SOL     OW13432   3.950   3.130   6.081
 4178SOL    HW113433   3.977   3.034   6.083
 4178SOL    HW213434   3.926   3.160   6.173
 4179SOL     OW13435   6.469   2.938   6.541
 4179SOL    HW113436   6.395   2.977   6.594
 4179SOL    HW213437   6.446   2.844   6.516
 4180SOL     OW13438   4.277   3.499   1.505
 4180SOL    HW113439   4.234   3.570   1.561
 4180SOL    HW213440   4.278   3.528   1.409
 4181SOL     OW13441   6.826   1.338   0.449
 4181SOL    HW113442   6.895   1.393   0.495
 4181SOL    HW213443   6.818   1.367   0.353
 4182SOL     OW13444   5.476   1.039   3.671
 4182SOL    HW113445   5.419   1.091   3.735
 4182SOL    HW213446   5.542   1.101   3.629
 4183SOL     OW13447   1.841   1.999   1.303
 4183SOL    HW113448   1.867   1.911   1.342
 4183SOL    HW213449   1.906   2.024   1.232
 4184SOL     OW13450   3.900   5.142   6.829
 4184SOL    HW113451   3.992   5.101   6.836
 4184SOL    HW213452   3.880   5.193   6.912
 4185SOL     OW13453   6.955   6.638   4.089
 4185SOL    HW113454   0.023   6.657   4.104
 4185SOL    HW213455   6.944   6.549   4.045
 4186SOL     OW13456   3.635   4.204   1.773
 4186SOL    HW113457   3.554   4.177   1.721
 4186SOL    HW213458   3.647   4.141   1.850
 4187SOL     OW13459   4.310   4.901   6.391
 4187SOL    HW113460   4.301   4.924   6.488
 4187SOL    HW213461   4.402   4.925   6.360
 4188SOL     OW13462   5.417   6.374   4.845
 4188SOL    HW113463   5.373   6.402   4.931
 4188SOL    HW213464   5.355   6.314   4.794
 4189SOL     OW13465   1.863   3.317   3.375
 4189SOL    HW113466   1.849   3.235   3.430
 4189SOL    HW213467   1.867   3.397   3.434
 4190SOL     OW13468   3.148   6.988   1.591
 4190SOL    HW113469   3.081   6.931   1.640
 4190SOL    HW213470   3.127   6.987   1.494
 4191SOL     OW13471   0.404   2.893   1.887
 4191SOL    HW113472   0.311   2.864   1.906
 4191SOL    HW213473   0.418   2.985   1.924
 4192SOL     OW13474   5.940   0.963   2.755
 4192SOL    HW113475   5.842   0.949   2.769
 4192SOL    HW213476   5.969   1.043   2.806
 4193SOL     OW13477   1.893   6.569   2.566
 4193SOL    HW113478   1.979   6.589   2.519
 4193SOL    HW213479   1.840   6.502   2.513
 4194SOL     OW13480   6.317   1.054   3.712
 4194SOL    HW113481   6.349   0.974   3.662
 4194SOL    HW213482   6.359   1.057   3.803
 4195SOL     OW13483   5.276   1.110   3.102
 4195SOL    HW113484   5.356   1.068   3.059
 4195SOL    HW213485   5.287   1.110   3.201
 4196SOL     OW13486   4.348   2.299   3.331
 4196SOL    HW113487   4.316   2.259   3.417
 4196SOL    HW213488   4.273   2.302   3.265
 4197SOL     OW13489   4.844   3.982   4.425
 4197SOL    HW113490   4.936   3.994   4.464
 4197SOL    HW213491   4.838   3.891   4.383
 4198SOL     OW13492   5.568   4.280   6.126
 4198SOL    HW113493   5.510   4.247   6.052
 4198SOL    HW213494   5.608   4.201   6.174
 4199SOL     OW13495   3.114   3.735   5.115
 4199SOL    HW113496   3.030   3.766   5.160
 4199SOL    HW213497   3.141   3.647   5.153
 4200SOL     OW13498   2.358   0.135   6.100
 4200SOL    HW113499   2.343   0.132   6.199
 4200SOL    HW213500   2.271   0.148   6.053
 4201SOL     OW13501   5.985   6.778   4.648
 4201SOL    HW113502   6.029   6.689   4.642
 4201SOL    HW213503   5.913   6.775   4.717
 4202SOL     OW13504   5.538   3.711   4.841
 4202SOL    HW113505   5.619   3.654   4.828
 4202SOL    HW213506   5.491   3.683   4.925
 4203SOL     OW13507   4.868   5.237   4.077
 4203SOL    HW113508   4.966   5.242   4.059
 4203SOL    HW213509   4.843   5.305   4.146
 4204SOL     OW13510   2.221   4.350   0.838
 4204SOL    HW113511   2.251   4.402   0.918
 4204SOL    HW213512   2.287   4.362   0.764
 4205SOL     OW13513   2.920   5.740   3.169
 4205SOL    HW113514   2.983   5.773   3.240
 4205SOL    HW213515   2.973   5.710   3.090
 4206SOL     OW13516   5.631   6.555   4.243
 4206SOL    HW113517   5.600   6.648   4.262
 4206SOL    HW213518   5.706   6.531   4.305
 4207SOL     OW13519   0.766   0.701   0.692
 4207SOL    HW113520   0.745   0.615   0.739
 4207SOL    HW213521   0.858   0.696   0.654
 4208SOL     OW13522   1.047   2.794   0.331
 4208SOL    HW113523   1.039   2.881   0.379
 4208SOL    HW213524   0.967   2.782   0.271
 4209SOL     OW13525   2.771   0.700   5.049
 4209SOL    HW113526   2.743   0.632   5.117
 4209SOL    HW213527   2.871   0.701   5.043
 4210SOL     OW13528   4.905   2.714   7.014
 4210SOL    HW113529   4.824   2.740   0.036
 4210SOL    HW213530   4.881   2.700   6.918
 4211SOL     OW13531   5.096   3.562   3.859
 4211SOL    HW113532   5.021   3.573   3.924
 4211SOL    HW213533   5.183   3.565   3.908
 4212SOL     OW13534   6.322   6.629   2.709
 4212SOL    HW113535   6.349   6.705   2.768
 4212SOL    HW213536   6.249   6.577   2.753
 4213SOL     OW13537   0.987   7.016   1.417
 4213SOL    HW113538   0.940   0.073   1.435
 4213SOL    HW213539   1.075   0.005   1.374
 4214SOL     OW13540   2.526   5.154   4.967
 4214SOL    HW113541   2.466   5.075   4.977
 4214SOL    HW213542   2.477   5.236   4.996
 4215SOL     OW13543   0.821   5.438   5.380
 4215SOL    HW113544   0.838   5.530   5.416
 4215SOL    HW213545   0.889   5.375   5.417
 4216SOL     OW13546   2.804   3.090   5.444
 4216SOL    HW113547   2.720   3.035   5.441
 4216SOL    HW213548   2.870   3.054   5.378
 4217SOL     OW13549   0.002   0.899   3.106
 4217SOL    HW113550   6.967   0.853   3.168
 4217SOL    HW213551   0.013   0.994   3.135
 4218SOL     OW13552   3.058   6.358   2.042
 4218SOL    HW113553   3.120   6.431   2.014
 4218SOL    HW213554   3.094   6.270   2.013
 4219SOL     OW13555   5.042   0.044   3.116
 4219SOL    HW113556   4.992   7.000   3.163
 4219SOL    HW213557   5.013   0.133   3.151
 4220SOL     OW13558   0.854   4.160   3.433
 4220SOL    HW113559   0.900   4.234   3.484
 4220SOL    HW213560   0.791   4.113   3.494
 4221SOL     OW13561   5.649   6.418   5.810
 4221SOL    HW113562   5.568   6.463   5.773
 4221SOL    HW213563   5.622   6.349   5.876
 4222SOL     OW13564   3.064   2.875   6.870
 4222SOL    HW113565   3.020   2.965   6.866
 4222SOL    HW213566   3.072   2.847   6.966
 4223SOL     OW13567   3.063   3.440   2.597
 4223SOL    HW113568   3.032   3.535   2.603
 4223SOL    HW213569   3.137   3.434   2.530
 4224SOL     OW13570   3.908   2.018   5.801
 4224SOL    HW113571   3.873   2.044   5.711
 4224SOL    HW213572   3.907   2.098   5.861
 4225SOL     OW13573   5.474   0.411   4.479
 4225SOL    HW113574   5.548   0.425   4.413
 4225SOL    HW213575   5.432   0.322   4.464
 4226SOL     OW13576   1.878   1.291   3.299
 4226SOL    HW113577   1.888   1.358   3.226
 4226SOL    HW213578   1.795   1.238   3.285
 4227SOL     OW13579   5.848   3.827   6.925
 4227SOL    HW113580   5.848   3.764   6.848
 4227SOL    HW213581   5.937   3.822   6.971
 4228SOL     OW13582   5.464   5.412   3.053
 4228SOL    HW113583   5.502   5.369   2.971
 4228SOL    HW213584   5.515   5.496   3.073
 4229SOL     OW13585   4.516   4.892   5.340
 4229SOL    HW113586   4.461   4.973   5.318
 4229SOL    HW213587   4.456   4.817   5.367
 4230SOL     OW13588   3.220   0.333   5.000
 4230SOL    HW113589   3.264   0.422   5.014
 4230SOL    HW213590   3.289   0.261   5.003
 4231SOL     OW13591   3.647   6.550   5.724
 4231SOL    HW113592   3.701   6.595   5.795
 4231SOL    HW213593   3.631   6.454   5.749
 4232SOL     OW13594   2.461   4.349   1.391
 4232SOL    HW113595   2.388   4.289   1.359
 4232SOL    HW213596   2.436   4.444   1.372
 4233SOL     OW13597   5.605   6.632   1.275
 4233SOL    HW113598   5.638   6.683   1.196
 4233SOL    HW213599   5.641   6.539   1.273
 4234SOL     OW13600   3.226   3.882   5.512
 4234SOL    HW113601   3.163   3.940   5.461
 4234SOL    HW213602   3.278   3.824   5.449
 4235SOL     OW13603   0.364   3.922   5.368
 4235SOL    HW113604   0.355   3.871   5.283
 4235SOL    HW213605   0.306   4.003   5.365
 4236SOL     OW13606   0.872   3.740   4.748
 4236SOL    HW113607   0.958   3.792   4.751
 4236SOL    HW213608   0.804   3.786   4.804
 4237SOL     OW13609   5.493   4.750   5.499
 4237SOL    HW113610   5.538   4.711   5.418
 4237SOL    HW213611   5.459   4.676   5.557
 4238SOL     OW13612   4.689   4.211   4.495
 4238SOL    HW113613   4.713   4.115   4.478
 4238SOL    HW213614   4.659   4.222   4.589
 4239SOL     OW13615   5.582   5.846   5.675
 4239SOL    HW113616   5.493   5.802   5.690
 4239SOL    HW213617   5.569   5.934   5.630
 4240SOL     OW13618   2.587   4.897   6.376
 4240SOL    HW113619   2.519   4.970   6.366
 4240SOL    HW213620   2.674   4.928   6.339
 4241SOL     OW13621   4.345   1.434   0.243
 4241SOL    HW113622   4.258   1.460   0.202
 4241SOL    HW213623   4.395   1.516   0.272
 4242SOL     OW13624   1.361   0.527   2.481
 4242SOL    HW113625   1.297   0.451   2.491
 4242SOL    HW213626   1.317   0.602   2.431
 4243SOL     OW13627   1.523   2.591   2.784
 4243SOL    HW113628   1.603   2.651   2.790
 4243SOL    HW213629   1.489   2.572   2.877
 4244SOL     OW13630   3.170   0.061   0.823
 4244SOL    HW113631   3.178   0.097   0.916
 4244SOL    HW213632   3.171   0.137   0.758
 4245SOL     OW13633   6.696   2.017   1.127
 4245SOL    HW113634   6.748   2.095   1.162
 4245SOL    HW213635   6.759   1.945   1.097
 4246SOL     OW13636   4.972   2.660   3.773
 4246SOL    HW113637   4.930   2.700   3.854
 4246SOL    HW213638   4.961   2.560   3.775
 4247SOL     OW13639   1.751   4.824   6.757
 4247SOL    HW113640   1.826   4.889   6.773
 4247SOL    HW213641   1.779   4.758   6.687
 4248SOL     OW13642   2.255   0.734   3.289
 4248SOL    HW113643   2.295   0.785   3.365
 4248SOL    HW213644   2.178   0.680   3.321
 4249SOL     OW13645   5.899   0.495   6.126
 4249SOL    HW113646   5.811   0.517   6.168
 4249SOL    HW213647   5.962   0.572   6.138
 4250SOL     OW13648   0.184   6.264   4.711
 4250SOL    HW113649   0.136   6.212   4.781
 4250SOL    HW213650   0.130   6.266   4.627
 4251SOL     OW13651   4.662   2.248   5.450
 4251SOL    HW113652   4.577   2.218   5.407
 4251SOL    HW213653   4.664   2.214   5.544
 4252SOL     OW13654   0.129   0.125   6.619
 4252SOL    HW113655   0.052   0.149   6.678
 4252SOL    HW213656   0.121   0.029   6.592
 4253SOL     OW13657   4.421   6.309   2.774
 4253SOL    HW113658   4.488   6.238   2.792
 4253SOL    HW213659   4.468   6.390   2.736
 4254SOL     OW13660   1.395   2.073   6.288
 4254SOL    HW113661   1.298   2.082   6.264
 4254SOL    HW213662   1.449   2.065   6.205
 4255SOL     OW13663   1.055   2.649   2.874
 4255SOL    HW113664   1.096   2.734   2.841
 4255SOL    HW213665   1.104   2.618   2.955
 4256SOL     OW13666   6.502   5.995   0.963
 4256SOL    HW113667   6.472   6.045   1.045
 4256SOL    HW213668   6.598   5.969   0.973
 4257SOL     OW13669   6.189   0.729   3.441
 4257SOL    HW113670   6.118   0.797   3.461
 4257SOL    HW213671   6.177   0.695   3.348
 4258SOL     OW13672   2.934   5.826   0.926
 4258SOL    HW113673   2.896   5.846   1.016
 4258SOL    HW213674   3.023   5.870   0.917
 4259SOL     OW13675   1.315   0.208   0.578
 4259SOL    HW113676   1.376   0.207   0.657
 4259SOL    HW213677   1.366   0.233   0.496
 4260SOL     OW13678   6.113   0.321   4.732
 4260SOL    HW113679   6.034   0.357   4.781
 4260SOL    HW213680   6.125   0.224   4.755
 4261SOL     OW13681   2.213   6.340   4.286
 4261SOL    HW113682   2.211   6.440   4.279
 4261SOL    HW213683   2.144   6.309   4.350
 4262SOL     OW13684   1.825   5.124   5.276
 4262SOL    HW113685   1.887   5.162   5.344
 4262SOL    HW213686   1.876   5.068   5.212
 4263SOL     OW13687   2.735   1.580   3.318
 4263SOL    HW113688   2.667   1.626   3.375
 4263SOL    HW213689   2.806   1.646   3.292
 4264SOL     OW13690   4.389   2.116   5.970
 4264SOL    HW113691   4.341   2.053   6.031
 4264SOL    HW213692   4.324   2.178   5.927
 4265SOL     OW13693   2.907   6.401   6.547
 4265SOL    HW113694   2.823   6.427   6.595
 4265SOL    HW213695   2.927   6.468   6.477
 4266SOL     OW13696   1.053   5.230   1.871
 4266SOL    HW113697   1.148   5.256   1.883
 4266SOL    HW213698   1.038   5.198   1.778
 4267SOL     OW13699   1.020   3.571   4.273
 4267SOL    HW113700   0.970   3.634   4.332
 4267SOL    HW213701   1.006   3.596   4.177
 4268SOL     OW13702   1.221   4.536   5.953
 4268SOL    HW113703   1.263   4.492   5.873
 4268SOL    HW213704   1.269   4.622   5.973
 4269SOL     OW13705   2.914   1.533   4.536
 4269SOL    HW113706   2.923   1.632   4.543
 4269SOL    HW213707   2.896   1.494   4.626
 4270SOL     OW13708   4.296   4.111   0.225
 4270SOL    HW113709   4.331   4.196   0.186
 4270SOL    HW213710   4.254   4.057   0.152
 4271SOL     OW13711   6.890   0.542   0.990
 4271SOL    HW113712   6.824   0.472   1.017
 4271SOL    HW213713   6.914   0.599   1.069
 4272SOL     OW13714   0.122   1.755   5.911
 4272SOL    HW113715   0.151   1.794   5.823
 4272SOL    HW213716   0.142   1.657   5.912
 4273SOL     OW13717   2.881   6.247   3.715
 4273SOL    HW113718   2.893   6.337   3.674
 4273SOL    HW213719   2.811   6.196   3.664
 4274SOL     OW13720   0.631   1.232   2.248
 4274SOL    HW113721   0.567   1.263   2.318
 4274SOL    HW213722   0.623   1.290   2.167
 4275SOL     OW13723   6.948   2.312   3.889
 4275SOL    HW113724   6.906   2.320   3.798
 4275SOL    HW213725   6.902   2.373   3.953
 4276SOL     OW13726   1.054   6.550   2.748
 4276SOL    HW113727   1.124   6.515   2.811
 4276SOL    HW213728   1.098   6.607   2.678
 4277SOL     OW13729   6.635   5.284   3.090
 4277SOL    HW113730   6.612   5.321   3.000
 4277SOL    HW213731   6.695   5.205   3.079
 4278SOL     OW13732   0.775   6.999   1.082
 4278SOL    HW113733   0.716   6.927   1.046
 4278SOL    HW213734   0.817   6.967   1.167
 4279SOL     OW13735   0.705   2.180   3.394
 4279SOL    HW113736   0.751   2.122   3.327
 4279SOL    HW213737   0.706   2.275   3.363
 4280SOL     OW13738   1.659   6.427   6.530
 4280SOL    HW113739   1.568   6.388   6.513
 4280SOL    HW213740   1.655   6.526   6.517
 4281SOL     OW13741   6.259   6.041   3.367
 4281SOL    HW113742   6.313   6.124   3.359
 4281SOL    HW213743   6.165   6.064   3.391
 4282SOL     OW13744   5.364   5.487   2.296
 4282SOL    HW113745   5.267   5.465   2.291
 4282SOL    HW213746   5.416   5.424   2.239
 4283SOL     OW13747   5.949   1.114   4.811
 4283SOL    HW113748   5.870   1.093   4.753
 4283SOL    HW213749   5.926   1.191   4.871
 4284SOL     OW13750   4.975   6.060   6.665
 4284SOL    HW113751   4.986   6.003   6.584
 4284SOL    HW213752   4.888   6.109   6.661
 4285SOL     OW13753   3.146   1.819   6.240
 4285SOL    HW113754   3.080   1.769   6.184
 4285SOL    HW213755   3.238   1.788   6.218
 4286SOL     OW13756   5.182   6.894   6.864
 4286SOL    HW113757   5.122   6.950   6.923
 4286SOL    HW213758   5.235   6.832   6.921
 4287SOL     OW13759   3.093   0.763   1.325
 4287SOL    HW113760   3.034   0.819   1.384
 4287SOL    HW213761   3.177   0.741   1.373
 4288SOL     OW13762   6.902   5.763   1.799
 4288SOL    HW113763   6.917   5.694   1.870
 4288SOL    HW213764   6.990   5.802   1.771
 4289SOL     OW13765   0.140   4.617   5.172
 4289SOL    HW113766   0.172   4.537   5.121
 4289SOL    HW213767   0.041   4.609   5.187
 4290SOL     OW13768   6.919   1.856   3.502
 4290SOL    HW113769   6.825   1.885   3.483
 4290SOL    HW213770   6.930   1.760   3.477
 4291SOL     OW13771   4.366   4.881   6.677
 4291SOL    HW113772   4.286   4.824   6.694
 4291SOL    HW213773   4.433   4.828   6.624
 4292SOL     OW13774   6.501   1.013   1.685
 4292SOL    HW113775   6.532   0.925   1.650
 4292SOL    HW213776   6.409   1.003   1.724
 4293SOL     OW13777   3.724   2.961   0.062
 4293SOL    HW113778   3.647   2.915   0.018
 4293SOL    HW213779   3.700   3.056   0.080
 4294SOL     OW13780   3.041   1.756   6.502
 4294SOL    HW113781   2.961   1.789   6.451
 4294SOL    HW213782   3.121   1.754   6.441
 4295SOL     OW13783   4.862   6.304   3.004
 4295SOL    HW113784   4.872   6.349   3.092
 4295SOL    HW213785   4.797   6.228   3.013
 4296SOL     OW13786   2.079   6.349   2.175
 4296SOL    HW113787   2.164   6.344   2.123
 4296SOL    HW213788   2.035   6.437   2.158
 4297SOL     OW13789   4.866   5.148   0.030
 4297SOL    HW113790   4.806   5.192   6.992
 4297SOL    HW213791   4.961   5.158   0.001
 4298SOL     OW13792   1.461   0.249   0.825
 4298SOL    HW113793   1.399   0.242   0.904
 4298SOL    HW213794   1.555   0.261   0.858
 4299SOL     OW13795   0.813   3.126   6.294
 4299SOL    HW113796   0.818   3.224   6.316
 4299SOL    HW213797   0.768   3.115   6.205
 4300SOL     OW13798   3.425   0.465   2.177
 4300SOL    HW113799   3.452   0.400   2.248
 4300SOL    HW213800   3.405   0.554   2.219
 4301SOL     OW13801   2.224   5.965   5.597
 4301SOL    HW113802   2.196   5.908   5.520
 4301SOL    HW213803   2.278   6.042   5.564
 4302SOL     OW13804   3.360   5.103   6.208
 4302SOL    HW113805   3.284   5.137   6.263
 4302SOL    HW213806   3.401   5.024   6.253
 4303SOL     OW13807   4.385   5.656   3.533
 4303SOL    HW113808   4.324   5.732   3.559
 4303SOL    HW213809   4.384   5.587   3.605
 4304SOL     OW13810   3.016   4.060   1.902
 4304SOL    HW113811   2.986   4.136   1.845
 4304SOL    HW213812   3.114   4.045   1.889
 4305SOL     OW13813   0.697   6.081   6.130
 4305SOL    HW113814   0.695   6.003   6.068
 4305SOL    HW213815   0.675   6.164   6.079
 4306SOL     OW13816   5.915   3.382   4.925
 4306SOL    HW113817   5.860   3.463   4.903
 4306SOL    HW213818   5.994   3.378   4.865
 4307SOL     OW13819   6.664   1.316   5.368
 4307SOL    HW113820   6.685   1.285   5.461
 4307SOL    HW213821   6.574   1.359   5.368
 4308SOL     OW13822   4.091   5.487   6.321
 4308SOL    HW113823   4.042   5.553   6.264
 4308SOL    HW213824   4.160   5.535   6.375
 4309SOL     OW13825   2.303   1.579   0.739
 4309SOL    HW113826   2.297   1.512   0.666
 4309SOL    HW213827   2.398   1.605   0.754
 4310SOL     OW13828   6.223   2.069   3.301
 4310SOL    HW113829   6.224   1.969   3.288
 4310SOL    HW213830   6.164   2.110   3.231
 4311SOL     OW13831   0.564   7.020   1.481
 4311SOL    HW113832   0.599   0.085   1.487
 4311SOL    HW213833   0.640   6.956   1.474
 4312SOL     OW13834   0.111   3.835   2.304
 4312SOL    HW113835   0.030   3.866   2.355
 4312SOL    HW213836   0.110   3.874   2.212
 4313SOL     OW13837   1.175   3.711   0.025
 4313SOL    HW113838   1.258   3.727   7.001
 4313SOL    HW213839   1.195   3.649   0.101
 4314SOL     OW13840   1.659   1.353   5.468
 4314SOL    HW113841   1.664   1.305   5.380
 4314SOL    HW213842   1.587   1.313   5.524
 4315SOL     OW13843   2.410   2.257   5.526
 4315SOL    HW113844   2.509   2.247   5.525
 4315SOL    HW213845   2.367   2.166   5.530
 4316SOL     OW13846   4.376   5.634   2.066
 4316SOL    HW113847   4.469   5.619   2.097
 4316SOL    HW213848   4.326   5.548   2.067
 4317SOL     OW13849   5.298   0.658   5.036
 4317SOL    HW113850   5.368   0.692   4.972
 4317SOL    HW213851   5.244   0.587   4.991
 4318SOL     OW13852   1.563   6.183   4.257
 4318SOL    HW113853   1.526   6.276   4.248
 4318SOL    HW213854   1.592   6.151   4.167
 4319SOL     OW13855   1.241   4.339   2.709
 4319SOL    HW113856   1.229   4.253   2.660
 4319SOL    HW213857   1.337   4.352   2.731
 4320SOL     OW13858   3.669   0.078   0.972
 4320SOL    HW113859   3.595   0.124   1.021
 4320SOL    HW213860   3.752   0.134   0.976
 4321SOL     OW13861   6.974   5.966   3.107
 4321SOL    HW113862   7.028   5.914   3.041
 4321SOL    HW213863   0.005   6.029   3.157
 4322SOL     OW13864   2.366   2.244   3.976
 4322SOL    HW113865   2.284   2.273   4.024
 4322SOL    HW213866   2.439   2.227   4.042
 4323SOL     OW13867   4.609   4.882   0.678
 4323SOL    HW113868   4.700   4.848   0.656
 4323SOL    HW213869   4.541   4.830   0.626
 4324SOL     OW13870   0.301   4.494   6.084
 4324SOL    HW113871   0.262   4.417   6.133
 4324SOL    HW213872   0.391   4.469   6.048
 4325SOL     OW13873   1.534   7.002   1.213
 4325SOL    HW113874   1.554   0.028   1.294
 4325SOL    HW213875   1.572   6.910   1.226
 4326SOL     OW13876   4.950   2.581   2.606
 4326SOL    HW113877   4.972   2.521   2.682
 4326SOL    HW213878   4.868   2.635   2.628
 4327SOL     OW13879   2.621   6.185   3.675
 4327SOL    HW113880   2.625   6.274   3.721
 4327SOL    HW213881   2.608   6.199   3.577
 4328SOL     OW13882   5.772   0.171   3.293
 4328SOL    HW113883   5.692   0.120   3.265
 4328SOL    HW213884   5.845   0.160   3.225
 4329SOL     OW13885   6.172   3.861   6.843
 4329SOL    HW113886   6.268   3.870   6.872
 4329SOL    HW213887   6.134   3.951   6.824
 4330SOL     OW13888   2.357   4.592   4.414
 4330SOL    HW113889   2.361   4.624   4.508
 4330SOL    HW213890   2.295   4.651   4.361
 4331SOL     OW13891   5.887   1.875   2.286
 4331SOL    HW113892   5.975   1.920   2.270
 4331SOL    HW213893   5.833   1.931   2.349
 4332SOL     OW13894   6.960   5.670   1.279
 4332SOL    HW113895   6.895   5.611   1.231
 4332SOL    HW213896   6.929   5.765   1.271
 4333SOL     OW13897   3.777   2.951   6.361
 4333SOL    HW113898   3.839   3.030   6.360
 4333SOL    HW213899   3.806   2.885   6.292
 4334SOL     OW13900   6.979   3.061   4.042
 4334SOL    HW113901   7.001   3.148   3.997
 4334SOL    HW213902   0.035   3.012   4.062
 4335SOL     OW13903   2.588   4.348   1.649
 4335SOL    HW113904   2.655   4.275   1.660
 4335SOL    HW213905   2.552   4.347   1.555
 4336SOL     OW13906   2.696   5.348   5.423
 4336SOL    HW113907   2.750   5.310   5.497
 4336SOL    HW213908   2.709   5.293   5.340
 4337SOL     OW13909   6.795   4.479   3.616
 4337SOL    HW113910   6.695   4.479   3.615
 4337SOL    HW213911   6.829   4.552   3.557
 4338SOL     OW13912   2.958   2.477   6.466
 4338SOL    HW113913   2.914   2.522   6.388
 4338SOL    HW213914   2.906   2.494   6.549
 4339SOL     OW13915   4.152   4.839   5.154
 4339SOL    HW113916   4.211   4.855   5.233
 4339SOL    HW213917   4.206   4.845   5.070
 4340SOL     OW13918   0.048   4.270   1.307
 4340SOL    HW113919   0.008   4.225   1.227
 4340SOL    HW213920   0.144   4.243   1.316
 4341SOL     OW13921   6.122   5.744   1.440
 4341SOL    HW113922   6.216   5.711   1.434
 4341SOL    HW213923   6.120   5.843   1.425
 4342SOL     OW13924   5.456   3.039   2.606
 4342SOL    HW113925   5.522   3.087   2.548
 4342SOL    HW213926   5.392   3.105   2.644
 4343SOL     OW13927   3.712   0.298   6.261
 4343SOL    HW113928   3.684   0.292   6.357
 4343SOL    HW213929   3.756   0.212   6.234
 4344SOL     OW13930   0.830   3.732   2.852
 4344SOL    HW113931   0.844   3.799   2.925
 4344SOL    HW213932   0.894   3.656   2.864
 4345SOL     OW13933   3.873   3.903   2.817
 4345SOL    HW113934   3.863   3.871   2.723
 4345SOL    HW213935   3.931   3.839   2.868
 4346SOL     OW13936   0.860   2.915   2.738
 4346SOL    HW113937   0.914   2.900   2.655
 4346SOL    HW213938   0.813   3.003   2.732
 4347SOL     OW13939   6.331   5.180   0.615
 4347SOL    HW113940   6.287   5.163   0.526
 4347SOL    HW213941   6.420   5.135   0.617
 4348SOL     OW13942   5.841   4.705   5.748
 4348SOL    HW113943   5.754   4.713   5.796
 4348SOL    HW213944   5.888   4.794   5.750
 4349SOL     OW13945   0.727   3.475   4.135
 4349SOL    HW113946   0.628   3.480   4.126
 4349SOL    HW213947   0.767   3.563   4.108
 4350SOL     OW13948   4.331   0.934   4.065
 4350SOL    HW113949   4.242   0.979   4.077
 4350SOL    HW213950   4.367   0.956   3.974
 4351SOL     OW13951   6.948   5.933   1.257
 4351SOL    HW113952   7.025   5.945   1.195
 4351SOL    HW213953   6.892   6.016   1.258
 4352SOL     OW13954   3.711   5.016   1.808
 4352SOL    HW113955   3.677   4.931   1.848
 4352SOL    HW213956   3.725   5.083   1.880
 4353SOL     OW13957   2.968   3.669   0.611
 4353SOL    HW113958   3.063   3.664   0.578
 4353SOL    HW213959   2.912   3.715   0.542
 4354SOL     OW13960   5.753   5.909   2.317
 4354SOL    HW113961   5.751   5.849   2.397
 4354SOL    HW213962   5.671   5.894   2.262
 4355SOL     OW13963   2.260   5.033   3.002
 4355SOL    HW113964   2.324   5.083   3.061
 4355SOL    HW213965   2.311   4.971   2.942
 4356SOL     OW13966   6.046   2.976   5.281
 4356SOL    HW113967   6.051   3.075   5.268
 4356SOL    HW213968   5.994   2.936   5.205
 4357SOL     OW13969   5.431   6.483   2.207
 4357SOL    HW113970   5.441   6.581   2.189
 4357SOL    HW213971   5.418   6.468   2.304
 4358SOL     OW13972   2.878   1.127   0.354
 4358SOL    HW113973   2.908   1.042   0.311
 4358SOL    HW213974   2.869   1.198   0.285
 4359SOL     OW13975   2.498   2.203   1.448
 4359SOL    HW113976   2.588   2.194   1.406
 4359SOL    HW213977   2.501   2.168   1.542
 4360SOL     OW13978   2.290   5.534   4.067
 4360SOL    HW113979   2.252   5.534   3.975
 4360SOL    HW213980   2.377   5.583   4.068
 4361SOL     OW13981   0.913   1.927   0.331
 4361SOL    HW113982   0.977   1.944   0.406
 4361SOL    HW213983   0.908   2.008   0.272
 4362SOL     OW13984   1.288   4.938   3.276
 4362SOL    HW113985   1.264   4.887   3.358
 4362SOL    HW213986   1.310   4.874   3.202
 4363SOL     OW13987   3.770   0.938   1.771
 4363SOL    HW113988   3.713   0.857   1.766
 4363SOL    HW213989   3.809   0.946   1.864
 4364SOL     OW13990   2.983   3.701   2.621
 4364SOL    HW113991   3.022   3.793   2.618
 4364SOL    HW213992   2.960   3.678   2.716
 4365SOL     OW13993   2.125   1.177   1.115
 4365SOL    HW113994   2.143   1.245   1.043
 4365SOL    HW213995   2.029   1.181   1.141
 4366SOL     OW13996   5.005   6.197   4.367
 4366SOL    HW113997   5.014   6.160   4.275
 4366SOL    HW213998   5.003   6.297   4.363
 4367SOL     OW13999   2.265   5.985   2.292
 4367SOL    HW114000   2.190   5.925   2.320
 4367SOL    HW214001   2.261   6.071   2.343
 4368SOL     OW14002   5.110   3.846   4.130
 4368SOL    HW114003   5.165   3.862   4.047
 4368SOL    HW214004   5.153   3.893   4.207
 4369SOL     OW14005   5.658   4.065   3.346
 4369SOL    HW114006   5.636   3.968   3.347
 4369SOL    HW214007   5.683   4.094   3.439
 4370SOL     OW14008   4.255   5.127   0.689
 4370SOL    HW114009   4.274   5.082   0.776
 4370SOL    HW214010   4.173   5.184   0.698
 4371SOL     OW14011   3.505   1.175   2.772
 4371SOL    HW114012   3.477   1.098   2.716
 4371SOL    HW214013   3.592   1.154   2.817
 4372SOL     OW14014   1.734   4.854   4.563
 4372SOL    HW114015   1.692   4.816   4.480
 4372SOL    HW214016   1.737   4.784   4.634
 4373SOL     OW14017   4.600   0.907   0.392
 4373SOL    HW114018   4.529   0.842   0.419
 4373SOL    HW214019   4.635   0.882   0.302
 4374SOL     OW14020   2.444   6.813   0.489
 4374SOL    HW114021   2.367   6.815   0.425
 4374SOL    HW214022   2.520   6.764   0.447
 4375SOL     OW14023   3.768   1.425   5.679
 4375SOL    HW114024   3.867   1.438   5.676
 4375SOL    HW214025   3.738   1.427   5.775
 4376SOL     OW14026   2.184   5.528   0.152
 4376SOL    HW114027   2.134   5.441   0.155
 4376SOL    HW214028   2.280   5.510   0.130
 4377SOL     OW14029   5.450   5.825   6.949
 4377SOL    HW114030   5.377   5.777   6.997
 4377SOL    HW214031   5.515   5.861   7.016
 4378SOL     OW14032   2.944   4.911   2.697
 4378SOL    HW114033   2.901   4.882   2.783
 4378SOL    HW214034   3.043   4.909   2.706
 4379SOL     OW14035   0.300   6.714   1.407
 4379SOL    HW114036   0.377   6.685   1.350
 4379SOL    HW214037   0.220   6.658   1.386
 4380SOL     OW14038   1.955   5.646   4.300
 4380SOL    HW114039   1.996   5.556   4.317
 4380SOL    HW214040   1.866   5.634   4.255
 4381SOL     OW14041   4.653   5.752   5.151
 4381SOL    HW114042   4.627   5.672   5.205
 4381SOL    HW214043   4.681   5.723   5.059
 4382SOL     OW14044   5.455   3.897   2.918
 4382SOL    HW114045   5.527   3.958   2.884
 4382SOL    HW214046   5.366   3.942   2.909
 4383SOL     OW14047   1.218   1.547   0.237
 4383SOL    HW114048   1.209   1.644   0.212
 4383SOL    HW214049   1.313   1.519   0.225
 4384SOL     OW14050   4.050   6.616   1.485
 4384SOL    HW114051   4.004   6.684   1.428
 4384SOL    HW214052   4.048   6.527   1.440
 4385SOL     OW14053   5.925   2.710   2.396
 4385SOL    HW114054   5.920   2.620   2.440
 4385SOL    HW214055   6.020   2.741   2.395
 4386SOL     OW14056   1.821   3.970   6.760
 4386SOL    HW114057   1.822   3.955   6.859
 4386SOL    HW214058   1.848   4.065   6.740
 4387SOL     OW14059   6.791   2.704   1.719
 4387SOL    HW114060   6.751   2.682   1.630
 4387SOL    HW214061   6.825   2.620   1.761
 4388SOL     OW14062   3.342   1.933   5.853
 4388SOL    HW114063   3.382   1.895   5.936
 4388SOL    HW214064   3.393   1.899   5.773
 4389SOL     OW14065   6.151   2.258   2.351
 4389SOL    HW114066   6.245   2.264   2.385
 4389SOL    HW214067   6.104   2.182   2.396
 4390SOL     OW14068   4.388   2.566   1.359
 4390SOL    HW114069   4.341   2.637   1.307
 4390SOL    HW214070   4.392   2.593   1.456
 4391SOL     OW14071   0.186   6.383   0.353
 4391SOL    HW114072   0.231   6.361   0.440
 4391SOL    HW214073   0.215   6.473   0.323
 4392SOL     OW14074   5.459   4.263   4.820
 4392SOL    HW114075   5.506   4.242   4.734
 4392SOL    HW214076   5.444   4.179   4.871
 4393SOL     OW14077   5.557   6.263   3.478
 4393SOL    HW114078   5.543   6.359   3.502
 4393SOL    HW214079   5.492   6.206   3.528
 4394SOL     OW14080   4.539   1.087   2.523
 4394SOL    HW114081   4.546   1.047   2.432
 4394SOL    HW214082   4.622   1.068   2.575
 4395SOL     OW14083   5.402   1.554   1.345
 4395SOL    HW114084   5.386   1.535   1.248
 4395SOL    HW214085   5.325   1.519   1.399
 4396SOL     OW14086   1.460   1.274   3.735
 4396SOL    HW114087   1.518   1.300   3.657
 4396SOL    HW214088   1.518   1.234   3.807
 4397SOL     OW14089   5.549   0.284   6.344
 4397SOL    HW114090   5.546   0.342   6.426
 4397SOL    HW214091   5.517   0.192   6.368
 4398SOL     OW14092   0.330   5.701   4.322
 4398SOL    HW114093   0.371   5.623   4.274
 4398SOL    HW214094   0.380   5.717   4.407
 4399SOL     OW14095   3.214   0.950   2.353
 4399SOL    HW114096   3.131   0.976   2.304
 4399SOL    HW214097   3.200   0.962   2.452
 4400SOL     OW14098   4.027   5.994   3.456
 4400SOL    HW114099   3.974   6.047   3.390
 4400SOL    HW214100   3.971   5.917   3.489
 4401SOL     OW14101   5.603   5.873   4.834
 4401SOL    HW114102   5.694   5.851   4.799
 4401SOL    HW214103   5.598   5.848   4.931
 4402SOL     OW14104   6.941   6.318   2.874
 4402SOL    HW114105   6.963   6.412   2.902
 4402SOL    HW214106   6.850   6.294   2.906
 4403SOL     OW14107   0.236   1.028   2.737
 4403SOL    HW114108   0.143   1.018   2.700
 4403SOL    HW214109   0.247   0.969   2.817
 4404SOL     OW14110   2.226   4.733   2.763
 4404SOL    HW114111   2.142   4.764   2.718
 4404SOL    HW214112   2.289   4.809   2.772
 4405SOL     OW14113   2.753   3.916   5.908
 4405SOL    HW114114   2.742   3.974   5.827
 4405SOL    HW214115   2.794   3.969   5.982
 4406SOL     OW14116   5.612   3.267   1.876
 4406SOL    HW114117   5.662   3.353   1.865
 4406SOL    HW214118   5.643   3.221   1.959
 4407SOL     OW14119   6.891   0.692   6.855
 4407SOL    HW114120   6.823   0.662   6.922
 4407SOL    HW214121   6.965   0.741   6.901
 4408SOL     OW14122   4.159   6.300   0.813
 4408SOL    HW114123   4.074   6.309   0.864
 4408SOL    HW214124   4.211   6.222   0.848
 4409SOL     OW14125   2.818   1.524   2.982
 4409SOL    HW114126   2.886   1.470   3.031
 4409SOL    HW214127   2.767   1.580   3.047
 4410SOL     OW14128   2.048   5.806   1.560
 4410SOL    HW114129   2.116   5.852   1.502
 4410SOL    HW214130   1.964   5.793   1.509
 4411SOL     OW14131   3.859   3.773   2.569
 4411SOL    HW114132   3.816   3.689   2.599
 4411SOL    HW214133   3.955   3.756   2.548
 4412SOL     OW14134   3.320   1.582   5.905
 4412SOL    HW114135   3.318   1.571   5.805
 4412SOL    HW214136   3.376   1.510   5.946
 4413SOL     OW14137   4.850   5.228   3.627
 4413SOL    HW114138   4.761   5.236   3.583
 4413SOL    HW214139   4.842   5.171   3.709
 4414SOL     OW14140   3.537   5.529   1.542
 4414SOL    HW114141   3.514   5.503   1.449
 4414SOL    HW214142   3.494   5.466   1.607
 4415SOL     OW14143   4.689   1.468   1.070
 4415SOL    HW114144   4.759   1.427   1.011
 4415SOL    HW214145   4.656   1.553   1.029
 4416SOL     OW14146   2.649   2.011   4.792
 4416SOL    HW114147   2.609   2.102   4.797
 4416SOL    HW214148   2.583   1.948   4.751
 4417SOL     OW14149   6.356   0.351   1.256
 4417SOL    HW114150   6.414   0.292   1.311
 4417SOL    HW214151   6.273   0.374   1.307
 4418SOL     OW14152   4.899   1.298   3.953
 4418SOL    HW114153   4.946   1.311   4.040
 4418SOL    HW214154   4.820   1.239   3.967
 4419SOL     OW14155   6.487   5.456   6.589
 4419SOL    HW114156   6.456   5.522   6.658
 4419SOL    HW214157   6.544   5.387   6.633
 4420SOL     OW14158   4.412   0.825   6.953
 4420SOL    HW114159   4.333   0.810   7.013
 4420SOL    HW214160   4.437   0.922   6.956
 4421SOL     OW14161   0.567   1.681   3.541
 4421SOL    HW114162   0.548   1.603   3.482
 4421SOL    HW214163   0.583   1.650   3.635
 4422SOL     OW14164   1.913   4.767   5.956
 4422SOL    HW114165   1.900   4.805   6.048
 4422SOL    HW214166   1.905   4.839   5.888
 4423SOL     OW14167   0.081   1.456   6.385
 4423SOL    HW114168   0.169   1.501   6.399
 4423SOL    HW214169   0.032   1.502   6.310
 4424SOL     OW14170   0.426   6.080   3.561
 4424SOL    HW114171   0.472   6.087   3.649
 4424SOL    HW214172   0.432   6.167   3.512
 4425SOL     OW14173   5.146   4.483   0.579
 4425SOL    HW114174   5.142   4.509   0.483
 4425SOL    HW214175   5.220   4.533   0.624
 4426SOL     OW14176   0.700   0.519   5.996
 4426SOL    HW114177   0.639   0.506   6.074
 4426SOL    HW214178   0.794   0.528   6.028
 4427SOL     OW14179   0.784   5.921   3.748
 4427SOL    HW114180   0.746   5.854   3.684
 4427SOL    HW214181   0.806   6.005   3.698
 4428SOL     OW14182   1.906   6.472   3.467
 4428SOL    HW114183   1.810   6.484   3.494
 4428SOL    HW214184   1.947   6.562   3.450
 4429SOL     OW14185   3.580   0.217   3.046
 4429SOL    HW114186   3.591   0.316   3.060
 4429SOL    HW214187   3.561   0.173   3.133
 4430SOL     OW14188   1.259   0.452   1.959
 4430SOL    HW114189   1.260   0.531   2.021
 4430SOL    HW214190   1.299   0.478   1.871
 4431SOL     OW14191   2.640   2.003   3.393
 4431SOL    HW114192   2.685   2.065   3.457
 4431SOL    HW214193   2.687   2.006   3.305
 4432SOL     OW14194   3.135   3.067   3.689
 4432SOL    HW114195   3.068   3.030   3.624
 4432SOL    HW214196   3.174   3.151   3.654
 4433SOL     OW14197   6.396   0.291   3.047
 4433SOL    HW114198   6.419   0.226   3.119
 4433SOL    HW214199   6.479   0.330   3.008
 4434SOL     OW14200   4.705   2.018   4.835
 4434SOL    HW114201   4.677   2.112   4.852
 4434SOL    HW214202   4.772   1.990   4.905
 4435SOL     OW14203   4.104   3.403   2.237
 4435SOL    HW114204   4.018   3.364   2.270
 4435SOL    HW214205   4.118   3.376   2.142
 4436SOL     OW14206   5.201   0.214   0.678
 4436SOL    HW114207   5.283   0.156   0.680
 4436SOL    HW214208   5.226   0.308   0.703
 4437SOL     OW14209   3.471   0.213   5.085
 4437SOL    HW114210   3.536   0.219   5.161
 4437SOL    HW214211   3.519   0.184   5.002
 4438SOL     OW14212   4.133   3.566   6.658
 4438SOL    HW114213   4.105   3.658   6.687
 4438SOL    HW214214   4.203   3.573   6.588
 4439SOL     OW14215   2.271   4.805   2.381
 4439SOL    HW114216   2.342   4.864   2.419
 4439SOL    HW214217   2.303   4.763   2.297
 4440SOL     OW14218   6.415   1.051   0.344
 4440SOL    HW114219   6.489   1.118   0.353
 4440SOL    HW214220   6.435   0.971   0.399
 4441SOL     OW14221   6.092   1.298   3.277
 4441SOL    HW114222   6.062   1.337   3.364
 4441SOL    HW214223   6.175   1.345   3.246
 4442SOL     OW14224   1.487   5.772   1.795
 4442SOL    HW114225   1.443   5.791   1.882
 4442SOL    HW214226   1.434   5.812   1.721
 4443SOL     OW14227   2.637   1.383   6.641
 4443SOL    HW114228   2.627   1.468   6.589
 4443SOL    HW214229   2.710   1.394   6.709
 4444SOL     OW14230   4.972   1.264   2.967
 4444SOL    HW114231   5.039   1.311   2.909
 4444SOL    HW214232   4.928   1.190   2.915
 4445SOL     OW14233   1.155   0.795   6.462
 4445SOL    HW114234   1.226   0.804   6.391
 4445SOL    HW214235   1.076   0.851   6.436
 4446SOL     OW14236   5.123   4.590   3.700
 4446SOL    HW114237   5.058   4.662   3.678
 4446SOL    HW214238   5.213   4.613   3.662
 4447SOL     OW14239   5.137   2.923   4.832
 4447SOL    HW114240   5.234   2.919   4.856
 4447SOL    HW214241   5.083   2.877   4.903
 4448SOL     OW14242   1.927   3.289   6.667
 4448SOL    HW114243   1.864   3.280   6.589
 4448SOL    HW214244   2.018   3.310   6.632
 4449SOL     OW14245   0.167   1.692   5.366
 4449SOL    HW114246   0.207   1.780   5.337
 4449SOL    HW214247   0.088   1.709   5.424
 4450SOL     OW14248   3.578   3.344   2.518
 4450SOL    HW114249   3.647   3.402   2.562
 4450SOL    HW214250   3.522   3.400   2.457
 4451SOL     OW14251   6.985   4.110   1.080
 4451SOL    HW114252   6.999   4.056   1.163
 4451SOL    HW214253   6.905   4.075   1.031
 4452SOL     OW14254   6.448   3.681   6.254
 4452SOL    HW114255   6.545   3.675   6.279
 4452SOL    HW214256   6.399   3.603   6.293
 4453SOL     OW14257   5.099   1.623   0.884
 4453SOL    HW114258   5.114   1.712   0.840
 4453SOL    HW214259   5.164   1.556   0.848
 4454SOL     OW14260   4.884   2.816   1.458
 4454SOL    HW114261   4.876   2.718   1.436
 4454SOL    HW214262   4.979   2.845   1.449
 4455SOL     OW14263   4.159   2.168   2.036
 4455SOL    HW114264   4.072   2.184   1.988
 4455SOL    HW214265   4.142   2.114   2.118
 4456SOL     OW14266   1.111   5.665   2.614
 4456SOL    HW114267   1.083   5.603   2.687
 4456SOL    HW214268   1.139   5.612   2.534
 4457SOL     OW14269   4.760   1.783   6.743
 4457SOL    HW114270   4.856   1.761   6.728
 4457SOL    HW214271   4.728   1.843   6.669
 4458SOL     OW14272   4.131   1.550   0.601
 4458SOL    HW114273   4.065   1.479   0.576
 4458SOL    HW214274   4.129   1.623   0.532
 4459SOL     OW14275   5.383   6.705   5.335
 4459SOL    HW114276   5.378   6.762   5.417
 4459SOL    HW214277   5.386   6.609   5.362
 4460SOL     OW14278   1.107   1.327   6.427
 4460SOL    HW114279   1.010   1.323   6.448
 4460SOL    HW214280   1.120   1.340   6.328
 4461SOL     OW14281   2.009   6.574   2.082
 4461SOL    HW114282   1.987   6.647   2.018
 4461SOL    HW214283   2.092   6.597   2.133
 4462SOL     OW14284   0.027   4.931   0.899
 4462SOL    HW114285   7.002   4.946   0.982
 4462SOL    HW214286   0.019   4.836   0.871
 4463SOL     OW14287   1.560   4.199   6.147
 4463SOL    HW114288   1.558   4.105   6.180
 4463SOL    HW214289   1.478   4.216   6.092
 4464SOL     OW14290   6.343   2.735   0.005
 4464SOL    HW114291   6.412   2.692   0.064
 4464SOL    HW214292   6.384   2.815   6.989
 4465SOL     OW14293   0.750   5.889   0.574
 4465SOL    HW114294   0.711   5.844   0.654
 4465SOL    HW214295   0.788   5.820   0.512
 4466SOL     OW14296   0.019   2.976   3.062
 4466SOL    HW114297   0.063   2.938   2.980
 4466SOL    HW214298   0.071   2.949   3.143
 4467SOL     OW14299   1.442   0.307   3.310
 4467SOL    HW114300   1.481   0.237   3.370
 4467SOL    HW214301   1.515   0.356   3.263
 4468SOL     OW14302   2.249   2.160   0.613
 4468SOL    HW114303   2.163   2.142   0.662
 4468SOL    HW214304   2.289   2.245   0.647
 4469SOL     OW14305   4.783   0.245   0.407
 4469SOL    HW114306   4.853   0.274   0.342
 4469SOL    HW214307   4.708   0.201   0.358
 4470SOL     OW14308   4.642   4.892   1.335
 4470SOL    HW114309   4.618   4.863   1.242
 4470SOL    HW214310   4.591   4.837   1.401
 4471SOL     OW14311   6.207   2.601   0.585
 4471SOL    HW114312   6.200   2.627   0.682
 4471SOL    HW214313   6.291   2.550   0.571
 4472SOL     OW14314   2.161   4.690   1.218
 4472SOL    HW114315   2.145   4.771   1.161
 4472SOL    HW214316   2.074   4.649   1.243
 4473SOL     OW14317   0.189   0.747   6.291
 4473SOL    HW114318   0.187   0.648   6.303
 4473SOL    HW214319   0.256   0.771   6.220
 4474SOL     OW14320   5.937   0.392   4.410
 4474SOL    HW114321   5.905   0.310   4.361
 4474SOL    HW214322   5.876   0.410   4.487
 4475SOL     OW14323   1.838   3.767   0.567
 4475SOL    HW114324   1.838   3.867   0.575
 4475SOL    HW214325   1.791   3.727   0.645
 4476SOL     OW14326   5.127   6.817   2.294
 4476SOL    HW114327   5.130   6.774   2.384
 4476SOL    HW214328   5.084   6.908   2.302
 4477SOL     OW14329   1.113   1.521   0.661
 4477SOL    HW114330   1.170   1.591   0.620
 4477SOL    HW214331   1.017   1.539   0.640
 4478SOL     OW14332   1.809   4.662   2.080
 4478SOL    HW114333   1.829   4.717   2.161
 4478SOL    HW214334   1.844   4.708   1.999
 4479SOL     OW14335   0.979   0.482   6.067
 4479SOL    HW114336   0.995   0.515   5.974
 4479SOL    HW214337   1.064   0.487   6.119
 4480SOL     OW14338   0.151   4.188   3.668
 4480SOL    HW114339   0.163   4.101   3.620
 4480SOL    HW214340   0.173   4.176   3.765
 4481SOL     OW14341   0.706   0.492   4.218
 4481SOL    HW114342   0.735   0.406   4.262
 4481SOL    HW214343   0.694   0.562   4.288
 4482SOL     OW14344   1.060   3.973   3.688
 4482SOL    HW114345   1.050   3.899   3.755
 4482SOL    HW214346   0.971   4.018   3.675
 4483SOL     OW14347   5.381   2.952   0.881
 4483SOL    HW114348   5.396   3.013   0.803
 4483SOL    HW214349   5.432   2.867   0.867
 4484SOL     OW14350   3.751   3.567   6.198
 4484SOL    HW114351   3.783   3.540   6.107
 4484SOL    HW214352   3.797   3.511   6.267
 4485SOL     OW14353   4.707   0.739   6.792
 4485SOL    HW114354   4.755   0.731   6.705
 4485SOL    HW214355   4.616   0.777   6.776
 4486SOL     OW14356   6.045   3.025   3.867
 4486SOL    HW114357   6.085   2.937   3.894
 4486SOL    HW214358   5.948   3.026   3.888
 4487SOL     OW14359   2.850   3.131   5.922
 4487SOL    HW114360   2.896   3.217   5.902
 4487SOL    HW214361   2.752   3.140   5.902
 4488SOL     OW14362   6.813   1.661   6.293
 4488SOL    HW114363   6.850   1.754   6.289
 4488SOL    HW214364   6.769   1.647   6.381
 4489SOL     OW14365   6.950   1.225   3.287
 4489SOL    HW114366   6.871   1.286   3.289
 4489SOL    HW214367   0.004   1.278   3.301
 4490SOL     OW14368   6.774   2.336   3.688
 4490SOL    HW114369   6.698   2.295   3.738
 4490SOL    HW214370   6.769   2.309   3.592
 4491SOL     OW14371   1.685   3.807   2.728
 4491SOL    HW114372   1.653   3.776   2.638
 4491SOL    HW214373   1.732   3.894   2.718
 4492SOL     OW14374   5.080   5.035   6.100
 4492SOL    HW114375   5.140   4.986   6.163
 4492SOL    HW214376   5.132   5.105   6.052
 4493SOL     OW14377   5.827   4.843   3.541
 4493SOL    HW114378   5.796   4.761   3.590
 4493SOL    HW214379   5.912   4.875   3.582
 4494SOL     OW14380   5.819   2.861   3.151
 4494SOL    HW114381   5.741   2.812   3.113
 4494SOL    HW214382   5.796   2.893   3.243
 4495SOL     OW14383   4.568   6.094   1.919
 4495SOL    HW114384   4.633   6.122   1.847
 4495SOL    HW214385   4.610   6.023   1.975
 4496SOL     OW14386   5.266   4.611   6.111
 4496SOL    HW114387   5.187   4.673   6.108
 4496SOL    HW214388   5.313   4.613   6.022
 4497SOL     OW14389   5.964   5.062   0.973
 4497SOL    HW114390   5.905   5.055   1.053
 4497SOL    HW214391   5.926   5.129   0.909
 4498SOL     OW14392   0.900   4.090   6.946
 4498SOL    HW114393   0.801   4.091   6.934
 4498SOL    HW214394   0.929   4.000   6.979
 4499SOL     OW14395   5.500   3.466   6.103
 4499SOL    HW114396   5.451   3.388   6.065
 4499SOL    HW214397   5.583   3.435   6.149
 4500SOL     OW14398   3.099   3.831   3.388
 4500SOL    HW114399   3.108   3.899   3.461
 4500SOL    HW214400   3.175   3.767   3.393
 4501SOL     OW14401   1.612   5.031   4.990
 4501SOL    HW114402   1.554   5.072   4.919
 4501SOL    HW214403   1.555   4.986   5.058
 4502SOL     OW14404   6.621   2.982   6.922
 4502SOL    HW114405   6.541   2.989   6.863
 4502SOL    HW214406   6.622   3.060   6.986
 4503SOL     OW14407   1.799   3.421   2.607
 4503SOL    HW114408   1.861   3.425   2.529
 4503SOL    HW214409   1.806   3.505   2.660
 4504SOL     OW14410   4.346   2.415   4.085
 4504SOL    HW114411   4.258   2.390   4.125
 4504SOL    HW214412   4.414   2.427   4.158
 4505SOL     OW14413   1.926   5.057   6.759
 4505SOL    HW114414   1.994   5.098   6.818
 4505SOL    HW214415   1.945   5.081   6.664
 4506SOL     OW14416   4.173   6.889   4.643
 4506SOL    HW114417   4.120   6.804   4.648
 4506SOL    HW214418   4.170   6.936   4.731
 4507SOL     OW14419   6.178   3.608   1.816
 4507SOL    HW114420   6.152   3.511   1.811
 4507SOL    HW214421   6.104   3.663   1.778
 4508SOL     OW14422   2.268   3.898   6.927
 4508SOL    HW114423   2.186   3.856   6.964
 4508SOL    HW214424   2.309   3.837   6.858
 4509SOL     OW14425   0.407   2.039   3.380
 4509SOL    HW114426   0.470   2.098   3.430
 4509SOL    HW214427   0.373   1.967   3.440
 4510SOL     OW14428   3.535   6.480   5.428
 4510SOL    HW114429   3.536   6.503   5.525
 4510SOL    HW214430   3.625   6.446   5.400
 4511SOL     OW14431   6.264   2.194   6.036
 4511SOL    HW114432   6.363   2.198   6.023
 4511SOL    HW214433   6.240   2.242   6.120
 4512SOL     OW14434   2.606   4.624   6.747
 4512SOL    HW114435   2.553   4.624   6.662
 4512SOL    HW214436   2.701   4.603   6.728
 4513SOL     OW14437   5.653   1.358   2.030
 4513SOL    HW114438   5.618   1.266   2.046
 4513SOL    HW214439   5.618   1.420   2.100
 4514SOL     OW14440   3.591   0.791   5.893
 4514SOL    HW114441   3.675   0.793   5.948
 4514SOL    HW214442   3.518   0.840   5.940
 4515SOL     OW14443   6.534   4.635   1.076
 4515SOL    HW114444   6.509   4.545   1.113
 4515SOL    HW214445   6.490   4.648   0.988
 4516SOL     OW14446   0.779   0.064   3.908
 4516SOL    HW114447   0.773   0.021   3.998
 4516SOL    HW214448   0.866   0.111   3.899
 4517SOL     OW14449   3.698   0.235   5.922
 4517SOL    HW114450   3.796   0.216   5.919
 4517SOL    HW214451   3.680   0.326   5.886
 4518SOL     OW14452   1.354   0.452   3.542
 4518SOL    HW114453   1.401   0.540   3.539
 4518SOL    HW214454   1.348   0.414   3.450
 4519SOL     OW14455   6.055   2.618   4.915
 4519SOL    HW114456   6.101   2.558   4.980
 4519SOL    HW214457   5.956   2.607   4.922
 4520SOL     OW14458   0.122   4.309   2.408
 4520SOL    HW114459   0.049   4.268   2.353
 4520SOL    HW214460   0.210   4.268   2.382
 4521SOL     OW14461   5.009   1.717   6.352
 4521SOL    HW114462   5.027   1.812   6.325
 4521SOL    HW214463   5.003   1.659   6.271
 4522SOL     OW14464   5.722   0.452   3.084
 4522SOL    HW114465   5.718   0.384   3.011
 4522SOL    HW214466   5.814   0.453   3.124
 4523SOL     OW14467   4.595   3.242   6.233
 4523SOL    HW114468   4.529   3.310   6.266
 4523SOL    HW214469   4.553   3.152   6.232
 4524SOL     OW14470   6.446   0.059   4.954
 4524SOL    HW114471   6.515   7.017   4.971
 4524SOL    HW214472   6.464   0.137   5.015
 4525SOL     OW14473   6.122   2.188   5.466
 4525SOL    HW114474   6.094   2.094   5.444
 4525SOL    HW214475   6.207   2.186   5.518
 4526SOL     OW14476   3.529   0.821   1.170
 4526SOL    HW114477   3.488   0.868   1.248
 4526SOL    HW214478   3.481   0.847   1.086
 4527SOL     OW14479   4.312   6.592   3.792
 4527SOL    HW114480   4.350   6.575   3.700
 4527SOL    HW214481   4.310   6.506   3.843
 4528SOL     OW14482   5.047   6.903   5.823
 4528SOL    HW114483   5.058   6.998   5.852
 4528SOL    HW214484   5.078   6.894   5.728
 4529SOL     OW14485   4.102   0.168   3.635
 4529SOL    HW114486   4.112   0.072   3.610
 4529SOL    HW214487   4.042   0.214   3.571
 4530SOL     OW14488   0.211   2.821   4.902
 4530SOL    HW114489   0.133   2.775   4.945
 4530SOL    HW214490   0.277   2.846   4.972
 4531SOL     OW14491   6.912   3.900   3.565
 4531SOL    HW114492   6.870   3.989   3.581
 4531SOL    HW214493   7.003   3.913   3.525
 4532SOL     OW14494   6.731   1.669   0.531
 4532SOL    HW114495   6.664   1.642   0.600
 4532SOL    HW214496   6.822   1.643   0.560
 4533SOL     OW14497   3.599   6.091   2.195
 4533SOL    HW114498   3.692   6.056   2.187
 4533SOL    HW214499   3.591   6.175   2.141
 4534SOL     OW14500   6.978   4.134   5.634
 4534SOL    HW114501   0.028   4.126   5.695
 4534SOL    HW214502   6.903   4.179   5.682
 4535SOL     OW14503   5.241   2.488   3.017
 4535SOL    HW114504   5.305   2.412   3.032
 4535SOL    HW214505   5.192   2.506   3.102
 4536SOL     OW14506   6.752   0.688   4.453
 4536SOL    HW114507   6.680   0.637   4.500
 4536SOL    HW214508   6.712   0.734   4.373
 4537SOL     OW14509   4.172   3.435   6.109
 4537SOL    HW114510   4.072   3.445   6.112
 4537SOL    HW214511   4.200   3.410   6.016
 4538SOL     OW14512   3.322   1.888   1.692
 4538SOL    HW114513   3.248   1.841   1.741
 4538SOL    HW214514   3.284   1.967   1.642
 4539SOL     OW14515   2.243   2.394   2.505
 4539SOL    HW114516   2.182   2.446   2.565
 4539SOL    HW214517   2.307   2.341   2.560
 4540SOL     OW14518   3.198   3.019   5.068
 4540SOL    HW114519   3.100   3.006   5.087
 4540SOL    HW214520   3.221   3.115   5.075
 4541SOL     OW14521   6.455   1.261   1.581
 4541SOL    HW114522   6.393   1.315   1.638
 4541SOL    HW214523   6.471   1.172   1.624
 4542SOL     OW14524   4.858   6.885   3.183
 4542SOL    HW114525   4.831   6.801   3.137
 4542SOL    HW214526   4.777   6.943   3.196
 4543SOL     OW14527   5.713   2.326   1.509
 4543SOL    HW114528   5.785   2.372   1.561
 4543SOL    HW214529   5.750   2.298   1.420
 4544SOL     OW14530   4.180   5.211   6.935
 4544SOL    HW114531   4.169   5.308   6.915
 4544SOL    HW214532   4.195   5.161   6.849
 4545SOL     OW14533   3.988   3.827   6.103
 4545SOL    HW114534   3.983   3.821   6.004
 4545SOL    HW214535   4.082   3.844   6.131
 4546SOL     OW14536   0.266   6.467   6.857
 4546SOL    HW114537   0.169   6.476   6.882
 4546SOL    HW214538   0.298   6.553   6.817
 4547SOL     OW14539   4.285   1.670   1.565
 4547SOL    HW114540   4.321   1.702   1.478
 4547SOL    HW214541   4.187   1.692   1.571
 4548SOL     OW14542   1.006   3.423   3.883
 4548SOL    HW114543   1.009   3.405   3.981
 4548SOL    HW214544   0.979   3.340   3.834
 4549SOL     OW14545   4.323   1.616   2.062
 4549SOL    HW114546   4.386   1.598   2.138
 4549SOL    HW214547   4.317   1.715   2.047
 4550SOL     OW14548   1.633   6.288   4.517
 4550SOL    HW114549   1.611   6.221   4.588
 4550SOL    HW214550   1.655   6.240   4.432
 4551SOL     OW14551   0.044   2.847   0.189
 4551SOL    HW114552   0.006   2.835   0.097
 4551SOL    HW214553   6.998   2.864   0.253
 4552SOL     OW14554   6.477   3.038   4.053
 4552SOL    HW114555   6.566   3.083   4.064
 4552SOL    HW214556   6.481   2.972   3.978
 4553SOL     OW14557   5.380   4.961   0.313
 4553SOL    HW114558   5.373   4.931   0.218
 4553SOL    HW214559   5.341   4.890   0.373
 4554SOL     OW14560   5.540   0.058   3.223
 4554SOL    HW114561   5.564   0.026   3.132
 4554SOL    HW214562   5.470   7.028   3.262
 4555SOL     OW14563   4.441   1.976   6.717
 4555SOL    HW114564   4.539   1.993   6.721
 4555SOL    HW214565   4.396   2.049   6.665
 4556SOL     OW14566   5.166   0.842   5.228
 4556SOL    HW114567   5.225   0.918   5.254
 4556SOL    HW214568   5.217   0.781   5.167
 4557SOL     OW14569   5.477   0.270   5.058
 4557SOL    HW114570   5.537   0.270   5.138
 4557SOL    HW214571   5.474   0.362   5.020
 4558SOL     OW14572   6.142   3.487   5.854
 4558SOL    HW114573   6.234   3.454   5.832
 4558SOL    HW214574   6.143   3.534   5.943
 4559SOL     OW14575   0.534   6.245   1.603
 4559SOL    HW114576   0.596   6.284   1.672
 4559SOL    HW214577   0.540   6.299   1.519
 4560SOL     OW14578   5.214   2.849   2.472
 4560SOL    HW114579   5.182   2.855   2.567
 4560SOL    HW214580   5.190   2.759   2.435
 4561SOL     OW14581   3.212   0.695   6.221
 4561SOL    HW114582   3.245   0.745   6.140
 4561SOL    HW214583   3.288   0.644   6.261
 4562SOL     OW14584   2.491   4.677   5.632
 4562SOL    HW114585   2.461   4.749   5.571
 4562SOL    HW214586   2.472   4.703   5.727
 4563SOL     OW14587   5.594   2.546   6.379
 4563SOL    HW114588   5.654   2.519   6.303
 4563SOL    HW214589   5.591   2.473   6.446
 4564SOL     OW14590   0.740   5.554   6.957
 4564SOL    HW114591   0.655   5.604   6.975
 4564SOL    HW214592   0.795   5.605   6.891
 4565SOL     OW14593   2.926   0.953   4.049
 4565SOL    HW114594   2.969   0.903   3.974
 4565SOL    HW214595   2.995   0.983   4.114
 4566SOL     OW14596   1.599   1.599   0.345
 4566SOL    HW114597   1.584   1.521   0.407
 4566SOL    HW214598   1.694   1.597   0.313
 4567SOL     OW14599   6.413   1.426   1.197
 4567SOL    HW114600   6.327   1.453   1.154
 4567SOL    HW214601   6.447   1.502   1.253
 4568SOL     OW14602   3.671   4.957   4.185
 4568SOL    HW114603   3.692   4.928   4.278
 4568SOL    HW214604   3.573   4.941   4.167
 4569SOL     OW14605   0.369   1.905   3.143
 4569SOL    HW114606   0.339   1.966   3.069
 4569SOL    HW214607   0.391   1.960   3.224
 4570SOL     OW14608   5.923   5.089   4.335
 4570SOL    HW114609   5.874   5.066   4.251
 4570SOL    HW214610   5.899   5.023   4.407
 4571SOL     OW14611   3.784   2.986   4.265
 4571SOL    HW114612   3.831   3.034   4.338
 4571SOL    HW214613   3.852   2.943   4.205
 4572SOL     OW14614   2.077   5.446   1.887
 4572SOL    HW114615   2.155   5.384   1.874
 4572SOL    HW214616   2.095   5.533   1.841
 4573SOL     OW14617   4.651   6.877   0.735
 4573SOL    HW114618   4.601   6.961   0.716
 4573SOL    HW214619   4.742   6.899   0.770
 4574SOL     OW14620   0.250   4.547   1.454
 4574SOL    HW114621   0.166   4.598   1.474
 4574SOL    HW214622   0.251   4.521   1.357
 4575SOL     OW14623   6.966   6.402   2.533
 4575SOL    HW114624   6.881   6.352   2.542
 4575SOL    HW214625   7.001   6.425   2.624
 4576SOL     OW14626   3.639   6.139   3.741
 4576SOL    HW114627   3.657   6.223   3.791
 4576SOL    HW214628   3.540   6.124   3.735
 4577SOL     OW14629   1.644   2.317   3.822
 4577SOL    HW114630   1.550   2.283   3.835
 4577SOL    HW214631   1.671   2.307   3.727
 4578SOL     OW14632   0.449   4.954   4.126
 4578SOL    HW114633   0.422   4.919   4.216
 4578SOL    HW214634   0.382   4.926   4.058
 4579SOL     OW14635   5.323   1.967   4.699
 4579SOL    HW114636   5.302   1.999   4.791
 4579SOL    HW214637   5.276   2.026   4.632
 4580SOL     OW14638   6.941   5.658   6.990
 4580SOL    HW114639   6.983   5.608   0.036
 4580SOL    HW214640   6.903   5.744   7.025
 4581SOL     OW14641   3.160   6.279   3.764
 4581SOL    HW114642   3.066   6.249   3.779
 4581SOL    HW214643   3.178   6.361   3.818
 4582SOL     OW14644   4.927   6.671   3.350
 4582SOL    HW114645   4.930   6.593   3.287
 4582SOL    HW214646   4.905   6.754   3.299
 4583SOL     OW14647   3.685   1.227   5.515
 4583SOL    HW114648   3.682   1.272   5.426
 4583SOL    HW214649   3.708   1.294   5.585
 4584SOL     OW14650   1.343   5.141   6.283
 4584SOL    HW114651   1.305   5.098   6.201
 4584SOL    HW214652   1.429   5.097   6.307
 4585SOL     OW14653   2.964   6.389   2.288
 4585SOL    HW114654   3.048   6.408   2.339
 4585SOL    HW214655   2.985   6.386   2.190
 4586SOL     OW14656   2.664   6.286   2.218
 4586SOL    HW114657   2.752   6.277   2.172
 4586SOL    HW214658   2.675   6.265   2.315
 4587SOL     OW14659   3.132   5.328   0.811
 4587SOL    HW114660   3.184   5.375   0.740
 4587SOL    HW214661   3.095   5.395   0.875
 4588SOL     OW14662   3.884   4.290   5.248
 4588SOL    HW114663   3.819   4.275   5.173
 4588SOL    HW214664   3.856   4.236   5.327
 4589SOL     OW14665   1.112   2.005   3.091
 4589SOL    HW114666   1.141   1.986   2.997
 4589SOL    HW214667   1.131   1.926   3.148
 4590SOL     OW14668   4.297   6.028   2.950
 4590SOL    HW114669   4.312   5.945   2.897
 4590SOL    HW214670   4.206   6.065   2.929
 4591SOL     OW14671   6.153   6.577   5.397
 4591SOL    HW114672   6.129   6.489   5.355
 4591SOL    HW214673   6.086   6.598   5.468
 4592SOL     OW14674   3.485   1.371   5.956
 4592SOL    HW114675   3.461   1.318   5.874
 4592SOL    HW214676   3.544   1.316   6.015
 4593SOL     OW14677   4.426   6.436   1.683
 4593SOL    HW114678   4.377   6.380   1.750
 4593SOL    HW214679   4.520   6.450   1.712
 4594SOL     OW14680   3.415   1.766   2.727
 4594SOL    HW114681   3.385   1.798   2.637
 4594SOL    HW214682   3.420   1.843   2.790
 4595SOL     OW14683   5.004   3.657   5.959
 4595SOL    HW114684   4.991   3.581   6.024
 4595SOL    HW214685   4.915   3.692   5.931
 4596SOL     OW14686   5.254   0.276   2.446
 4596SOL    HW114687   5.230   0.180   2.426
 4596SOL    HW214688   5.297   0.317   2.365
 4597SOL     OW14689   6.479   4.827   5.869
 4597SOL    HW114690   6.536   4.907   5.886
 4597SOL    HW214691   6.537   4.747   5.856
 4598SOL     OW14692   3.278   4.055   0.915
 4598SOL    HW114693   3.312   4.136   0.964
 4598SOL    HW214694   3.340   3.978   0.931
 4599SOL     OW14695   2.217   5.172   0.385
 4599SOL    HW114696   2.156   5.128   0.451
 4599SOL    HW214697   2.228   5.268   0.408
 4600SOL     OW14698   3.668   4.837   1.351
 4600SOL    HW114699   3.733   4.778   1.303
 4600SOL    HW214700   3.667   4.814   1.448
 4601SOL     OW14701   1.581   5.975   4.448
 4601SOL    HW114702   1.575   6.059   4.394
 4601SOL    HW214703   1.675   5.941   4.445
 4602SOL     OW14704   1.473   0.917   1.220
 4602SOL    HW114705   1.532   0.837   1.214
 4602SOL    HW214706   1.378   0.888   1.232
 4603SOL     OW14707   3.012   1.555   2.061
 4603SOL    HW114708   3.059   1.468   2.076
 4603SOL    HW214709   3.077   1.621   2.024
 4604SOL     OW14710   1.560   0.595   2.286
 4604SOL    HW114711   1.502   0.557   2.358
 4604SOL    HW214712   1.511   0.668   2.239
 4605SOL     OW14713   4.953   6.520   6.087
 4605SOL    HW114714   5.007   6.582   6.030
 4605SOL    HW214715   4.927   6.440   6.033
 4606SOL     OW14716   6.533   6.254   5.443
 4606SOL    HW114717   6.587   6.295   5.370
 4606SOL    HW214718   6.559   6.158   5.454
 4607SOL     OW14719   2.984   2.590   1.481
 4607SOL    HW114720   3.017   2.663   1.421
 4607SOL    HW214721   2.987   2.621   1.576
 4608SOL     OW14722   1.630   3.931   4.980
 4608SOL    HW114723   1.584   3.945   4.892
 4608SOL    HW214724   1.726   3.955   4.971
 4609SOL     OW14725   3.439   6.989   0.090
 4609SOL    HW114726   3.469   6.894   0.089
 4609SOL    HW214727   3.343   6.994   0.118
 4610SOL     OW14728   6.974   3.115   6.861
 4610SOL    HW114729   0.028   3.090   6.812
 4610SOL    HW214730   6.997   3.178   6.935
 4611SOL     OW14731   0.971   3.727   6.632
 4611SOL    HW114732   0.995   3.641   6.677
 4611SOL    HW214733   1.046   3.792   6.642
 4612SOL     OW14734   2.583   0.374   6.396
 4612SOL    HW114735   2.548   0.461   6.360
 4612SOL    HW214736   2.595   0.309   6.320
 4613SOL     OW14737   3.597   5.163   1.586
 4613SOL    HW114738   3.608   5.098   1.661
 4613SOL    HW214739   3.637   5.251   1.611
 4614SOL     OW14740   2.399   4.941   0.030
 4614SOL    HW114741   2.439   4.861   7.015
 4614SOL    HW214742   2.308   4.918   0.063
 4615SOL     OW14743   6.884   3.159   0.493
 4615SOL    HW114744   6.949   3.186   0.564
 4615SOL    HW214745   6.793   3.149   0.532
 4616SOL     OW14746   6.176   0.454   0.690
 4616SOL    HW114747   6.136   0.454   0.599
 4616SOL    HW214748   6.242   0.379   0.697
 4617SOL     OW14749   0.365   4.225   2.322
 4617SOL    HW114750   0.363   4.127   2.341
 4617SOL    HW214751   0.454   4.262   2.349
 4618SOL     OW14752   0.679   2.569   6.308
 4618SOL    HW114753   0.651   2.613   6.393
 4618SOL    HW214754   0.620   2.491   6.289
 4619SOL     OW14755   3.503   0.349   3.764
 4619SOL    HW114756   3.598   0.338   3.733
 4619SOL    HW214757   3.490   0.300   3.850
 4620SOL     OW14758   2.414   5.327   6.426
 4620SOL    HW114759   2.337   5.265   6.438
 4620SOL    HW214760   2.470   5.297   6.350
 4621SOL     OW14761   0.381   6.965   6.296
 4621SOL    HW114762   0.366   6.875   6.337
 4621SOL    HW214763   0.455   7.011   6.346
 4622SOL     OW14764   2.671   3.517   0.833
 4622SOL    HW114765   2.622   3.554   0.912
 4622SOL    HW214766   2.607   3.472   0.771
 4623SOL     OW14767   5.787   4.996   2.331
 4623SOL    HW114768   5.883   4.981   2.355
 4623SOL    HW214769   5.781   5.067   2.260
 4624SOL     OW14770   4.840   0.319   5.763
 4624SOL    HW114771   4.814   0.412   5.790
 4624SOL    HW214772   4.758   0.262   5.758
 4625SOL     OW14773   1.593   3.924   6.193
 4625SOL    HW114774   1.677   3.876   6.166
 4625SOL    HW214775   1.542   3.867   6.257
 4626SOL     OW14776   5.718   5.590   2.244
 4626SOL    HW114777   5.729   5.491   2.250
 4626SOL    HW214778   5.808   5.633   2.246
 4627SOL     OW14779   1.931   6.977   5.787
 4627SOL    HW114780   1.876   0.012   5.733
 4627SOL    HW214781   1.918   6.995   5.884
 4628SOL     OW14782   0.059   3.232   1.878
 4628SOL    HW114783   0.006   3.150   1.901
 4628SOL    HW214784   0.110   3.263   1.959
 4629SOL     OW14785   3.789   4.957   4.462
 4629SOL    HW114786   3.846   5.025   4.415
 4629SOL    HW214787   3.846   4.904   4.524
 4630SOL     OW14788   1.605   6.836   2.451
 4630SOL    HW114789   1.634   6.750   2.494
 4630SOL    HW214790   1.657   6.912   2.490
 4631SOL     OW14791   1.827   0.899   2.859
 4631SOL    HW114792   1.766   0.850   2.798
 4631SOL    HW214793   1.922   0.871   2.841
 4632SOL     OW14794   5.765   5.459   4.307
 4632SOL    HW114795   5.805   5.381   4.357
 4632SOL    HW214796   5.838   5.513   4.266
 4633SOL     OW14797   5.310   2.697   5.547
 4633SOL    HW114798   5.361   2.640   5.482
 4633SOL    HW214799   5.347   2.683   5.639
 4634SOL     OW14800   3.824   4.979   0.606
 4634SOL    HW114801   3.806   5.020   0.516
 4634SOL    HW214802   3.754   4.910   0.625
 4635SOL     OW14803   4.806   3.767   1.473
 4635SOL    HW114804   4.864   3.843   1.446
 4635SOL    HW214805   4.747   3.795   1.549
 4636SOL     OW14806   0.954   5.722   1.385
 4636SOL    HW114807   0.916   5.793   1.327
 4636SOL    HW214808   0.992   5.649   1.328
 4637SOL     OW14809   1.360   0.760   4.785
 4637SOL    HW114810   1.451   0.794   4.760
 4637SOL    HW214811   1.365   0.662   4.801
 4638SOL     OW14812   4.522   4.358   6.298
 4638SOL    HW114813   4.470   4.383   6.216
 4638SOL    HW214814   4.585   4.433   6.321
 4639SOL     OW14815   0.019   2.598   5.260
 4639SOL    HW114816   6.966   2.543   5.275
 4639SOL    HW214817   0.081   2.550   5.199
 4640SOL     OW14818   6.202   4.571   2.414
 4640SOL    HW114819   6.243   4.643   2.469
 4640SOL    HW214820   6.253   4.561   2.328
 4641SOL     OW14821   2.896   4.107   5.645
 4641SOL    HW114822   2.988   4.086   5.679
 4641SOL    HW214823   2.901   4.123   5.546
 4642SOL     OW14824   6.635   5.951   3.846
 4642SOL    HW114825   6.544   5.923   3.817
 4642SOL    HW214826   6.671   6.019   3.783
 4643SOL     OW14827   4.155   2.839   1.052
 4643SOL    HW114828   4.083   2.893   1.008
 4643SOL    HW214829   4.232   2.829   0.989
 4644SOL     OW14830   3.067   5.000   5.216
 4644SOL    HW114831   3.091   4.907   5.243
 4644SOL    HW214832   3.151   5.055   5.208
 4645SOL     OW14833   1.929   6.476   4.919
 4645SOL    HW114834   1.962   6.381   4.913
 4645SOL    HW214835   1.879   6.488   5.005
 4646SOL     OW14836   3.840   0.633   1.317
 4646SOL    HW114837   3.901   0.612   1.393
 4646SOL    HW214838   3.881   0.600   1.232
 4647SOL     OW14839   6.851   0.642   4.960
 4647SOL    HW114840   6.761   0.635   4.918
 4647SOL    HW214841   6.875   0.739   4.972
 4648SOL     OW14842   1.744   4.806   2.521
 4648SOL    HW114843   1.785   4.802   2.430
 4648SOL    HW214844   1.816   4.817   2.589
 4649SOL     OW14845   5.821   6.622   5.926
 4649SOL    HW114846   5.762   6.556   5.880
 4649SOL    HW214847   5.764   6.685   5.980
 4650SOL     OW14848   0.124   4.663   1.862
 4650SOL    HW114849   0.154   4.570   1.844
 4650SOL    HW214850   0.073   4.665   1.948
 4651SOL     OW14851   6.499   1.785   2.295
 4651SOL    HW114852   6.583   1.816   2.339
 4651SOL    HW214853   6.457   1.861   2.245
 4652SOL     OW14854   0.162   6.032   5.628
 4652SOL    HW114855   0.206   5.976   5.697
 4652SOL    HW214856   0.119   5.973   5.559
 4653SOL     OW14857   0.455   5.630   6.962
 4653SOL    HW114858   0.378   5.587   6.915
 4653SOL    HW214859   0.429   5.722   6.993
 4654SOL     OW14860   1.059   1.615   6.284
 4654SOL    HW114861   1.074   1.698   6.231
 4654SOL    HW214862   1.056   1.536   6.223
 4655SOL     OW14863   0.565   5.307   3.442
 4655SOL    HW114864   0.644   5.259   3.403
 4655SOL    HW214865   0.556   5.282   3.539
 4656SOL     OW14866   2.490   0.038   3.105
 4656SOL    HW114867   2.529   6.977   3.125
 4656SOL    HW214868   2.470   0.086   3.190
 4657SOL     OW14869   5.971   0.187   6.513
 4657SOL    HW114870   5.950   0.226   6.423
 4657SOL    HW214871   5.905   0.115   6.534
 4658SOL     OW14872   4.778   0.928   3.815
 4658SOL    HW114873   4.859   0.986   3.807
 4658SOL    HW214874   4.801   0.844   3.865
 4659SOL     OW14875   2.475   2.212   4.821
 4659SOL    HW114876   2.409   2.279   4.852
 4659SOL    HW214877   2.555   2.258   4.783
 4660SOL     OW14878   7.017   1.190   5.832
 4660SOL    HW114879   0.009   1.255   5.759
 4660SOL    HW214880   6.924   1.206   5.864
 4661SOL     OW14881   4.040   3.840   3.617
 4661SOL    HW114882   4.004   3.898   3.690
 4661SOL    HW214883   4.047   3.746   3.649
 4662SOL     OW14884   5.531   0.261   3.568
 4662SOL    HW114885   5.573   0.323   3.502
 4662SOL    HW214886   5.472   0.196   3.521
 4663SOL     OW14887   0.986   1.770   1.812
 4663SOL    HW114888   1.005   1.868   1.809
 4663SOL    HW214889   0.950   1.741   1.723
 4664SOL     OW14890   3.824   3.709   0.255
 4664SOL    HW114891   3.815   3.805   0.229
 4664SOL    HW214892   3.767   3.652   0.195
 4665SOL     OW14893   5.211   0.676   6.640
 4665SOL    HW114894   5.262   0.762   6.630
 4665SOL    HW214895   5.244   0.628   6.721
 4666SOL     OW14896   2.492   1.817   0.263
 4666SOL    HW114897   2.426   1.880   0.303
 4666SOL    HW214898   2.483   1.727   0.307
 4667SOL     OW14899   0.370   5.410   4.582
 4667SOL    HW114900   0.417   5.497   4.570
 4667SOL    HW214901   0.437   5.338   4.598
 4668SOL     OW14902   5.516   1.436   5.056
 4668SOL    HW114903   5.534   1.345   5.018
 4668SOL    HW214904   5.522   1.504   4.983
 4669SOL     OW14905   2.833   0.886   1.303
 4669SOL    HW114906   2.831   0.970   1.357
 4669SOL    HW214907   2.909   0.890   1.238
 4670SOL     OW14908   2.091   1.160   5.233
 4670SOL    HW114909   2.184   1.128   5.219
 4670SOL    HW214910   2.064   1.220   5.156
 4671SOL     OW14911   5.549   2.446   1.292
 4671SOL    HW114912   5.624   2.484   1.346
 4671SOL    HW214913   5.464   2.494   1.315
 4672SOL     OW14914   2.817   2.805   5.562
 4672SOL    HW114915   2.913   2.833   5.568
 4672SOL    HW214916   2.769   2.864   5.497
 4673SOL     OW14917   4.100   0.675   2.569
 4673SOL    HW114918   4.072   0.751   2.511
 4673SOL    HW214919   4.078   0.696   2.664
 4674SOL     OW14920   5.024   6.486   5.256
 4674SOL    HW114921   5.029   6.541   5.173
 4674SOL    HW214922   5.065   6.536   5.332
 4675SOL     OW14923   0.891   4.060   6.019
 4675SOL    HW114924   0.966   3.996   6.035
 4675SOL    HW214925   0.925   4.138   5.966
 4676SOL     OW14926   0.357   4.811   3.927
 4676SOL    HW114927   0.261   4.804   3.901
 4676SOL    HW214928   0.401   4.721   3.921
 4677SOL     OW14929   1.665   3.078   0.838
 4677SOL    HW114930   1.694   3.153   0.780
 4677SOL    HW214931   1.627   3.114   0.923
 4678SOL     OW14932   0.998   4.173   2.335
 4678SOL    HW114933   0.926   4.242   2.334
 4678SOL    HW214934   1.013   4.139   2.242
 4679SOL     OW14935   4.202   0.193   1.341
 4679SOL    HW114936   4.217   0.119   1.406
 4679SOL    HW214937   4.289   0.238   1.320
 4680SOL     OW14938   2.121   0.345   6.883
 4680SOL    HW114939   2.175   0.423   6.851
 4680SOL    HW214940   2.162   0.309   6.967
 4681SOL     OW14941   5.079   5.412   2.237
 4681SOL    HW114942   5.063   5.433   2.333
 4681SOL    HW214943   5.060   5.316   2.219
 4682SOL     OW14944   3.522   4.155   6.582
 4682SOL    HW114945   3.429   4.180   6.610
 4682SOL    HW214946   3.553   4.076   6.635
 4683SOL     OW14947   5.940   4.282   3.528
 4683SOL    HW114948   6.015   4.345   3.548
 4683SOL    HW214949   5.945   4.254   3.432
 4684SOL     OW14950   5.866   6.226   6.865
 4684SOL    HW114951   5.804   6.161   6.910
 4684SOL    HW214952   5.812   6.299   6.823
 4685SOL     OW14953   3.160   4.078   4.078
 4685SOL    HW114954   3.195   4.168   4.051
 4685SOL    HW214955   3.215   4.042   4.153
 4686SOL     OW14956   1.293   6.586   0.148
 4686SOL    HW114957   1.246   6.674   0.153
 4686SOL    HW214958   1.227   6.515   0.123
 4687SOL     OW14959   2.459   0.545   2.683
 4687SOL    HW114960   2.408   0.505   2.759
 4687SOL    HW214961   2.538   0.595   2.719
 4688SOL     OW14962   5.394   2.583   6.079
 4688SOL    HW114963   5.341   2.657   6.039
 4688SOL    HW214964   5.337   2.531   6.142
 4689SOL     OW14965   6.849   0.987   1.843
 4689SOL    HW114966   6.862   1.086   1.849
 4689SOL    HW214967   6.781   0.959   1.911
 4690SOL     OW14968   2.476   2.130   1.065
 4690SOL    HW114969   2.499   2.034   1.051
 4690SOL    HW214970   2.535   2.168   1.136
 4691SOL     OW14971   6.042   3.976   2.344
 4691SOL    HW114972   6.131   3.950   2.381
 4691SOL    HW214973   5.977   3.987   2.419
 4692SOL     OW14974   5.181   3.303   2.473
 4692SOL    HW114975   5.133   3.255   2.546
 4692SOL    HW214976   5.226   3.237   2.413
 4693SOL     OW14977   1.141   0.653   2.641
 4693SOL    HW114978   1.149   0.650   2.741
 4693SOL    HW214979   1.136   0.560   2.605
 4694SOL     OW14980   2.055   0.436   6.421
 4694SOL    HW114981   2.089   0.365   6.482
 4694SOL    HW214982   2.004   0.504   6.474
 4695SOL     OW14983   1.987   5.008   2.576
 4695SOL    HW114984   2.043   5.019   2.494
 4695SOL    HW214985   1.983   4.912   2.601
 4696SOL     OW14986   1.328   5.976   6.246
 4696SOL    HW114987   1.427   5.978   6.239
 4696SOL    HW214988   1.287   6.009   6.162
 4697SOL     OW14989   4.332   5.513   1.577
 4697SOL    HW114990   4.363   5.521   1.483
 4697SOL    HW214991   4.262   5.441   1.583
 4698SOL     OW14992   5.740   0.946   5.032
 4698SOL    HW114993   5.833   0.943   4.994
 4698SOL    HW214994   5.741   0.910   5.125
 4699SOL     OW14995   1.627   0.268   2.697
 4699SOL    HW114996   1.655   0.346   2.640
 4699SOL    HW214997   1.579   0.302   2.778
 4700SOL     OW14998   6.150   1.814   2.566
 4700SOL    HW114999   6.162   1.743   2.496
 4700SOL    HW215000   6.217   1.802   2.639
 4701SOL     OW15001   2.992   2.691   1.729
 4701SOL    HW115002   2.988   2.608   1.785
 4701SOL    HW215003   3.015   2.769   1.787
 4702SOL     OW15004   5.357   5.513   6.625
 4702SOL    HW115005   5.348   5.499   6.724
 4702SOL    HW215006   5.453   5.509   6.599
 4703SOL     OW15007   0.952   5.028   3.520
 4703SOL    HW115008   1.012   5.106   3.503
 4703SOL    HW215009   0.978   4.951   3.462
 4704SOL     OW15010   1.311   4.840   4.200
 4704SOL    HW115011   1.247   4.796   4.263
 4704SOL    HW215012   1.376   4.896   4.252
 4705SOL     OW15013   3.574   1.849   1.609
 4705SOL    HW115014   3.496   1.813   1.660
 4705SOL    HW215015   3.553   1.941   1.576
 4706SOL     OW15016   2.456   0.692   1.495
 4706SOL    HW115017   2.430   0.725   1.404
 4706SOL    HW215018   2.554   0.709   1.510
 4707SOL     OW15019   1.449   5.208   2.150
 4707SOL    HW115020   1.423   5.303   2.167
 4707SOL    HW215021   1.411   5.150   2.222
 4708SOL     OW15022   1.631   2.367   4.943
 4708SOL    HW115023   1.639   2.465   4.925
 4708SOL    HW215024   1.576   2.324   4.871
 4709SOL     OW15025   4.856   4.561   5.822
 4709SOL    HW115026   4.952   4.584   5.842
 4709SOL    HW215027   4.844   4.462   5.830
 4710SOL     OW15028   5.846   6.204   5.383
 4710SOL    HW115029   5.878   6.194   5.477
 4710SOL    HW215030   5.859   6.117   5.334
 4711SOL     OW15031   4.991   4.199   2.239
 4711SOL    HW115032   5.031   4.290   2.247
 4711SOL    HW215033   5.037   4.149   2.166
 4712SOL     OW15034   4.614   4.351   5.777
 4712SOL    HW115035   4.632   4.386   5.685
 4712SOL    HW215036   4.540   4.284   5.773
 4713SOL     OW15037   5.419   4.368   0.857
 4713SOL    HW115038   5.385   4.338   0.768
 4713SOL    HW215039   5.343   4.399   0.914
 4714SOL     OW15040   4.390   2.191   6.532
 4714SOL    HW115041   4.407   2.170   6.436
 4714SOL    HW215042   4.315   2.257   6.539
 4715SOL     OW15043   6.993   1.424   1.681
 4715SOL    HW115044   6.949   1.423   1.591
 4715SOL    HW215045   0.058   1.389   1.673
 4716SOL     OW15046   3.670   4.795   5.657
 4716SOL    HW115047   3.661   4.894   5.671
 4716SOL    HW215048   3.647   4.773   5.562
 4717SOL     OW15049   2.214   4.465   5.376
 4717SOL    HW115050   2.213   4.379   5.325
 4717SOL    HW215051   2.181   4.449   5.470
 4718SOL     OW15052   4.631   4.593   0.852
 4718SOL    HW115053   4.643   4.496   0.871
 4718SOL    HW215054   4.716   4.629   0.813
 4719SOL     OW15055   6.656   4.224   3.924
 4719SOL    HW115056   6.647   4.186   3.832
 4719SOL    HW215057   6.607   4.312   3.929
 4720SOL     OW15058   2.352   3.282   6.835
 4720SOL    HW115059   2.387   3.202   6.786
 4720SOL    HW215060   2.351   3.262   6.933
 4721SOL     OW15061   0.512   2.629   3.195
 4721SOL    HW115062   0.501   2.727   3.180
 4721SOL    HW215063   0.427   2.591   3.234
 4722SOL     OW15064   0.947   5.795   6.882
 4722SOL    HW115065   0.987   5.750   6.802
 4722SOL    HW215066   1.020   5.815   6.948
 4723SOL     OW15067   3.466   4.826   6.552
 4723SOL    HW115068   3.526   4.884   6.607
 4723SOL    HW215069   3.443   4.873   6.467
 4724SOL     OW15070   0.790   0.250   4.625
 4724SOL    HW115071   0.713   0.239   4.561
 4724SOL    HW215072   0.875   0.260   4.573
 4725SOL     OW15073   5.614   5.536   1.499
 4725SOL    HW115074   5.626   5.533   1.400
 4725SOL    HW215075   5.516   5.539   1.520
 4726SOL     OW15076   1.896   2.710   5.631
 4726SOL    HW115077   1.879   2.779   5.561
 4726SOL    HW215078   1.974   2.653   5.603
 4727SOL     OW15079   6.720   4.273   1.430
 4727SOL    HW115080   6.637   4.300   1.480
 4727SOL    HW215081   6.792   4.341   1.448
 4728SOL     OW15082   5.709   1.838   4.403
 4728SOL    HW115083   5.769   1.840   4.323
 4728SOL    HW215084   5.676   1.931   4.422
 4729SOL     OW15085   5.913   1.359   1.950
 4729SOL    HW115086   5.816   1.366   1.971
 4729SOL    HW215087   5.965   1.416   2.015
 4730SOL     OW15088   3.500   0.181   3.991
 4730SOL    HW115089   3.572   0.140   4.047
 4730SOL    HW215090   3.437   0.109   3.961
 4731SOL     OW15091   2.972   6.496   1.078
 4731SOL    HW115092   3.014   6.584   1.101
 4731SOL    HW215093   2.873   6.505   1.077
 4732SOL     OW15094   0.536   5.244   4.830
 4732SOL    HW115095   0.593   5.164   4.845
 4732SOL    HW215096   0.491   5.270   4.916
 4733SOL     OW15097   1.832   4.003   2.603
 4733SOL    HW115098   1.910   4.051   2.563
 4733SOL    HW215099   1.752   4.015   2.545
 4734SOL     OW15100   4.710   4.305   6.759
 4734SOL    HW115101   4.774   4.284   6.686
 4734SOL    HW215102   4.714   4.233   6.828
 4735SOL     OW15103   0.444   0.555   5.113
 4735SOL    HW115104   0.474   0.555   5.018
 4735SOL    HW215105   0.435   0.461   5.145
 4736SOL     OW15106   6.647   1.894   3.442
 4736SOL    HW115107   6.590   1.959   3.493
 4736SOL    HW215108   6.596   1.810   3.426
 4737SOL     OW15109   2.131   4.841   6.805
 4737SOL    HW115110   2.099   4.748   6.822
 4737SOL    HW215111   2.053   4.903   6.803
 4738SOL     OW15112   1.118   5.341   4.190
 4738SOL    HW115113   1.033   5.332   4.138
 4738SOL    HW215114   1.196   5.334   4.127
 4739SOL     OW15115   5.751   3.553   3.060
 4739SOL    HW115116   5.838   3.506   3.070
 4739SOL    HW215117   5.685   3.492   3.017
 4740SOL     OW15118   1.134   0.354   0.736
 4740SOL    HW115119   1.163   0.312   0.822
 4740SOL    HW215120   1.174   0.304   0.660
 4741SOL     OW15121   5.703   4.974   1.113
 4741SOL    HW115122   5.765   4.995   1.189
 4741SOL    HW215123   5.681   4.876   1.114
 4742SOL     OW15124   2.378   5.598   2.512
 4742SOL    HW115125   2.393   5.653   2.594
 4742SOL    HW215126   2.446   5.622   2.443
 4743SOL     OW15127   2.890   3.452   0.310
 4743SOL    HW115128   2.834   3.388   0.363
 4743SOL    HW215129   2.836   3.491   0.235
 4744SOL     OW15130   2.515   1.912   5.320
 4744SOL    HW115131   2.487   1.816   5.310
 4744SOL    HW215132   2.447   1.971   5.278
 4745SOL     OW15133   3.639   5.278   5.021
 4745SOL    HW115134   3.686   5.190   5.017
 4745SOL    HW215135   3.579   5.281   5.101
 4746SOL     OW15136   6.086   1.117   1.505
 4746SOL    HW115137   6.159   1.072   1.452
 4746SOL    HW215138   6.038   1.048   1.559
 4747SOL     OW15139   0.183   2.656   1.899
 4747SOL    HW115140   0.253   2.584   1.902
 4747SOL    HW215141   0.157   2.673   1.804
 4748SOL     OW15142   1.657   0.721   1.248
 4748SOL    HW115143   1.679   0.625   1.232
 4748SOL    HW215144   1.735   0.778   1.223
 4749SOL     OW15145   2.938   0.227   6.550
 4749SOL    HW115146   2.903   0.212   6.458
 4749SOL    HW215147   2.951   0.325   6.565
 4750SOL     OW15148   0.891   1.886   4.535
 4750SOL    HW115149   0.964   1.821   4.552
 4750SOL    HW215150   0.821   1.877   4.605
 4751SOL     OW15151   1.156   3.811   5.626
 4751SOL    HW115152   1.111   3.733   5.670
 4751SOL    HW215153   1.104   3.837   5.545
 4752SOL     OW15154   1.765   6.087   1.500
 4752SOL    HW115155   1.716   6.059   1.583
 4752SOL    HW215156   1.717   6.054   1.420
 4753SOL     OW15157   0.192   6.615   5.444
 4753SOL    HW115158   0.283   6.577   5.425
 4753SOL    HW215159   0.157   6.576   5.529
 4754SOL     OW15160   0.867   0.883   7.022
 4754SOL    HW115161   0.930   0.811   6.995
 4754SOL    HW215162   0.833   0.865   0.085
 4755SOL     OW15163   2.714   0.762   1.530
 4755SOL    HW115164   2.780   0.825   1.489
 4755SOL    HW215165   2.713   0.776   1.629
 4756SOL     OW15166   4.688   2.979   1.430
 4756SOL    HW115167   4.742   2.897   1.451
 4756SOL    HW215168   4.649   2.970   1.339
 4757SOL     OW15169   2.597   1.551   1.597
 4757SOL    HW115170   2.520   1.546   1.534
 4757SOL    HW215171   2.609   1.646   1.628
 4758SOL     OW15172   5.433   4.095   5.517
 4758SOL    HW115173   5.367   4.046   5.575
 4758SOL    HW215174   5.524   4.057   5.532
 4759SOL     OW15175   6.170   4.289   5.999
 4759SOL    HW115176   6.088   4.304   5.944
 4759SOL    HW215177   6.151   4.217   6.067
 4760SOL     OW15178   1.807   2.659   0.752
 4760SOL    HW115179   1.870   2.639   0.677
 4760SOL    HW215180   1.738   2.587   0.759
 4761SOL     OW15181   1.602   5.993   5.983
 4761SOL    HW115182   1.563   6.072   5.936
 4761SOL    HW215183   1.651   5.936   5.917
 4762SOL     OW15184   4.024   6.880   2.174
 4762SOL    HW115185   4.061   6.886   2.081
 4762SOL    HW215186   3.934   6.922   2.177
 4763SOL     OW15187   5.777   5.317   4.569
 4763SOL    HW115188   5.711   5.334   4.643
 4763SOL    HW215189   5.847   5.254   4.601
 4764SOL     OW15190   3.906   3.975   4.565
 4764SOL    HW115191   3.904   3.876   4.557
 4764SOL    HW215192   3.819   4.013   4.533
 4765SOL     OW15193   6.340   4.646   5.529
 4765SOL    HW115194   6.275   4.633   5.603
 4765SOL    HW215195   6.363   4.557   5.488
 4766SOL     OW15196   3.450   0.267   3.285
 4766SOL    HW115197   3.367   0.241   3.236
 4766SOL    HW215198   3.461   0.367   3.283
 4767SOL     OW15199   4.277   6.151   6.611
 4767SOL    HW115200   4.180   6.157   6.636
 4767SOL    HW215201   4.333   6.153   6.694
 4768SOL     OW15202   0.716   1.063   5.046
 4768SOL    HW115203   0.673   0.998   4.984
 4768SOL    HW215204   0.646   1.119   5.091
 4769SOL     OW15205   3.540   0.958   1.504
 4769SOL    HW115206   3.549   0.867   1.544
 4769SOL    HW215207   3.631   0.999   1.491
 4770SOL     OW15208   2.222   0.305   4.230
 4770SOL    HW115209   2.306   0.355   4.212
 4770SOL    HW215210   2.183   0.335   4.317
 4771SOL     OW15211   4.147   4.190   5.267
 4771SOL    HW115212   4.209   4.253   5.220
 4771SOL    HW215213   4.053   4.214   5.247
 4772SOL     OW15214   1.932   3.115   0.148
 4772SOL    HW115215   1.837   3.108   0.117
 4772SOL    HW215216   1.992   3.077   0.078
 4773SOL     OW15217   0.258   5.158   4.396
 4773SOL    HW115218   0.185   5.121   4.338
 4773SOL    HW215219   0.311   5.225   4.344
 4774SOL     OW15220   1.553   4.453   6.814
 4774SOL    HW115221   1.462   4.417   6.836
 4774SOL    HW215222   1.585   4.410   6.729
 4775SOL     OW15223   2.353   1.540   2.376
 4775SOL    HW115224   2.265   1.584   2.357
 4775SOL    HW215225   2.425   1.609   2.376
 4776SOL     OW15226   4.085   4.818   2.130
 4776SOL    HW115227   4.160   4.879   2.159
 4776SOL    HW215228   4.001   4.845   2.175
 4777SOL     OW15229   2.897   3.990   1.376
 4777SOL    HW115230   2.993   4.004   1.403
 4777SOL    HW215231   2.840   3.986   1.457
 4778SOL     OW15232   5.151   3.854   2.822
 4778SOL    HW115233   5.074   3.837   2.761
 4778SOL    HW215234   5.174   3.770   2.872
 4779SOL     OW15235   4.812   0.881   2.890
 4779SOL    HW115236   4.791   0.918   2.799
 4779SOL    HW215237   4.901   0.914   2.920
 4780SOL     OW15238   1.777   0.127   5.615
 4780SOL    HW115239   1.714   0.203   5.630
 4780SOL    HW215240   1.819   0.135   5.524
 4781SOL     OW15241   2.551   5.613   3.001
 4781SOL    HW115242   2.524   5.593   3.096
 4781SOL    HW215243   2.643   5.577   2.986
 4782SOL     OW15244   5.854   5.934   0.223
 4782SOL    HW115245   5.870   5.916   0.320
 4782SOL    HW215246   5.782   6.002   0.213
 4783SOL     OW15247   6.499   3.868   2.578
 4783SOL    HW115248   6.494   3.961   2.616
 4783SOL    HW215249   6.453   3.804   2.640
 4784SOL     OW15250   5.819   4.125   4.807
 4784SOL    HW115251   5.744   4.081   4.758
 4784SOL    HW215252   5.798   4.222   4.820
 4785SOL     OW15253   6.185   6.855   0.980
 4785SOL    HW115254   6.261   6.865   0.915
 4785SOL    HW215255   6.210   6.788   1.050
 4786SOL     OW15256   1.394   3.033   2.319
 4786SOL    HW115257   1.311   3.051   2.267
 4786SOL    HW215258   1.400   2.935   2.340
 4787SOL     OW15259   4.298   2.260   2.758
 4787SOL    HW115260   4.348   2.180   2.793
 4787SOL    HW215261   4.210   2.230   2.722
 4788SOL     OW15262   1.861   6.323   5.616
 4788SOL    HW115263   1.935   6.380   5.579
 4788SOL    HW215264   1.849   6.344   5.713
 4789SOL     OW15265   5.975   6.673   0.710
 4789SOL    HW115266   6.038   6.751   0.719
 4789SOL    HW215267   5.881   6.705   0.720
 4790SOL     OW15268   5.275   0.544   6.905
 4790SOL    HW115269   5.257   0.447   6.924
 4790SOL    HW215270   5.272   0.595   6.991
 4791SOL     OW15271   4.460   1.856   3.227
 4791SOL    HW115272   4.558   1.843   3.212
 4791SOL    HW215273   4.410   1.789   3.172
 4792SOL     OW15274   3.306   2.563   1.528
 4792SOL    HW115275   3.247   2.626   1.579
 4792SOL    HW215276   3.387   2.543   1.582
 4793SOL     OW15277   0.847   0.354   6.674
 4793SOL    HW115278   0.810   0.349   6.581
 4793SOL    HW215279   0.801   0.287   6.732
 4794SOL     OW15280   4.177   1.248   1.794
 4794SOL    HW115281   4.187   1.178   1.865
 4794SOL    HW215282   4.264   1.257   1.744
 4795SOL     OW15283   5.686   2.653   4.372
 4795SOL    HW115284   5.728   2.734   4.330
 4795SOL    HW215285   5.612   2.682   4.432
 4796SOL     OW15286   5.864   3.822   0.738
 4796SOL    HW115287   5.805   3.868   0.805
 4796SOL    HW215288   5.959   3.828   0.768
 4797SOL     OW15289   0.394   4.706   4.933
 4797SOL    HW115290   0.353   4.796   4.943
 4797SOL    HW215291   0.322   4.636   4.934
 4798SOL     OW15292   6.770   4.243   5.795
 4798SOL    HW115293   6.734   4.195   5.875
 4798SOL    HW215294   6.812   4.329   5.823
 4799SOL     OW15295   3.789   1.212   4.982
 4799SOL    HW115296   3.865   1.223   5.045
 4799SOL    HW215297   3.756   1.302   4.954
 4800SOL     OW15298   2.210   1.856   3.986
 4800SOL    HW115299   2.116   1.886   3.968
 4800SOL    HW215300   2.273   1.908   3.928
 4801SOL     OW15301   0.978   2.877   0.632
 4801SOL    HW115302   1.015   2.968   0.652
 4801SOL    HW215303   0.891   2.887   0.584
 4802SOL     OW15304   2.019   0.043   2.114
 4802SOL    HW115305   1.993   0.131   2.076
 4802SOL    HW215306   2.113   0.047   2.146
 4803SOL     OW15307   0.467   6.993   1.209
 4803SOL    HW115308   0.482   6.958   1.302
 4803SOL    HW215309   0.527   0.042   1.193
 4804SOL     OW15310   3.912   5.254   0.091
 4804SOL    HW115311   3.886   5.302   0.175
 4804SOL    HW215312   4.001   5.212   0.104
 4805SOL     OW15313   0.641   0.892   1.076
 4805SOL    HW115314   0.656   0.910   0.979
 4805SOL    HW215315   0.622   0.978   1.123
 4806SOL     OW15316   0.217   2.885   3.233
 4806SOL    HW115317   0.217   2.793   3.271
 4806SOL    HW215318   0.306   2.904   3.192
 4807SOL     OW15319   0.630   6.331   2.045
 4807SOL    HW115320   0.673   6.356   1.958
 4807SOL    HW215321   0.635   6.232   2.058
 4808SOL     OW15322   5.167   3.003   1.015
 4808SOL    HW115323   5.099   2.956   0.958
 4808SOL    HW215324   5.259   2.978   0.983
 4809SOL     OW15325   4.248   6.544   6.610
 4809SOL    HW115326   4.322   6.507   6.554
 4809SOL    HW215327   4.161   6.535   6.560
 4810SOL     OW15328   0.979   0.300   1.357
 4810SOL    HW115329   0.998   0.395   1.382
 4810SOL    HW215330   0.880   0.287   1.348
 4811SOL     OW15331   5.437   5.787   2.864
 4811SOL    HW115332   5.387   5.729   2.800
 4811SOL    HW215333   5.520   5.820   2.821
 4812SOL     OW15334   6.751   5.236   4.171
 4812SOL    HW115335   6.705   5.310   4.122
 4812SOL    HW215336   6.798   5.176   4.106
 4813SOL     OW15337   5.419   3.275   3.101
 4813SOL    HW115338   5.338   3.264   3.044
 4813SOL    HW215339   5.489   3.326   3.051
 4814SOL     OW15340   6.423   3.630   1.949
 4814SOL    HW115341   6.338   3.624   1.896
 4814SOL    HW215342   6.407   3.684   2.031
 4815SOL     OW15343   4.217   6.990   3.033
 4815SOL    HW115344   4.210   6.890   3.035
 4815SOL    HW215345   4.217   7.025   3.126
 4816SOL     OW15346   5.295   4.910   3.107
 4816SOL    HW115347   5.364   4.983   3.110
 4816SOL    HW215348   5.242   4.911   3.191
 4817SOL     OW15349   0.027   1.634   0.138
 4817SOL    HW115350   0.060   1.601   0.227
 4817SOL    HW215351   6.981   1.698   0.152
 4818SOL     OW15352   0.147   5.956   3.644
 4818SOL    HW115353   0.139   5.905   3.730
 4818SOL    HW215354   0.242   5.980   3.628
 4819SOL     OW15355   1.805   3.242   1.298
 4819SOL    HW115356   1.873   3.264   1.368
 4819SOL    HW215357   1.737   3.180   1.336
 4820SOL     OW15358   0.482   3.124   2.670
 4820SOL    HW115359   0.579   3.149   2.674
 4820SOL    HW215360   0.453   3.119   2.574
 4821SOL     OW15361   0.245   5.275   3.611
 4821SOL    HW115362   0.304   5.265   3.691
 4821SOL    HW215363   0.263   5.363   3.567
 4822SOL     OW15364   2.238   4.340   4.366
 4822SOL    HW115365   2.197   4.429   4.348
 4822SOL    HW215366   2.318   4.351   4.424
 4823SOL     OW15367   1.587   2.898   1.163
 4823SOL    HW115368   1.505   2.921   1.112
 4823SOL    HW215369   1.647   2.841   1.107
 4824SOL     OW15370   6.254   1.362   0.030
 4824SOL    HW115371   6.168   1.368   7.008
 4824SOL    HW215372   6.236   1.367   0.128
 4825SOL     OW15373   1.377   7.006   3.786
 4825SOL    HW115374   1.458   0.004   3.733
 4825SOL    HW215375   1.304   6.978   3.724
 4826SOL     OW15376   3.717   6.820   1.019
 4826SOL    HW115377   3.689   6.910   0.985
 4826SOL    HW215378   3.653   6.791   1.090
 4827SOL     OW15379   6.812   1.743   0.994
 4827SOL    HW115380   6.728   1.743   0.939
 4827SOL    HW215381   6.806   1.673   1.065
 4828SOL     OW15382   5.483   1.711   5.485
 4828SOL    HW115383   5.416   1.668   5.546
 4828SOL    HW215384   5.574   1.702   5.526
 4829SOL     OW15385   4.116   6.617   5.270
 4829SOL    HW115386   4.141   6.614   5.173
 4829SOL    HW215387   4.199   6.610   5.325
 4830SOL     OW15388   1.988   6.434   3.990
 4830SOL    HW115389   2.068   6.377   4.011
 4830SOL    HW215390   2.009   6.494   3.913
 4831SOL     OW15391   3.122   4.721   5.246
 4831SOL    HW115392   3.038   4.677   5.213
 4831SOL    HW215393   3.178   4.655   5.295
 4832SOL     OW15394   3.975   3.485   4.435
 4832SOL    HW115395   3.925   3.571   4.422
 4832SOL    HW215396   4.043   3.475   4.362
 4833SOL     OW15397   6.298   2.955   5.109
 4833SOL    HW115398   6.380   3.002   5.142
 4833SOL    HW215399   6.250   2.914   5.186
 4834SOL     OW15400   1.386   5.208   1.488
 4834SOL    HW115401   1.387   5.192   1.389
 4834SOL    HW215402   1.297   5.244   1.515
 4835SOL     OW15403   0.208   3.112   6.197
 4835SOL    HW115404   0.274   3.102   6.122
 4835SOL    HW215405   0.218   3.035   6.260
 4836SOL     OW15406   4.213   2.219   5.778
 4836SOL    HW115407   4.125   2.215   5.824
 4836SOL    HW215408   4.207   2.171   5.690
 4837SOL     OW15409   1.264   3.641   4.381
 4837SOL    HW115410   1.352   3.629   4.335
 4837SOL    HW215411   1.200   3.572   4.347
 4838SOL     OW15412   2.025   4.049   6.085
 4838SOL    HW115413   1.975   4.070   6.169
 4838SOL    HW215414   2.056   4.134   6.043
 4839SOL     OW15415   2.644   1.023   1.034
 4839SOL    HW115416   2.663   1.081   1.112
 4839SOL    HW215417   2.646   0.927   1.062
 4840SOL     OW15418   5.138   3.328   5.146
 4840SOL    HW115419   5.195   3.319   5.228
 4840SOL    HW215420   5.055   3.380   5.169
 4841SOL     OW15421   2.661   6.653   2.838
 4841SOL    HW115422   2.688   6.748   2.855
 4841SOL    HW215423   2.660   6.602   2.925
 4842SOL     OW15424   3.587   5.791   3.295
 4842SOL    HW115425   3.594   5.743   3.208
 4842SOL    HW215426   3.539   5.734   3.362
 4843SOL     OW15427   6.617   1.328   0.598
 4843SOL    HW115428   6.702   1.330   0.545
 4843SOL    HW215429   6.634   1.366   0.689
 4844SOL     OW15430   1.522   5.738   6.370
 4844SOL    HW115431   1.539   5.825   6.325
 4844SOL    HW215432   1.588   5.670   6.337
 4845SOL     OW15433   4.838   3.920   5.179
 4845SOL    HW115434   4.884   3.933   5.091
 4845SOL    HW215435   4.782   3.837   5.175
 4846SOL     OW15436   6.134   3.655   4.908
 4846SOL    HW115437   6.125   3.576   4.848
 4846SOL    HW215438   6.106   3.738   4.860
 4847SOL     OW15439   2.931   6.651   0.134
 4847SOL    HW115440   2.923   6.629   0.037
 4847SOL    HW215441   2.912   6.568   0.188
 4848SOL     OW15442   4.777   1.609   3.863
 4848SOL    HW115443   4.840   1.535   3.841
 4848SOL    HW215444   4.748   1.603   3.958
 4849SOL     OW15445   2.330   6.887   1.482
 4849SOL    HW115446   2.377   6.817   1.535
 4849SOL    HW215447   2.275   6.945   1.543
 4850SOL     OW15448   3.181   6.653   1.509
 4850SOL    HW115449   3.280   6.645   1.512
 4850SOL    HW215450   3.151   6.655   1.413
 4851SOL     OW15451   3.991   4.795   0.050
 4851SOL    HW115452   3.983   4.781   0.149
 4851SOL    HW215453   4.050   4.874   0.032
 4852SOL     OW15454   5.009   5.262   5.855
 4852SOL    HW115455   5.036   5.253   5.759
 4852SOL    HW215456   5.070   5.326   5.901
 4853SOL     OW15457   4.409   0.099   2.873
 4853SOL    HW115458   4.390   0.100   2.775
 4853SOL    HW215459   4.335   0.052   2.922
 4854SOL     OW15460   4.444   6.928   2.461
 4854SOL    HW115461   4.372   6.950   2.395
 4854SOL    HW215462   4.529   6.909   2.413
 4855SOL     OW15463   4.670   5.145   5.428
 4855SOL    HW115464   4.598   5.096   5.380
 4855SOL    HW215465   4.630   5.221   5.481
 4856SOL     OW15466   0.317   3.066   2.867
 4856SOL    HW115467   0.390   3.083   2.802
 4856SOL    HW215468   0.243   3.132   2.852
 4857SOL     OW15469   2.066   2.478   5.021
 4857SOL    HW115470   2.038   2.475   5.117
 4857SOL    HW215471   2.125   2.399   5.002
 4858SOL     OW15472   1.644   6.091   5.115
 4858SOL    HW115473   1.663   6.015   5.052
 4858SOL    HW215474   1.725   6.150   5.120
 4859SOL     OW15475   6.859   5.834   2.888
 4859SOL    HW115476   6.840   5.752   2.943
 4859SOL    HW215477   6.815   5.913   2.930
 4860SOL     OW15478   3.875   5.483   2.114
 4860SOL    HW115479   3.802   5.420   2.088
 4860SOL    HW215480   3.837   5.575   2.129
 4861SOL     OW15481   0.287   4.566   5.697
 4861SOL    HW115482   0.238   4.492   5.743
 4861SOL    HW215483   0.264   4.565   5.599
 4862SOL     OW15484   2.008   6.533   4.599
 4862SOL    HW115485   2.071   6.467   4.638
 4862SOL    HW215486   1.955   6.577   4.672
 4863SOL     OW15487   5.786   1.672   1.773
 4863SOL    HW115488   5.792   1.581   1.731
 4863SOL    HW215489   5.723   1.729   1.719
 4864SOL     OW15490   2.222   2.094   0.942
 4864SOL    HW115491   2.220   1.995   0.931
 4864SOL    HW215492   2.306   2.120   0.991
 4865SOL     OW15493   3.939   6.444   4.702
 4865SOL    HW115494   4.023   6.395   4.723
 4865SOL    HW215495   3.873   6.428   4.776
 4866SOL     OW15496   0.666   5.408   1.701
 4866SOL    HW115497   0.601   5.388   1.627
 4866SOL    HW215498   0.753   5.438   1.661
 4867SOL     OW15499   5.561   4.719   4.776
 4867SOL    HW115500   5.582   4.774   4.856
 4867SOL    HW215501   5.466   4.687   4.781
 4868SOL     OW15502   1.963   5.549   1.548
 4868SOL    HW115503   2.023   5.622   1.582
 4868SOL    HW215504   1.882   5.544   1.606
 4869SOL     OW15505   6.407   1.776   1.866
 4869SOL    HW115506   6.430   1.679   1.856
 4869SOL    HW215507   6.318   1.784   1.911
 4870SOL     OW15508   6.357   0.811   1.229
 4870SOL    HW115509   6.443   0.762   1.245
 4870SOL    HW215510   6.333   0.804   1.132
 4871SOL     OW15511   1.292   3.646   4.669
 4871SOL    HW115512   1.217   3.581   4.679
 4871SOL    HW215513   1.319   3.650   4.573
 4872SOL     OW15514   1.101   1.341   3.874
 4872SOL    HW115515   1.070   1.429   3.908
 4872SOL    HW215516   1.066   1.268   3.932
 4873SOL     OW15517   1.082   6.409   5.291
 4873SOL    HW115518   1.113   6.329   5.342
 4873SOL    HW215519   1.013   6.458   5.344
 4874SOL     OW15520   6.106   2.570   3.076
 4874SOL    HW115521   6.171   2.642   3.051
 4874SOL    HW215522   6.051   2.546   2.997
 4875SOL     OW15523   7.019   2.964   6.483
 4875SOL    HW115524   0.053   2.953   6.560
 4875SOL    HW215525   0.038   2.942   6.398
 4876SOL     OW15526   0.231   1.638   6.990
 4876SOL    HW115527   0.162   1.658   0.031
 4876SOL    HW215528   0.199   1.562   6.933
 4877SOL     OW15529   5.843   1.371   1.702
 4877SOL    HW115530   5.811   1.279   1.677
 4877SOL    HW215531   5.878   1.369   1.796
 4878SOL     OW15532   0.693   3.053   1.553
 4878SOL    HW115533   0.646   3.113   1.618
 4878SOL    HW215534   0.781   3.026   1.591
 4879SOL     OW15535   4.431   5.858   3.232
 4879SOL    HW115536   4.439   5.956   3.213
 4879SOL    HW215537   4.336   5.837   3.255
 4880SOL     OW15538   5.995   1.927   5.475
 4880SOL    HW115539   5.964   1.917   5.380
 4880SOL    HW215540   6.050   1.848   5.500
 4881SOL     OW15541   2.622   5.695   6.030
 4881SOL    HW115542   2.614   5.770   6.096
 4881SOL    HW215543   2.571   5.718   5.947
 4882SOL     OW15544   5.203   6.440   0.309
 4882SOL    HW115545   5.230   6.512   0.245
 4882SOL    HW215546   5.168   6.362   0.257
 4883SOL     OW15547   6.365   5.141   6.534
 4883SOL    HW115548   6.418   5.172   6.613
 4883SOL    HW215549   6.268   5.146   6.554
 4884SOL     OW15550   4.221   6.984   1.534
 4884SOL    HW115551   4.124   6.959   1.541
 4884SOL    HW215552   4.269   6.916   1.478
 4885SOL     OW15553   2.133   6.673   2.491
 4885SOL    HW115554   2.124   6.762   2.535
 4885SOL    HW215555   2.225   6.637   2.506
 4886SOL     OW15556   6.131   1.091   5.963
 4886SOL    HW115557   6.158   1.084   6.059
 4886SOL    HW215558   6.127   1.187   5.936
 4887SOL     OW15559   0.905   1.794   5.368
 4887SOL    HW115560   0.854   1.880   5.372
 4887SOL    HW215561   0.956   1.781   5.453
 4888SOL     OW15562   3.447   6.000   1.843
 4888SOL    HW115563   3.469   5.958   1.755
 4888SOL    HW215564   3.519   6.065   1.868
 4889SOL     OW15565   1.466   3.106   6.334
 4889SOL    HW115566   1.519   3.127   6.416
 4889SOL    HW215567   1.529   3.094   6.257
 4890SOL     OW15568   0.043   0.643   4.248
 4890SOL    HW115569   0.119   0.696   4.210
 4890SOL    HW215570   0.076   0.583   4.320
 4891SOL     OW15571   1.131   4.491   0.697
 4891SOL    HW115572   1.102   4.432   0.773
 4891SOL    HW215573   1.230   4.506   0.703
 4892SOL     OW15574   1.853   5.453   2.228
 4892SOL    HW115575   1.951   5.467   2.235
 4892SOL    HW215576   1.826   5.448   2.132
 4893SOL     OW15577   0.631   4.024   6.989
 4893SOL    HW115578   0.539   4.053   6.964
 4893SOL    HW215579   0.626   3.965   0.040
 4894SOL     OW15580   1.121   0.450   3.151
 4894SOL    HW115581   1.171   0.527   3.188
 4894SOL    HW215582   1.105   0.463   3.053
 4895SOL     OW15583   5.738   4.095   6.896
 4895SOL    HW115584   5.772   4.001   6.900
 4895SOL    HW215585   5.749   4.139   6.985
 4896SOL     OW15586   4.253   6.482   3.531
 4896SOL    HW115587   4.281   6.399   3.482
 4896SOL    HW215588   4.159   6.471   3.563
 4897SOL     OW15589   2.588   5.728   6.526
 4897SOL    HW115590   2.670   5.773   6.491
 4897SOL    HW215591   2.614   5.657   6.591
 4898SOL     OW15592   6.179   1.923   4.729
 4898SOL    HW115593   6.098   1.980   4.743
 4898SOL    HW215594   6.235   1.962   4.656
 4899SOL     OW15595   4.847   4.501   4.217
 4899SOL    HW115596   4.894   4.588   4.235
 4899SOL    HW215597   4.913   4.427   4.215
 4900SOL     OW15598   0.559   6.557   4.662
 4900SOL    HW115599   0.563   6.544   4.563
 4900SOL    HW215600   0.634   6.507   4.705
 4901SOL     OW15601   0.212   6.860   3.216
 4901SOL    HW115602   0.129   6.916   3.212
 4901SOL    HW215603   0.191   6.773   3.262
 4902SOL     OW15604   3.404   4.873   1.376
 4902SOL    HW115605   3.503   4.870   1.381
 4902SOL    HW215606   3.365   4.809   1.442
 4903SOL     OW15607   5.565   5.621   6.003
 4903SOL    HW115608   5.654   5.654   6.036
 4903SOL    HW215609   5.579   5.569   5.918
 4904SOL     OW15610   2.991   0.306   3.455
 4904SOL    HW115611   3.001   0.388   3.399
 4904SOL    HW215612   2.954   0.232   3.399
 4905SOL     OW15613   6.531   3.177   3.175
 4905SOL    HW115614   6.627   3.159   3.197
 4905SOL    HW215615   6.519   3.274   3.158
 4906SOL     OW15616   4.826   0.645   1.157
 4906SOL    HW115617   4.799   0.588   1.080
 4906SOL    HW215618   4.799   0.740   1.139
 4907SOL     OW15619   2.482   1.761   2.020
 4907SOL    HW115620   2.483   1.673   1.971
 4907SOL    HW215621   2.561   1.765   2.081
 4908SOL     OW15622   3.990   5.829   0.785
 4908SOL    HW115623   3.993   5.759   0.857
 4908SOL    HW215624   3.899   5.872   0.785
 4909SOL     OW15625   6.647   6.920   5.100
 4909SOL    HW115626   6.722   6.882   5.046
 4909SOL    HW215627   6.680   6.943   5.192
 4910SOL     OW15628   5.913   6.880   6.119
 4910SOL    HW115629   5.882   6.943   6.048
 4910SOL    HW215630   5.834   6.841   6.165
 4911SOL     OW15631   0.870   4.109   6.531
 4911SOL    HW115632   0.812   4.028   6.521
 4911SOL    HW215633   0.958   4.091   6.487
 4912SOL     OW15634   2.549   2.572   1.600
 4912SOL    HW115635   2.575   2.669   1.599
 4912SOL    HW215636   2.575   2.532   1.688
 4913SOL     OW15637   2.670   2.995   1.764
 4913SOL    HW115638   2.724   3.058   1.820
 4913SOL    HW215639   2.601   3.047   1.713
 4914SOL     OW15640   1.252   6.705   2.563
 4914SOL    HW115641   1.333   6.674   2.613
 4914SOL    HW215642   1.270   6.795   2.523
 4915SOL     OW15643   2.155   6.348   3.377
 4915SOL    HW115644   2.055   6.355   3.371
 4915SOL    HW215645   2.191   6.309   3.292
 4916SOL     OW15646   1.942   2.093   2.274
 4916SOL    HW115647   1.911   2.038   2.196
 4916SOL    HW215648   1.908   2.186   2.265
 4917SOL     OW15649   2.111   4.316   5.962
 4917SOL    HW115650   2.131   4.274   5.873
 4917SOL    HW215651   2.019   4.355   5.960
 4918SOL     OW15652   2.365   0.611   3.950
 4918SOL    HW115653   2.457   0.576   3.972
 4918SOL    HW215654   2.319   0.637   4.034
 4919SOL     OW15655   2.512   3.254   1.699
 4919SOL    HW115656   2.437   3.312   1.732
 4919SOL    HW215657   2.596   3.308   1.695
 4920SOL     OW15658   3.820   0.577   0.329
 4920SOL    HW115659   3.911   0.577   0.370
 4920SOL    HW215660   3.783   0.484   0.331
 4921SOL     OW15661   0.394   4.868   1.805
 4921SOL    HW115662   0.351   4.911   1.726
 4921SOL    HW215663   0.324   4.837   1.869
 4922SOL     OW15664   1.324   2.669   6.081
 4922SOL    HW115665   1.253   2.642   6.145
 4922SOL    HW215666   1.300   2.638   5.989
 4923SOL     OW15667   2.996   2.206   6.960
 4923SOL    HW115668   2.962   2.201   6.866
 4923SOL    HW215669   3.064   2.279   6.967
 4924SOL     OW15670   6.796   3.465   4.384
 4924SOL    HW115671   6.762   3.558   4.395
 4924SOL    HW215672   6.769   3.430   4.295
 4925SOL     OW15673   4.650   6.015   6.058
 4925SOL    HW115674   4.635   6.007   5.959
 4925SOL    HW215675   4.608   6.098   6.092
 4926SOL     OW15676   4.476   3.241   0.481
 4926SOL    HW115677   4.477   3.261   0.383
 4926SOL    HW215678   4.566   3.261   0.520
 4927SOL     OW15679   2.914   3.545   2.077
 4927SOL    HW115680   2.884   3.525   2.170
 4927SOL    HW215681   2.932   3.643   2.068
 4928SOL     OW15682   0.803   0.475   0.449
 4928SOL    HW115683   0.823   0.400   0.511
 4928SOL    HW215684   0.748   0.544   0.496
 4929SOL     OW15685   1.283   4.491   4.562
 4929SOL    HW115686   1.376   4.501   4.598
 4929SOL    HW215687   1.230   4.574   4.582
 4930SOL     OW15688   0.250   3.072   0.670
 4930SOL    HW115689   0.234   2.981   0.631
 4930SOL    HW215690   0.164   3.123   0.671
 4931SOL     OW15691   6.041   6.420   1.448
 4931SOL    HW115692   6.012   6.386   1.538
 4931SOL    HW215693   6.114   6.361   1.412
 4932SOL     OW15694   3.323   1.494   1.187
 4932SOL    HW115695   3.337   1.568   1.253
 4932SOL    HW215696   3.391   1.423   1.202
 4933SOL     OW15697   3.053   0.211   4.761
 4933SOL    HW115698   2.964   0.183   4.798
 4933SOL    HW215699   3.113   0.238   4.836
 4934SOL     OW15700   1.981   6.047   5.217
 4934SOL    HW115701   1.911   5.982   5.186
 4934SOL    HW215702   2.051   5.998   5.269
 4935SOL     OW15703   2.091   1.848   0.664
 4935SOL    HW115704   2.169   1.833   0.724
 4935SOL    HW215705   2.068   1.945   0.663
 4936SOL     OW15706   5.330   5.556   1.544
 4936SOL    HW115707   5.303   5.637   1.492
 4936SOL    HW215708   5.347   5.581   1.639
 4937SOL     OW15709   1.089   3.473   4.704
 4937SOL    HW115710   1.036   3.526   4.770
 4937SOL    HW215711   1.094   3.378   4.733
 4938SOL     OW15712   3.335   4.709   1.663
 4938SOL    HW115713   3.319   4.805   1.686
 4938SOL    HW215714   3.418   4.678   1.709
 4939SOL     OW15715   1.102   1.428   0.929
 4939SOL    HW115716   1.005   1.447   0.942
 4939SOL    HW215717   1.127   1.443   0.834
 4940SOL     OW15718   1.160   2.222   5.862
 4940SOL    HW115719   1.258   2.227   5.839
 4940SOL    HW215720   1.125   2.315   5.876
 4941SOL     OW15721   3.887   2.494   5.336
 4941SOL    HW115722   3.977   2.526   5.308
 4941SOL    HW215723   3.894   2.443   5.422
 4942SOL     OW15724   6.941   1.593   3.454
 4942SOL    HW115725   6.886   1.534   3.395
 4942SOL    HW215726   6.951   1.551   3.544
 4943SOL     OW15727   5.109   2.517   6.677
 4943SOL    HW115728   5.151   2.605   6.701
 4943SOL    HW215729   5.132   2.495   6.582
 4944SOL     OW15730   0.634   4.724   0.544
 4944SOL    HW115731   0.551   4.724   0.488
 4944SOL    HW215732   0.672   4.632   0.548
 4945SOL     OW15733   2.965   0.053   6.057
 4945SOL    HW115734   2.984   6.993   6.098
 4945SOL    HW215735   2.944   0.119   6.129
 4946SOL     OW15736   2.557   5.512   6.766
 4946SOL    HW115737   2.633   5.529   6.828
 4946SOL    HW215738   2.564   5.419   6.729
 4947SOL     OW15739   0.665   0.457   0.802
 4947SOL    HW115740   0.739   0.412   0.752
 4947SOL    HW215741   0.577   0.427   0.764
 4948SOL     OW15742   1.597   2.103   1.990
 4948SOL    HW115743   1.547   2.166   2.049
 4948SOL    HW215744   1.674   2.065   2.041
 4949SOL     OW15745   7.023   4.068   6.087
 4949SOL    HW115746   0.026   4.009   6.161
 4949SOL    HW215747   6.977   4.147   6.125
 4950SOL     OW15748   4.082   4.447   5.656
 4950SOL    HW115749   4.086   4.471   5.559
 4950SOL    HW215750   4.141   4.369   5.673
 4951SOL     OW15751   4.926   5.693   2.717
 4951SOL    HW115752   4.970   5.605   2.737
 4951SOL    HW215753   4.988   5.749   2.662
 4952SOL     OW15754   1.300   0.798   6.895
 4952SOL    HW115755   1.327   0.843   6.809
 4952SOL    HW215756   1.380   0.794   6.956
 4953SOL     OW15757   1.252   1.972   4.904
 4953SOL    HW115758   1.251   2.062   4.861
 4953SOL    HW215759   1.281   1.903   4.838
 4954SOL     OW15760   2.873   3.796   5.204
 4954SOL    HW115761   2.797   3.844   5.247
 4954SOL    HW215762   2.881   3.704   5.243
 4955SOL     OW15763   3.915   5.860   6.265
 4955SOL    HW115764   3.815   5.859   6.256
 4955SOL    HW215765   3.940   5.875   6.361
 4956SOL     OW15766   2.891   6.956   4.845
 4956SOL    HW115767   2.873   7.021   4.919
 4956SOL    HW215768   2.872   6.863   4.877
 4957SOL     OW15769   5.407   5.106   6.875
 4957SOL    HW115770   5.427   5.067   6.785
 4957SOL    HW215771   5.490   5.150   6.912
 4958SOL     OW15772   3.628   5.170   1.017
 4958SOL    HW115773   3.547   5.113   1.004
 4958SOL    HW215774   3.599   5.263   1.041
 4959SOL     OW15775   6.839   2.759   3.051
 4959SOL    HW115776   6.881   2.746   3.140
 4959SOL    HW215777   6.840   2.672   3.001
 4960SOL     OW15778   5.231   4.358   3.728
 4960SOL    HW115779   5.173   4.438   3.714
 4960SOL    HW215780   5.281   4.368   3.815
 4961SOL     OW15781   3.517   2.514   1.715
 4961SOL    HW115782   3.490   2.600   1.757
 4961SOL    HW215783   3.571   2.461   1.781
 4962SOL     OW15784   1.379   2.946   0.528
 4962SOL    HW115785   1.408   2.894   0.448
 4962SOL    HW215786   1.422   2.908   0.610
 4963SOL     OW15787   0.760   3.969   5.798
 4963SOL    HW115788   0.786   3.979   5.894
 4963SOL    HW215789   0.778   3.875   5.768
 4964SOL     OW15790   2.010   5.334   4.658
 4964SOL    HW115791   2.021   5.434   4.654
 4964SOL    HW215792   2.083   5.291   4.606
 4965SOL     OW15793   1.771   6.772   3.237
 4965SOL    HW115794   1.778   6.795   3.140
 4965SOL    HW215795   1.683   6.728   3.255
 4966SOL     OW15796   4.178   0.057   4.863
 4966SOL    HW115797   4.135   0.007   4.938
 4966SOL    HW215798   4.131   0.144   4.849
 4967SOL     OW15799   4.170   4.757   4.472
 4967SOL    HW115800   4.080   4.764   4.517
 4967SOL    HW215801   4.241   4.753   4.542
 4968SOL     OW15802   0.311   2.909   3.545
 4968SOL    HW115803   0.290   2.937   3.451
 4968SOL    HW215804   0.287   2.983   3.608
 4969SOL     OW15805   0.291   6.345   4.069
 4969SOL    HW115806   0.285   6.278   3.995
 4969SOL    HW215807   0.330   6.302   4.150
 4970SOL     OW15808   1.989   1.542   1.543
 4970SOL    HW115809   1.921   1.515   1.610
 4970SOL    HW215810   1.991   1.474   1.469
 4971SOL     OW15811   0.076   6.034   1.841
 4971SOL    HW115812   0.132   6.064   1.918
 4971SOL    HW215813   7.008   6.052   1.862
 4972SOL     OW15814   0.940   4.105   0.469
 4972SOL    HW115815   0.922   4.172   0.398
 4972SOL    HW215816   1.038   4.082   0.470
 4973SOL     OW15817   6.085   1.209   0.513
 4973SOL    HW115818   6.054   1.161   0.431
 4973SOL    HW215819   6.177   1.179   0.536
 4974SOL     OW15820   3.353   7.022   4.695
 4974SOL    HW115821   3.390   6.958   4.627
 4974SOL    HW215822   3.277   0.044   4.655
 4975SOL     OW15823   5.309   5.000   1.224
 4975SOL    HW115824   5.290   5.098   1.231
 4975SOL    HW215825   5.292   4.970   1.130
 4976SOL     OW15826   0.916   6.980   3.536
 4976SOL    HW115827   0.851   7.027   3.596
 4976SOL    HW215828   1.008   7.015   3.552
 4977SOL     OW15829   1.687   4.075   5.876
 4977SOL    HW115830   1.642   4.076   5.966
 4977SOL    HW215831   1.680   3.984   5.836
 4978SOL     OW15832   6.062   4.637   4.421
 4978SOL    HW115833   6.041   4.549   4.463
 4978SOL    HW215834   6.150   4.631   4.375
 4979SOL     OW15835   2.528   6.965   6.705
 4979SOL    HW115836   2.555   6.909   6.784
 4979SOL    HW215837   2.503   0.027   6.735
 4980SOL     OW15838   5.597   2.586   4.119
 4980SOL    HW115839   5.630   2.603   4.212
 4980SOL    HW215840   5.646   2.644   4.055
 4981SOL     OW15841   3.453   5.278   3.070
 4981SOL    HW115842   3.443   5.197   3.011
 4981SOL    HW215843   3.396   5.352   3.035
 4982SOL     OW15844   3.796   2.244   5.236
 4982SOL    HW115845   3.838   2.335   5.243
 4982SOL    HW215846   3.698   2.252   5.257
 4983SOL     OW15847   6.037   4.362   2.387
 4983SOL    HW115848   6.042   4.330   2.482
 4983SOL    HW215849   6.097   4.441   2.375
 4984SOL     OW15850   5.029   3.707   4.624
 4984SOL    HW115851   4.976   3.723   4.540
 4984SOL    HW215852   5.014   3.614   4.656
 4985SOL     OW15853   5.857   0.683   2.205
 4985SOL    HW115854   5.890   0.767   2.250
 4985SOL    HW215855   5.769   0.657   2.244
 4986SOL     OW15856   0.743   5.509   1.231
 4986SOL    HW115857   0.835   5.547   1.234
 4986SOL    HW215858   0.748   5.409   1.239
 4987SOL     OW15859   2.036   1.465   2.883
 4987SOL    HW115860   2.080   1.382   2.917
 4987SOL    HW215861   2.043   1.468   2.784
 4988SOL     OW15862   6.322   5.629   4.062
 4988SOL    HW115863   6.382   5.708   4.076
 4988SOL    HW215864   6.263   5.617   4.142
 4989SOL     OW15865   5.662   6.911   3.487
 4989SOL    HW115866   5.640   6.931   3.583
 4989SOL    HW215867   5.578   6.910   3.433
 4990SOL     OW15868   4.551   1.814   5.933
 4990SOL    HW115869   4.513   1.868   5.857
 4990SOL    HW215870   4.575   1.874   6.009
 4991SOL     OW15871   1.907   5.609   5.838
 4991SOL    HW115872   1.959   5.584   5.756
 4991SOL    HW215873   1.822   5.557   5.840
 4992SOL     OW15874   1.505   3.612   4.250
 4992SOL    HW115875   1.539   3.693   4.203
 4992SOL    HW215876   1.543   3.530   4.208
 4993SOL     OW15877   2.541   6.500   3.982
 4993SOL    HW115878   2.618   6.505   4.045
 4993SOL    HW215879   2.572   6.466   3.893
 4994SOL     OW15880   4.155   5.286   5.698
 4994SOL    HW115881   4.224   5.358   5.697
 4994SOL    HW215882   4.064   5.327   5.700
 4995SOL     OW15883   0.261   0.733   5.881
 4995SOL    HW115884   0.285   0.802   5.812
 4995SOL    HW215885   0.318   0.652   5.867
 4996SOL     OW15886   0.193   1.161   3.951
 4996SOL    HW115887   0.230   1.232   4.011
 4996SOL    HW215888   0.220   1.071   3.985
 4997SOL     OW15889   4.077   1.225   0.873
 4997SOL    HW115890   4.091   1.203   0.777
 4997SOL    HW215891   4.164   1.221   0.922
 4998SOL     OW15892   0.856   3.588   3.175
 4998SOL    HW115893   0.911   3.606   3.094
 4998SOL    HW215894   0.911   3.603   3.257
 4999SOL     OW15895   0.788   2.772   3.401
 4999SOL    HW115896   0.851   2.695   3.396
 4999SOL    HW215897   0.707   2.746   3.454
 5000SOL     OW15898   2.514   6.275   3.046
 5000SOL    HW115899   2.598   6.267   3.100
 5000SOL    HW215900   2.509   6.199   2.981
 5001SOL     OW15901   0.287   6.385   2.984
 5001SOL    HW115902   0.240   6.402   2.897
 5001SOL    HW215903   0.227   6.332   3.044
 5002SOL     OW15904   1.377   4.653   3.992
 5002SOL    HW115905   1.355   4.699   3.905
 5002SOL    HW215906   1.329   4.699   4.066
 5003SOL     OW15907   3.912   0.502   2.820
 5003SOL    HW115908   3.972   0.448   2.879
 5003SOL    HW215909   3.955   0.512   2.730
 5004SOL     OW15910   3.872   6.069   0.288
 5004SOL    HW115911   3.890   6.002   0.216
 5004SOL    HW215912   3.959   6.094   0.332
 5005SOL     OW15913   2.972   2.812   0.556
 5005SOL    HW115914   3.027   2.764   0.488
 5005SOL    HW215915   3.031   2.865   0.617
 5006SOL     OW15916   4.902   1.240   2.400
 5006SOL    HW115917   4.891   1.258   2.498
 5006SOL    HW215918   4.941   1.149   2.388
 5007SOL     OW15919   6.202   5.688   1.975
 5007SOL    HW115920   6.224   5.626   2.050
 5007SOL    HW215921   6.117   5.660   1.931
 5008SOL     OW15922   5.302   0.541   3.464
 5008SOL    HW115923   5.390   0.500   3.438
 5008SOL    HW215924   5.317   0.608   3.536
 5009SOL     OW15925   0.088   2.241   0.830
 5009SOL    HW115926   0.078   2.314   0.762
 5009SOL    HW215927   0.000   2.195   0.842
 5010SOL     OW15928   3.993   3.848   0.973
 5010SOL    HW115929   4.000   3.760   1.020
 5010SOL    HW215930   3.936   3.837   0.891
 5011SOL     OW15931   1.324   2.854   6.549
 5011SOL    HW115932   1.340   2.908   6.631
 5011SOL    HW215933   1.336   2.912   6.468
 5012SOL     OW15934   5.998   1.524   6.402
 5012SOL    HW115935   5.977   1.614   6.439
 5012SOL    HW215936   5.914   1.483   6.364
 5013SOL     OW15937   5.372   6.983   6.155
 5013SOL    HW115938   5.378   0.026   6.085
 5013SOL    HW215939   5.290   6.997   6.210
 5014SOL     OW15940   5.314   3.156   1.391
 5014SOL    HW115941   5.386   3.092   1.363
 5014SOL    HW215942   5.240   3.155   1.324
 5015SOL     OW15943   6.149   5.579   4.264
 5015SOL    HW115944   6.125   5.487   4.293
 5015SOL    HW215945   6.174   5.634   4.344
 5016SOL     OW15946   1.683   3.639   5.935
 5016SOL    HW115947   1.748   3.714   5.945
 5016SOL    HW215948   1.597   3.662   5.981
 5017SOL     OW15949   0.249   3.126   1.677
 5017SOL    HW115950   0.211   3.037   1.651
 5017SOL    HW215951   0.207   3.157   1.762
 5018SOL     OW15952   1.057   0.708   6.949
 5018SOL    HW115953   1.148   0.744   6.929
 5018SOL    HW215954   1.017   0.670   6.866
 5019SOL     OW15955   1.531   4.468   4.236
 5019SOL    HW115956   1.527   4.549   4.295
 5019SOL    HW215957   1.463   4.401   4.267
 5020SOL     OW15958   2.137   0.228   4.636
 5020SOL    HW115959   2.212   0.191   4.581
 5020SOL    HW215960   2.174   0.289   4.705
 5021SOL     OW15961   2.212   0.912   1.087
 5021SOL    HW115962   2.295   0.936   1.036
 5021SOL    HW215963   2.159   0.995   1.104
 5022SOL     OW15964   6.648   2.885   1.141
 5022SOL    HW115965   6.678   2.867   1.047
 5022SOL    HW215966   6.728   2.896   1.200
 5023SOL     OW15967   0.534   4.165   2.717
 5023SOL    HW115968   0.569   4.134   2.805
 5023SOL    HW215969   0.448   4.119   2.697
 5024SOL     OW15970   4.589   3.819   0.800
 5024SOL    HW115971   4.616   3.726   0.825
 5024SOL    HW215972   4.505   3.843   0.847
 5025SOL     OW15973   4.883   1.522   4.775
 5025SOL    HW115974   4.953   1.453   4.793
 5025SOL    HW215975   4.912   1.610   4.811
 5026SOL     OW15976   5.306   6.877   4.266
 5026SOL    HW115977   5.340   6.846   4.354
 5026SOL    HW215978   5.225   6.823   4.241
 5027SOL     OW15979   5.302   6.423   0.910
 5027SOL    HW115980   5.304   6.343   0.971
 5027SOL    HW215981   5.213   6.468   0.918
 5028SOL     OW15982   6.106   2.040   2.170
 5028SOL    HW115983   6.143   2.122   2.212
 5028SOL    HW215984   6.113   2.046   2.070
 5029SOL     OW15985   5.960   1.998   1.874
 5029SOL    HW115986   6.011   1.923   1.916
 5029SOL    HW215987   5.948   1.979   1.776
 5030SOL     OW15988   0.745   3.873   6.490
 5030SOL    HW115989   0.647   3.859   6.478
 5030SOL    HW215990   0.773   3.839   6.580
 5031SOL     OW15991   6.428   0.014   5.894
 5031SOL    HW115992   6.514   0.000   5.942
 5031SOL    HW215993   6.416   0.112   5.874
 5032SOL     OW15994   2.738   3.535   6.126
 5032SOL    HW115995   2.729   3.575   6.034
 5032SOL    HW215996   2.833   3.508   6.142
 5033SOL     OW15997   2.371   6.857   6.487
 5033SOL    HW115998   2.419   6.896   6.565
 5033SOL    HW215999   2.435   6.802   6.433
 5034SOL     OW16000   4.297   6.348   4.619
 5034SOL    HW116001   4.217   6.303   4.660
 5034SOL    HW216002   4.276   6.370   4.523
 5035SOL     OW16003   2.136   3.474   3.953
 5035SOL    HW116004   2.131   3.518   4.043
 5035SOL    HW216005   2.197   3.394   3.958
 5036SOL     OW16006   1.216   2.672   4.726
 5036SOL    HW116007   1.310   2.694   4.753
 5036SOL    HW216008   1.152   2.735   4.770
 5037SOL     OW16009   4.533   4.105   1.061
 5037SOL    HW116010   4.490   4.195   1.049
 5037SOL    HW216011   4.474   4.035   1.022
 5038SOL     OW16012   3.771   3.477   3.235
 5038SOL    HW116013   3.781   3.511   3.329
 5038SOL    HW216014   3.717   3.393   3.236
 5039SOL     OW16015   1.417   3.792   6.704
 5039SOL    HW116016   1.431   3.721   6.635
 5039SOL    HW216017   1.337   3.848   6.680
 5040SOL     OW16018   0.226   1.500   5.934
 5040SOL    HW116019   0.234   1.431   5.862
 5040SOL    HW216020   0.317   1.536   5.956
 5041SOL     OW16021   6.822   2.215   1.272
 5041SOL    HW116022   6.776   2.240   1.357
 5041SOL    HW216023   6.847   2.298   1.222
 5042SOL     OW16024   1.205   2.548   6.319
 5042SOL    HW116025   1.112   2.575   6.342
 5042SOL    HW216026   1.259   2.539   6.403
 5043SOL     OW16027   3.428   6.356   1.506
 5043SOL    HW116028   3.429   6.454   1.488
 5043SOL    HW216029   3.359   6.335   1.576
 5044SOL     OW16030   6.852   5.275   7.008
 5044SOL    HW116031   6.794   5.351   0.009
 5044SOL    HW216032   6.805   5.188   7.024
 5045SOL     OW16033   5.418   2.823   6.631
 5045SOL    HW116034   5.408   2.752   6.561
 5045SOL    HW216035   5.500   2.806   6.684
 5046SOL     OW16036   4.140   3.396   2.526
 5046SOL    HW116037   4.140   3.305   2.567
 5046SOL    HW216038   4.148   3.388   2.426
 5047SOL     OW16039   2.078   3.526   3.676
 5047SOL    HW116040   2.099   3.613   3.633
 5047SOL    HW216041   2.136   3.514   3.757
 5048SOL     OW16042   2.520   0.638   6.279
 5048SOL    HW116043   2.509   0.724   6.329
 5048SOL    HW216044   2.611   0.634   6.238
 5049SOL     OW16045   4.335   1.726   6.785
 5049SOL    HW116046   4.366   1.815   6.754
 5049SOL    HW216047   4.405   1.657   6.764
 5050SOL     OW16048   1.763   0.247   0.884
 5050SOL    HW116049   1.771   0.172   0.950
 5050SOL    HW216050   1.795   0.332   0.925
 5051SOL     OW16051   4.996   5.187   1.241
 5051SOL    HW116052   4.966   5.092   1.243
 5051SOL    HW216053   4.966   5.229   1.155
 5052SOL     OW16054   2.698   1.644   5.077
 5052SOL    HW116055   2.667   1.697   5.156
 5052SOL    HW216056   2.738   1.705   5.009
 5053SOL     OW16057   0.137   1.004   1.764
 5053SOL    HW116058   0.168   1.098   1.782
 5053SOL    HW216059   0.059   0.984   1.823
 5054SOL     OW16060   4.110   5.601   3.792
 5054SOL    HW116061   4.051   5.586   3.712
 5054SOL    HW216062   4.197   5.639   3.762
 5055SOL     OW16063   0.310   3.709   6.245
 5055SOL    HW116064   0.369   3.712   6.164
 5055SOL    HW216065   0.216   3.691   6.217
 5056SOL     OW16066   5.717   3.671   3.819
 5056SOL    HW116067   5.710   3.767   3.848
 5056SOL    HW216068   5.777   3.665   3.740
 5057SOL     OW16069   0.850   5.311   2.354
 5057SOL    HW116070   0.930   5.287   2.299
 5057SOL    HW216071   0.790   5.371   2.301
 5058SOL     OW16072   2.506   5.172   5.867
 5058SOL    HW116073   2.601   5.181   5.898
 5058SOL    HW216074   2.496   5.219   5.779
 5059SOL     OW16075   6.731   0.384   2.199
 5059SOL    HW116076   6.821   0.373   2.159
 5059SOL    HW216077   6.730   0.343   2.290
 5060SOL     OW16078   6.788   2.458   6.138
 5060SOL    HW116079   6.771   2.359   6.140
 5060SOL    HW216080   6.805   2.491   6.230
 5061SOL     OW16081   5.300   4.629   0.730
 5061SOL    HW116082   5.388   4.623   0.778
 5061SOL    HW216083   5.244   4.699   0.773
 5062SOL     OW16084   6.715   0.364   1.098
 5062SOL    HW116085   6.624   0.403   1.091
 5062SOL    HW216086   6.709   0.264   1.092
 5063SOL     OW16087   1.323   5.862   2.048
 5063SOL    HW116088   1.293   5.896   2.137
 5063SOL    HW216089   1.302   5.930   1.978
 5064SOL     OW16090   4.972   3.451   0.069
 5064SOL    HW116091   4.922   3.429   7.014
 5064SOL    HW216092   5.070   3.445   0.051
 5065SOL     OW16093   2.930   6.658   5.997
 5065SOL    HW116094   2.912   6.643   5.900
 5065SOL    HW216095   3.006   6.722   6.007
 5066SOL     OW16096   4.912   4.939   1.234
 5066SOL    HW116097   4.812   4.946   1.244
 5066SOL    HW216098   4.941   4.846   1.259
 5067SOL     OW16099   5.206   1.142   6.684
 5067SOL    HW116100   5.148   1.182   6.614
 5067SOL    HW216101   5.160   1.148   6.773
 5068SOL     OW16102   3.334   5.125   1.489
 5068SOL    HW116103   3.283   5.043   1.515
 5068SOL    HW216104   3.427   5.119   1.527
 5069SOL     OW16105   0.055   5.071   2.783
 5069SOL    HW116106   0.099   5.123   2.856
 5069SOL    HW216107   0.126   5.033   2.723
 5070SOL     OW16108   4.908   3.448   4.317
 5070SOL    HW116109   4.978   3.400   4.265
 5070SOL    HW216110   4.868   3.387   4.385
 5071SOL     OW16111   3.897   0.951   6.877
 5071SOL    HW116112   3.870   0.908   6.791
 5071SOL    HW216113   3.832   0.926   6.949
 5072SOL     OW16114   1.165   4.237   1.412
 5072SOL    HW116115   1.229   4.287   1.471
 5072SOL    HW216116   1.203   4.147   1.392
 5073SOL     OW16117   4.431   2.182   4.375
 5073SOL    HW116118   4.447   2.127   4.294
 5073SOL    HW216119   4.446   2.126   4.457
 5074SOL     OW16120   3.786   5.013   4.952
 5074SOL    HW116121   3.849   5.083   4.917
 5074SOL    HW216122   3.835   4.951   5.013
 5075SOL     OW16123   6.629   6.575   3.936
 5075SOL    HW116124   6.550   6.596   3.879
 5075SOL    HW216125   6.647   6.476   3.933
 5076SOL     OW16126   3.999   0.660   0.691
 5076SOL    HW116127   4.026   0.628   0.600
 5076SOL    HW216128   4.026   0.756   0.702
 5077SOL     OW16129   0.019   2.684   2.340
 5077SOL    HW116130   0.038   2.610   2.404
 5077SOL    HW216131   0.104   2.732   2.318
 5078SOL     OW16132   7.017   1.005   3.825
 5078SOL    HW116133   0.073   1.055   3.844
 5078SOL    HW216134   0.007   0.932   3.759
 5079SOL     OW16135   4.152   4.871   4.827
 5079SOL    HW116136   4.177   4.967   4.833
 5079SOL    HW216137   4.234   4.815   4.831
 5080SOL     OW16138   6.113   0.202   5.732
 5080SOL    HW116139   6.039   0.227   5.794
 5080SOL    HW216140   6.200   0.234   5.769
 5081SOL     OW16141   3.065   3.470   3.013
 5081SOL    HW116142   3.032   3.399   2.951
 5081SOL    HW216143   3.019   3.556   2.993
 5082SOL     OW16144   6.893   0.492   6.059
 5082SOL    HW116145   6.829   0.420   6.087
 5082SOL    HW216146   6.850   0.582   6.073
 5083SOL     OW16147   1.127   5.522   1.979
 5083SOL    HW116148   1.096   5.537   1.885
 5083SOL    HW216149   1.226   5.537   1.983
 5084SOL     OW16150   2.092   5.896   2.523
 5084SOL    HW116151   2.037   5.979   2.535
 5084SOL    HW216152   2.150   5.882   2.604
 5085SOL     OW16153   6.734   2.839   6.444
 5085SOL    HW116154   6.797   2.916   6.440
 5085SOL    HW216155   6.649   2.868   6.488
 5086SOL     OW16156   0.083   4.850   4.333
 5086SOL    HW116157   0.096   4.925   4.270
 5086SOL    HW216158   7.014   4.830   4.342
 5087SOL     OW16159   6.905   5.617   5.321
 5087SOL    HW116160   7.000   5.588   5.311
 5087SOL    HW216161   6.871   5.653   5.234
 5088SOL     OW16162   6.111   0.711   6.970
 5088SOL    HW116163   6.203   0.675   6.960
 5088SOL    HW216164   6.061   0.700   6.884
 5089SOL     OW16165   5.352   2.513   3.984
 5089SOL    HW116166   5.301   2.591   3.947
 5089SOL    HW216167   5.449   2.538   3.991
 5090SOL     OW16168   1.294   5.163   0.906
 5090SOL    HW116169   1.264   5.094   0.840
 5090SOL    HW216170   1.314   5.249   0.858
 5091SOL     OW16171   1.478   6.890   3.180
 5091SOL    HW116172   1.500   6.898   3.277
 5091SOL    HW216173   1.378   6.888   3.169
 5092SOL     OW16174   3.543   3.044   1.340
 5092SOL    HW116175   3.472   3.111   1.315
 5092SOL    HW216176   3.599   3.082   1.413
 5093SOL     OW16177   1.175   1.844   0.804
 5093SOL    HW116178   1.123   1.930   0.813
 5093SOL    HW216179   1.216   1.840   0.713
 5094SOL     OW16180   6.681   0.403   6.616
 5094SOL    HW116181   6.770   0.442   6.593
 5094SOL    HW216182   6.670   0.404   6.716
 5095SOL     OW16183   3.655   0.263   5.305
 5095SOL    HW116184   3.715   0.342   5.299
 5095SOL    HW216185   3.656   0.226   5.398
 5096SOL     OW16186   3.764   5.658   2.971
 5096SOL    HW116187   3.828   5.733   2.983
 5096SOL    HW216188   3.803   5.574   3.010
 5097SOL     OW16189   0.695   1.287   6.276
 5097SOL    HW116190   0.690   1.351   6.200
 5097SOL    HW216191   0.701   1.193   6.241
 5098SOL     OW16192   6.895   3.038   2.621
 5098SOL    HW116193   6.828   2.989   2.564
 5098SOL    HW216194   6.927   2.977   2.694
 5099SOL     OW16195   1.037   0.227   4.465
 5099SOL    HW116196   0.982   0.252   4.385
 5099SOL    HW216197   1.056   0.129   4.462
 5100SOL     OW16198   4.696   5.511   5.989
 5100SOL    HW116199   4.725   5.525   5.895
 5100SOL    HW216200   4.717   5.592   6.043
 5101SOL     OW16201   4.248   5.889   0.842
 5101SOL    HW116202   4.152   5.876   0.817
 5101SOL    HW216203   4.259   5.976   0.891
 5102SOL     OW16204   4.067   5.558   4.080
 5102SOL    HW116205   3.996   5.491   4.104
 5102SOL    HW216206   4.096   5.543   3.986
 5103SOL     OW16207   1.540   0.982   4.334
 5103SOL    HW116208   1.457   1.021   4.373
 5103SOL    HW216209   1.520   0.895   4.291
 5104SOL     OW16210   0.920   0.250   0.945
 5104SOL    HW116211   0.835   0.297   0.970
 5104SOL    HW216212   0.899   0.175   0.882
 5105SOL     OW16213   2.305   2.974   6.665
 5105SOL    HW116214   2.212   3.008   6.679
 5105SOL    HW216215   2.338   3.002   6.575
 5106SOL     OW16216   2.896   0.057   2.385
 5106SOL    HW116217   2.920   0.131   2.323
 5106SOL    HW216218   2.856   0.095   2.469
 5107SOL     OW16219   1.300   0.759   6.243
 5107SOL    HW116220   1.246   0.675   6.238
 5107SOL    HW216221   1.320   0.791   6.150
 5108SOL     OW16222   2.935   3.372   3.601
 5108SOL    HW116223   2.904   3.384   3.695
 5108SOL    HW216224   2.915   3.455   3.548
 5109SOL     OW16225   0.224   1.576   1.866
 5109SOL    HW116226   0.263   1.622   1.786
 5109SOL    HW216227   0.131   1.609   1.881
 5110SOL     OW16228   2.209   5.558   5.034
 5110SOL    HW116229   2.127   5.580   4.981
 5110SOL    HW216230   2.241   5.467   5.007
 5111SOL     OW16231   2.060   1.134   6.807
 5111SOL    HW116232   1.961   1.145   6.799
 5111SOL    HW216233   2.098   1.109   6.718
 5112SOL     OW16234   0.527   0.180   3.481
 5112SOL    HW116235   0.545   0.278   3.475
 5112SOL    HW216236   0.450   0.157   3.421
 5113SOL     OW16237   0.956   0.464   6.391
 5113SOL    HW116238   1.028   0.416   6.341
 5113SOL    HW216239   0.997   0.513   6.469
 5114SOL     OW16240   4.306   5.529   6.658
 5114SOL    HW116241   4.315   5.558   6.563
 5114SOL    HW216242   4.213   5.548   6.690
 5115SOL     OW16243   2.168   3.786   4.870
 5115SOL    HW116244   2.176   3.706   4.929
 5115SOL    HW216245   2.218   3.863   4.910
 5116SOL     OW16246   6.564   3.373   0.905
 5116SOL    HW116247   6.506   3.355   0.825
 5116SOL    HW216248   6.524   3.447   0.959
 5117SOL     OW16249   2.603   4.932   3.381
 5117SOL    HW116250   2.656   4.848   3.385
 5117SOL    HW216251   2.579   4.961   3.474
 5118SOL     OW16252   4.178   6.714   1.760
 5118SOL    HW116253   4.175   6.681   1.665
 5118SOL    HW216254   4.146   6.641   1.821
 5119SOL     OW16255   6.498   0.158   2.378
 5119SOL    HW116256   6.415   0.146   2.433
 5119SOL    HW216257   6.570   0.198   2.435
 5120SOL     OW16258   3.581   1.582   2.413
 5120SOL    HW116259   3.656   1.516   2.418
 5120SOL    HW216260   3.494   1.533   2.404
 5121SOL     OW16261   1.184   3.117   4.123
 5121SOL    HW116262   1.277   3.127   4.160
 5121SOL    HW216263   1.152   3.023   4.137
 5122SOL     OW16264   2.262   5.527   3.330
 5122SOL    HW116265   2.213   5.614   3.333
 5122SOL    HW216266   2.241   5.473   3.411
 5123SOL     OW16267   6.244   3.953   1.951
 5123SOL    HW116268   6.327   3.967   1.897
 5123SOL    HW216269   6.169   3.929   1.890
 5124SOL     OW16270   2.751   6.417   0.824
 5124SOL    HW116271   2.752   6.503   0.875
 5124SOL    HW216272   2.779   6.342   0.883
 5125SOL     OW16273   6.881   2.127   5.900
 5125SOL    HW116274   6.970   2.169   5.915
 5125SOL    HW216275   6.832   2.120   5.987
 5126SOL     OW16276   4.136   2.418   6.781
 5126SOL    HW116277   4.093   2.329   6.796
 5126SOL    HW216278   4.144   2.436   6.683
 5127SOL     OW16279   5.589   3.214   6.372
 5127SOL    HW116280   5.631   3.298   6.337
 5127SOL    HW216281   5.498   3.203   6.331
 5128SOL     OW16282   0.105   6.898   6.491
 5128SOL    HW116283   0.169   6.837   6.444
 5128SOL    HW216284   0.046   6.843   6.551
 5129SOL     OW16285   4.704   2.699   3.454
 5129SOL    HW116286   4.639   2.628   3.429
 5129SOL    HW216287   4.744   2.738   3.370
 5130SOL     OW16288   1.134   6.403   4.851
 5130SOL    HW116289   1.083   6.397   4.766
 5130SOL    HW216290   1.229   6.429   4.832
 5131SOL     OW16291   3.863   4.844   3.812
 5131SOL    HW116292   3.812   4.788   3.746
 5131SOL    HW216293   3.798   4.900   3.865
 5132SOL     OW16294   3.502   1.844   6.584
 5132SOL    HW116295   3.523   1.753   6.620
 5132SOL    HW216296   3.586   1.885   6.546
 5133SOL     OW16297   4.678   4.794   6.790
 5133SOL    HW116298   4.698   4.877   6.842
 5133SOL    HW216299   4.733   4.718   6.825
 5134SOL     OW16300   6.186   5.827   0.307
 5134SOL    HW116301   6.189   5.905   0.369
 5134SOL    HW216302   6.145   5.855   0.220
 5135SOL     OW16303   6.883   2.607   2.132
 5135SOL    HW116304   6.838   2.535   2.185
 5135SOL    HW216305   6.961   2.643   2.184
 5136SOL     OW16306   1.032   1.431   5.193
 5136SOL    HW116307   0.943   1.414   5.236
 5136SOL    HW216308   1.081   1.344   5.183
 5137SOL     OW16309   5.427   0.335   3.226
 5137SOL    HW116310   5.485   0.399   3.276
 5137SOL    HW216311   5.482   0.256   3.197
 5138SOL     OW16312   3.470   2.910   2.480
 5138SOL    HW116313   3.449   2.879   2.387
 5138SOL    HW216314   3.386   2.936   2.526
 5139SOL     OW16315   3.885   0.428   5.256
 5139SOL    HW116316   3.977   0.446   5.292
 5139SOL    HW216317   3.849   0.512   5.214
 5140SOL     OW16318   3.164   3.753   6.766
 5140SOL    HW116319   3.199   3.769   6.674
 5140SOL    HW216320   3.219   3.805   6.832
 5141SOL     OW16321   0.933   2.704   1.498
 5141SOL    HW116322   0.967   2.788   1.540
 5141SOL    HW216323   0.994   2.678   1.422
 5142SOL     OW16324   0.440   0.162   2.490
 5142SOL    HW116325   0.493   0.084   2.457
 5142SOL    HW216326   0.483   0.247   2.457
 5143SOL     OW16327   0.321   5.997   2.521
 5143SOL    HW116328   0.387   5.936   2.477
 5143SOL    HW216329   0.235   5.948   2.537
 5144SOL     OW16330   2.234   3.016   5.287
 5144SOL    HW116331   2.328   3.018   5.252
 5144SOL    HW216332   2.184   3.095   5.254
 5145SOL     OW16333   2.318   5.557   5.735
 5145SOL    HW116334   2.342   5.460   5.727
 5145SOL    HW216335   2.389   5.613   5.692
 5146SOL     OW16336   5.724   5.509   6.594
 5146SOL    HW116337   5.684   5.561   6.669
 5146SOL    HW216338   5.712   5.559   6.508
 5147SOL     OW16339   5.533   1.990   3.565
 5147SOL    HW116340   5.435   1.970   3.560
 5147SOL    HW216341   5.551   2.046   3.645
 5148SOL     OW16342   6.782   1.162   0.105
 5148SOL    HW116343   6.706   1.204   0.056
 5148SOL    HW216344   6.848   1.232   0.130
 5149SOL     OW16345   4.369   5.521   4.037
 5149SOL    HW116346   4.439   5.567   4.090
 5149SOL    HW216347   4.283   5.519   4.089
 5150SOL     OW16348   6.296   0.442   3.976
 5150SOL    HW116349   6.246   0.502   3.913
 5150SOL    HW216350   6.232   0.379   4.021
 5151SOL     OW16351   5.602   5.604   1.876
 5151SOL    HW116352   5.631   5.509   1.889
 5151SOL    HW216353   5.681   5.660   1.853
 5152SOL     OW16354   1.888   1.544   0.271
 5152SOL    HW116355   1.942   1.606   0.327
 5152SOL    HW216356   1.938   1.521   0.188
 5153SOL     OW16357   2.057   1.740   0.401
 5153SOL    HW116358   2.069   1.771   0.496
 5153SOL    HW216359   2.114   1.797   0.341
 5154SOL     OW16360   0.454   2.650   0.813
 5154SOL    HW116361   0.496   2.559   0.815
 5154SOL    HW216362   0.521   2.719   0.842
 5155SOL     OW16363   1.565   1.669   0.075
 5155SOL    HW116364   1.559   1.618   0.160
 5155SOL    HW216365   1.621   1.619   0.009
 5156SOL     OW16366   5.764   5.290   5.389
 5156SOL    HW116367   5.684   5.339   5.353
 5156SOL    HW216368   5.799   5.339   5.469
 5157SOL     OW16369   3.830   0.969   1.495
 5157SOL    HW116370   3.822   0.944   1.591
 5157SOL    HW216371   3.895   0.908   1.450
 5158SOL     OW16372   1.596   2.260   1.757
 5158SOL    HW116373   1.535   2.262   1.836
 5158SOL    HW216374   1.672   2.197   1.774
 5159SOL     OW16375   6.479   3.333   6.137
 5159SOL    HW116376   6.485   3.252   6.196
 5159SOL    HW216377   6.562   3.388   6.149
 5160SOL     OW16378   6.576   6.979   3.687
 5160SOL    HW116379   6.550   6.908   3.622
 5160SOL    HW216380   6.507   0.023   3.686
 5161SOL     OW16381   1.032   1.932   6.472
 5161SOL    HW116382   1.044   1.842   6.514
 5161SOL    HW216383   1.074   2.002   6.531
 5162SOL     OW16384   0.010   0.152   4.705
 5162SOL    HW116385   0.043   0.058   4.716
 5162SOL    HW216386   0.086   0.212   4.681
 5163SOL     OW16387   3.093   6.977   2.193
 5163SOL    HW116388   3.071   7.006   2.286
 5163SOL    HW216389   3.055   0.012   2.127
 5164SOL     OW16390   2.743   3.903   0.161
 5164SOL    HW116391   2.823   3.898   0.221
 5164SOL    HW216392   2.767   3.867   0.071
 5165SOL     OW16393   1.617   5.091   6.323
 5165SOL    HW116394   1.686   5.162   6.336
 5165SOL    HW216395   1.618   5.028   6.401
 5166SOL     OW16396   0.152   4.924   6.831
 5166SOL    HW116397   0.068   4.950   6.783
 5166SOL    HW216398   0.231   4.950   6.776
 5167SOL     OW16399   5.555   3.747   5.440
 5167SOL    HW116400   5.540   3.831   5.388
 5167SOL    HW216401   5.570   3.770   5.536
 5168SOL     OW16402   4.636   2.218   2.877
 5168SOL    HW116403   4.726   2.232   2.918
 5168SOL    HW216404   4.574   2.179   2.946
 5169SOL     OW16405   5.300   5.437   4.508
 5169SOL    HW116406   5.378   5.481   4.464
 5169SOL    HW216407   5.312   5.438   4.607
 5170SOL     OW16408   2.509   4.133   5.942
 5170SOL    HW116409   2.441   4.068   5.974
 5170SOL    HW216410   2.527   4.117   5.845
 5171SOL     OW16411   2.140   6.688   6.086
 5171SOL    HW116412   2.148   6.744   6.168
 5171SOL    HW216413   2.205   6.612   6.090
 5172SOL     OW16414   5.943   5.954   6.233
 5172SOL    HW116415   5.966   6.046   6.200
 5172SOL    HW216416   6.027   5.900   6.239
 5173SOL     OW16417   4.419   5.749   4.445
 5173SOL    HW116418   4.331   5.794   4.454
 5173SOL    HW216419   4.436   5.692   4.526
 5174SOL     OW16420   1.505   6.589   2.657
 5174SOL    HW116421   1.577   6.644   2.700
 5174SOL    HW216422   1.455   6.539   2.727
 5175SOL     OW16423   2.672   2.802   6.756
 5175SOL    HW116424   2.621   2.724   6.721
 5175SOL    HW216425   2.725   2.774   6.836
 5176SOL     OW16426   6.197   6.091   6.386
 5176SOL    HW116427   6.116   6.032   6.375
 5176SOL    HW216428   6.200   6.157   6.311
 5177SOL     OW16429   5.719   6.462   0.571
 5177SOL    HW116430   5.672   6.465   0.658
 5177SOL    HW216431   5.715   6.369   0.534
 5178SOL     OW16432   0.732   4.628   1.764
 5178SOL    HW116433   0.635   4.633   1.740
 5178SOL    HW216434   0.761   4.716   1.802
 5179SOL     OW16435   4.852   5.888   3.204
 5179SOL    HW116436   4.827   5.805   3.254
 5179SOL    HW216437   4.881   5.864   3.111
 5180SOL     OW16438   1.374   4.627   2.704
 5180SOL    HW116439   1.276   4.612   2.687
 5180SOL    HW216440   1.424   4.619   2.618
 5181SOL     OW16441   6.743   1.287   5.965
 5181SOL    HW116442   6.808   1.354   5.999
 5181SOL    HW216443   6.683   1.330   5.897
 5182SOL     OW16444   1.905   6.124   2.535
 5182SOL    HW116445   1.854   6.114   2.620
 5182SOL    HW216446   1.846   6.168   2.466
 5183SOL     OW16447   4.542   2.485   3.339
 5183SOL    HW116448   4.632   2.445   3.321
 5183SOL    HW216449   4.471   2.416   3.322
 5184SOL     OW16450   2.130   1.535   3.597
 5184SOL    HW116451   2.183   1.616   3.623
 5184SOL    HW216452   2.144   1.515   3.500
 5185SOL     OW16453   6.970   0.190   2.499
 5185SOL    HW116454   7.011   0.216   2.411
 5185SOL    HW216455   6.942   0.272   2.548
 5186SOL     OW16456   6.163   2.910   6.623
 5186SOL    HW116457   6.149   2.826   6.677
 5186SOL    HW216458   6.169   2.886   6.526
 5187SOL     OW16459   1.337   4.703   5.525
 5187SOL    HW116460   1.414   4.720   5.464
 5187SOL    HW216461   1.294   4.616   5.501
 5188SOL     OW16462   6.813   0.575   1.988
 5188SOL    HW116463   6.799   0.663   2.033
 5188SOL    HW216464   6.753   0.507   2.029
 5189SOL     OW16465   4.980   6.454   0.014
 5189SOL    HW116466   4.972   6.502   0.101
 5189SOL    HW216467   4.921   6.373   0.016
 5190SOL     OW16468   1.425   4.277   0.583
 5190SOL    HW116469   1.518   4.256   0.556
 5190SOL    HW216470   1.397   4.365   0.542
 5191SOL     OW16471   2.645   4.618   1.735
 5191SOL    HW116472   2.714   4.621   1.808
 5191SOL    HW216473   2.639   4.526   1.698
 5192SOL     OW16474   0.727   4.783   2.787
 5192SOL    HW116475   0.774   4.829   2.712
 5192SOL    HW216476   0.642   4.831   2.808
 5193SOL     OW16477   4.770   0.992   5.489
 5193SOL    HW116478   4.773   0.966   5.392
 5193SOL    HW216479   4.793   0.912   5.545
 5194SOL     OW16480   4.695   1.356   5.162
 5194SOL    HW116481   4.671   1.396   5.251
 5194SOL    HW216482   4.765   1.286   5.175
 5195SOL     OW16483   0.810   0.343   5.510
 5195SOL    HW116484   0.783   0.415   5.574
 5195SOL    HW216485   0.847   0.383   5.427
 5196SOL     OW16486   5.390   6.721   3.090
 5196SOL    HW116487   5.372   6.779   3.011
 5196SOL    HW216488   5.314   6.658   3.104
 5197SOL     OW16489   1.057   2.843   4.902
 5197SOL    HW116490   1.129   2.823   4.968
 5197SOL    HW216491   0.972   2.800   4.932
 5198SOL     OW16492   5.562   4.694   3.020
 5198SOL    HW116493   5.570   4.641   3.104
 5198SOL    HW216494   5.557   4.631   2.942
 5199SOL     OW16495   0.208   4.429   0.803
 5199SOL    HW116496   0.233   4.370   0.726
 5199SOL    HW216497   0.291   4.469   0.843
 5200SOL     OW16498   6.239   3.643   5.158
 5200SOL    HW116499   6.280   3.552   5.166
 5200SOL    HW216500   6.204   3.655   5.065
 5201SOL     OW16501   0.602   6.029   4.412
 5201SOL    HW116502   0.584   6.055   4.317
 5201SOL    HW216503   0.538   6.077   4.472
 5202SOL     OW16504   0.952   4.516   2.355
 5202SOL    HW116505   0.922   4.612   2.346
 5202SOL    HW216506   0.877   4.456   2.328
 5203SOL     OW16507   6.029   3.139   6.755
 5203SOL    HW116508   5.943   3.100   6.787
 5203SOL    HW216509   6.072   3.075   6.691
 5204SOL     OW16510   4.801   5.420   6.474
 5204SOL    HW116511   4.859   5.493   6.437
 5204SOL    HW216512   4.826   5.333   6.431
 5205SOL     OW16513   2.286   7.002   7.026
 5205SOL    HW116514   2.361   6.971   0.055
 5205SOL    HW216515   2.246   6.923   6.978
 5206SOL     OW16516   0.439   4.073   5.058
 5206SOL    HW116517   0.457   4.146   4.993
 5206SOL    HW216518   0.496   4.086   5.140
 5207SOL     OW16519   2.121   4.397   3.664
 5207SOL    HW116520   2.026   4.381   3.641
 5207SOL    HW216521   2.126   4.445   3.752
 5208SOL     OW16522   5.051   0.819   6.846
 5208SOL    HW116523   5.026   0.805   6.750
 5208SOL    HW216524   5.141   0.778   6.862
 5209SOL     OW16525   5.799   5.539   3.332
 5209SOL    HW116526   5.709   5.517   3.367
 5209SOL    HW216527   5.797   5.630   3.290
 5210SOL     OW16528   5.050   4.104   2.895
 5210SOL    HW116529   5.023   4.115   2.991
 5210SOL    HW216530   5.070   4.008   2.877
 5211SOL     OW16531   3.148   4.052   2.175
 5211SOL    HW116532   3.115   4.086   2.088
 5211SOL    HW216533   3.200   4.123   2.222
 5212SOL     OW16534   1.174   0.506   0.168
 5212SOL    HW116535   1.186   0.542   0.075
 5212SOL    HW216536   1.124   0.419   0.164
 5213SOL     OW16537   4.489   2.431   6.131
 5213SOL    HW116538   4.564   2.444   6.066
 5213SOL    HW216539   4.406   2.472   6.094
 5214SOL     OW16540   5.154   1.589   0.115
 5214SOL    HW116541   5.093   1.509   0.113
 5214SOL    HW216542   5.246   1.560   0.141
 5215SOL     OW16543   5.529   5.098   3.176
 5215SOL    HW116544   5.603   5.147   3.130
 5215SOL    HW216545   5.477   5.163   3.232
 5216SOL     OW16546   4.690   5.690   1.934
 5216SOL    HW116547   4.593   5.715   1.934
 5216SOL    HW216548   4.728   5.704   1.843
 5217SOL     OW16549   2.938   4.861   3.272
 5217SOL    HW116550   2.937   4.932   3.343
 5217SOL    HW216551   2.864   4.797   3.289
 5218SOL     OW16552   1.921   0.167   4.468
 5218SOL    HW116553   1.846   0.213   4.515
 5218SOL    HW216554   2.003   0.171   4.525
 5219SOL     OW16555   2.338   6.945   0.848
 5219SOL    HW116556   2.376   6.981   0.763
 5219SOL    HW216557   2.404   6.953   0.921
 5220SOL     OW16558   0.805   6.845   1.853
 5220SOL    HW116559   0.901   6.827   1.832
 5220SOL    HW216560   0.749   6.770   1.817
 5221SOL     OW16561   4.488   1.281   6.195
 5221SOL    HW116562   4.540   1.245   6.272
 5221SOL    HW216563   4.390   1.272   6.213
 5222SOL     OW16564   0.814   0.258   3.014
 5222SOL    HW116565   0.786   0.163   3.028
 5222SOL    HW216566   0.734   0.317   3.010
 5223SOL     OW16567   4.906   6.955   0.865
 5223SOL    HW116568   4.961   6.929   0.786
 5223SOL    HW216569   4.914   0.025   0.880
 5224SOL     OW16570   5.242   1.620   3.142
 5224SOL    HW116571   5.206   1.632   3.050
 5224SOL    HW216572   5.221   1.528   3.175
 5225SOL     OW16573   6.493   6.699   5.542
 5225SOL    HW116574   6.468   6.685   5.446
 5225SOL    HW216575   6.568   6.637   5.566
 5226SOL     OW16576   2.939   6.306   4.127
 5226SOL    HW116577   2.927   6.241   4.051
 5226SOL    HW216578   3.019   6.364   4.109
 5227SOL     OW16579   5.130   3.357   3.679
 5227SOL    HW116580   5.140   3.422   3.755
 5227SOL    HW216581   5.099   3.269   3.715
 5228SOL     OW16582   5.176   0.880   1.513
 5228SOL    HW116583   5.240   0.805   1.496
 5228SOL    HW216584   5.089   0.843   1.545
 5229SOL     OW16585   1.281   3.927   4.083
 5229SOL    HW116586   1.267   3.977   3.997
 5229SOL    HW216587   1.267   3.829   4.067
 5230SOL     OW16588   1.123   6.302   6.135
 5230SOL    HW116589   1.112   6.348   6.047
 5230SOL    HW216590   1.077   6.355   6.206
 5231SOL     OW16591   3.784   3.353   2.798
 5231SOL    HW116592   3.726   3.274   2.781
 5231SOL    HW216593   3.746   3.407   2.873
 5232SOL     OW16594   4.749   2.942   4.929
 5232SOL    HW116595   4.821   2.874   4.939
 5232SOL    HW216596   4.769   3.000   4.850
 5233SOL     OW16597   0.633   0.461   3.002
 5233SOL    HW116598   0.595   0.515   3.078
 5233SOL    HW216599   0.682   0.521   2.939
 5234SOL     OW16600   4.131   5.339   1.594
 5234SOL    HW116601   4.082   5.407   1.539
 5234SOL    HW216602   4.090   5.249   1.581
 5235SOL     OW16603   0.942   3.675   1.079
 5235SOL    HW116604   0.892   3.634   1.155
 5235SOL    HW216605   0.928   3.621   0.996
 5236SOL     OW16606   5.590   3.641   1.310
 5236SOL    HW116607   5.541   3.568   1.358
 5236SOL    HW216608   5.537   3.726   1.316
 5237SOL     OW16609   1.922   1.681   3.991
 5237SOL    HW116610   1.928   1.773   4.030
 5237SOL    HW216611   1.905   1.615   4.065
 5238SOL     OW16612   2.120   3.614   1.264
 5238SOL    HW116613   2.104   3.695   1.320
 5238SOL    HW216614   2.143   3.537   1.324
 5239SOL     OW16615   3.217   3.277   4.937
 5239SOL    HW116616   3.303   3.248   4.896
 5239SOL    HW216617   3.141   3.227   4.894
 5240SOL     OW16618   3.486   1.689   4.836
 5240SOL    HW116619   3.412   1.717   4.774
 5240SOL    HW216620   3.472   1.594   4.863
 5241SOL     OW16621   2.990   5.911   5.299
 5241SOL    HW116622   2.938   5.829   5.278
 5241SOL    HW216623   3.039   5.942   5.217
 5242SOL     OW16624   4.486   0.647   5.328
 5242SOL    HW116625   4.450   0.638   5.236
 5242SOL    HW216626   4.584   0.628   5.327
 5243SOL     OW16627   0.581   4.181   0.293
 5243SOL    HW116628   0.630   4.245   0.234
 5243SOL    HW216629   0.632   4.095   0.299
 5244SOL     OW16630   6.228   3.392   0.227
 5244SOL    HW116631   6.310   3.353   0.268
 5244SOL    HW216632   6.147   3.342   0.259
 5245SOL     OW16633   4.594   4.822   6.522
 5245SOL    HW116634   4.637   4.834   6.612
 5245SOL    HW216635   4.610   4.904   6.467
 5246SOL     OW16636   1.251   2.895   2.911
 5246SOL    HW116637   1.226   2.945   2.995
 5246SOL    HW216638   1.349   2.875   2.913
 5247SOL     OW16639   0.015   4.617   0.822
 5247SOL    HW116640   0.096   4.562   0.800
 5247SOL    HW216641   6.967   4.586   0.767
 5248SOL     OW16642   4.893   7.024   0.452
 5248SOL    HW116643   4.850   0.085   0.455
 5248SOL    HW216644   4.992   0.006   0.439
 5249SOL     OW16645   1.261   5.426   6.166
 5249SOL    HW116646   1.272   5.330   6.189
 5249SOL    HW216647   1.274   5.482   6.247
 5250SOL     OW16648   1.186   1.939   5.826
 5250SOL    HW116649   1.181   2.036   5.851
 5250SOL    HW216650   1.265   1.924   5.767
 5251SOL     OW16651   1.029   3.249   1.102
 5251SOL    HW116652   0.949   3.308   1.093
 5251SOL    HW216653   1.001   3.153   1.090
 5252SOL     OW16654   4.746   6.656   1.201
 5252SOL    HW116655   4.711   6.590   1.268
 5252SOL    HW216656   4.817   6.712   1.244
 5253SOL     OW16657   5.965   2.480   3.297
 5253SOL    HW116658   6.013   2.526   3.372
 5253SOL    HW216659   6.014   2.496   3.211
 5254SOL     OW16660   4.829   0.541   4.274
 5254SOL    HW116661   4.924   0.548   4.242
 5254SOL    HW216662   4.829   0.510   4.369
 5255SOL     OW16663   3.413   6.282   4.489
 5255SOL    HW116664   3.331   6.247   4.444
 5255SOL    HW216665   3.387   6.342   4.564
 5256SOL     OW16666   5.419   6.801   2.240
 5256SOL    HW116667   5.321   6.792   2.226
 5256SOL    HW216668   5.463   6.834   2.156
 5257SOL     OW16669   3.749   0.791   3.398
 5257SOL    HW116670   3.806   0.725   3.349
 5257SOL    HW216671   3.789   0.809   3.488
 5258SOL     OW16672   5.632   1.855   1.630
 5258SOL    HW116673   5.611   1.925   1.699
 5258SOL    HW216674   5.550   1.803   1.609
 5259SOL     OW16675   5.492   4.412   1.623
 5259SOL    HW116676   5.396   4.436   1.635
 5259SOL    HW216677   5.549   4.493   1.640
 5260SOL     OW16678   4.937   3.148   2.087
 5260SOL    HW116679   4.857   3.112   2.040
 5260SOL    HW216680   4.998   3.072   2.111
 5261SOL     OW16681   2.653   2.468   4.801
 5261SOL    HW116682   2.604   2.521   4.869
 5261SOL    HW216683   2.742   2.441   4.838
 5262SOL     OW16684   2.267   0.051   2.212
 5262SOL    HW116685   2.309   0.044   2.303
 5262SOL    HW216686   2.298   7.003   2.155
 5263SOL     OW16687   0.347   6.437   0.089
 5263SOL    HW116688   0.300   6.373   0.150
 5263SOL    HW216689   0.328   6.412   7.023
 5264SOL     OW16690   0.951   1.794   1.025
 5264SOL    HW116691   1.024   1.817   1.090
 5264SOL    HW216692   0.989   1.789   0.933
 5265SOL     OW16693   5.556   5.085   2.649
 5265SOL    HW116694   5.596   5.098   2.740
 5265SOL    HW216695   5.581   4.995   2.613
 5266SOL     OW16696   0.758   6.833   1.363
 5266SOL    HW116697   0.795   6.787   1.282
 5266SOL    HW216698   0.829   6.841   1.432
 5267SOL     OW16699   4.597   3.661   5.384
 5267SOL    HW116700   4.675   3.681   5.444
 5267SOL    HW216701   4.628   3.660   5.289
 5268SOL     OW16702   6.117   5.348   5.236
 5268SOL    HW116703   6.080   5.354   5.144
 5268SOL    HW216704   6.085   5.264   5.280
 5269SOL     OW16705   2.196   4.454   5.663
 5269SOL    HW116706   2.243   4.368   5.681
 5269SOL    HW216707   2.191   4.508   5.747
 5270SOL     OW16708   6.031   2.444   2.562
 5270SOL    HW116709   6.095   2.402   2.498
 5270SOL    HW216710   6.073   2.450   2.653
 5271SOL     OW16711   5.083   4.648   5.263
 5271SOL    HW116712   5.165   4.625   5.211
 5271SOL    HW216713   5.107   4.709   5.338
 5272SOL     OW16714   1.796   0.950   4.139
 5272SOL    HW116715   1.722   0.975   4.201
 5272SOL    HW216716   1.883   0.983   4.176
 5273SOL     OW16717   0.311   0.361   4.636
 5273SOL    HW116718   0.321   0.322   4.728
 5273SOL    HW216719   0.282   0.456   4.643
 5274SOL     OW16720   0.276   5.966   4.330
 5274SOL    HW116721   0.200   5.962   4.395
 5274SOL    HW216722   0.303   5.873   4.305
 5275SOL     OW16723   1.667   6.631   6.833
 5275SOL    HW116724   1.572   6.615   6.862
 5275SOL    HW216725   1.667   6.665   6.739
 5276SOL     OW16726   0.052   0.024   0.475
 5276SOL    HW116727   0.003   0.090   0.532
 5276SOL    HW216728   0.129   0.069   0.430
 5277SOL     OW16729   1.231   1.520   2.147
 5277SOL    HW116730   1.215   1.588   2.074
 5277SOL    HW216731   1.329   1.504   2.156
 5278SOL     OW16732   0.457   3.820   6.440
 5278SOL    HW116733   0.409   3.905   6.462
 5278SOL    HW216734   0.416   3.778   6.359
 5279SOL     OW16735   2.292   6.227   6.537
 5279SOL    HW116736   2.356   6.175   6.595
 5279SOL    HW216737   2.198   6.205   6.563
 5280SOL     OW16738   4.900   6.797   5.162
 5280SOL    HW116739   4.818   6.827   5.114
 5280SOL    HW216740   4.965   6.872   5.168
 5281SOL     OW16741   2.444   7.005   5.350
 5281SOL    HW116742   2.523   6.944   5.358
 5281SOL    HW216743   2.459   0.057   5.407
 5282SOL     OW16744   0.798   0.050   0.775
 5282SOL    HW116745   0.770   7.015   0.846
 5282SOL    HW216746   0.764   0.019   0.686
 5283SOL     OW16747   0.981   0.870   3.534
 5283SOL    HW116748   0.981   0.794   3.470
 5283SOL    HW216749   1.070   0.876   3.579
 5284SOL     OW16750   4.675   3.160   1.620
 5284SOL    HW116751   4.639   3.121   1.705
 5284SOL    HW216752   4.680   3.090   1.549
 5285SOL     OW16753   1.072   1.742   3.924
 5285SOL    HW116754   1.022   1.828   3.917
 5285SOL    HW216755   1.153   1.755   3.981
 5286SOL     OW16756   6.206   3.330   1.573
 5286SOL    HW116757   6.155   3.251   1.538
 5286SOL    HW216758   6.215   3.398   1.501
 5287SOL     OW16759   1.425   4.997   1.097
 5287SOL    HW116760   1.493   4.938   1.053
 5287SOL    HW216761   1.380   5.053   1.029
 5288SOL     OW16762   4.053   0.511   1.199
 5288SOL    HW116763   4.009   0.422   1.212
 5288SOL    HW216764   4.080   0.521   1.103
 5289SOL     OW16765   2.402   4.409   5.975
 5289SOL    HW116766   2.408   4.323   5.925
 5289SOL    HW216767   2.308   4.422   6.008
 5290SOL     OW16768   2.023   3.479   4.863
 5290SOL    HW116769   1.973   3.532   4.794
 5290SOL    HW216770   2.063   3.542   4.930
 5291SOL     OW16771   3.411   4.987   4.181
 5291SOL    HW116772   3.428   4.965   4.277
 5291SOL    HW216773   3.317   4.962   4.157
 5292SOL     OW16774   0.501   3.559   5.321
 5292SOL    HW116775   0.502   3.629   5.250
 5292SOL    HW216776   0.563   3.584   5.395
 5293SOL     OW16777   2.366   7.013   4.783
 5293SOL    HW116778   2.456   6.971   4.794
 5293SOL    HW216779   2.301   6.945   4.749
 5294SOL     OW16780   4.851   0.246   5.294
 5294SOL    HW116781   4.925   0.301   5.254
 5294SOL    HW216782   4.827   0.172   5.230
 5295SOL     OW16783   2.334   0.896   2.691
 5295SOL    HW116784   2.349   0.889   2.592
 5295SOL    HW216785   2.416   0.932   2.735
 5296SOL     OW16786   4.604   4.677   1.769
 5296SOL    HW116787   4.631   4.625   1.688
 5296SOL    HW216788   4.639   4.770   1.762
 5297SOL     OW16789   2.729   5.480   6.198
 5297SOL    HW116790   2.685   5.541   6.132
 5297SOL    HW216791   2.684   5.391   6.196
 5298SOL     OW16792   1.982   1.107   0.655
 5298SOL    HW116793   1.966   1.060   0.568
 5298SOL    HW216794   1.926   1.190   0.659
 5299SOL     OW16795   2.835   1.452   1.643
 5299SOL    HW116796   2.836   1.358   1.675
 5299SOL    HW216797   2.744   1.475   1.609
 5300SOL     OW16798   2.868   4.738   6.633
 5300SOL    HW116799   2.886   4.789   6.549
 5300SOL    HW216800   2.922   4.653   6.633
 5301SOL     OW16801   6.179   0.074   6.075
 5301SOL    HW116802   6.256   0.082   6.011
 5301SOL    HW216803   6.102   0.032   6.028
 5302SOL     OW16804   5.707   5.860   2.715
 5302SOL    HW116805   5.742   5.941   2.763
 5302SOL    HW216806   5.784   5.807   2.678
 5303SOL     OW16807   0.816   5.400   5.857
 5303SOL    HW116808   0.850   5.459   5.931
 5303SOL    HW216809   0.883   5.327   5.839
 5304SOL     OW16810   0.041   0.573   2.825
 5304SOL    HW116811   0.014   0.482   2.793
 5304SOL    HW216812   0.080   0.566   2.917
 5305SOL     OW16813   0.016   4.900   3.503
 5305SOL    HW116814   0.104   4.943   3.484
 5305SOL    HW216815   6.973   4.969   3.500
 5306SOL     OW16816   0.361   3.080   5.912
 5306SOL    HW116817   0.412   3.110   5.831
 5306SOL    HW216818   0.266   3.060   5.886
 5307SOL     OW16819   6.875   1.748   1.513
 5307SOL    HW116820   6.942   1.778   1.581
 5307SOL    HW216821   6.839   1.658   1.540
 5308SOL     OW16822   1.511   4.083   3.401
 5308SOL    HW116823   1.582   4.074   3.331
 5308SOL    HW216824   1.460   4.168   3.387
 5309SOL     OW16825   6.267   5.132   3.209
 5309SOL    HW116826   6.342   5.113   3.273
 5309SOL    HW216827   6.282   5.223   3.168
 5310SOL     OW16828   5.606   2.450   2.502
 5310SOL    HW116829   5.601   2.510   2.422
 5310SOL    HW216830   5.690   2.395   2.497
 5311SOL     OW16831   6.078   0.215   0.276
 5311SOL    HW116832   6.025   0.287   0.231
 5311SOL    HW216833   6.107   0.147   0.209
 5312SOL     OW16834   6.858   6.644   0.100
 5312SOL    HW116835   6.811   6.578   0.160
 5312SOL    HW216836   6.947   6.666   0.140
 5313SOL     OW16837   0.855   6.346   5.746
 5313SOL    HW116838   0.824   6.255   5.716
 5313SOL    HW216839   0.950   6.339   5.777
 5314SOL     OW16840   6.088   0.695   1.830
 5314SOL    HW116841   6.008   0.652   1.870
 5314SOL    HW216842   6.164   0.692   1.896
 5315SOL     OW16843   4.661   1.568   4.289
 5315SOL    HW116844   4.711   1.645   4.249
 5315SOL    HW216845   4.724   1.491   4.301
 5316SOL     OW16846   0.772   2.190   4.910
 5316SOL    HW116847   0.817   2.182   4.821
 5316SOL    HW216848   0.839   2.176   4.982
 5317SOL     OW16849   5.969   2.785   6.846
 5317SOL    HW116850   6.009   2.787   6.938
 5317SOL    HW216851   5.917   2.869   6.831
 5318SOL     OW16852   6.759   3.848   6.824
 5318SOL    HW116853   6.690   3.916   6.849
 5318SOL    HW216854   6.827   3.890   6.764
 5319SOL     OW16855   4.065   6.971   1.927
 5319SOL    HW116856   3.981   6.931   1.889
 5319SOL    HW216857   4.144   6.938   1.875
 5320SOL     OW16858   4.150   5.744   1.148
 5320SOL    HW116859   4.146   5.668   1.083
 5320SOL    HW216860   4.062   5.790   1.151
 5321SOL     OW16861   1.858   4.398   5.291
 5321SOL    HW116862   1.852   4.491   5.324
 5321SOL    HW216863   1.910   4.342   5.355
 5322SOL     OW16864   5.182   6.740   2.008
 5322SOL    HW116865   5.145   6.710   2.096
 5322SOL    HW216866   5.115   6.722   1.937
 5323SOL     OW16867   4.329   0.520   5.973
 5323SOL    HW116868   4.332   0.539   5.875
 5323SOL    HW216869   4.414   0.552   6.016
 5324SOL     OW16870   1.695   1.604   1.030
 5324SOL    HW116871   1.795   1.598   1.038
 5324SOL    HW216872   1.669   1.582   0.936
 5325SOL     OW16873   2.345   1.661   5.016
 5325SOL    HW116874   2.418   1.629   5.076
 5325SOL    HW216875   2.352   1.760   5.004
 5326SOL     OW16876   6.280   6.546   2.440
 5326SOL    HW116877   6.326   6.544   2.528
 5326SOL    HW216878   6.204   6.611   2.443
 5327SOL     OW16879   6.859   3.073   5.365
 5327SOL    HW116880   6.912   3.023   5.296
 5327SOL    HW216881   6.769   3.031   5.375
 5328SOL     OW16882   4.622   5.488   0.315
 5328SOL    HW116883   4.538   5.455   0.273
 5328SOL    HW216884   4.698   5.430   0.286
 5329SOL     OW16885   1.046   6.741   6.405
 5329SOL    HW116886   1.060   6.778   6.313
 5329SOL    HW216887   1.021   6.645   6.398
 5330SOL     OW16888   2.404   4.644   1.317
 5330SOL    HW116889   2.311   4.663   1.285
 5330SOL    HW216890   2.430   4.713   1.384
 5331SOL     OW16891   6.231   0.576   6.591
 5331SOL    HW116892   6.308   0.555   6.653
 5331SOL    HW216893   6.155   0.613   6.644
 5332SOL     OW16894   1.009   4.776   1.989
 5332SOL    HW116895   1.070   4.815   2.058
 5332SOL    HW216896   0.993   4.679   2.010
 5333SOL     OW16897   0.850   6.359   4.204
 5333SOL    HW116898   0.811   6.397   4.288
 5333SOL    HW216899   0.869   6.261   4.218
 5334SOL     OW16900   3.558   0.284   4.518
 5334SOL    HW116901   3.566   0.284   4.618
 5334SOL    HW216902   3.605   0.203   4.481
 5335SOL     OW16903   6.629   5.466   6.955
 5335SOL    HW116904   6.593   5.507   0.010
 5335SOL    HW216905   6.664   5.538   6.895
 5336SOL     OW16906   0.929   3.658   2.011
 5336SOL    HW116907   0.886   3.711   1.938
 5336SOL    HW216908   0.915   3.705   2.098
 5337SOL     OW16909   5.234   4.286   1.497
 5337SOL    HW116910   5.221   4.263   1.594
 5337SOL    HW216911   5.255   4.383   1.489
 5338SOL     OW16912   6.374   1.576   6.785
 5338SOL    HW116913   6.325   1.563   6.699
 5338SOL    HW216914   6.325   1.529   6.858
 5339SOL     OW16915   6.178   0.606   2.775
 5339SOL    HW116916   6.142   0.611   2.868
 5339SOL    HW216917   6.276   0.630   2.776
 5340SOL     OW16918   5.427   2.598   5.765
 5340SOL    HW116919   5.507   2.555   5.722
 5340SOL    HW216920   5.427   2.577   5.863
 5341SOL     OW16921   4.194   0.078   0.273
 5341SOL    HW116922   4.207   7.008   0.279
 5341SOL    HW216923   4.135   0.108   0.347
 5342SOL     OW16924   2.877   0.853   6.134
 5342SOL    HW116925   2.937   0.930   6.155
 5342SOL    HW216926   2.919   0.796   6.062
 5343SOL     OW16927   3.284   3.683   2.046
 5343SOL    HW116928   3.225   3.757   2.014
 5343SOL    HW216929   3.337   3.647   1.969
 5344SOL     OW16930   2.534   2.209   3.033
 5344SOL    HW116931   2.620   2.158   3.037
 5344SOL    HW216932   2.499   2.222   3.126
 5345SOL     OW16933   4.396   6.898   2.056
 5345SOL    HW116934   4.488   6.863   2.075
 5345SOL    HW216935   4.385   6.912   1.958
 5346SOL     OW16936   1.870   6.252   3.298
 5346SOL    HW116937   1.790   6.308   3.319
 5346SOL    HW216938   1.928   6.299   3.232
 5347SOL     OW16939   7.026   1.957   2.425
 5347SOL    HW116940   7.015   1.929   2.330
 5347SOL    HW216941   7.017   2.057   2.431
 5348SOL     OW16942   6.907   0.838   0.459
 5348SOL    HW116943   6.972   0.862   0.531
 5348SOL    HW216944   6.864   0.922   0.424
 5349SOL     OW16945   6.426   0.492   1.627
 5349SOL    HW116946   6.472   0.580   1.637
 5349SOL    HW216947   6.361   0.498   1.550
 5350SOL     OW16948   2.635   0.825   6.898
 5350SOL    HW116949   2.676   0.818   6.807
 5350SOL    HW216950   2.550   0.876   6.893
 5351SOL     OW16951   4.161   1.034   1.970
 5351SOL    HW116952   4.065   1.012   1.988
 5351SOL    HW216953   4.212   0.950   1.952
 5352SOL     OW16954   2.806   5.957   3.461
 5352SOL    HW116955   2.860   5.901   3.524
 5352SOL    HW216956   2.865   6.025   3.418
 5353SOL     OW16957   6.015   0.090   5.507
 5353SOL    HW116958   6.043   7.023   5.500
 5353SOL    HW216959   6.049   0.128   5.592
 5354SOL     OW16960   1.092   4.099   1.051
 5354SOL    HW116961   0.994   4.105   1.069
 5354SOL    HW216962   1.120   4.003   1.052
 5355SOL     OW16963   4.315   1.809   5.229
 5355SOL    HW116964   4.346   1.714   5.242
 5355SOL    HW216965   4.220   1.809   5.197
 5356SOL     OW16966   5.931   3.661   1.305
 5356SOL    HW116967   5.925   3.675   1.404
 5356SOL    HW216968   5.929   3.563   1.286
 5357SOL     OW16969   3.480   6.925   0.551
 5357SOL    HW116970   3.564   6.948   0.600
 5357SOL    HW216971   3.418   6.876   0.612
 5358SOL     OW16972   4.311   3.028   1.442
 5358SOL    HW116973   4.370   2.989   1.513
 5358SOL    HW216974   4.248   2.957   1.410
 5359SOL     OW16975   2.556   0.226   6.659
 5359SOL    HW116976   2.546   0.263   6.567
 5359SOL    HW216977   2.514   0.289   6.725
 5360SOL     OW16978   3.989   6.934   6.832
 5360SOL    HW116979   3.996   6.840   6.865
 5360SOL    HW216980   4.028   6.997   6.900
 5361SOL     OW16981   1.982   0.546   5.939
 5361SOL    HW116982   2.022   0.511   6.023
 5361SOL    HW216983   2.050   0.543   5.866
 5362SOL     OW16984   4.294   5.815   3.777
 5362SOL    HW116985   4.383   5.846   3.745
 5362SOL    HW216986   4.260   5.879   3.846
 5363SOL     OW16987   0.485   5.035   5.749
 5363SOL    HW116988   0.524   5.011   5.838
 5363SOL    HW216989   0.418   4.966   5.723
 5364SOL     OW16990   0.523   6.236   6.904
 5364SOL    HW116991   0.569   6.160   6.857
 5364SOL    HW216992   0.433   6.206   6.935
 5365SOL     OW16993   4.024   2.273   6.408
 5365SOL    HW116994   3.935   2.317   6.423
 5365SOL    HW216995   4.032   2.246   6.312
 5366SOL     OW16996   3.635   4.185   6.856
 5366SOL    HW116997   3.656   4.161   6.951
 5366SOL    HW216998   3.623   4.102   6.802
 5367SOL     OW16999   0.442   4.529   0.919
 5367SOL    HW117000   0.463   4.609   0.976
 5367SOL    HW217001   0.523   4.471   0.911
 5368SOL     OW17002   6.340   0.805   3.870
 5368SOL    HW117003   6.371   0.810   3.775
 5368SOL    HW217004   6.373   0.884   3.921
 5369SOL     OW17005   1.422   4.065   2.647
 5369SOL    HW117006   1.404   3.998   2.719
 5369SOL    HW217007   1.350   4.060   2.578
 5370SOL     OW17008   3.705   2.911   1.596
 5370SOL    HW117009   3.774   2.938   1.529
 5370SOL    HW217010   3.701   2.811   1.601
 5371SOL     OW17011   1.498   4.050   5.406
 5371SOL    HW117012   1.466   4.004   5.488
 5371SOL    HW217013   1.555   3.987   5.352
 5372SOL     OW17014   2.613   5.238   3.092
 5372SOL    HW117015   2.567   5.315   3.047
 5372SOL    HW217016   2.546   5.184   3.142
 5373SOL     OW17017   2.556   4.971   3.657
 5373SOL    HW117018   2.577   4.905   3.730
 5373SOL    HW217019   2.472   5.021   3.679
 5374SOL     OW17020   3.309   2.319   0.510
 5374SOL    HW117021   3.356   2.391   0.459
 5374SOL    HW217022   3.347   2.230   0.484
 5375SOL     OW17023   1.753   4.674   4.323
 5375SOL    HW117024   1.736   4.693   4.226
 5375SOL    HW217025   1.847   4.644   4.335
 5376SOL     OW17026   2.712   4.154   0.255
 5376SOL    HW117027   2.697   4.141   0.353
 5376SOL    HW217028   2.710   4.066   0.208
 5377SOL     OW17029   0.661   1.475   1.336
 5377SOL    HW117030   0.739   1.498   1.277
 5377SOL    HW217031   0.637   1.379   1.323
 5378SOL     OW17032   4.642   6.852   0.082
 5378SOL    HW117033   4.569   6.893   0.028
 5378SOL    HW217034   4.605   6.825   0.172
 5379SOL     OW17035   6.776   6.578   1.797
 5379SOL    HW117036   6.821   6.649   1.742
 5379SOL    HW217037   6.745   6.618   1.883
 5380SOL     OW17038   2.557   0.348   4.487
 5380SOL    HW117039   2.502   0.348   4.571
 5380SOL    HW217040   2.625   0.275   4.492
 5381SOL     OW17041   5.221   3.909   1.375
 5381SOL    HW117042   5.160   3.924   1.297
 5381SOL    HW217043   5.225   3.811   1.395
 5382SOL     OW17044   1.551   0.333   1.863
 5382SOL    HW117045   1.589   0.346   1.955
 5382SOL    HW217046   1.546   0.235   1.843
 5383SOL     OW17047   2.368   1.912   4.919
 5383SOL    HW117048   2.286   1.947   4.964
 5383SOL    HW217049   2.423   1.989   4.885
 5384SOL     OW17050   6.147   6.910   4.038
 5384SOL    HW117051   6.067   6.882   4.090
 5384SOL    HW217052   6.163   7.008   4.050
 5385SOL     OW17053   3.014   3.845   2.284
 5385SOL    HW117054   3.066   3.920   2.243
 5385SOL    HW217055   2.940   3.882   2.340
 5386SOL     OW17056   5.473   0.184   5.594
 5386SOL    HW117057   5.468   0.198   5.693
 5386SOL    HW217058   5.542   0.115   5.573
 5387SOL     OW17059   3.252   5.319   1.660
 5387SOL    HW117060   3.170   5.366   1.627
 5387SOL    HW217061   3.283   5.255   1.591
 5388SOL     OW17062   5.896   6.469   2.594
 5388SOL    HW117063   5.881   6.426   2.505
 5388SOL    HW217064   5.872   6.566   2.589
 5389SOL     OW17065   4.780   2.140   1.200
 5389SOL    HW117066   4.849   2.185   1.257
 5389SOL    HW217067   4.817   2.127   1.108
 5390SOL     OW17068   6.074   4.663   5.972
 5390SOL    HW117069   6.014   4.744   5.971
 5390SOL    HW217070   6.018   4.581   5.959
 5391SOL     OW17071   2.887   3.630   0.047
 5391SOL    HW117072   2.862   3.723   0.019
 5391SOL    HW217073   2.986   3.620   0.044
 5392SOL     OW17074   6.261   2.957   2.583
 5392SOL    HW117075   6.232   3.039   2.533
 5392SOL    HW217076   6.228   2.876   2.534
 5393SOL     OW17077   6.056   6.803   6.405
 5393SOL    HW117078   5.974   6.766   6.361
 5393SOL    HW217079   6.133   6.799   6.342
 5394SOL     OW17080   1.286   4.316   5.739
 5394SOL    HW117081   1.244   4.299   5.651
 5394SOL    HW217082   1.364   4.379   5.727
 5395SOL     OW17083   4.695   0.828   0.148
 5395SOL    HW117084   4.617   0.857   0.092
 5395SOL    HW217085   4.724   0.737   0.120
 5396SOL     OW17086   5.227   3.081   2.314
 5396SOL    HW117087   5.248   3.047   2.222
 5396SOL    HW217088   5.229   3.005   2.379
 5397SOL     OW17089   0.355   2.933   1.439
 5397SOL    HW117090   0.419   2.890   1.503
 5397SOL    HW217091   0.403   3.004   1.387
 5398SOL     OW17092   3.672   3.202   2.003
 5398SOL    HW117093   3.658   3.222   2.100
 5398SOL    HW217094   3.751   3.253   1.969
 5399SOL     OW17095   1.281   6.116   0.050
 5399SOL    HW117096   1.320   6.193   0.099
 5399SOL    HW217097   1.181   6.120   0.054
 5400SOL     OW17098   2.402   4.412   6.803
 5400SOL    HW117099   2.466   4.487   6.791
 5400SOL    HW217100   2.398   4.358   6.719
 5401SOL     OW17101   6.605   2.597   1.576
 5401SOL    HW117102   6.544   2.674   1.554
 5401SOL    HW217103   6.557   2.533   1.635
 5402SOL     OW17104   1.593   6.148   2.483
 5402SOL    HW117105   1.610   6.135   2.581
 5402SOL    HW217106   1.541   6.232   2.469
 5403SOL     OW17107   6.148   3.476   6.790
 5403SOL    HW117108   6.231   3.423   6.809
 5403SOL    HW217109   6.083   3.463   6.865
 5404SOL     OW17110   1.795   3.020   2.901
 5404SOL    HW117111   1.836   3.101   2.859
 5404SOL    HW217112   1.755   3.045   2.989
 5405SOL     OW17113   6.549   4.017   6.262
 5405SOL    HW117114   6.464   3.999   6.212
 5405SOL    HW217115   6.536   3.995   6.358
 5406SOL     OW17116   1.575   7.015   4.907
 5406SOL    HW117117   1.500   6.986   4.966
 5406SOL    HW217118   1.632   6.936   4.883
 5407SOL     OW17119   3.980   3.365   6.743
 5407SOL    HW117120   4.034   3.302   6.798
 5407SOL    HW217121   4.040   3.433   6.701
 5408SOL     OW17122   3.149   1.375   0.123
 5408SOL    HW117123   3.160   1.277   0.107
 5408SOL    HW217124   3.193   1.426   0.050
 5409SOL     OW17125   3.737   0.639   2.387
 5409SOL    HW117126   3.687   0.718   2.353
 5409SOL    HW217127   3.835   0.651   2.368
 5410SOL     OW17128   1.877   2.432   2.350
 5410SOL    HW117129   1.877   2.413   2.448
 5410SOL    HW217130   1.904   2.527   2.335
 5411SOL     OW17131   1.046   5.210   4.631
 5411SOL    HW117132   1.101   5.163   4.699
 5411SOL    HW217133   0.959   5.239   4.672
 5412SOL     OW17134   6.048   3.117   1.481
 5412SOL    HW117135   5.983   3.138   1.555
 5412SOL    HW217136   6.062   3.018   1.476
 5413SOL     OW17137   2.617   0.262   2.223
 5413SOL    HW117138   2.655   0.345   2.264
 5413SOL    HW217139   2.585   0.201   2.295
 5414SOL     OW17140   4.362   0.841   5.887
 5414SOL    HW117141   4.283   0.804   5.935
 5414SOL    HW217142   4.435   0.860   5.953
 5415SOL     OW17143   5.676   4.466   1.882
 5415SOL    HW117144   5.697   4.397   1.813
 5415SOL    HW217145   5.623   4.424   1.955
 5416SOL     OW17146   4.567   5.320   4.090
 5416SOL    HW117147   4.636   5.375   4.137
 5416SOL    HW217148   4.492   5.379   4.060
 5417SOL     OW17149   3.705   6.974   5.123
 5417SOL    HW117150   3.606   6.969   5.138
 5417SOL    HW217151   3.753   6.927   5.198
 5418SOL     OW17152   3.521   0.097   2.808
 5418SOL    HW117153   3.549   0.148   2.890
 5418SOL    HW217154   3.433   0.053   2.825
 5419SOL     OW17155   3.241   4.365   6.705
 5419SOL    HW117156   3.316   4.390   6.766
 5419SOL    HW217157   3.182   4.444   6.690
 5420SOL     OW17158   1.580   1.567   2.510
 5420SOL    HW117159   1.616   1.659   2.495
 5420SOL    HW217160   1.497   1.572   2.565
 5421SOL     OW17161   1.194   3.391   1.515
 5421SOL    HW117162   1.213   3.471   1.459
 5421SOL    HW217163   1.241   3.399   1.603
 5422SOL     OW17164   2.037   4.047   1.064
 5422SOL    HW117165   2.133   4.075   1.069
 5422SOL    HW217166   1.997   4.080   0.979
 5423SOL     OW17167   5.889   3.705   6.174
 5423SOL    HW117168   5.966   3.663   6.127
 5423SOL    HW217169   5.864   3.790   6.127
 5424SOL     OW17170   5.433   3.928   5.248
 5424SOL    HW117171   5.335   3.911   5.249
 5424SOL    HW217172   5.451   4.024   5.271
 5425SOL     OW17173   5.578   0.498   4.915
 5425SOL    HW117174   5.607   0.590   4.939
 5425SOL    HW217175   5.511   0.502   4.840
 5426SOL     OW17176   6.961   7.006   5.156
 5426SOL    HW117177   7.011   6.952   5.224
 5426SOL    HW217178   6.930   0.062   5.197
 5427SOL     OW17179   4.319   5.881   0.101
 5427SOL    HW117180   4.273   5.887   0.012
 5427SOL    HW217181   4.271   5.814   0.158
 5428SOL     OW17182   1.316   0.356   6.529
 5428SOL    HW117183   1.401   0.380   6.483
 5428SOL    HW217184   1.267   0.440   6.556
 5429SOL     OW17185   1.618   2.534   6.662
 5429SOL    HW117186   1.606   2.491   6.752
 5429SOL    HW217187   1.645   2.630   6.675
 5430SOL     OW17188   2.276   2.027   5.238
 5430SOL    HW117189   2.198   2.006   5.297
 5430SOL    HW217190   2.244   2.071   5.154
 5431SOL     OW17191   3.681   6.167   4.495
 5431SOL    HW117192   3.735   6.246   4.465
 5431SOL    HW217193   3.584   6.192   4.495
 5432SOL     OW17194   5.579   6.266   1.354
 5432SOL    HW117195   5.666   6.300   1.318
 5432SOL    HW217196   5.574   6.284   1.453
 5433SOL     OW17197   7.000   1.971   4.465
 5433SOL    HW117198   7.025   2.052   4.412
 5433SOL    HW217199   0.039   1.900   4.452
 5434SOL     OW17200   2.831   6.610   5.740
 5434SOL    HW117201   2.805   6.523   5.698
 5434SOL    HW217202   2.863   6.673   5.669
 5435SOL     OW17203   4.400   1.317   1.674
 5435SOL    HW117204   4.426   1.407   1.708
 5435SOL    HW217205   4.483   1.261   1.662
 5436SOL     OW17206   5.614   3.801   2.456
 5436SOL    HW117207   5.582   3.795   2.551
 5436SOL    HW217208   5.605   3.895   2.424
 5437SOL     OW17209   3.243   4.086   6.638
 5437SOL    HW117210   3.259   4.087   6.539
 5437SOL    HW217211   3.261   4.177   6.675
 5438SOL     OW17212   6.707   1.601   1.702
 5438SOL    HW117213   6.699   1.678   1.765
 5438SOL    HW217214   6.654   1.524   1.737
 5439SOL     OW17215   1.550   2.500   1.287
 5439SOL    HW117216   1.564   2.541   1.377
 5439SOL    HW217217   1.544   2.400   1.296
 5440SOL     OW17218   1.773   2.065   0.845
 5440SOL    HW117219   1.798   2.083   0.940
 5440SOL    HW217220   1.731   1.974   0.838
 5441SOL     OW17221   4.206   1.589   4.020
 5441SOL    HW117222   4.152   1.664   3.980
 5441SOL    HW217223   4.173   1.502   3.985
 5442SOL     OW17224   3.530   0.333   2.679
 5442SOL    HW117225   3.538   0.240   2.717
 5442SOL    HW217226   3.582   0.339   2.594
 5443SOL     OW17227   3.103   6.592   5.327
 5443SOL    HW117228   3.202   6.604   5.314
 5443SOL    HW217229   3.076   6.628   5.416
 5444SOL     OW17230   0.142   6.769   3.523
 5444SOL    HW117231   0.059   6.748   3.574
 5444SOL    HW217232   0.181   6.855   3.556
 5445SOL     OW17233   5.439   3.746   1.736
 5445SOL    HW117234   5.472   3.823   1.682
 5445SOL    HW217235   5.441   3.663   1.681
 5446SOL     OW17236   6.880   5.701   6.026
 5446SOL    HW117237   6.783   5.687   6.009
 5446SOL    HW217238   6.901   5.799   6.023
 5447SOL     OW17239   3.099   2.013   0.776
 5447SOL    HW117240   3.103   2.044   0.871
 5447SOL    HW217241   3.020   2.055   0.731
 5448SOL     OW17242   5.471   2.303   6.070
 5448SOL    HW117243   5.429   2.253   5.993
 5448SOL    HW217244   5.560   2.340   6.041
 5449SOL     OW17245   0.272   3.458   0.106
 5449SOL    HW117246   0.324   3.540   0.079
 5449SOL    HW217247   0.192   3.486   0.159
 5450SOL     OW17248   1.972   6.924   0.635
 5450SOL    HW117249   1.887   6.872   0.643
 5450SOL    HW217250   2.021   6.922   0.722
 5451SOL     OW17251   1.679   0.208   2.424
 5451SOL    HW117252   1.717   0.155   2.500
 5451SOL    HW217253   1.727   0.185   2.339
 5452SOL     OW17254   3.133   4.089   5.795
 5452SOL    HW117255   3.082   4.059   5.875
 5452SOL    HW217256   3.193   4.165   5.819
 5453SOL     OW17257   6.140   4.788   6.360
 5453SOL    HW117258   6.230   4.826   6.379
 5453SOL    HW217259   6.149   4.710   6.298
 5454SOL     OW17260   0.263   4.194   6.101
 5454SOL    HW117261   0.182   4.136   6.091
 5454SOL    HW217262   0.341   4.149   6.059
 5455SOL     OW17263   6.743   3.251   1.085
 5455SOL    HW117264   6.673   3.263   1.155
 5455SOL    HW217265   6.703   3.267   0.995
 5456SOL     OW17266   3.606   6.545   0.990
 5456SOL    HW117267   3.635   6.600   0.912
 5456SOL    HW217268   3.683   6.531   1.053
 5457SOL     OW17269   5.796   3.707   0.509
 5457SOL    HW117270   5.836   3.761   0.583
 5457SOL    HW217271   5.869   3.676   0.448
 5458SOL     OW17272   2.459   4.676   6.502
 5458SOL    HW117273   2.510   4.750   6.458
 5458SOL    HW217274   2.505   4.588   6.484
 5459SOL     OW17275   2.144   4.636   5.865
 5459SOL    HW117276   2.054   4.662   5.900
 5459SOL    HW217277   2.212   4.643   5.937
 5460SOL     OW17278   3.579   0.728   1.695
 5460SOL    HW117279   3.489   0.764   1.720
 5460SOL    HW217280   3.567   0.658   1.625
 5461SOL     OW17281   4.720   6.958   5.022
 5461SOL    HW117282   4.692   0.024   5.031
 5461SOL    HW217283   4.764   6.944   4.933
 5462SOL     OW17284   0.864   0.148   1.601
 5462SOL    HW117285   0.906   0.237   1.581
 5462SOL    HW217286   0.935   0.083   1.626
 5463SOL     OW17287   6.760   2.986   0.791
 5463SOL    HW117288   6.693   2.917   0.816
 5463SOL    HW217289   6.719   3.050   0.726
 5464SOL     OW17290   2.298   6.609   4.540
 5464SOL    HW117291   2.283   6.581   4.445
 5464SOL    HW217292   2.210   6.619   4.586
 5465SOL     OW17293   2.523   6.673   6.372
 5465SOL    HW117294   2.556   6.627   6.289
 5465SOL    HW217295   2.468   6.609   6.425
 5466SOL     OW17296   5.034   4.506   4.628
 5466SOL    HW117297   5.120   4.501   4.579
 5466SOL    HW217298   5.010   4.602   4.645
 5467SOL     OW17299   6.124   1.788   1.973
 5467SOL    HW117300   6.146   1.734   2.055
 5467SOL    HW217301   6.090   1.727   1.901
 5468SOL     OW17302   4.206   1.761   5.541
 5468SOL    HW117303   4.204   1.836   5.475
 5468SOL    HW217304   4.242   1.679   5.496
 5469SOL     OW17305   4.652   4.915   0.061
 5469SOL    HW117306   4.592   4.913   0.141
 5469SOL    HW217307   4.741   4.952   0.088
 5470SOL     OW17308   1.067   5.262   3.467
 5470SOL    HW117309   1.156   5.244   3.426
 5470SOL    HW217310   1.075   5.337   3.534
 5471SOL     OW17311   6.163   4.889   2.098
 5471SOL    HW117312   6.183   4.942   2.015
 5471SOL    HW217313   6.194   4.795   2.086
 5472SOL     OW17314   3.740   5.240   5.907
 5472SOL    HW117315   3.706   5.303   5.837
 5472SOL    HW217316   3.662   5.190   5.947
 5473SOL     OW17317   1.484   3.385   3.499
 5473SOL    HW117318   1.406   3.408   3.558
 5473SOL    HW217319   1.502   3.287   3.504
 5474SOL     OW17320   1.795   6.254   3.751
 5474SOL    HW117321   1.864   6.295   3.811
 5474SOL    HW217322   1.837   6.224   3.666
 5475SOL     OW17323   3.061   3.018   1.356
 5475SOL    HW117324   3.098   2.984   1.443
 5475SOL    HW217325   2.963   3.035   1.366
 5476SOL     OW17326   1.286   3.818   6.357
 5476SOL    HW117327   1.222   3.781   6.424
 5476SOL    HW217328   1.374   3.772   6.366
 5477SOL     OW17329   1.859   3.093   2.137
 5477SOL    HW117330   1.880   3.190   2.121
 5477SOL    HW217331   1.785   3.085   2.203
 5478SOL     OW17332   6.746   6.055   6.449
 5478SOL    HW117333   6.789   6.120   6.387
 5478SOL    HW217334   6.727   5.970   6.400
 5479SOL     OW17335   4.482   0.368   4.661
 5479SOL    HW117336   4.388   0.398   4.678
 5479SOL    HW217337   4.535   0.444   4.623
 5480SOL     OW17338   0.358   2.894   5.123
 5480SOL    HW117339   0.360   2.804   5.165
 5480SOL    HW217340   0.354   2.965   5.194
 5481SOL     OW17341   4.564   6.547   4.019
 5481SOL    HW117342   4.528   6.635   3.987
 5481SOL    HW217343   4.591   6.492   3.940
 5482SOL     OW17344   1.626   4.246   2.267
 5482SOL    HW117345   1.697   4.282   2.207
 5482SOL    HW217346   1.554   4.315   2.279
 5483SOL     OW17347   0.947   2.770   6.059
 5483SOL    HW117348   0.952   2.827   6.142
 5483SOL    HW217349   0.973   2.825   5.980
 5484SOL     OW17350   5.128   6.989   5.163
 5484SOL    HW117351   5.162   0.034   5.104
 5484SOL    HW217352   5.136   7.018   5.259
 5485SOL     OW17353   3.583   0.048   4.847
 5485SOL    HW117354   3.489   0.034   4.816
 5485SOL    HW217355   3.639   6.999   4.822
 5486SOL     OW17356   2.537   5.454   4.548
 5486SOL    HW117357   2.464   5.474   4.612
 5486SOL    HW217358   2.617   5.419   4.597
 5487SOL     OW17359   3.267   5.395   5.267
 5487SOL    HW117360   3.310   5.392   5.177
 5487SOL    HW217361   3.196   5.465   5.268
 5488SOL     OW17362   5.506   2.141   0.787
 5488SOL    HW117363   5.549   2.115   0.873
 5488SOL    HW217364   5.407   2.147   0.800
 5489SOL     OW17365   0.114   3.683   3.554
 5489SOL    HW117366   0.184   3.612   3.564
 5489SOL    HW217367   0.088   3.718   3.644
 5490SOL     OW17368   1.288   5.729   2.786
 5490SOL    HW117369   1.223   5.726   2.710
 5490SOL    HW217370   1.360   5.662   2.771
 5491SOL     OW17371   6.104   4.147   0.442
 5491SOL    HW117372   6.058   4.229   0.475
 5491SOL    HW217373   6.169   4.114   0.510
 5492SOL     OW17374   6.974   1.922   6.369
 5492SOL    HW117375   6.922   1.996   6.411
 5492SOL    HW217376   0.042   1.945   6.367
 5493SOL     OW17377   4.116   3.982   0.415
 5493SOL    HW117378   4.171   4.049   0.365
 5493SOL    HW217379   4.141   3.890   0.384
 5494SOL     OW17380   5.953   3.246   5.384
 5494SOL    HW117381   5.932   3.342   5.400
 5494SOL    HW217382   5.916   3.191   5.459
 5495SOL     OW17383   5.747   6.810   0.288
 5495SOL    HW117384   5.806   6.863   0.229
 5495SOL    HW217385   5.800   6.739   0.334
 5496SOL     OW17386   4.018   6.989   5.075
 5496SOL    HW117387   4.053   6.933   5.150
 5496SOL    HW217388   3.979   0.044   5.112
 5497SOL     OW17389   0.729   0.300   4.872
 5497SOL    HW117390   0.814   0.276   4.920
 5497SOL    HW217391   0.744   0.295   4.773
 5498SOL     OW17392   0.178   5.599   1.202
 5498SOL    HW117393   0.216   5.534   1.268
 5498SOL    HW217394   0.079   5.602   1.211
 5499SOL     OW17395   2.051   0.052   4.882
 5499SOL    HW117396   1.981   0.003   4.831
 5499SOL    HW217397   2.115   0.096   4.818
 5500SOL     OW17398   2.846   0.551   1.380
 5500SOL    HW117399   2.890   0.595   1.302
 5500SOL    HW217400   2.789   0.618   1.429
 5501SOL     OW17401   3.917   3.481   6.980
 5501SOL    HW117402   3.979   3.427   0.008
 5501SOL    HW217403   3.943   3.471   6.884
 5502SOL     OW17404   4.845   3.294   6.601
 5502SOL    HW117405   4.881   3.223   6.540
 5502SOL    HW217406   4.898   3.378   6.588
 5503SOL     OW17407   5.806   3.239   1.012
 5503SOL    HW117408   5.822   3.144   1.041
 5503SOL    HW217409   5.765   3.290   1.088
 5504SOL     OW17410   4.018   2.009   0.044
 5504SOL    HW117411   4.096   1.965   0.088
 5504SOL    HW217412   3.992   2.091   0.094
 5505SOL     OW17413   3.235   4.879   3.388
 5505SOL    HW117414   3.138   4.857   3.399
 5505SOL    HW217415   3.267   4.844   3.299
 5506SOL     OW17416   6.331   2.723   5.962
 5506SOL    HW117417   6.382   2.757   6.041
 5506SOL    HW217418   6.280   2.799   5.920
 5507SOL     OW17419   3.480   7.008   6.789
 5507SOL    HW117420   3.579   7.017   6.803
 5507SOL    HW217421   3.442   6.950   6.860
 5508SOL     OW17422   0.401   0.829   6.101
 5508SOL    HW117423   0.357   0.824   6.012
 5508SOL    HW217424   0.393   0.922   6.137
 5509SOL     OW17425   6.518   5.021   0.312
 5509SOL    HW117426   6.597   5.040   0.372
 5509SOL    HW217427   6.550   5.008   0.218
 5510SOL     OW17428   5.066   5.274   6.651
 5510SOL    HW117429   5.034   5.181   6.668
 5510SOL    HW217430   5.156   5.287   6.693
 5511SOL     OW17431   0.729   2.599   6.032
 5511SOL    HW117432   0.680   2.571   6.114
 5511SOL    HW217433   0.800   2.665   6.056
 5512SOL     OW17434   2.252   0.315   2.367
 5512SOL    HW117435   2.183   0.242   2.373
 5512SOL    HW217436   2.265   0.340   2.271
 5513SOL     OW17437   3.935   4.707   6.773
 5513SOL    HW117438   3.949   4.762   6.855
 5513SOL    HW217439   3.897   4.618   6.798
 5514SOL     OW17440   3.747   0.945   0.082
 5514SOL    HW117441   3.705   1.035   0.097
 5514SOL    HW217442   3.825   0.934   0.144
 5515SOL     OW17443   2.714   5.443   2.417
 5515SOL    HW117444   2.804   5.412   2.386
 5515SOL    HW217445   2.689   5.526   2.369
 5516SOL     OW17446   1.824   2.217   5.535
 5516SOL    HW117447   1.907   2.228   5.481
 5516SOL    HW217448   1.846   2.221   5.633
 5517SOL     OW17449   1.396   2.135   3.210
 5517SOL    HW117450   1.298   2.118   3.225
 5517SOL    HW217451   1.410   2.163   3.115
 5518SOL     OW17452   4.848   5.407   6.802
 5518SOL    HW117453   4.759   5.425   6.761
 5518SOL    HW217454   4.919   5.410   6.731
 5519SOL     OW17455   4.926   2.578   4.676
 5519SOL    HW117456   4.992   2.515   4.716
 5519SOL    HW217457   4.963   2.614   4.590
 5520SOL     OW17458   4.505   0.635   1.621
 5520SOL    HW117459   4.586   0.681   1.656
 5520SOL    HW217460   4.469   0.572   1.690
 5521SOL     OW17461   4.724   6.258   2.538
 5521SOL    HW117462   4.699   6.162   2.532
 5521SOL    HW217463   4.693   6.306   2.456
 5522SOL     OW17464   5.944   6.147   0.586
 5522SOL    HW117465   6.023   6.131   0.645
 5522SOL    HW217466   5.917   6.243   0.591
 5523SOL     OW17467   5.434   1.770   0.820
 5523SOL    HW117468   5.343   1.778   0.779
 5523SOL    HW217469   5.491   1.847   0.790
 5524SOL     OW17470   2.335   1.175   3.859
 5524SOL    HW117471   2.298   1.178   3.766
 5524SOL    HW217472   2.341   1.080   3.889
 5525SOL     OW17473   6.156   0.956   0.931
 5525SOL    HW117474   6.204   0.870   0.946
 5525SOL    HW217475   6.207   1.031   0.974
 5526SOL     OW17476   5.307   4.867   3.744
 5526SOL    HW117477   5.395   4.895   3.705
 5526SOL    HW217478   5.233   4.897   3.683
 5527SOL     OW17479   6.137   0.438   3.032
 5527SOL    HW117480   6.082   0.391   2.962
 5527SOL    HW217481   6.226   0.394   3.039
 5528SOL     OW17482   1.239   1.956   6.992
 5528SOL    HW117483   1.185   2.025   6.945
 5528SOL    HW217484   1.322   1.998   7.029
 5529SOL     OW17485   3.452   0.996   2.591
 5529SOL    HW117486   3.479   1.015   2.497
 5529SOL    HW217487   3.450   0.897   2.605
 5530SOL     OW17488   0.007   1.900   1.030
 5530SOL    HW117489   6.973   1.823   1.027
 5530SOL    HW217490   0.101   1.866   1.036
 5531SOL     OW17491   1.979   4.037   1.930
 5531SOL    HW117492   2.040   3.958   1.921
 5531SOL    HW217493   1.886   4.005   1.951
 5532SOL     OW17494   0.698   3.017   6.916
 5532SOL    HW117495   0.782   2.964   6.915
 5532SOL    HW217496   0.688   3.066   6.830
 5533SOL     OW17497   4.023   1.368   2.667
 5533SOL    HW117498   4.065   1.308   2.736
 5533SOL    HW217499   4.070   1.356   2.580
 5534SOL     OW17500   1.206   0.395   4.615
 5534SOL    HW117501   1.197   0.318   4.552
 5534SOL    HW217502   1.232   0.477   4.564
 5535SOL     OW17503   0.246   2.062   2.973
 5535SOL    HW117504   0.193   2.146   2.960
 5535SOL    HW217505   0.300   2.044   2.891
 5536SOL     OW17506   4.915   6.500   4.413
 5536SOL    HW117507   4.869   6.510   4.324
 5536SOL    HW217508   4.847   6.504   4.486
 5537SOL     OW17509   2.972   2.066   3.731
 5537SOL    HW117510   3.071   2.056   3.737
 5537SOL    HW217511   2.945   2.153   3.773
 5538SOL     OW17512   4.708   5.037   4.200
 5538SOL    HW117513   4.608   5.036   4.191
 5538SOL    HW217514   4.744   5.120   4.157
 5539SOL     OW17515   2.287   4.572   7.029
 5539SOL    HW117516   2.246   4.644   0.056
 5539SOL    HW217517   2.380   4.598   7.003
 5540SOL     OW17518   4.274   5.367   1.951
 5540SOL    HW117519   4.195   5.426   1.931
 5540SOL    HW217520   4.245   5.292   2.010
 5541SOL     OW17521   4.101   1.098   5.946
 5541SOL    HW117522   4.057   1.041   5.877
 5541SOL    HW217523   4.195   1.117   5.918
 5542SOL     OW17524   5.291   4.384   6.728
 5542SOL    HW117525   5.358   4.343   6.789
 5542SOL    HW217526   5.212   4.323   6.719
 5543SOL     OW17527   0.522   2.222   4.990
 5543SOL    HW117528   0.614   2.208   4.954
 5543SOL    HW217529   0.517   2.190   5.084
 5544SOL     OW17530   5.330   0.950   6.969
 5544SOL    HW117531   5.409   0.944   6.908
 5544SOL    HW217532   5.284   1.038   6.955
 5545SOL     OW17533   2.621   2.472   1.883
 5545SOL    HW117534   2.709   2.445   1.842
 5545SOL    HW217535   2.604   2.417   1.965
 5546SOL     OW17536   4.405   4.956   5.871
 5546SOL    HW117537   4.341   5.008   5.927
 5546SOL    HW217538   4.405   4.991   5.777
 5547SOL     OW17539   3.444   5.987   4.326
 5547SOL    HW117540   3.369   6.035   4.372
 5547SOL    HW217541   3.426   5.984   4.227
 5548SOL     OW17542   0.428   2.238   4.444
 5548SOL    HW117543   0.488   2.315   4.467
 5548SOL    HW217544   0.335   2.259   4.475
 5549SOL     OW17545   3.418   5.219   6.967
 5549SOL    HW117546   3.479   5.176   0.004
 5549SOL    HW217547   3.464   5.298   6.926
 5550SOL     OW17548   2.584   5.951   2.294
 5550SOL    HW117549   2.636   6.034   2.315
 5550SOL    HW217550   2.542   5.960   2.203
 5551SOL     OW17551   1.015   1.317   3.035
 5551SOL    HW117552   0.954   1.310   2.956
 5551SOL    HW217553   0.960   1.322   3.119
 5552SOL     OW17554   0.843   2.413   2.059
 5552SOL    HW117555   0.928   2.398   2.008
 5552SOL    HW217556   0.797   2.495   2.024
 5553SOL     OW17557   4.475   6.030   6.431
 5553SOL    HW117558   4.389   6.067   6.465
 5553SOL    HW217559   4.544   6.036   6.503
 5554SOL     OW17560   3.444   1.134   4.459
 5554SOL    HW117561   3.511   1.068   4.426
 5554SOL    HW217562   3.400   1.178   4.381
 5555SOL     OW17563   0.852   6.115   1.489
 5555SOL    HW117564   0.849   6.147   1.584
 5555SOL    HW217565   0.942   6.078   1.469
 5556SOL     OW17566   0.662   0.900   4.526
 5556SOL    HW117567   0.571   0.913   4.568
 5556SOL    HW217568   0.731   0.945   4.583
 5557SOL     OW17569   2.514   0.708   3.058
 5557SOL    HW117570   2.505   0.608   3.066
 5557SOL    HW217571   2.545   0.731   2.966
 5558SOL     OW17572   5.078   2.499   5.510
 5558SOL    HW117573   5.149   2.559   5.544
 5558SOL    HW217574   5.019   2.549   5.446
 5559SOL     OW17575   1.883   0.852   1.158
 5559SOL    HW117576   1.972   0.818   1.130
 5559SOL    HW217577   1.894   0.928   1.222
 5560SOL     OW17578   0.305   1.083   4.345
 5560SOL    HW117579   0.225   1.128   4.384
 5560SOL    HW217580   0.385   1.141   4.357
 5561SOL     OW17581   1.394   3.942   2.197
 5561SOL    HW117582   1.382   4.034   2.159
 5561SOL    HW217583   1.397   3.947   2.297
 5562SOL     OW17584   3.297   2.042   6.921
 5562SOL    HW117585   3.362   2.116   6.936
 5562SOL    HW217586   3.253   2.054   6.831
 5563SOL     OW17587   4.028   4.258   1.637
 5563SOL    HW117588   3.964   4.189   1.604
 5563SOL    HW217589   4.030   4.335   1.574
 5564SOL     OW17590   5.208   2.081   1.348
 5564SOL    HW117591   5.192   2.012   1.278
 5564SOL    HW217592   5.306   2.097   1.357
 5565SOL     OW17593   2.474   2.570   4.969
 5565SOL    HW117594   2.492   2.591   5.065
 5565SOL    HW217595   2.404   2.633   4.934
 5566SOL     OW17596   2.194   3.905   0.581
 5566SOL    HW117597   2.166   3.809   0.578
 5566SOL    HW217598   2.266   3.917   0.649
 5567SOL     OW17599   1.623   5.328   3.059
 5567SOL    HW117600   1.536   5.278   3.066
 5567SOL    HW217601   1.629   5.395   3.133
 5568SOL     OW17602   3.799   2.660   0.167
 5568SOL    HW117603   3.732   2.651   0.093
 5568SOL    HW217604   3.825   2.756   0.176
 5569SOL     OW17605   4.709   2.014   6.552
 5569SOL    HW117606   4.701   2.094   6.612
 5569SOL    HW217607   4.787   2.026   6.490
 5570SOL     OW17608   1.290   3.059   5.111
 5570SOL    HW117609   1.230   3.074   5.033
 5570SOL    HW217610   1.255   3.107   5.191
 5571SOL     OW17611   6.614   4.540   6.693
 5571SOL    HW117612   6.555   4.620   6.685
 5571SOL    HW217613   6.679   4.539   6.617
 5572SOL     OW17614   0.262   3.220   5.183
 5572SOL    HW117615   0.235   3.313   5.205
 5572SOL    HW217616   0.360   3.216   5.165
 5573SOL     OW17617   0.053   4.015   0.187
 5573SOL    HW117618   0.106   4.086   0.234
 5573SOL    HW217619   6.995   4.054   0.156
 5574SOL     OW17620   1.663   0.042   3.924
 5574SOL    HW117621   1.646   0.089   3.837
 5574SOL    HW217622   1.668   6.972   3.907
 5575SOL     OW17623   1.207   1.235   2.090
 5575SOL    HW117624   1.186   1.325   2.129
 5575SOL    HW217625   1.297   1.237   2.047
 5576SOL     OW17626   5.590   6.735   5.742
 5576SOL    HW117627   5.675   6.786   5.734
 5576SOL    HW217628   5.575   6.709   5.838
 5577SOL     OW17629   2.398   4.716   4.688
 5577SOL    HW117630   2.480   4.737   4.740
 5577SOL    HW217631   2.338   4.657   4.742
 5578SOL     OW17632   3.175   2.325   6.438
 5578SOL    HW117633   3.114   2.403   6.456
 5578SOL    HW217634   3.125   2.255   6.388
 5579SOL     OW17635   5.132   5.168   2.089
 5579SOL    HW117636   5.222   5.172   2.133
 5579SOL    HW217637   5.138   5.208   1.998
 5580SOL     OW17638   5.201   1.397   1.480
 5580SOL    HW117639   5.165   1.304   1.472
 5580SOL    HW217640   5.161   1.441   1.561
 5581SOL     OW17641   2.785   2.762   0.746
 5581SOL    HW117642   2.810   2.838   0.806
 5581SOL    HW217643   2.837   2.769   0.660
 5582SOL     OW17644   3.950   3.041   3.052
 5582SOL    HW117645   3.940   2.984   2.970
 5582SOL    HW217646   3.862   3.048   3.098
 5583SOL     OW17647   4.443   0.551   0.004
 5583SOL    HW117648   4.378   0.569   0.078
 5583SOL    HW217649   4.439   0.626   6.967
 5584SOL     OW17650   4.915   3.429   3.502
 5584SOL    HW117651   4.974   3.383   3.568
 5584SOL    HW217652   4.903   3.370   3.422
 5585SOL     OW17653   0.675   0.020   3.642
 5585SOL    HW117654   0.612   0.067   3.580
 5585SOL    HW217655   0.676   0.066   3.730
 5586SOL     OW17656   2.402   1.296   6.796
 5586SOL    HW117657   2.495   1.330   6.782
 5586SOL    HW217658   2.339   1.347   6.737
 5587SOL     OW17659   3.045   6.523   3.612
 5587SOL    HW117660   3.098   6.552   3.691
 5587SOL    HW217661   3.105   6.474   3.548
 5588SOL     OW17662   5.142   6.981   6.507
 5588SOL    HW117663   5.077   0.023   6.534
 5588SOL    HW217664   5.230   6.998   6.552
 5589SOL     OW17665   2.489   3.836   0.658
 5589SOL    HW117666   2.479   3.754   0.602
 5589SOL    HW217667   2.415   3.840   0.725
 5590SOL     OW17668   6.769   0.108   3.587
 5590SOL    HW117669   6.691   0.061   3.628
 5590SOL    HW217670   6.833   0.136   3.659
 5591SOL     OW17671   5.433   0.063   0.675
 5591SOL    HW117672   5.522   0.046   0.633
 5591SOL    HW217673   5.424   0.009   0.758
 5592SOL     OW17674   1.358   2.717   2.305
 5592SOL    HW117675   1.387   2.703   2.400
 5592SOL    HW217676   1.367   2.631   2.255
 5593SOL     OW17677   2.257   4.568   4.881
 5593SOL    HW117678   2.197   4.491   4.901
 5593SOL    HW217679   2.338   4.564   4.941
 5594SOL     OW17680   3.094   1.554   6.714
 5594SOL    HW117681   3.186   1.522   6.690
 5594SOL    HW217682   3.049   1.591   6.633
 5595SOL     OW17683   0.709   3.065   6.605
 5595SOL    HW117684   0.609   3.057   6.597
 5595SOL    HW217685   0.753   3.017   6.529
 5596SOL     OW17686   4.891   3.283   4.553
 5596SOL    HW117687   4.824   3.208   4.562
 5596SOL    HW217688   4.868   3.355   4.618
 5597SOL     OW17689   6.611   1.720   6.780
 5597SOL    HW117690   6.668   1.750   6.857
 5597SOL    HW217691   6.540   1.658   6.813
 5598SOL     OW17692   6.489   1.047   3.912
 5598SOL    HW117693   6.580   1.004   3.910
 5598SOL    HW217694   6.494   1.133   3.963
 5599SOL     OW17695   5.416   3.017   2.999
 5599SOL    HW117696   5.467   2.949   2.946
 5599SOL    HW217697   5.464   3.105   2.994
 5600SOL     OW17698   2.000   2.651   1.954
 5600SOL    HW117699   2.023   2.625   1.860
 5600SOL    HW217700   1.911   2.695   1.956
 5601SOL     OW17701   5.816   2.918   5.835
 5601SOL    HW117702   5.797   2.997   5.893
 5601SOL    HW217703   5.736   2.899   5.778
 5602SOL     OW17704   5.979   1.855   2.785
 5602SOL    HW117705   5.986   1.787   2.859
 5602SOL    HW217706   6.052   1.841   2.719
 5603SOL     OW17707   3.594   2.251   6.467
 5603SOL    HW117708   3.516   2.191   6.448
 5603SOL    HW217709   3.632   2.228   6.556
 5604SOL     OW17710   1.321   5.845   3.307
 5604SOL    HW117711   1.325   5.762   3.363
 5604SOL    HW217712   1.258   5.911   3.349
 5605SOL     OW17713   4.340   0.323   4.029
 5605SOL    HW117714   4.434   0.323   4.065
 5605SOL    HW217715   4.278   0.284   4.097
 5606SOL     OW17716   4.562   3.517   0.787
 5606SOL    HW117717   4.487   3.503   0.851
 5606SOL    HW217718   4.526   3.551   0.700
 5607SOL     OW17719   6.857   2.464   3.181
 5607SOL    HW117720   6.944   2.417   3.169
 5607SOL    HW217721   6.870   2.545   3.237
 5608SOL     OW17722   5.438   0.103   3.887
 5608SOL    HW117723   5.533   0.099   3.858
 5608SOL    HW217724   5.379   0.111   3.807
 5609SOL     OW17725   6.497   0.750   0.284
 5609SOL    HW117726   6.569   0.794   0.231
 5609SOL    HW217727   6.500   0.781   0.379
 5610SOL     OW17728   6.076   5.873   5.855
 5610SOL    HW117729   5.982   5.884   5.823
 5610SOL    HW217730   6.110   5.960   5.889
 5611SOL     OW17731   6.372   3.814   2.181
 5611SOL    HW117732   6.441   3.842   2.248
 5611SOL    HW217733   6.337   3.895   2.134
 5612SOL     OW17734   4.148   1.756   1.189
 5612SOL    HW117735   4.212   1.771   1.264
 5612SOL    HW217736   4.056   1.740   1.226
 5613SOL     OW17737   6.190   5.150   5.813
 5613SOL    HW117738   6.216   5.088   5.887
 5613SOL    HW217739   6.231   5.119   5.727
 5614SOL     OW17740   4.848   1.969   5.055
 5614SOL    HW117741   4.904   1.899   5.100
 5614SOL    HW217742   4.757   1.971   5.095
 5615SOL     OW17743   0.693   3.001   3.233
 5615SOL    HW117744   0.741   2.928   3.282
 5615SOL    HW217745   0.749   3.033   3.157
 5616SOL     OW17746   1.318   3.429   1.737
 5616SOL    HW117747   1.366   3.355   1.784
 5616SOL    HW217748   1.249   3.469   1.798
 5617SOL     OW17749   1.001   5.107   6.294
 5617SOL    HW117750   1.064   5.071   6.225
 5617SOL    HW217751   0.916   5.134   6.250
 5618SOL     OW17752   4.611   0.006   3.021
 5618SOL    HW117753   4.558   0.070   2.965
 5618SOL    HW217754   4.573   6.943   3.011
 5619SOL     OW17755   3.345   3.293   3.368
 5619SOL    HW117756   3.309   3.207   3.331
 5619SOL    HW217757   3.363   3.356   3.292
 5620SOL     OW17758   5.276   4.419   4.926
 5620SOL    HW117759   5.338   4.348   4.894
 5620SOL    HW217760   5.181   4.390   4.911
 5621SOL     OW17761   1.042   2.962   6.746
 5621SOL    HW117762   1.010   2.909   6.668
 5621SOL    HW217763   1.006   2.922   6.831
 5622SOL     OW17764   4.941   6.001   3.823
 5622SOL    HW117765   4.926   6.000   3.724
 5622SOL    HW217766   4.909   5.915   3.862
 5623SOL     OW17767   4.462   4.555   3.827
 5623SOL    HW117768   4.370   4.580   3.857
 5623SOL    HW217769   4.516   4.526   3.906
 5624SOL     OW17770   4.862   3.864   4.000
 5624SOL    HW117771   4.931   3.900   4.062
 5624SOL    HW217772   4.790   3.932   3.986
 5625SOL     OW17773   2.691   6.238   6.042
 5625SOL    HW117774   2.749   6.307   6.085
 5625SOL    HW217775   2.654   6.273   5.956
 5626SOL     OW17776   1.315   5.566   6.389
 5626SOL    HW117777   1.384   5.637   6.401
 5626SOL    HW217778   1.344   5.482   6.433
 5627SOL     OW17779   1.074   5.640   0.666
 5627SOL    HW117780   1.050   5.570   0.734
 5627SOL    HW217781   1.173   5.657   0.670
 5628SOL     OW17782   1.776   2.845   6.988
 5628SOL    HW117783   1.729   2.932   7.002
 5628SOL    HW217784   1.853   2.839   0.022
 5629SOL     OW17785   6.718   3.730   4.381
 5629SOL    HW117786   6.618   3.730   4.386
 5629SOL    HW217787   6.749   3.807   4.327
 5630SOL     OW17788   1.515   3.925   0.495
 5630SOL    HW117789   1.435   3.979   0.469
 5630SOL    HW217790   1.552   3.880   0.413
 5631SOL     OW17791   3.727   0.781   2.036
 5631SOL    HW117792   3.753   0.760   2.130
 5631SOL    HW217793   3.660   0.714   2.005
 5632SOL     OW17794   3.994   5.870   0.085
 5632SOL    HW117795   4.052   5.870   0.004
 5632SOL    HW217796   4.051   5.852   0.166
 5633SOL     OW17797   1.230   5.849   5.473
 5633SOL    HW117798   1.206   5.941   5.505
 5633SOL    HW217799   1.214   5.783   5.545
 5634SOL     OW17800   2.543   0.647   1.994
 5634SOL    HW117801   2.492   0.676   1.913
 5634SOL    HW217802   2.498   0.681   2.076
 5635SOL     OW17803   3.496   1.033   2.110
 5635SOL    HW117804   3.428   1.095   2.149
 5635SOL    HW217805   3.512   1.057   2.014
 5636SOL     OW17806   5.539   0.568   5.431
 5636SOL    HW117807   5.499   0.599   5.517
 5636SOL    HW217808   5.624   0.618   5.415
 5637SOL     OW17809   4.955   6.751   4.771
 5637SOL    HW117810   4.899   6.682   4.725
 5637SOL    HW217811   4.928   6.842   4.740
 5638SOL     OW17812   6.932   5.467   0.458
 5638SOL    HW117813   6.834   5.446   0.468
 5638SOL    HW217814   6.983   5.382   0.448
 5639SOL     OW17815   3.527   0.160   2.069
 5639SOL    HW117816   3.438   0.169   2.024
 5639SOL    HW217817   3.523   0.200   2.160
 5640SOL     OW17818   3.158   6.813   3.623
 5640SOL    HW117819   3.222   6.858   3.686
 5640SOL    HW217820   3.070   6.861   3.624
 5641SOL     OW17821   6.519   4.485   3.592
 5641SOL    HW117822   6.509   4.510   3.496
 5641SOL    HW217823   6.494   4.562   3.649
 5642SOL     OW17824   1.999   3.408   6.282
 5642SOL    HW117825   2.034   3.315   6.274
 5642SOL    HW217826   2.055   3.459   6.348
 5643SOL     OW17827   6.156   2.760   3.978
 5643SOL    HW117828   6.068   2.714   3.966
 5643SOL    HW217829   6.228   2.704   3.937
 5644SOL     OW17830   3.841   0.546   6.196
 5644SOL    HW117831   3.885   0.525   6.108
 5644SOL    HW217832   3.804   0.461   6.235
 5645SOL     OW17833   5.823   6.470   2.970
 5645SOL    HW117834   5.790   6.436   2.882
 5645SOL    HW217835   5.757   6.536   3.007
 5646SOL     OW17836   6.416   0.150   3.661
 5646SOL    HW117837   6.322   0.118   3.664
 5646SOL    HW217838   6.423   0.237   3.711
 5647SOL     OW17839   6.773   3.587   6.684
 5647SOL    HW117840   6.733   3.650   6.750
 5647SOL    HW217841   6.770   3.494   6.720
 5648SOL     OW17842   2.342   1.600   3.995
 5648SOL    HW117843   2.283   1.540   3.941
 5648SOL    HW217844   2.303   1.692   3.998
 5649SOL     OW17845   1.037   0.580   5.837
 5649SOL    HW117846   0.964   0.589   5.770
 5649SOL    HW217847   1.105   0.652   5.823
 5650SOL     OW17848   6.790   5.304   5.284
 5650SOL    HW117849   6.887   5.286   5.297
 5650SOL    HW217850   6.759   5.375   5.347
 5651SOL     OW17851   6.175   1.556   2.492
 5651SOL    HW117852   6.139   1.536   2.401
 5651SOL    HW217853   6.121   1.509   2.562
 5652SOL     OW17854   5.397   4.359   0.057
 5652SOL    HW117855   5.481   4.313   0.026
 5652SOL    HW217856   5.418   4.418   0.135
 5653SOL     OW17857   2.006   5.760   0.169
 5653SOL    HW117858   2.066   5.684   0.145
 5653SOL    HW217859   2.012   5.778   0.267
 5654SOL     OW17860   1.570   6.571   0.237
 5654SOL    HW117861   1.484   6.581   0.187
 5654SOL    HW217862   1.549   6.558   0.334
 5655SOL     OW17863   6.434   5.028   2.904
 5655SOL    HW117864   6.394   5.120   2.913
 5655SOL    HW217865   6.453   4.991   2.995
 5656SOL     OW17866   3.589   5.417   6.937
 5656SOL    HW117867   3.605   5.407   0.007
 5656SOL    HW217868   3.562   5.511   6.917
 5657SOL     OW17869   4.685   5.321   1.961
 5657SOL    HW117870   4.602   5.343   1.911
 5657SOL    HW217871   4.690   5.377   2.044
 5658SOL     OW17872   5.120   6.644   5.894
 5658SOL    HW117873   5.097   6.740   5.911
 5658SOL    HW217874   5.212   6.626   5.926
 5659SOL     OW17875   2.903   3.618   3.479
 5659SOL    HW117876   2.941   3.693   3.424
 5659SOL    HW217877   2.885   3.650   3.572
 5660SOL     OW17878   0.122   6.186   1.617
 5660SOL    HW117879   0.135   6.111   1.682
 5660SOL    HW217880   0.024   6.203   1.606
 5661SOL     OW17881   6.232   5.814   4.400
 5661SOL    HW117882   6.331   5.815   4.384
 5661SOL    HW217883   6.214   5.805   4.498
 5662SOL     OW17884   1.912   4.959   5.073
 5662SOL    HW117885   1.994   4.975   5.018
 5662SOL    HW217886   1.832   4.997   5.026
 5663SOL     OW17887   2.407   4.086   1.305
 5663SOL    HW117888   2.433   4.094   1.401
 5663SOL    HW217889   2.481   4.044   1.254
 5664SOL     OW17890   6.823   6.020   1.939
 5664SOL    HW117891   6.858   6.021   2.033
 5664SOL    HW217892   6.836   5.929   1.900
 5665SOL     OW17893   1.052   1.279   5.825
 5665SOL    HW117894   1.097   1.359   5.863
 5665SOL    HW217895   1.065   1.277   5.726
 5666SOL     OW17896   5.744   5.685   0.104
 5666SOL    HW117897   5.761   5.777   0.138
 5666SOL    HW217898   5.826   5.649   0.060
 5667SOL     OW17899   5.874   4.687   2.448
 5667SOL    HW117900   5.815   4.612   2.419
 5667SOL    HW217901   5.912   4.733   2.368
 5668SOL     OW17902   6.127   2.777   6.376
 5668SOL    HW117903   6.187   2.698   6.365
 5668SOL    HW217904   6.074   2.791   6.293
 5669SOL     OW17905   0.268   3.221   4.696
 5669SOL    HW117906   0.338   3.161   4.659
 5669SOL    HW217907   0.245   3.192   4.790
 5670SOL     OW17908   1.609   3.652   2.485
 5670SOL    HW117909   1.576   3.577   2.542
 5670SOL    HW217910   1.699   3.629   2.448
 5671SOL     OW17911   0.811   0.696   5.425
 5671SOL    HW117912   0.882   0.740   5.479
 5671SOL    HW217913   0.722   0.732   5.451
 5672SOL     OW17914   5.195   4.037   5.967
 5672SOL    HW117915   5.129   4.036   5.892
 5672SOL    HW217916   5.146   4.023   6.053
 5673SOL     OW17917   1.291   6.858   0.858
 5673SOL    HW117918   1.285   6.951   0.895
 5673SOL    HW217919   1.198   6.824   0.841
 5674SOL     OW17920   6.917   3.352   1.515
 5674SOL    HW117921   7.014   3.378   1.521
 5674SOL    HW217922   6.870   3.413   1.452
 5675SOL     OW17923   3.920   1.013   6.135
 5675SOL    HW117924   3.947   1.023   6.231
 5675SOL    HW217925   3.999   1.032   6.077
 5676SOL     OW17926   2.919   6.882   1.737
 5676SOL    HW117927   2.873   6.884   1.825
 5676SOL    HW217928   2.929   6.787   1.707
 5677SOL     OW17929   6.812   0.106   2.964
 5677SOL    HW117930   6.881   0.035   2.950
 5677SOL    HW217931   6.745   0.075   3.031
 5678SOL     OW17932   1.349   5.612   3.461
 5678SOL    HW117933   1.416   5.558   3.409
 5678SOL    HW217934   1.262   5.562   3.465
 5679SOL     OW17935   3.222   5.604   5.686
 5679SOL    HW117936   3.265   5.532   5.741
 5679SOL    HW217937   3.274   5.616   5.601
 5680SOL     OW17938   1.623   6.933   6.657
 5680SOL    HW117939   1.615   6.918   6.756
 5680SOL    HW217940   1.662   7.023   6.639
 5681SOL     OW17941   2.734   4.236   6.898
 5681SOL    HW117942   2.685   4.153   6.871
 5681SOL    HW217943   2.685   4.281   6.972
 5682SOL     OW17944   1.748   3.511   4.441
 5682SOL    HW117945   1.704   3.569   4.373
 5682SOL    HW217946   1.787   3.430   4.395
 5683SOL     OW17947   4.090   3.774   4.944
 5683SOL    HW117948   4.019   3.704   4.932
 5683SOL    HW217949   4.156   3.769   4.869
 5684SOL     OW17950   3.127   3.152   3.001
 5684SOL    HW117951   3.054   3.178   2.938
 5684SOL    HW217952   3.214   3.186   2.967
 5685SOL     OW17953   0.461   5.615   2.076
 5685SOL    HW117954   0.467   5.590   1.979
 5685SOL    HW217955   0.487   5.711   2.087
 5686SOL     OW17956   3.236   4.653   0.008
 5686SOL    HW117957   3.243   4.564   6.992
 5686SOL    HW217958   3.310   4.712   7.005
 5687SOL     OW17959   4.323   5.590   6.374
 5687SOL    HW117960   4.356   5.497   6.357
 5687SOL    HW217961   4.393   5.656   6.346
 5688SOL     OW17962   5.741   1.773   2.034
 5688SOL    HW117963   5.818   1.830   2.061
 5688SOL    HW217964   5.749   1.748   1.938
 5689SOL     OW17965   4.461   3.748   5.945
 5689SOL    HW117966   4.536   3.710   5.999
 5689SOL    HW217967   4.400   3.674   5.915
 5690SOL     OW17968   4.143   6.560   2.537
 5690SOL    HW117969   4.238   6.584   2.554
 5690SOL    HW217970   4.097   6.636   2.491
 5691SOL     OW17971   3.201   0.341   4.033
 5691SOL    HW117972   3.186   0.277   4.109
 5691SOL    HW217973   3.173   0.433   4.061
 5692SOL     OW17974   5.588   2.821   6.056
 5692SOL    HW117975   5.566   2.729   6.090
 5692SOL    HW217976   5.676   2.850   6.093
 5693SOL     OW17977   4.781   2.447   2.427
 5693SOL    HW117978   4.862   2.460   2.483
 5693SOL    HW217979   4.802   2.386   2.351
 5694SOL     OW17980   1.287   1.745   4.098
 5694SOL    HW117981   1.338   1.823   4.135
 5694SOL    HW217982   1.351   1.681   4.055
 5695SOL     OW17983   1.871   3.556   3.477
 5695SOL    HW117984   1.945   3.555   3.543
 5695SOL    HW217985   1.804   3.626   3.501
 5696SOL     OW17986   3.168   0.591   5.786
 5696SOL    HW117987   3.187   0.549   5.875
 5696SOL    HW217988   3.126   0.524   5.726
 5697SOL     OW17989   6.459   3.939   0.195
 5697SOL    HW117990   6.359   3.947   0.188
 5697SOL    HW217991   6.495   4.016   0.248
 5698SOL     OW17992   1.277   4.058   3.230
 5698SOL    HW117993   1.330   4.137   3.199
 5698SOL    HW217994   1.331   3.974   3.217
 5699SOL     OW17995   6.786   2.446   5.348
 5699SOL    HW117996   6.802   2.386   5.426
 5699SOL    HW217997   6.722   2.518   5.373
 5700SOL     OW17998   1.073   5.511   3.602
 5700SOL    HW117999   0.989   5.530   3.552
 5700SOL    HW218000   1.117   5.597   3.629
 5701SOL     OW18001   5.577   4.075   2.375
 5701SOL    HW118002   5.644   4.123   2.432
 5701SOL    HW218003   5.486   4.086   2.415
 5702SOL     OW18004   2.785   0.128   6.941
 5702SOL    HW118005   2.733   0.114   7.026
 5702SOL    HW218006   2.864   0.066   6.941
 5703SOL     OW18007   4.697   4.140   1.812
 5703SOL    HW118008   4.597   4.144   1.815
 5703SOL    HW218009   4.735   4.232   1.823
 5704SOL     OW18010   5.131   4.236   3.463
 5704SOL    HW118011   5.187   4.172   3.410
 5704SOL    HW218012   5.190   4.290   3.523
 5705SOL     OW18013   6.191   1.789   3.216
 5705SOL    HW118014   6.218   1.746   3.302
 5705SOL    HW218015   6.123   1.731   3.170
 5706SOL     OW18016   1.908   1.245   6.427
 5706SOL    HW118017   1.825   1.295   6.452
 5706SOL    HW218018   1.894   1.197   6.341
 5707SOL     OW18019   2.840   1.442   6.820
 5707SOL    HW118020   2.919   1.494   6.788
 5707SOL    HW218021   2.818   1.468   6.914
 5708SOL     OW18022   6.881   0.370   1.353
 5708SOL    HW118023   6.820   0.370   1.273
 5708SOL    HW218024   6.973   0.345   1.324
 5709SOL     OW18025   1.232   2.292   1.458
 5709SOL    HW118026   1.285   2.209   1.443
 5709SOL    HW218027   1.290   2.362   1.501
 5710SOL     OW18028   3.212   4.774   6.633
 5710SOL    HW118029   3.159   4.803   6.554
 5710SOL    HW218030   3.308   4.761   6.606
 5711SOL     OW18031   5.567   1.165   4.958
 5711SOL    HW118032   5.644   1.101   4.956
 5711SOL    HW218033   5.510   1.147   5.038
 5712SOL     OW18034   6.672   6.273   6.890
 5712SOL    HW118035   6.752   6.222   6.921
 5712SOL    HW218036   6.632   6.228   6.810
 5713SOL     OW18037   0.176   2.742   2.921
 5713SOL    HW118038   0.226   2.728   3.007
 5713SOL    HW218039   0.226   2.700   2.846
 5714SOL     OW18040   2.110   0.903   6.344
 5714SOL    HW118041   2.169   0.891   6.265
 5714SOL    HW218042   2.016   0.918   6.314
 5715SOL     OW18043   1.684   0.230   3.419
 5715SOL    HW118044   1.693   0.138   3.381
 5715SOL    HW218045   1.770   0.280   3.408
 5716SOL     OW18046   1.809   2.208   5.102
 5716SOL    HW118047   1.725   2.256   5.077
 5716SOL    HW218048   1.877   2.274   5.136
 5717SOL     OW18049   0.727   3.852   6.782
 5717SOL    HW118050   0.647   3.899   6.819
 5717SOL    HW218051   0.796   3.843   6.853
 5718SOL     OW18052   2.470   5.333   5.638
 5718SOL    HW118053   2.451   5.278   5.557
 5718SOL    HW218054   2.538   5.403   5.616
 5719SOL     OW18055   2.148   0.728   0.907
 5719SOL    HW118056   2.199   0.777   0.978
 5719SOL    HW218057   2.061   0.774   0.891
 5720SOL     OW18058   1.130   5.578   4.073
 5720SOL    HW118059   1.108   5.504   4.136
 5720SOL    HW218060   1.053   5.593   4.011
 5721SOL     OW18061   6.823   4.486   0.682
 5721SOL    HW118062   6.784   4.577   0.690
 5721SOL    HW218063   6.753   4.418   0.705
 5722SOL     OW18064   5.802   1.347   4.001
 5722SOL    HW118065   5.766   1.362   3.909
 5722SOL    HW218066   5.793   1.250   4.025
 5723SOL     OW18067   1.108   4.409   1.195
 5723SOL    HW118068   1.111   4.343   1.271
 5723SOL    HW218069   1.165   4.376   1.120
 5724SOL     OW18070   4.946   2.505   5.755
 5724SOL    HW118071   5.026   2.474   5.808
 5724SOL    HW218072   4.969   2.506   5.658
 5725SOL     OW18073   5.185   6.322   5.640
 5725SOL    HW118074   5.136   6.408   5.627
 5725SOL    HW218075   5.198   6.278   5.551
 5726SOL     OW18076   4.752   4.049   5.520
 5726SOL    HW118077   4.703   4.105   5.586
 5726SOL    HW218078   4.819   4.105   5.472
 5727SOL     OW18079   5.730   2.311   4.072
 5727SOL    HW118080   5.646   2.314   4.019
 5727SOL    HW218081   5.775   2.401   4.068
 5728SOL     OW18082   4.753   0.685   5.356
 5728SOL    HW118083   4.740   0.681   5.455
 5728SOL    HW218084   4.847   0.657   5.333
 5729SOL     OW18085   1.367   2.704   4.390
 5729SOL    HW118086   1.274   2.715   4.355
 5729SOL    HW218087   1.430   2.692   4.313
 5730SOL     OW18088   3.999   4.987   0.344
 5730SOL    HW118089   3.903   5.015   0.333
 5730SOL    HW218090   4.055   5.037   0.277
 5731SOL     OW18091   4.491   1.540   4.799
 5731SOL    HW118092   4.423   1.467   4.810
 5731SOL    HW218093   4.480   1.583   4.710
 5732SOL     OW18094   5.710   3.944   3.930
 5732SOL    HW118095   5.712   4.030   3.878
 5732SOL    HW218096   5.770   3.952   4.010
 5733SOL     OW18097   2.716   0.256   1.769
 5733SOL    HW118098   2.751   0.335   1.819
 5733SOL    HW218099   2.693   0.183   1.833
 5734SOL     OW18100   1.471   6.655   6.342
 5734SOL    HW118101   1.454   6.689   6.249
 5734SOL    HW218102   1.495   6.558   6.338
 5735SOL     OW18103   5.529   1.036   1.843
 5735SOL    HW118104   5.529   1.074   1.936
 5735SOL    HW218105   5.449   0.978   1.831
 5736SOL     OW18106   6.199   4.123   6.372
 5736SOL    HW118107   6.287   4.150   6.409
 5736SOL    HW218108   6.207   4.033   6.329
 5737SOL     OW18109   5.275   5.883   2.361
 5737SOL    HW118110   5.219   5.842   2.433
 5737SOL    HW218111   5.337   5.950   2.403
 5738SOL     OW18112   2.624   0.774   1.154
 5738SOL    HW118113   2.687   0.808   1.224
 5738SOL    HW218114   2.530   0.778   1.190
 5739SOL     OW18115   2.675   0.691   5.831
 5739SOL    HW118116   2.627   0.766   5.875
 5739SOL    HW218117   2.769   0.719   5.812
 5740SOL     OW18118   4.837   3.861   2.838
 5740SOL    HW118119   4.878   3.830   2.752
 5740SOL    HW218120   4.853   3.792   2.909
 5741SOL     OW18121   1.408   3.217   4.565
 5741SOL    HW118122   1.447   3.178   4.481
 5741SOL    HW218123   1.475   3.279   4.606
 5742SOL     OW18124   6.109   6.467   2.982
 5742SOL    HW118125   6.153   6.491   3.068
 5742SOL    HW218126   6.010   6.466   2.993
 5743SOL     OW18127   3.800   5.655   0.387
 5743SOL    HW118128   3.790   5.684   0.291
 5743SOL    HW218129   3.713   5.669   0.435
 5744SOL     OW18130   5.247   5.954   3.525
 5744SOL    HW118131   5.271   5.916   3.436
 5744SOL    HW218132   5.326   5.948   3.586
 5745SOL     OW18133   1.068   2.795   2.261
 5745SOL    HW118134   1.001   2.744   2.314
 5745SOL    HW218135   1.152   2.742   2.253
 5746SOL     OW18136   5.195   0.414   2.788
 5746SOL    HW118137   5.294   0.424   2.774
 5746SOL    HW218138   5.178   0.382   2.882
 5747SOL     OW18139   1.612   6.708   1.188
 5747SOL    HW118140   1.552   6.660   1.125
 5747SOL    HW218141   1.596   6.674   1.281
 5748SOL     OW18142   6.525   6.626   0.106
 5748SOL    HW118143   6.563   6.534   0.112
 5748SOL    HW218144   6.569   6.676   0.031
 5749SOL     OW18145   1.848   6.124   6.162
 5749SOL    HW118146   1.888   6.038   6.194
 5749SOL    HW218147   1.821   6.115   6.066
 5750SOL     OW18148   6.617   2.613   4.133
 5750SOL    HW118149   6.526   2.618   4.093
 5750SOL    HW218150   6.659   2.704   4.130
 5751SOL     OW18151   0.914   3.724   4.478
 5751SOL    HW118152   0.965   3.807   4.460
 5751SOL    HW218153   0.905   3.711   4.577
 5752SOL     OW18154   5.329   0.482   0.235
 5752SOL    HW118155   5.316   0.413   0.163
 5752SOL    HW218156   5.317   0.573   0.196
 5753SOL     OW18157   3.578   4.073   4.736
 5753SOL    HW118158   3.503   4.104   4.795
 5753SOL    HW218159   3.600   3.978   4.757
 5754SOL     OW18160   0.012   6.303   1.124
 5754SOL    HW118161   6.954   6.254   1.128
 5754SOL    HW218162   0.064   6.286   1.208
 5755SOL     OW18163   1.055   3.491   6.713
 5755SOL    HW118164   1.007   3.403   6.712
 5755SOL    HW218165   1.083   3.513   6.806
 5756SOL     OW18166   6.358   6.264   2.164
 5756SOL    HW118167   6.304   6.308   2.235
 5756SOL    HW218168   6.367   6.166   2.184
 5757SOL     OW18169   6.754   1.267   3.783
 5757SOL    HW118170   6.757   1.171   3.811
 5757SOL    HW218171   6.695   1.276   3.703
 5758SOL     OW18172   6.135   6.437   2.711
 5758SOL    HW118173   6.043   6.420   2.676
 5758SOL    HW218174   6.131   6.456   2.809
 5759SOL     OW18175   2.720   0.205   2.537
 5759SOL    HW118176   2.682   0.113   2.543
 5759SOL    HW218177   2.649   0.272   2.560
 5760SOL     OW18178   1.366   2.615   6.940
 5760SOL    HW118179   1.400   2.555   6.867
 5760SOL    HW218180   1.439   2.628   7.008
 5761SOL     OW18181   6.547   6.562   4.663
 5761SOL    HW118182   6.497   6.585   4.580
 5761SOL    HW218183   6.630   6.617   4.668
 5762SOL     OW18184   0.904   5.499   6.094
 5762SOL    HW118185   0.950   5.416   6.125
 5762SOL    HW218186   0.888   5.559   6.172
 5763SOL     OW18187   5.700   0.156   0.490
 5763SOL    HW118188   5.746   0.067   0.495
 5763SOL    HW218189   5.768   0.229   0.493
 5764SOL     OW18190   4.586   6.598   4.396
 5764SOL    HW118191   4.570   6.593   4.494
 5764SOL    HW218192   4.542   6.520   4.351
 5765SOL     OW18193   6.459   4.905   2.211
 5765SOL    HW118194   6.481   4.820   2.258
 5765SOL    HW218195   6.360   4.918   2.211
 5766SOL     OW18196   0.763   1.352   4.016
 5766SOL    HW118197   0.799   1.259   4.017
 5766SOL    HW218198   0.664   1.349   4.000
 5767SOL     OW18199   4.202   6.403   6.857
 5767SOL    HW118200   4.280   6.343   6.845
 5767SOL    HW218201   4.196   6.466   6.780
 5768SOL     OW18202   0.937   0.984   5.187
 5768SOL    HW118203   0.994   0.957   5.109
 5768SOL    HW218204   0.853   1.027   5.155
 5769SOL     OW18205   1.524   3.022   5.931
 5769SOL    HW118206   1.593   3.027   6.004
 5769SOL    HW218207   1.504   3.114   5.897
 5770SOL     OW18208   2.067   4.312   1.992
 5770SOL    HW118209   1.972   4.334   2.016
 5770SOL    HW218210   2.068   4.234   1.930
 5771SOL     OW18211   2.664   4.763   3.782
 5771SOL    HW118212   2.731   4.838   3.780
 5771SOL    HW218213   2.671   4.716   3.870
 5772SOL     OW18214   3.166   6.893   3.108
 5772SOL    HW118215   3.067   6.906   3.108
 5772SOL    HW218216   3.203   6.908   3.200
 5773SOL     OW18217   5.525   1.308   2.459
 5773SOL    HW118218   5.601   1.372   2.442
 5773SOL    HW218219   5.444   1.339   2.409
 5774SOL     OW18220   0.561   6.802   2.863
 5774SOL    HW118221   0.649   6.758   2.848
 5774SOL    HW218222   0.566   6.858   2.946
 5775SOL     OW18223   6.402   5.011   1.674
 5775SOL    HW118224   6.338   4.935   1.688
 5775SOL    HW218225   6.491   4.975   1.647
 5776SOL     OW18226   2.636   1.088   4.490
 5776SOL    HW118227   2.590   1.106   4.577
 5776SOL    HW218228   2.637   1.172   4.435
 5777SOL     OW18229   1.998   6.822   1.954
 5777SOL    HW118230   1.955   6.852   1.869
 5777SOL    HW218231   2.009   6.900   2.015
 5778SOL     OW18232   0.002   0.660   1.197
 5778SOL    HW118233   0.080   0.721   1.182
 5778SOL    HW218234   7.019   0.643   1.295
 5779SOL     OW18235   5.647   1.296   6.588
 5779SOL    HW118236   5.584   1.265   6.659
 5779SOL    HW218237   5.712   1.361   6.627
 5780SOL     OW18238   5.316   4.857   4.183
 5780SOL    HW118239   5.241   4.922   4.174
 5780SOL    HW218240   5.295   4.791   4.255
 5781SOL     OW18241   1.362   5.540   5.904
 5781SOL    HW118242   1.300   5.495   5.968
 5781SOL    HW218243   1.348   5.639   5.910
 5782SOL     OW18244   0.492   0.859   7.000
 5782SOL    HW118245   0.574   0.877   0.026
 5782SOL    HW218246   0.501   0.769   6.958
 5783SOL     OW18247   2.487   2.325   0.382
 5783SOL    HW118248   2.520   2.343   0.290
 5783SOL    HW218249   2.548   2.368   0.449
 5784SOL     OW18250   6.863   6.048   6.908
 5784SOL    HW118251   6.884   5.975   6.973
 5784SOL    HW218252   6.934   6.119   6.914
 5785SOL     OW18253   1.387   1.187   0.406
 5785SOL    HW118254   1.294   1.187   0.442
 5785SOL    HW218255   1.417   1.093   0.390
 5786SOL     OW18256   6.417   5.429   1.439
 5786SOL    HW118257   6.426   5.354   1.373
 5786SOL    HW218258   6.436   5.395   1.531
 5787SOL     OW18259   2.373   3.063   6.422
 5787SOL    HW118260   2.433   3.030   6.350
 5787SOL    HW218261   2.306   3.126   6.383
 5788SOL     OW18262   3.317   0.568   3.741
 5788SOL    HW118263   3.383   0.642   3.751
 5788SOL    HW218264   3.363   0.480   3.749
 5789SOL     OW18265   3.933   4.940   6.392
 5789SOL    HW118266   3.876   4.876   6.342
 5789SOL    HW218267   3.942   5.025   6.339
 5790SOL     OW18268   1.212   3.445   3.661
 5790SOL    HW118269   1.167   3.429   3.749
 5790SOL    HW218270   1.156   3.406   3.587
 5791SOL     OW18271   2.237   0.507   3.113
 5791SOL    HW118272   2.271   0.591   3.154
 5791SOL    HW218273   2.200   0.447   3.185
 5792SOL     OW18274   6.916   2.790   2.791
 5792SOL    HW118275   7.012   2.763   2.805
 5792SOL    HW218276   6.877   2.819   2.878
 5793SOL     OW18277   0.136   0.915   4.185
 5793SOL    HW118278   0.056   0.882   4.235
 5793SOL    HW218279   0.180   0.988   4.238
 5794SOL     OW18280   5.404   4.942   6.058
 5794SOL    HW118281   5.374   4.943   6.154
 5794SOL    HW218282   5.351   5.010   6.006
 5795SOL     OW18283   5.531   4.086   6.499
 5795SOL    HW118284   5.520   4.182   6.523
 5795SOL    HW218285   5.617   4.073   6.450
 5796SOL     OW18286   3.271   2.654   0.773
 5796SOL    HW118287   3.350   2.596   0.792
 5796SOL    HW218288   3.203   2.603   0.722
 5797SOL     OW18289   3.217   2.950   6.047
 5797SOL    HW118290   3.260   3.028   6.001
 5797SOL    HW218291   3.287   2.884   6.073
 5798SOL     OW18292   6.894   5.477   4.561
 5798SOL    HW118293   6.886   5.565   4.514
 5798SOL    HW218294   6.989   5.460   4.585
 5799SOL     OW18295   5.431   0.788   3.589
 5799SOL    HW118296   5.429   0.882   3.624
 5799SOL    HW218297   5.474   0.728   3.656
 5800SOL     OW18298   5.828   5.346   6.904
 5800SOL    HW118299   5.890   5.419   6.876
 5800SOL    HW218300   5.789   5.303   6.822
 5801SOL     OW18301   2.112   0.942   2.822
 5801SOL    HW118302   2.124   0.919   2.919
 5801SOL    HW218303   2.194   0.917   2.771
 5802SOL     OW18304   0.165   2.332   4.508
 5802SOL    HW118305   0.155   2.420   4.462
 5802SOL    HW218306   0.105   2.329   4.588
 5803SOL     OW18307   1.661   5.151   0.728
 5803SOL    HW118308   1.643   5.249   0.740
 5803SOL    HW218309   1.609   5.117   0.650
 5804SOL     OW18310   6.451   3.114   5.726
 5804SOL    HW118311   6.361   3.116   5.684
 5804SOL    HW218312   6.517   3.161   5.667
 5805SOL     OW18313   5.888   3.402   6.958
 5805SOL    HW118314   5.862   3.344   0.006
 5805SOL    HW218315   5.819   3.394   6.886
 5806SOL     OW18316   0.186   6.794   6.780
 5806SOL    HW118317   0.179   6.758   6.873
 5806SOL    HW218318   0.121   6.869   6.768
 5807SOL     OW18319   2.075   3.714   1.986
 5807SOL    HW118320   2.094   3.750   2.077
 5807SOL    HW218321   2.108   3.620   1.980
 5808SOL     OW18322   6.506   2.207   3.324
 5808SOL    HW118323   6.538   2.179   3.233
 5808SOL    HW218324   6.414   2.244   3.318
 5809SOL     OW18325   6.715   3.152   4.013
 5809SOL    HW118326   6.811   3.137   4.038
 5809SOL    HW218327   6.709   3.230   3.950
 5810SOL     OW18328   2.587   2.460   2.572
 5810SOL    HW118329   2.560   2.554   2.551
 5810SOL    HW218330   2.506   2.404   2.586
 5811SOL     OW18331   2.816   1.377   2.581
 5811SOL    HW118332   2.782   1.463   2.618
 5811SOL    HW218333   2.767   1.301   2.623
 5812SOL     OW18334   4.643   0.567   4.611
 5812SOL    HW118335   4.594   0.653   4.593
 5812SOL    HW218336   4.737   0.576   4.579
 5813SOL     OW18337   1.350   1.265   5.329
 5813SOL    HW118338   1.398   1.343   5.289
 5813SOL    HW218339   1.377   1.255   5.425
 5814SOL     OW18340   0.500   5.108   1.016
 5814SOL    HW118341   0.540   5.044   0.950
 5814SOL    HW218342   0.412   5.073   1.048
 5815SOL     OW18343   3.517   1.164   3.552
 5815SOL    HW118344   3.468   1.166   3.465
 5815SOL    HW218345   3.492   1.244   3.606
 5816SOL     OW18346   5.017   6.807   1.249
 5816SOL    HW118347   5.057   6.715   1.244
 5816SOL    HW218348   5.058   6.865   1.178
 5817SOL     OW18349   5.384   2.137   5.478
 5817SOL    HW118350   5.312   2.204   5.460
 5817SOL    HW218351   5.463   2.184   5.516
 5818SOL     OW18352   6.281   6.651   5.738
 5818SOL    HW118353   6.332   6.653   5.651
 5818SOL    HW218354   6.259   6.557   5.761
 5819SOL     OW18355   5.633   0.193   0.949
 5819SOL    HW118356   5.574   0.115   0.927
 5819SOL    HW218357   5.626   0.214   1.047
 5820SOL     OW18358   6.240   5.786   2.990
 5820SOL    HW118359   6.333   5.821   2.986
 5820SOL    HW218360   6.215   5.768   3.085
 5821SOL     OW18361   3.743   0.142   1.887
 5821SOL    HW118362   3.681   0.170   1.959
 5821SOL    HW218363   3.833   0.183   1.902
 5822SOL     OW18364   0.842   1.162   2.601
 5822SOL    HW118365   0.746   1.155   2.574
 5822SOL    HW218366   0.850   1.222   2.680
 5823SOL     OW18367   2.418   2.642   4.128
 5823SOL    HW118368   2.392   2.566   4.188
 5823SOL    HW218369   2.493   2.694   4.170
 5824SOL     OW18370   4.374   0.598   3.742
 5824SOL    HW118371   4.340   0.597   3.836
 5824SOL    HW218372   4.363   0.690   3.704
 5825SOL     OW18373   2.745   1.143   0.802
 5825SOL    HW118374   2.803   1.072   0.761
 5825SOL    HW218375   2.690   1.103   0.874
 5826SOL     OW18376   6.386   0.406   4.826
 5826SOL    HW118377   6.436   0.325   4.794
 5826SOL    HW218378   6.289   0.396   4.804
 5827SOL     OW18379   0.955   5.089   5.283
 5827SOL    HW118380   1.001   5.122   5.364
 5827SOL    HW218381   0.898   5.010   5.306
 5828SOL     OW18382   6.818   3.101   1.595
 5828SOL    HW118383   6.870   3.183   1.573
 5828SOL    HW218384   6.770   3.114   1.682
 5829SOL     OW18385   1.206   1.699   1.949
 5829SOL    HW118386   1.255   1.781   1.978
 5829SOL    HW218387   1.134   1.725   1.884
 5830SOL     OW18388   2.322   0.916   5.690
 5830SOL    HW118389   2.294   0.883   5.780
 5830SOL    HW218390   2.345   0.838   5.632
 5831SOL     OW18391   5.753   5.969   3.073
 5831SOL    HW118392   5.762   6.038   3.002
 5831SOL    HW218393   5.681   5.996   3.137
 5832SOL     OW18394   3.568   3.491   4.815
 5832SOL    HW118395   3.505   3.419   4.787
 5832SOL    HW218396   3.599   3.542   4.735
 5833SOL     OW18397   3.563   3.239   4.965
 5833SOL    HW118398   3.527   3.215   4.875
 5833SOL    HW218399   3.629   3.314   4.956
 5834SOL     OW18400   6.280   0.571   0.163
 5834SOL    HW118401   6.280   0.615   0.253
 5834SOL    HW218402   6.338   0.623   0.101
 5835SOL     OW18403   5.211   2.756   3.910
 5835SOL    HW118404   5.174   2.738   3.819
 5835SOL    HW218405   5.138   2.746   3.978
 5836SOL     OW18406   3.550   6.302   2.385
 5836SOL    HW118407   3.545   6.239   2.307
 5836SOL    HW218408   3.496   6.267   2.461
 5837SOL     OW18409   4.839   4.950   6.233
 5837SOL    HW118410   4.899   4.985   6.161
 5837SOL    HW218411   4.888   4.950   6.320
 5838SOL     OW18412   0.222   2.161   5.421
 5838SOL    HW118413   0.247   2.072   5.382
 5838SOL    HW218414   0.143   2.150   5.480
 5839SOL     OW18415   0.095   3.180   2.647
 5839SOL    HW118416   0.019   3.116   2.647
 5839SOL    HW218417   0.165   3.149   2.581
 5840SOL     OW18418   2.110   5.245   0.161
 5840SOL    HW118419   2.148   5.202   0.243
 5840SOL    HW218420   2.118   5.183   0.083
 5841SOL     OW18421   6.272   2.260   2.720
 5841SOL    HW118422   6.313   2.337   2.671
 5841SOL    HW218423   6.344   2.210   2.769
 5842SOL     OW18424   4.080   3.029   0.441
 5842SOL    HW118425   4.002   2.991   0.490
 5842SOL    HW218426   4.081   3.129   0.452
 5843SOL     OW18427   1.613   2.649   1.514
 5843SOL    HW118428   1.684   2.683   1.576
 5843SOL    HW218429   1.543   2.720   1.503
 5844SOL     OW18430   1.014   6.167   6.969
 5844SOL    HW118431   0.978   6.190   6.878
 5844SOL    HW218432   0.938   6.155   0.003
 5845SOL     OW18433   1.235   1.929   4.434
 5845SOL    HW118434   1.219   1.848   4.491
 5845SOL    HW218435   1.187   2.007   4.473
 5846SOL     OW18436   0.254   3.360   6.338
 5846SOL    HW118437   0.164   3.382   6.377
 5846SOL    HW218438   0.252   3.267   6.300
 5847SOL     OW18439   1.799   2.108   3.613
 5847SOL    HW118440   1.729   2.168   3.574
 5847SOL    HW218441   1.839   2.052   3.541
 5848SOL     OW18442   1.388   4.968   3.725
 5848SOL    HW118443   1.382   5.048   3.666
 5848SOL    HW218444   1.465   4.980   3.789
 5849SOL     OW18445   3.405   6.691   5.298
 5849SOL    HW118446   3.450   6.649   5.377
 5849SOL    HW218447   3.409   6.629   5.220
 5850SOL     OW18448   1.009   4.033   3.247
 5850SOL    HW118449   0.985   4.089   3.326
 5850SOL    HW218450   1.108   4.030   3.236
 5851SOL     OW18451   5.287   2.956   2.075
 5851SOL    HW118452   5.225   2.964   1.997
 5851SOL    HW218453   5.381   2.946   2.042
 5852SOL     OW18454   3.968   5.836   2.677
 5852SOL    HW118455   3.963   5.803   2.582
 5852SOL    HW218456   3.879   5.825   2.721
 5853SOL     OW18457   3.785   4.125   5.447
 5853SOL    HW118458   3.689   4.152   5.443
 5853SOL    HW218459   3.797   4.037   5.401
 5854SOL     OW18460   0.568   1.235   6.690
 5854SOL    HW118461   0.627   1.301   6.737
 5854SOL    HW218462   0.618   1.149   6.679
 5855SOL     OW18463   1.562   0.971   5.120
 5855SOL    HW118464   1.594   0.992   5.028
 5855SOL    HW218465   1.583   1.048   5.181
 5856SOL     OW18466   2.478   5.386   3.692
 5856SOL    HW118467   2.410   5.315   3.672
 5856SOL    HW218468   2.435   5.462   3.740
 5857SOL     OW18469   0.216   2.760   5.966
 5857SOL    HW118470   0.172   2.848   5.949
 5857SOL    HW218471   0.298   2.752   5.909
 5858SOL     OW18472   3.421   6.591   3.164
 5858SOL    HW118473   3.469   6.657   3.106
 5858SOL    HW218474   3.441   6.610   3.260
 5859SOL     OW18475   6.519   5.841   1.574
 5859SOL    HW118476   6.609   5.798   1.580
 5859SOL    HW218477   6.461   5.806   1.648
 5860SOL     OW18478   1.464   3.555   1.205
 5860SOL    HW118479   1.436   3.469   1.163
 5860SOL    HW218480   1.560   3.548   1.233
 5861SOL     OW18481   6.050   1.973   3.719
 5861SOL    HW118482   6.128   1.967   3.782
 5861SOL    HW218483   6.075   2.030   3.641
 5862SOL     OW18484   4.842   4.283   3.379
 5862SOL    HW118485   4.892   4.215   3.433
 5862SOL    HW218486   4.794   4.236   3.304
 5863SOL     OW18487   1.629   1.220   0.885
 5863SOL    HW118488   1.541   1.231   0.839
 5863SOL    HW218489   1.703   1.246   0.824
 5864SOL     OW18490   4.460   5.414   0.689
 5864SOL    HW118491   4.453   5.338   0.624
 5864SOL    HW218492   4.491   5.496   0.641
 5865SOL     OW18493   4.544   1.114   3.534
 5865SOL    HW118494   4.530   1.099   3.436
 5865SOL    HW218495   4.594   1.036   3.573
 5866SOL     OW18496   3.139   0.907   6.550
 5866SOL    HW118497   3.229   0.928   6.590
 5866SOL    HW218498   3.078   0.874   6.623
 5867SOL     OW18499   0.189   2.623   0.871
 5867SOL    HW118500   0.281   2.647   0.840
 5867SOL    HW218501   0.150   2.699   0.922
 5868SOL     OW18502   1.230   6.917   4.823
 5868SOL    HW118503   1.161   6.984   4.850
 5868SOL    HW218504   1.258   6.935   4.728
 5869SOL     OW18505   3.222   4.930   3.737
 5869SOL    HW118506   3.225   4.956   3.641
 5869SOL    HW218507   3.194   5.008   3.792
 5870SOL     OW18508   5.260   4.866   4.616
 5870SOL    HW118509   5.349   4.898   4.581
 5870SOL    HW218510   5.268   4.771   4.645
 5871SOL     OW18511   2.624   3.204   0.279
 5871SOL    HW118512   2.589   3.291   0.244
 5871SOL    HW218513   2.588   3.129   0.224
 5872SOL     OW18514   3.777   6.020   4.231
 5872SOL    HW118515   3.709   5.961   4.188
 5872SOL    HW218516   3.732   6.084   4.293
 5873SOL     OW18517   2.205   3.498   0.078
 5873SOL    HW118518   2.188   3.463   0.170
 5873SOL    HW218519   2.248   3.427   0.022
 5874SOL     OW18520   1.499   4.285   0.163
 5874SOL    HW118521   1.485   4.383   0.156
 5874SOL    HW218522   1.549   4.252   0.083
 5875SOL     OW18523   4.518   2.079   0.214
 5875SOL    HW118524   4.578   2.153   0.240
 5875SOL    HW218525   4.536   2.053   0.119
 5876SOL     OW18526   3.830   4.338   6.338
 5876SOL    HW118527   3.759   4.399   6.305
 5876SOL    HW218528   3.801   4.243   6.325
 5877SOL     OW18529   6.410   0.076   2.123
 5877SOL    HW118530   6.471   0.091   2.201
 5877SOL    HW218531   6.315   0.071   2.156
 5878SOL     OW18532   5.181   4.602   2.155
 5878SOL    HW118533   5.122   4.640   2.226
 5878SOL    HW218534   5.225   4.677   2.105
 5879SOL     OW18535   3.536   3.256   5.696
 5879SOL    HW118536   3.560   3.351   5.716
 5879SOL    HW218537   3.441   3.240   5.724
 5880SOL     OW18538   6.015   2.822   6.127
 5880SOL    HW118539   5.977   2.751   6.068
 5880SOL    HW218540   6.030   2.905   6.074
 5881SOL     OW18541   1.444   6.375   2.506
 5881SOL    HW118542   1.383   6.406   2.434
 5881SOL    HW218543   1.479   6.453   2.557
 5882SOL     OW18544   1.827   4.974   5.800
 5882SOL    HW118545   1.753   5.032   5.768
 5882SOL    HW218546   1.914   5.021   5.789
 5883SOL     OW18547   6.224   4.881   0.165
 5883SOL    HW118548   6.309   4.842   0.130
 5883SOL    HW218549   6.215   4.976   0.136
 5884SOL     OW18550   6.974   1.250   2.742
 5884SOL    HW118551   6.973   1.223   2.839
 5884SOL    HW218552   7.003   1.172   2.686
 5885SOL     OW18553   0.097   5.293   0.957
 5885SOL    HW118554   0.088   5.375   0.902
 5885SOL    HW218555   0.014   5.280   1.013
 5886SOL     OW18556   1.857   4.356   3.679
 5886SOL    HW118557   1.794   4.291   3.722
 5886SOL    HW218558   1.808   4.440   3.657
 5887SOL     OW18559   2.372   2.995   0.758
 5887SOL    HW118560   2.303   2.927   0.733
 5887SOL    HW218561   2.439   2.953   0.819
 5888SOL     OW18562   2.630   6.548   1.805
 5888SOL    HW118563   2.711   6.533   1.862
 5888SOL    HW218564   2.637   6.491   1.723
 5889SOL     OW18565   5.923   1.019   2.031
 5889SOL    HW118566   5.949   1.086   2.101
 5889SOL    HW218567   5.963   1.046   1.943
 5890SOL     OW18568   2.221   5.084   3.386
 5890SOL    HW118569   2.208   4.993   3.425
 5890SOL    HW218570   2.223   5.152   3.459
 5891SOL     OW18571   2.316   3.770   6.504
 5891SOL    HW118572   2.369   3.706   6.449
 5891SOL    HW218573   2.219   3.748   6.497
 5892SOL     OW18574   0.747   2.883   0.508
 5892SOL    HW118575   0.738   2.953   0.437
 5892SOL    HW218576   0.657   2.851   0.535
 5893SOL     OW18577   0.752   6.759   0.858
 5893SOL    HW118578   0.768   6.661   0.846
 5893SOL    HW218579   0.664   6.774   0.903
 5894SOL     OW18580   1.829   5.977   0.034
 5894SOL    HW118581   1.848   5.989   6.966
 5894SOL    HW218582   1.911   5.941   0.080
 5895SOL     OW18583   5.589   4.438   3.273
 5895SOL    HW118584   5.581   4.364   3.206
 5895SOL    HW218585   5.577   4.402   3.365
 5896SOL     OW18586   5.498   2.457   1.962
 5896SOL    HW118587   5.443   2.531   2.001
 5896SOL    HW218588   5.465   2.436   1.870
 5897SOL     OW18589   3.712   2.181   0.586
 5897SOL    HW118590   3.713   2.167   0.685
 5897SOL    HW218591   3.725   2.278   0.566
 5898SOL     OW18592   2.186   1.358   6.402
 5898SOL    HW118593   2.256   1.295   6.434
 5898SOL    HW218594   2.098   1.332   6.441
 5899SOL     OW18595   0.416   6.484   6.573
 5899SOL    HW118596   0.505   6.531   6.575
 5899SOL    HW218597   0.413   6.418   6.648
 5900SOL     OW18598   6.026   5.929   2.763
 5900SOL    HW118599   6.059   5.857   2.823
 5900SOL    HW218600   6.039   5.901   2.668
 5901SOL     OW18601   2.424   0.587   4.953
 5901SOL    HW118602   2.488   0.554   4.884
 5901SOL    HW218603   2.471   0.596   5.040
 5902SOL     OW18604   4.286   3.908   5.744
 5902SOL    HW118605   4.320   3.843   5.813
 5902SOL    HW218606   4.302   3.870   5.653
 5903SOL     OW18607   6.316   1.868   5.510
 5903SOL    HW118608   6.279   1.776   5.494
 5903SOL    HW218609   6.362   1.900   5.426
 5904SOL     OW18610   0.642   5.020   1.644
 5904SOL    HW118611   0.668   4.960   1.719
 5904SOL    HW218612   0.546   5.046   1.653
 5905SOL     OW18613   5.591   2.103   4.463
 5905SOL    HW118614   5.680   2.110   4.420
 5905SOL    HW218615   5.524   2.155   4.410
 5906SOL     OW18616   4.419   1.556   5.980
 5906SOL    HW118617   4.441   1.653   5.987
 5906SOL    HW218618   4.489   1.504   6.030
 5907SOL     OW18619   1.285   3.481   6.020
 5907SOL    HW118620   1.319   3.417   6.089
 5907SOL    HW218621   1.349   3.558   6.012
 5908SOL     OW18622   4.527   4.087   6.404
 5908SOL    HW118623   4.447   4.144   6.418
 5908SOL    HW218624   4.602   4.142   6.368
 5909SOL     OW18625   6.498   4.722   3.753
 5909SOL    HW118626   6.565   4.751   3.821
 5909SOL    HW218627   6.420   4.785   3.755
 5910SOL     OW18628   3.240   4.630   0.632
 5910SOL    HW118629   3.222   4.559   0.564
 5910SOL    HW218630   3.302   4.595   0.701
 5911SOL     OW18631   6.336   6.975   6.946
 5911SOL    HW118632   6.314   6.889   6.993
 5911SOL    HW218633   6.435   6.990   6.949
 5912SOL     OW18634   0.960   3.447   5.183
 5912SOL    HW118635   0.947   3.446   5.084
 5912SOL    HW218636   1.046   3.401   5.206
 5913SOL     OW18637   1.543   2.002   4.741
 5913SOL    HW118638   1.517   2.093   4.710
 5913SOL    HW218639   1.609   2.010   4.816
 5914SOL     OW18640   1.737   6.219   0.792
 5914SOL    HW118641   1.795   6.207   0.872
 5914SOL    HW218642   1.675   6.297   0.807
 5915SOL     OW18643   5.532   2.981   4.345
 5915SOL    HW118644   5.497   2.900   4.296
 5915SOL    HW218645   5.501   3.063   4.297
 5916SOL     OW18646   3.320   0.018   6.136
 5916SOL    HW118647   3.275   0.105   6.112
 5916SOL    HW218648   3.305   7.027   6.233
 5917SOL     OW18649   3.333   4.074   2.468
 5917SOL    HW118650   3.354   4.049   2.374
 5917SOL    HW218651   3.419   4.093   2.517
 5918SOL     OW18652   2.536   2.405   3.795
 5918SOL    HW118653   2.491   2.364   3.874
 5918SOL    HW218654   2.494   2.494   3.775
 5919SOL     OW18655   1.499   2.369   6.870
 5919SOL    HW118656   1.512   2.347   6.967
 5919SOL    HW218657   1.481   2.285   6.819
 5920SOL     OW18658   2.446   5.385   0.096
 5920SOL    HW118659   2.410   5.417   0.008
 5920SOL    HW218660   2.513   5.313   0.080
 5921SOL     OW18661   3.467   5.447   5.763
 5921SOL    HW118662   3.431   5.402   5.682
 5921SOL    HW218663   3.450   5.389   5.843
 5922SOL     OW18664   5.869   4.557   1.445
 5922SOL    HW118665   5.852   4.460   1.426
 5922SOL    HW218666   5.792   4.612   1.412
 5923SOL     OW18667   6.625   0.678   3.520
 5923SOL    HW118668   6.677   0.725   3.592
 5923SOL    HW218669   6.594   0.589   3.553
 5924SOL     OW18670   6.063   1.509   4.956
 5924SOL    HW118671   6.123   1.531   4.878
 5924SOL    HW218672   5.985   1.571   4.956
 5925SOL     OW18673   6.233   5.598   0.422
 5925SOL    HW118674   6.234   5.684   0.370
 5925SOL    HW218675   6.151   5.546   0.399
 5926SOL     OW18676   3.252   5.278   2.634
 5926SOL    HW118677   3.195   5.309   2.710
 5926SOL    HW218678   3.195   5.257   2.555
 5927SOL     OW18679   2.271   5.277   2.307
 5927SOL    HW118680   2.356   5.231   2.280
 5927SOL    HW218681   2.285   5.323   2.395
 5928SOL     OW18682   0.521   6.436   1.408
 5928SOL    HW118683   0.525   6.370   1.333
 5928SOL    HW218684   0.527   6.529   1.371
 5929SOL     OW18685   1.182   6.950   5.498
 5929SOL    HW118686   1.187   6.851   5.482
 5929SOL    HW218687   1.247   6.997   5.440
 5930SOL     OW18688   6.353   1.350   5.157
 5930SOL    HW118689   6.343   1.369   5.059
 5930SOL    HW218690   6.262   1.334   5.197
 5931SOL     OW18691   5.776   5.210   1.509
 5931SOL    HW118692   5.865   5.219   1.464
 5931SOL    HW218693   5.720   5.290   1.487
 5932SOL     OW18694   2.436   0.319   0.259
 5932SOL    HW118695   2.370   0.271   0.317
 5932SOL    HW218696   2.507   0.360   0.317
 5933SOL     OW18697   6.066   3.656   2.573
 5933SOL    HW118698   5.973   3.632   2.543
 5933SOL    HW218699   6.060   3.713   2.655
 5934SOL     OW18700   3.429   3.916   2.227
 5934SOL    HW118701   3.370   3.836   2.222
 5934SOL    HW218702   3.511   3.895   2.281
 5935SOL     OW18703   4.081   3.731   2.949
 5935SOL    HW118704   4.066   3.688   3.038
 5935SOL    HW218705   4.119   3.664   2.886
 5936SOL     OW18706   5.681   5.988   6.358
 5936SOL    HW118707   5.624   5.983   6.276
 5936SOL    HW218708   5.768   6.033   6.335
 5937SOL     OW18709   1.704   4.293   0.553
 5937SOL    HW118710   1.775   4.226   0.575
 5937SOL    HW218711   1.729   4.381   0.592
 5938SOL     OW18712   1.779   4.375   1.366
 5938SOL    HW118713   1.695   4.381   1.311
 5938SOL    HW218714   1.782   4.287   1.413
 5939SOL     OW18715   2.081   1.154   2.651
 5939SOL    HW118716   2.109   1.094   2.726
 5939SOL    HW218717   2.090   1.104   2.564
 5940SOL     OW18718   4.036   5.369   3.276
 5940SOL    HW118719   4.073   5.302   3.341
 5940SOL    HW218720   4.072   5.460   3.297
 5941SOL     OW18721   6.859   3.552   2.713
 5941SOL    HW118722   6.891   3.465   2.751
 5941SOL    HW218723   6.903   3.566   2.624
 5942SOL     OW18724   6.442   1.952   5.281
 5942SOL    HW118725   6.401   2.030   5.233
 5942SOL    HW218726   6.527   1.925   5.235
 5943SOL     OW18727   0.912   5.283   0.831
 5943SOL    HW118728   0.824   5.331   0.835
 5943SOL    HW218729   0.929   5.237   0.918
 5944SOL     OW18730   5.125   1.965   2.863
 5944SOL    HW118731   5.038   1.949   2.818
 5944SOL    HW218732   5.197   1.975   2.794
 5945SOL     OW18733   6.699   4.985   5.889
 5945SOL    HW118734   6.765   5.026   5.826
 5945SOL    HW218735   6.721   5.012   5.983
 5946SOL     OW18736   3.940   2.781   5.269
 5946SOL    HW118737   3.933   2.851   5.199
 5946SOL    HW218738   3.998   2.706   5.236
 5947SOL     OW18739   4.301   3.836   1.318
 5947SOL    HW118740   4.237   3.812   1.391
 5947SOL    HW218741   4.311   3.935   1.312
 5948SOL     OW18742   3.522   5.274   3.577
 5948SOL    HW118743   3.613   5.270   3.618
 5948SOL    HW218744   3.501   5.185   3.536
 5949SOL     OW18745   4.659   4.356   2.797
 5949SOL    HW118746   4.759   4.365   2.800
 5949SOL    HW218747   4.633   4.261   2.811
 5950SOL     OW18748   6.379   2.611   3.810
 5950SOL    HW118749   6.415   2.528   3.854
 5950SOL    HW218750   6.349   2.589   3.717
 5951SOL     OW18751   1.950   6.947   4.019
 5951SOL    HW118752   1.960   6.847   4.013
 5951SOL    HW218753   1.985   6.979   4.107
 5952SOL     OW18754   6.913   6.341   4.758
 5952SOL    HW118755   6.912   6.439   4.735
 5952SOL    HW218756   7.005   6.315   4.787
 5953SOL     OW18757   0.546   3.450   6.244
 5953SOL    HW118758   0.546   3.550   6.245
 5953SOL    HW218759   0.452   3.416   6.249
 5954SOL     OW18760   0.971   5.113   6.717
 5954SOL    HW118761   0.938   5.026   6.755
 5954SOL    HW218762   1.008   5.170   6.791
 5955SOL     OW18763   4.529   5.256   2.882
 5955SOL    HW118764   4.599   5.251   2.811
 5955SOL    HW218765   4.564   5.308   2.960
 5956SOL     OW18766   6.685   1.966   0.262
 5956SOL    HW118767   6.663   1.954   0.166
 5956SOL    HW218768   6.632   2.042   0.299
 5957SOL     OW18769   4.693   0.071   5.639
 5957SOL    HW118770   4.789   0.065   5.611
 5957SOL    HW218771   4.642   7.023   5.601
 5958SOL     OW18772   1.304   5.343   2.723
 5958SOL    HW118773   1.296   5.251   2.762
 5958SOL    HW218774   1.400   5.367   2.714
 5959SOL     OW18775   2.113   0.828   6.892
 5959SOL    HW118776   2.135   0.864   6.801
 5959SOL    HW218777   2.052   0.892   6.939
 5960SOL     OW18778   3.380   6.743   4.976
 5960SOL    HW118779   3.281   6.751   4.988
 5960SOL    HW218780   3.425   6.821   5.020
 5961SOL     OW18781   2.387   1.186   6.044
 5961SOL    HW118782   2.421   1.162   5.953
 5961SOL    HW218783   2.355   1.281   6.044
 5962SOL     OW18784   5.311   5.318   2.750
 5962SOL    HW118785   5.274   5.259   2.678
 5962SOL    HW218786   5.408   5.298   2.761
 5963SOL     OW18787   4.047   3.895   1.889
 5963SOL    HW118788   4.124   3.838   1.917
 5963SOL    HW218789   4.078   3.966   1.825
 5964SOL     OW18790   1.400   3.942   5.903
 5964SOL    HW118791   1.426   3.941   5.807
 5964SOL    HW218792   1.365   4.033   5.926
 5965SOL     OW18793   2.242   1.321   4.341
 5965SOL    HW118794   2.302   1.290   4.268
 5965SOL    HW218795   2.247   1.257   4.418
 5966SOL     OW18796   1.776   6.414   4.151
 5966SOL    HW118797   1.803   6.467   4.231
 5966SOL    HW218798   1.848   6.420   4.082
 5967SOL     OW18799   4.419   6.610   2.211
 5967SOL    HW118800   4.437   6.686   2.149
 5967SOL    HW218801   4.429   6.523   2.162
 5968SOL     OW18802   0.282   2.106   4.225
 5968SOL    HW118803   0.330   2.145   4.304
 5968SOL    HW218804   0.336   2.030   4.188
 5969SOL     OW18805   5.645   2.874   2.900
 5969SOL    HW118806   5.677   2.960   2.939
 5969SOL    HW218807   5.670   2.870   2.803
 5970SOL     OW18808   2.158   3.155   3.673
 5970SOL    HW118809   2.152   3.201   3.585
 5970SOL    HW218810   2.098   3.075   3.673
 5971SOL     OW18811   2.255   6.568   2.933
 5971SOL    HW118812   2.305   6.590   2.849
 5971SOL    HW218813   2.174   6.514   2.910
 5972SOL     OW18814   4.634   6.688   1.555
 5972SOL    HW118815   4.721   6.724   1.521
 5972SOL    HW218816   4.642   6.670   1.654
 5973SOL     OW18817   1.012   4.518   3.351
 5973SOL    HW118818   0.959   4.467   3.283
 5973SOL    HW218819   1.030   4.458   3.429
 5974SOL     OW18820   1.142   4.084   6.392
 5974SOL    HW118821   1.131   4.010   6.325
 5974SOL    HW218822   1.163   4.169   6.345
 5975SOL     OW18823   1.966   3.406   6.956
 5975SOL    HW118824   2.063   3.429   6.966
 5975SOL    HW218825   1.956   3.307   6.949
 5976SOL     OW18826   3.645   3.328   4.533
 5976SOL    HW118827   3.623   3.310   4.437
 5976SOL    HW218828   3.611   3.418   4.559
 5977SOL     OW18829   1.047   3.331   3.474
 5977SOL    HW118830   0.950   3.351   3.456
 5977SOL    HW218831   1.095   3.323   3.387
 5978SOL     OW18832   5.192   5.461   3.065
 5978SOL    HW118833   5.206   5.559   3.050
 5978SOL    HW218834   5.279   5.413   3.056
 5979SOL     OW18835   0.878   0.956   2.424
 5979SOL    HW118836   0.866   1.023   2.350
 5979SOL    HW218837   0.901   1.005   2.509
 5980SOL     OW18838   6.258   3.886   6.213
 5980SOL    HW118839   6.324   3.812   6.227
 5980SOL    HW218840   6.274   3.927   6.122
 5981SOL     OW18841   3.746   1.894   1.304
 5981SOL    HW118842   3.802   1.963   1.259
 5981SOL    HW218843   3.773   1.888   1.400
 5982SOL     OW18844   5.938   2.547   6.723
 5982SOL    HW118845   6.002   2.540   6.647
 5982SOL    HW218846   5.966   2.621   6.784
 5983SOL     OW18847   0.837   1.366   4.809
 5983SOL    HW118848   0.915   1.312   4.840
 5983SOL    HW218849   0.796   1.413   4.887
 5984SOL     OW18850   0.667   6.953   5.618
 5984SOL    HW118851   0.594   7.011   5.579
 5984SOL    HW218852   0.706   6.999   5.698
 5985SOL     OW18853   4.994   3.130   4.272
 5985SOL    HW118854   5.032   3.051   4.224
 5985SOL    HW218855   5.002   3.117   4.371
 5986SOL     OW18856   3.836   3.366   2.286
 5986SOL    HW118857   3.795   3.275   2.293
 5986SOL    HW218858   3.765   3.433   2.267
 5987SOL     OW18859   4.569   6.860   5.713
 5987SOL    HW118860   4.660   6.862   5.754
 5987SOL    HW218861   4.507   6.805   5.770
 5988SOL     OW18862   3.756   0.100   4.450
 5988SOL    HW118863   3.781   0.015   4.495
 5988SOL    HW218864   3.838   0.157   4.436
 5989SOL     OW18865   2.796   1.198   6.533
 5989SOL    HW118866   2.880   1.242   6.503
 5989SOL    HW218867   2.732   1.267   6.567
 5990SOL     OW18868   3.385   5.127   2.026
 5990SOL    HW118869   3.343   5.185   2.096
 5990SOL    HW218870   3.323   5.050   2.006
 5991SOL     OW18871   3.293   5.357   4.088
 5991SOL    HW118872   3.319   5.302   4.008
 5991SOL    HW218873   3.249   5.299   4.156
 5992SOL     OW18874   4.418   1.705   4.585
 5992SOL    HW118875   4.392   1.665   4.497
 5992SOL    HW218876   4.336   1.721   4.639
 5993SOL     OW18877   3.890   5.714   3.909
 5993SOL    HW118878   3.968   5.665   3.870
 5993SOL    HW218879   3.860   5.784   3.845
 5994SOL     OW18880   6.357   3.037   1.333
 5994SOL    HW118881   6.316   3.117   1.288
 5994SOL    HW218882   6.363   2.962   1.267
 5995SOL     OW18883   1.225   4.698   1.459
 5995SOL    HW118884   1.156   4.721   1.391
 5995SOL    HW218885   1.215   4.759   1.538
 5996SOL     OW18886   0.556   5.486   5.865
 5996SOL    HW118887   0.553   5.505   5.767
 5996SOL    HW218888   0.646   5.451   5.889
 5997SOL     OW18889   0.561   0.463   1.626
 5997SOL    HW118890   0.476   0.505   1.594
 5997SOL    HW218891   0.546   0.366   1.644
 5998SOL     OW18892   4.446   2.114   3.093
 5998SOL    HW118893   4.426   2.180   3.165
 5998SOL    HW218894   4.394   2.030   3.109
 5999SOL     OW18895   2.480   2.637   3.298
 5999SOL    HW118896   2.426   2.582   3.361
 5999SOL    HW218897   2.492   2.588   3.212
 6000SOL     OW18898   4.551   6.559   3.026
 6000SOL    HW118899   4.495   6.580   2.946
 6000SOL    HW218900   4.547   6.635   3.090
 6001SOL     OW18901   5.975   1.797   0.088
 6001SOL    HW118902   5.986   1.775   7.020
 6001SOL    HW218903   6.007   1.890   0.105
 6002SOL     OW18904   1.838   0.400   1.744
 6002SOL    HW118905   1.902   0.477   1.741
 6002SOL    HW218906   1.793   0.397   1.833
 6003SOL     OW18907   5.184   3.888   3.858
 6003SOL    HW118908   5.116   3.815   3.866
 6003SOL    HW218909   5.143   3.967   3.812
 6004SOL     OW18910   0.054   3.722   1.393
 6004SOL    HW118911   0.144   3.707   1.435
 6004SOL    HW218912   7.014   3.729   1.466
 6005SOL     OW18913   2.387   6.025   2.597
 6005SOL    HW118914   2.388   6.016   2.497
 6005SOL    HW218915   2.297   5.999   2.631
 6006SOL     OW18916   2.179   5.792   6.958
 6006SOL    HW118917   2.215   5.885   6.955
 6006SOL    HW218918   2.124   5.780   0.012
 6007SOL     OW18919   5.363   2.466   4.442
 6007SOL    HW118920   5.299   2.456   4.365
 6007SOL    HW218921   5.326   2.532   4.507
 6008SOL     OW18922   4.877   4.656   0.728
 6008SOL    HW118923   4.918   4.571   0.762
 6008SOL    HW218924   4.943   4.731   0.738
 6009SOL     OW18925   3.525   1.791   4.400
 6009SOL    HW118926   3.554   1.870   4.454
 6009SOL    HW218927   3.588   1.779   4.323
 6010SOL     OW18928   1.536   3.116   3.475
 6010SOL    HW118929   1.541   3.110   3.375
 6010SOL    HW218930   1.627   3.105   3.514
 6011SOL     OW18931   6.691   3.144   1.850
 6011SOL    HW118932   6.678   3.066   1.911
 6011SOL    HW218933   6.604   3.167   1.806
 6012SOL     OW18934   0.390   3.017   1.089
 6012SOL    HW118935   0.379   2.917   1.087
 6012SOL    HW218936   0.423   3.045   1.179
 6013SOL     OW18937   5.687   0.902   2.096
 6013SOL    HW118938   5.707   0.897   2.194
 6013SOL    HW218939   5.765   0.942   2.048
 6014SOL     OW18940   5.147   0.471   1.288
 6014SOL    HW118941   5.231   0.508   1.249
 6014SOL    HW218942   5.107   0.538   1.350
 6015SOL     OW18943   5.479   1.168   4.706
 6015SOL    HW118944   5.396   1.223   4.714
 6015SOL    HW218945   5.519   1.154   4.796
 6016SOL     OW18946   1.552   6.986   5.593
 6016SOL    HW118947   1.636   0.009   5.609
 6016SOL    HW218948   1.564   6.927   5.513
 6017SOL     OW18949   6.911   3.988   2.397
 6017SOL    HW118950   6.935   4.072   2.348
 6017SOL    HW218951   6.891   4.011   2.493
 6018SOL     OW18952   2.430   5.530   0.974
 6018SOL    HW118953   2.388   5.585   1.047
 6018SOL    HW218954   2.374   5.536   0.892
 6019SOL     OW18955   5.593   6.607   3.377
 6019SOL    HW118956   5.499   6.575   3.365
 6019SOL    HW218957   5.593   6.701   3.413
 6020SOL     OW18958   2.536   0.107   2.841
 6020SOL    HW118959   2.614   0.164   2.868
 6020SOL    HW218960   2.480   0.086   2.922
 6021SOL     OW18961   4.330   0.829   3.615
 6021SOL    HW118962   4.429   0.821   3.602
 6021SOL    HW218963   4.301   0.923   3.597
 6022SOL     OW18964   4.507   1.186   5.907
 6022SOL    HW118965   4.566   1.105   5.907
 6022SOL    HW218966   4.462   1.194   5.996
 6023SOL     OW18967   0.676   1.819   2.633
 6023SOL    HW118968   0.698   1.767   2.716
 6023SOL    HW218969   0.598   1.778   2.587
 6024SOL     OW18970   0.335   5.559   2.435
 6024SOL    HW118971   0.298   5.498   2.365
 6024SOL    HW218972   0.424   5.526   2.465
 6025SOL     OW18973   3.870   2.106   2.212
 6025SOL    HW118974   3.812   2.067   2.284
 6025SOL    HW218975   3.814   2.162   2.151
 6026SOL     OW18976   0.512   4.439   5.919
 6026SOL    HW118977   0.512   4.406   5.825
 6026SOL    HW218978   0.606   4.461   5.947
 6027SOL     OW18979   3.475   3.476   0.419
 6027SOL    HW118980   3.476   3.480   0.519
 6027SOL    HW218981   3.473   3.569   0.382
 6028SOL     OW18982   1.147   4.704   6.860
 6028SOL    HW118983   1.096   4.771   6.914
 6028SOL    HW218984   1.123   4.612   6.888
 6029SOL     OW18985   1.476   4.979   1.609
 6029SOL    HW118986   1.442   5.054   1.553
 6029SOL    HW218987   1.406   4.953   1.676
 6030SOL     OW18988   1.677   0.164   1.637
 6030SOL    HW118989   1.730   0.106   1.575
 6030SOL    HW218990   1.739   0.230   1.680
 6031SOL     OW18991   5.723   0.739   4.480
 6031SOL    HW118992   5.813   0.724   4.437
 6031SOL    HW218993   5.703   0.664   4.543
 6032SOL     OW18994   0.216   3.703   2.598
 6032SOL    HW118995   0.222   3.681   2.500
 6032SOL    HW218996   0.200   3.618   2.649
 6033SOL     OW18997   0.174   6.981   4.751
 6033SOL    HW118998   0.177   6.903   4.814
 6033SOL    HW218999   0.239   6.966   4.677
 6034SOL     OW19000   2.127   4.106   4.850
 6034SOL    HW119001   2.195   4.056   4.904
 6034SOL    HW219002   2.124   4.201   4.880
 6035SOL     OW19003   5.705   0.121   3.762
 6035SOL    HW119004   5.652   0.180   3.702
 6035SOL    HW219005   5.793   0.164   3.783
 6036SOL     OW19006   0.915   1.128   3.990
 6036SOL    HW119007   0.968   1.063   4.044
 6036SOL    HW219008   0.894   1.088   3.901
 6037SOL     OW19009   6.863   5.722   4.867
 6037SOL    HW119010   6.821   5.631   4.857
 6037SOL    HW219011   6.847   5.775   4.784
 6038SOL     OW19012   5.335   4.412   6.269
 6038SOL    HW119013   5.411   4.384   6.210
 6038SOL    HW219014   5.294   4.496   6.234
 6039SOL     OW19015   4.120   3.370   3.852
 6039SOL    HW119016   4.030   3.340   3.884
 6039SOL    HW219017   4.154   3.306   3.783
 6040SOL     OW19018   1.440   1.334   0.119
 6040SOL    HW119019   1.477   1.295   0.204
 6040SOL    HW219020   1.492   1.300   0.041
 6041SOL     OW19021   0.979   2.520   0.404
 6041SOL    HW119022   1.015   2.608   0.373
 6041SOL    HW219023   0.996   2.510   0.502
 6042SOL     OW19024   5.505   5.199   4.438
 6042SOL    HW119025   5.436   5.271   4.446
 6042SOL    HW219026   5.594   5.233   4.468
 6043SOL     OW19027   0.510   4.554   3.959
 6043SOL    HW119028   0.487   4.459   3.981
 6043SOL    HW219029   0.534   4.602   4.044
 6044SOL     OW19030   0.780   0.429   1.486
 6044SOL    HW119031   0.842   0.507   1.492
 6044SOL    HW219032   0.692   0.453   1.527
 6045SOL     OW19033   6.936   3.877   0.718
 6045SOL    HW119034   6.853   3.908   0.672
 6045SOL    HW219035   6.998   3.836   0.650
 6046SOL     OW19036   2.543   3.401   0.631
 6046SOL    HW119037   2.529   3.455   0.548
 6046SOL    HW219038   2.541   3.304   0.609
 6047SOL     OW19039   0.403   6.352   4.842
 6047SOL    HW119040   0.317   6.332   4.795
 6047SOL    HW219041   0.408   6.450   4.861
 6048SOL     OW19042   4.969   5.927   4.868
 6048SOL    HW119043   4.997   5.851   4.928
 6048SOL    HW219044   4.913   5.891   4.794
 6049SOL     OW19045   6.369   5.205   0.983
 6049SOL    HW119046   6.317   5.276   0.937
 6049SOL    HW219047   6.424   5.155   0.916
 6050SOL     OW19048   5.154   4.793   5.486
 6050SOL    HW119049   5.243   4.761   5.452
 6050SOL    HW219050   5.138   4.755   5.577
 6051SOL     OW19051   2.271   1.885   2.739
 6051SOL    HW119052   2.264   1.985   2.740
 6051SOL    HW219053   2.201   1.847   2.800
 6052SOL     OW19054   6.810   1.071   0.368
 6052SOL    HW119055   6.818   1.163   0.406
 6052SOL    HW219056   6.813   1.075   0.268
 6053SOL     OW19057   1.990   7.012   6.107
 6053SOL    HW119058   2.014   0.008   6.200
 6053SOL    HW219059   1.892   6.993   6.102
 6054SOL     OW19060   2.098   4.571   6.794
 6054SOL    HW119061   2.109   4.507   6.719
 6054SOL    HW219062   2.159   4.546   6.869
 6055SOL     OW19063   4.847   0.666   3.916
 6055SOL    HW119064   4.796   0.618   3.987
 6055SOL    HW219065   4.935   0.621   3.902
 6056SOL     OW19066   4.982   3.546   6.621
 6056SOL    HW119067   5.077   3.565   6.595
 6056SOL    HW219068   4.924   3.620   6.588
 6057SOL     OW19069   3.093   0.555   6.501
 6057SOL    HW119070   3.142   0.468   6.499
 6057SOL    HW219071   3.118   0.610   6.421
 6058SOL     OW19072   5.252   1.261   4.095
 6058SOL    HW119073   5.169   1.286   4.145
 6058SOL    HW219074   5.328   1.319   4.125
 6059SOL     OW19075   6.804   6.491   5.871
 6059SOL    HW119076   6.706   6.500   5.853
 6059SOL    HW219077   6.827   6.393   5.878
 6060SOL     OW19078   3.306   6.157   6.820
 6060SOL    HW119079   3.228   6.179   6.877
 6060SOL    HW219080   3.274   6.128   6.729
 6061SOL     OW19081   2.022   1.849   6.477
 6061SOL    HW119082   1.955   1.856   6.551
 6061SOL    HW219083   2.099   1.910   6.496
 6062SOL     OW19084   1.720   0.311   4.634
 6062SOL    HW119085   1.704   0.409   4.625
 6062SOL    HW219086   1.725   0.287   4.731
 6063SOL     OW19087   5.327   6.295   6.907
 6063SOL    HW119088   5.240   6.344   6.905
 6063SOL    HW219089   5.325   6.226   6.979
 6064SOL     OW19090   0.691   5.556   3.670
 6064SOL    HW119091   0.679   5.552   3.570
 6064SOL    HW219092   0.633   5.487   3.713
 6065SOL     OW19093   5.791   6.420   1.269
 6065SOL    HW119094   5.824   6.405   1.176
 6065SOL    HW219095   5.862   6.466   1.323
 6066SOL     OW19096   4.572   2.589   6.365
 6066SOL    HW119097   4.523   2.534   6.297
 6066SOL    HW219098   4.543   2.563   6.457
 6067SOL     OW19099   5.589   2.326   6.575
 6067SOL    HW119100   5.655   2.344   6.648
 6067SOL    HW219101   5.497   2.318   6.614
 6068SOL     OW19102   5.038   2.005   5.308
 6068SOL    HW119103   5.130   1.977   5.281
 6068SOL    HW219104   5.006   2.078   5.247
 6069SOL     OW19105   6.087   3.913   4.199
 6069SOL    HW119106   6.060   3.824   4.163
 6069SOL    HW219107   6.173   3.904   4.249
 6070SOL     OW19108   3.925   2.998   6.795
 6070SOL    HW119109   3.895   2.903   6.799
 6070SOL    HW219110   3.861   3.051   6.740
 6071SOL     OW19111   5.033   6.580   4.990
 6071SOL    HW119112   5.053   6.668   4.948
 6071SOL    HW219113   4.975   6.526   4.930
 6072SOL     OW19114   0.142   1.526   0.933
 6072SOL    HW119115   0.214   1.485   0.989
 6072SOL    HW219116   0.183   1.595   0.873
 6073SOL     OW19117   6.507   1.934   1.323
 6073SOL    HW119118   6.580   1.968   1.263
 6073SOL    HW219119   6.527   1.962   1.417
 6074SOL     OW19120   0.540   0.137   4.983
 6074SOL    HW119121   0.606   0.187   4.928
 6074SOL    HW219122   0.575   0.045   5.002
 6075SOL     OW19123   5.056   4.729   6.536
 6075SOL    HW119124   5.042   4.687   6.625
 6075SOL    HW219125   5.149   4.710   6.504
 6076SOL     OW19126   2.527   6.887   4.014
 6076SOL    HW119127   2.531   6.986   3.999
 6076SOL    HW219128   2.616   6.855   4.046
 6077SOL     OW19129   5.640   5.519   2.698
 6077SOL    HW119130   5.717   5.541   2.758
 6077SOL    HW219131   5.612   5.601   2.648
 6078SOL     OW19132   2.180   4.830   3.503
 6078SOL    HW119133   2.157   4.853   3.598
 6078SOL    HW219134   2.221   4.739   3.500
 6079SOL     OW19135   2.242   1.799   0.920
 6079SOL    HW119136   2.188   1.777   1.002
 6079SOL    HW219137   2.254   1.716   0.865
 6080SOL     OW19138   5.427   2.261   2.609
 6080SOL    HW119139   5.469   2.254   2.699
 6080SOL    HW219140   5.458   2.345   2.565
 6081SOL     OW19141   0.660   3.568   2.499
 6081SOL    HW119142   0.593   3.494   2.504
 6081SOL    HW219143   0.748   3.535   2.533
 6082SOL     OW19144   3.678   1.831   4.178
 6082SOL    HW119145   3.774   1.848   4.155
 6082SOL    HW219146   3.622   1.905   4.141
 6083SOL     OW19147   1.904   6.637   0.779
 6083SOL    HW119148   1.923   6.579   0.700
 6083SOL    HW219149   1.989   6.677   0.812
 6084SOL     OW19150   0.109   4.823   5.939
 6084SOL    HW119151   0.188   4.787   5.988
 6084SOL    HW219152   0.119   4.805   5.841
 6085SOL     OW19153   4.950   4.930   1.586
 6085SOL    HW119154   5.038   4.973   1.606
 6085SOL    HW219155   4.914   4.888   1.669
 6086SOL     OW19156   2.900   1.846   3.234
 6086SOL    HW119157   2.964   1.821   3.161
 6086SOL    HW219158   2.951   1.883   3.312
 6087SOL     OW19159   4.132   0.019   0.581
 6087SOL    HW119160   4.226   7.015   0.586
 6087SOL    HW219161   4.087   0.006   0.669
 6088SOL     OW19162   6.926   6.747   5.581
 6088SOL    HW119163   6.903   6.654   5.552
 6088SOL    HW219164   7.000   6.782   5.523
 6089SOL     OW19165   6.504   3.289   0.302
 6089SOL    HW119166   6.573   3.345   0.349
 6089SOL    HW219167   6.512   3.194   0.333
 6090SOL     OW19168   0.245   5.562   3.778
 6090SOL    HW119169   0.329   5.608   3.804
 6090SOL    HW219170   0.243   5.550   3.679
 6091SOL     OW19171   6.364   2.066   1.614
 6091SOL    HW119172   6.442   2.021   1.656
 6091SOL    HW219173   6.308   1.999   1.564
 6092SOL     OW19174   1.577   2.536   1.027
 6092SOL    HW119175   1.568   2.525   1.126
 6092SOL    HW219176   1.648   2.604   1.008
 6093SOL     OW19177   1.344   3.736   0.420
 6093SOL    HW119178   1.399   3.813   0.453
 6093SOL    HW219179   1.390   3.650   0.443
 6094SOL     OW19180   1.007   0.928   1.080
 6094SOL    HW119181   0.980   1.005   1.137
 6094SOL    HW219182   1.016   0.958   0.985
 6095SOL     OW19183   6.398   3.810   5.310
 6095SOL    HW119184   6.338   3.772   5.239
 6095SOL    HW219185   6.383   3.909   5.316
 6096SOL     OW19186   4.000   1.621   2.810
 6096SOL    HW119187   3.958   1.589   2.725
 6096SOL    HW219188   4.079   1.564   2.832
 6097SOL     OW19189   3.116   1.792   1.858
 6097SOL    HW119190   3.114   1.887   1.890
 6097SOL    HW219191   3.025   1.765   1.827
 6098SOL     OW19192   1.555   1.010   6.281
 6098SOL    HW119193   1.544   0.932   6.343
 6098SOL    HW219194   1.475   1.070   6.289
 6099SOL     OW19195   5.742   5.002   4.738
 6099SOL    HW119196   5.804   4.939   4.692
 6099SOL    HW219197   5.717   4.964   4.827
 6100SOL     OW19198   6.559   2.182   0.329
 6100SOL    HW119199   6.466   2.216   0.315
 6100SOL    HW219200   6.607   2.239   0.396
 6101SOL     OW19201   5.525   0.657   3.840
 6101SOL    HW119202   5.574   0.744   3.850
 6101SOL    HW219203   5.559   0.591   3.907
 6102SOL     OW19204   3.069   0.393   5.360
 6102SOL    HW119205   3.032   0.486   5.366
 6102SOL    HW219206   3.049   0.354   5.270
 6103SOL     OW19207   6.368   1.098   5.414
 6103SOL    HW119208   6.382   1.002   5.438
 6103SOL    HW219209   6.380   1.110   5.315
 6104SOL     OW19210   1.552   3.309   1.031
 6104SOL    HW119211   1.473   3.264   1.071
 6104SOL    HW219212   1.610   3.346   1.104
 6105SOL     OW19213   3.590   5.054   4.617
 6105SOL    HW119214   3.520   4.989   4.588
 6105SOL    HW219215   3.681   5.018   4.596
 6106SOL     OW19216   3.391   5.265   4.416
 6106SOL    HW119217   3.316   5.221   4.366
 6106SOL    HW219218   3.364   5.356   4.445
 6107SOL     OW19219   2.172   4.865   5.699
 6107SOL    HW119220   2.143   4.770   5.712
 6107SOL    HW219221   2.264   4.877   5.737
 6108SOL     OW19222   5.988   1.843   4.425
 6108SOL    HW119223   6.025   1.916   4.367
 6108SOL    HW219224   5.888   1.853   4.431
 6109SOL     OW19225   6.618   4.309   2.082
 6109SOL    HW119226   6.691   4.367   2.045
 6109SOL    HW219227   6.548   4.295   2.011
 6110SOL     OW19228   3.533   2.035   4.040
 6110SOL    HW119229   3.553   2.090   3.959
 6110SOL    HW219230   3.438   2.003   4.036
 6111SOL     OW19231   0.440   4.421   3.085
 6111SOL    HW119232   0.368   4.462   3.139
 6111SOL    HW219233   0.441   4.322   3.100
 6112SOL     OW19234   0.964   2.313   1.461
 6112SOL    HW119235   0.938   2.231   1.512
 6112SOL    HW219236   1.064   2.317   1.454
 6113SOL     OW19237   2.210   5.386   5.423
 6113SOL    HW119238   2.279   5.318   5.448
 6113SOL    HW219239   2.119   5.346   5.433
 6114SOL     OW19240   5.286   5.769   1.110
 6114SOL    HW119241   5.263   5.674   1.088
 6114SOL    HW219242   5.374   5.792   1.069
 6115SOL     OW19243   6.324   4.326   2.230
 6115SOL    HW119244   6.242   4.346   2.178
 6115SOL    HW219245   6.404   4.332   2.170
 6116SOL     OW19246   2.954   2.443   1.174
 6116SOL    HW119247   2.907   2.418   1.259
 6116SOL    HW219248   2.963   2.543   1.169
 6117SOL     OW19249   5.766   6.481   4.026
 6117SOL    HW119250   5.723   6.513   4.111
 6117SOL    HW219251   5.845   6.424   4.048
 6118SOL     OW19252   5.944   0.353   2.839
 6118SOL    HW119253   5.866   0.306   2.880
 6118SOL    HW219254   5.914   0.402   2.757
 6119SOL     OW19255   5.889   5.314   3.977
 6119SOL    HW119256   5.829   5.243   4.012
 6119SOL    HW219257   5.873   5.399   4.027
 6120SOL     OW19258   3.139   1.058   3.396
 6120SOL    HW119259   3.148   0.963   3.427
 6120SOL    HW219260   3.229   1.093   3.370
 6121SOL     OW19261   6.474   2.081   4.604
 6121SOL    HW119262   6.562   2.108   4.642
 6121SOL    HW219263   6.449   1.991   4.640
 6122SOL     OW19264   4.633   5.862   4.115
 6122SOL    HW119265   4.607   5.889   4.207
 6122SOL    HW219266   4.616   5.938   4.052
 6123SOL     OW19267   6.771   1.621   2.208
 6123SOL    HW119268   6.698   1.663   2.262
 6123SOL    HW219269   6.804   1.538   2.254
 6124SOL     OW19270   2.842   0.067   5.097
 6124SOL    HW119271   2.748   0.092   5.117
 6124SOL    HW219272   2.903   0.143   5.120
 6125SOL     OW19273   1.908   4.842   2.300
 6125SOL    HW119274   1.947   4.774   2.362
 6125SOL    HW219275   1.974   4.916   2.286
 6126SOL     OW19276   4.241   5.714   2.414
 6126SOL    HW119277   4.291   5.765   2.345
 6126SOL    HW219278   4.302   5.689   2.489
 6127SOL     OW19279   1.964   4.107   2.209
 6127SOL    HW119280   1.979   4.097   2.111
 6127SOL    HW219281   1.890   4.046   2.238
 6128SOL     OW19282   4.983   2.650   1.198
 6128SOL    HW119283   4.978   2.589   1.277
 6128SOL    HW219284   4.894   2.693   1.182
 6129SOL     OW19285   5.925   4.195   3.260
 6129SOL    HW119286   5.831   4.163   3.254
 6129SOL    HW219287   5.938   4.273   3.199
 6130SOL     OW19288   5.460   4.631   2.567
 6130SOL    HW119289   5.425   4.597   2.654
 6130SOL    HW219290   5.410   4.587   2.491
 6131SOL     OW19291   6.635   1.153   5.122
 6131SOL    HW119292   6.636   1.226   5.191
 6131SOL    HW219293   6.693   1.180   5.045
 6132SOL     OW19294   6.430   2.440   0.570
 6132SOL    HW119295   6.491   2.447   0.649
 6132SOL    HW219296   6.415   2.344   0.548
 6133SOL     OW19297   1.303   4.767   0.360
 6133SOL    HW119298   1.339   4.826   0.288
 6133SOL    HW219299   1.376   4.711   0.397
 6134SOL     OW19300   4.579   3.496   0.306
 6134SOL    HW119301   4.673   3.460   0.310
 6134SOL    HW219302   4.554   3.533   0.396
 6135SOL     OW19303   5.614   0.411   2.454
 6135SOL    HW119304   5.599   0.508   2.438
 6135SOL    HW219305   5.705   0.397   2.494
 6136SOL     OW19306   0.243   1.601   2.682
 6136SOL    HW119307   0.193   1.641   2.759
 6136SOL    HW219308   0.324   1.657   2.663
 6137SOL     OW19309   3.053   6.342   5.997
 6137SOL    HW119310   3.019   6.297   5.914
 6137SOL    HW219311   2.977   6.373   6.053
 6138SOL     OW19312   4.753   0.576   3.154
 6138SOL    HW119313   4.681   0.520   3.195
 6138SOL    HW219314   4.734   0.589   3.056
 6139SOL     OW19315   2.876   5.836   3.815
 6139SOL    HW119316   2.924   5.827   3.728
 6139SOL    HW219317   2.904   5.762   3.877
 6140SOL     OW19318   1.559   6.034   1.293
 6140SOL    HW119319   1.606   6.061   1.208
 6140SOL    HW219320   1.557   5.935   1.300
 6141SOL     OW19321   6.713   5.864   5.795
 6141SOL    HW119322   6.644   5.936   5.788
 6141SOL    HW219323   6.669   5.776   5.811
 6142SOL     OW19324   0.578   3.777   2.774
 6142SOL    HW119325   0.548   3.752   2.682
 6142SOL    HW219326   0.670   3.742   2.789
 6143SOL     OW19327   6.653   4.120   6.610
 6143SOL    HW119328   6.604   4.036   6.587
 6143SOL    HW219329   6.752   4.104   6.601
 6144SOL     OW19330   0.102   4.775   4.757
 6144SOL    HW119331   0.101   4.763   4.657
 6144SOL    HW219332   0.170   4.844   4.781
 6145SOL     OW19333   5.556   5.443   3.438
 6145SOL    HW119334   5.618   5.366   3.453
 6145SOL    HW219335   5.486   5.418   3.372
 6146SOL     OW19336   5.395   1.682   3.415
 6146SOL    HW119337   5.335   1.755   3.446
 6146SOL    HW219338   5.351   1.631   3.341
 6147SOL     OW19339   1.066   3.652   2.982
 6147SOL    HW119340   1.072   3.746   2.951
 6147SOL    HW219341   1.134   3.637   3.054
 6148SOL     OW19342   6.133   5.682   3.491
 6148SOL    HW119343   6.223   5.641   3.511
 6148SOL    HW219344   6.062   5.631   3.540
 6149SOL     OW19345   2.424   6.920   4.369
 6149SOL    HW119346   2.410   6.884   4.461
 6149SOL    HW219347   2.474   6.854   4.314
 6150SOL     OW19348   4.141   5.659   5.881
 6150SOL    HW119349   4.119   5.638   5.786
 6150SOL    HW219350   4.216   5.726   5.884
 6151SOL     OW19351   4.387   0.611   5.574
 6151SOL    HW119352   4.438   0.525   5.576
 6151SOL    HW219353   4.375   0.640   5.479
 6152SOL     OW19354   6.814   4.682   5.340
 6152SOL    HW119355   6.742   4.742   5.375
 6152SOL    HW219356   6.900   4.703   5.387
 6153SOL     OW19357   5.077   4.175   6.763
 6153SOL    HW119358   5.064   4.117   6.843
 6153SOL    HW219359   5.084   4.118   6.681
 6154SOL     OW19360   5.138   2.908   3.522
 6154SOL    HW119361   5.184   2.819   3.530
 6154SOL    HW219362   5.207   2.980   3.509
 6155SOL     OW19363   2.068   3.969   3.983
 6155SOL    HW119364   2.101   4.027   4.058
 6155SOL    HW219365   2.015   3.893   4.021
 6156SOL     OW19366   5.945   0.669   4.319
 6156SOL    HW119367   6.001   0.715   4.388
 6156SOL    HW219368   5.942   0.571   4.340
 6157SOL     OW19369   1.161   1.444   3.615
 6157SOL    HW119370   1.136   1.409   3.706
 6157SOL    HW219371   1.168   1.543   3.618
 6158SOL     OW19372   4.675   0.188   0.875
 6158SOL    HW119373   4.641   0.161   0.965
 6158SOL    HW219374   4.774   0.172   0.870
 6159SOL     OW19375   5.571   3.170   6.825
 6159SOL    HW119376   5.606   3.263   6.811
 6159SOL    HW219377   5.503   3.149   6.756
 6160SOL     OW19378   6.530   4.602   1.392
 6160SOL    HW119379   6.608   4.650   1.353
 6160SOL    HW219380   6.453   4.605   1.327
 6161SOL     OW19381   5.586   0.786   6.576
 6161SOL    HW119382   5.586   0.731   6.660
 6161SOL    HW219383   5.679   0.791   6.540
 6162SOL     OW19384   5.786   5.045   4.089
 6162SOL    HW119385   5.687   5.037   4.087
 6162SOL    HW219386   5.826   4.969   4.038
 6163SOL     OW19387   6.666   3.855   2.354
 6163SOL    HW119388   6.747   3.913   2.360
 6163SOL    HW219389   6.614   3.861   2.439
 6164SOL     OW19390   4.583   2.878   0.594
 6164SOL    HW119391   4.614   2.890   0.688
 6164SOL    HW219392   4.485   2.895   0.588
 6165SOL     OW19393   4.363   6.547   0.703
 6165SOL    HW119394   4.357   6.467   0.762
 6165SOL    HW219395   4.458   6.576   0.695
 6166SOL     OW19396   3.896   1.511   0.227
 6166SOL    HW119397   3.982   1.560   0.240
 6166SOL    HW219398   3.820   1.566   0.263
 6167SOL     OW19399   0.116   5.125   3.055
 6167SOL    HW119400   0.146   5.031   3.071
 6167SOL    HW219401   0.180   5.188   3.099
 6168SOL     OW19402   0.629   2.811   0.937
 6168SOL    HW119403   0.607   2.886   0.875
 6168SOL    HW219404   0.713   2.766   0.907
 6169SOL     OW19405   1.862   4.279   1.719
 6169SOL    HW119406   1.854   4.186   1.754
 6169SOL    HW219407   1.799   4.292   1.642
 6170SOL     OW19408   0.064   2.075   3.859
 6170SOL    HW119409   0.059   2.044   3.953
 6170SOL    HW219410   0.004   2.154   3.846
 6171SOL     OW19411   6.058   1.047   6.452
 6171SOL    HW119412   6.096   1.089   6.534
 6171SOL    HW219413   6.079   0.949   6.452
 6172SOL     OW19414   1.173   4.407   3.958
 6172SOL    HW119415   1.182   4.324   4.012
 6172SOL    HW219416   1.206   4.485   4.012
 6173SOL     OW19417   6.003   6.200   3.148
 6173SOL    HW119418   6.078   6.183   3.085
 6173SOL    HW219419   5.951   6.280   3.118
 6174SOL     OW19420   6.541   2.577   2.195
 6174SOL    HW119421   6.629   2.529   2.198
 6174SOL    HW219422   6.542   2.653   2.260
 6175SOL     OW19423   3.733   1.928   6.756
 6175SOL    HW119424   3.740   1.875   6.671
 6175SOL    HW219425   3.733   2.025   6.734
 6176SOL     OW19426   3.337   3.763   5.925
 6176SOL    HW119427   3.333   3.778   5.826
 6176SOL    HW219428   3.431   3.776   5.956
 6177SOL     OW19429   5.769   5.835   1.844
 6177SOL    HW119430   5.680   5.871   1.869
 6177SOL    HW219431   5.775   5.826   1.745
 6178SOL     OW19432   4.188   4.635   1.779
 6178SOL    HW119433   4.144   4.549   1.753
 6178SOL    HW219434   4.274   4.615   1.825
 6179SOL     OW19435   5.621   4.855   4.999
 6179SOL    HW119436   5.548   4.923   5.000
 6179SOL    HW219437   5.681   4.870   5.078
 6180SOL     OW19438   2.637   4.472   6.438
 6180SOL    HW119439   2.701   4.461   6.362
 6180SOL    HW219440   2.678   4.436   6.521
 6181SOL     OW19441   6.370   6.244   6.937
 6181SOL    HW119442   6.288   6.254   6.993
 6181SOL    HW219443   6.397   6.333   6.901
 6182SOL     OW19444   2.925   2.466   0.094
 6182SOL    HW119445   3.007   2.465   0.151
 6182SOL    HW219446   2.930   2.391   0.028
 6183SOL     OW19447   6.868   0.166   0.653
 6183SOL    HW119448   6.788   0.183   0.594
 6183SOL    HW219449   6.891   0.249   0.702
 6184SOL     OW19450   3.364   6.419   5.181
 6184SOL    HW119451   3.450   6.419   5.232
 6184SOL    HW219452   3.366   6.347   5.112
 6185SOL     OW19453   3.710   3.501   5.110
 6185SOL    HW119454   3.700   3.474   5.206
 6185SOL    HW219455   3.619   3.509   5.069
 6186SOL     OW19456   1.109   1.685   2.847
 6186SOL    HW119457   1.123   1.612   2.780
 6186SOL    HW219458   1.130   1.650   2.939
 6187SOL     OW19459   3.094   2.117   6.269
 6187SOL    HW119460   3.122   2.028   6.304
 6187SOL    HW219461   3.124   2.127   6.175
 6188SOL     OW19462   2.442   1.595   5.307
 6188SOL    HW119463   2.487   1.556   5.387
 6188SOL    HW219464   2.362   1.540   5.284
 6189SOL     OW19465   6.852   4.996   1.050
 6189SOL    HW119466   6.776   4.940   1.081
 6189SOL    HW219467   6.818   5.062   0.982
 6190SOL     OW19468   0.432   3.227   3.939
 6190SOL    HW119469   0.531   3.228   3.951
 6190SOL    HW219470   0.388   3.239   4.028
 6191SOL     OW19471   2.764   4.393   0.672
 6191SOL    HW119472   2.803   4.399   0.764
 6191SOL    HW219473   2.794   4.309   0.628
 6192SOL     OW19474   3.094   1.500   1.553
 6192SOL    HW119475   3.000   1.514   1.582
 6192SOL    HW219476   3.154   1.500   1.633
 6193SOL     OW19477   4.517   5.699   0.038
 6193SOL    HW119478   4.436   5.748   0.070
 6193SOL    HW219479   4.492   5.607   0.009
 6194SOL     OW19480   5.663   6.776   6.603
 6194SOL    HW119481   5.616   6.809   6.685
 6194SOL    HW219482   5.608   6.704   6.560
 6195SOL     OW19483   5.388   6.585   6.058
 6195SOL    HW119484   5.377   6.628   6.147
 6195SOL    HW219485   5.357   6.490   6.063
 6196SOL     OW19486   5.988   3.112   3.235
 6196SOL    HW119487   5.993   3.084   3.139
 6196SOL    HW219488   5.986   3.030   3.293
 6197SOL     OW19489   0.564   5.650   1.054
 6197SOL    HW119490   0.488   5.597   1.016
 6197SOL    HW219491   0.634   5.587   1.088
 6198SOL     OW19492   5.688   1.635   6.435
 6198SOL    HW119493   5.766   1.692   6.459
 6198SOL    HW219494   5.715   1.569   6.366
 6199SOL     OW19495   2.075   6.481   6.410
 6199SOL    HW119496   2.138   6.558   6.405
 6199SOL    HW219497   1.988   6.507   6.367
 6200SOL     OW19498   1.382   0.713   0.847
 6200SOL    HW119499   1.380   0.667   0.936
 6200SOL    HW219500   1.430   0.656   0.781
 6201SOL     OW19501   0.389   4.539   3.314
 6201SOL    HW119502   0.365   4.466   3.378
 6201SOL    HW219503   0.488   4.542   3.302
 6202SOL     OW19504   5.958   0.882   2.355
 6202SOL    HW119505   5.906   0.827   2.421
 6202SOL    HW219506   5.987   0.967   2.398
 6203SOL     OW19507   5.876   0.483   1.898
 6203SOL    HW119508   5.805   0.468   1.966
 6203SOL    HW219509   5.836   0.482   1.807
 6204SOL     OW19510   1.339   5.968   4.901
 6204SOL    HW119511   1.311   6.038   4.967
 6204SOL    HW219512   1.335   5.878   4.944
 6205SOL     OW19513   5.958   4.695   3.354
 6205SOL    HW119514   6.021   4.626   3.389
 6205SOL    HW219515   5.926   4.753   3.429
 6206SOL     OW19516   5.777   1.770   3.148
 6206SOL    HW119517   5.729   1.756   3.235
 6206SOL    HW219518   5.711   1.795   3.077
 6207SOL     OW19519   0.892   5.951   3.441
 6207SOL    HW119520   0.893   6.037   3.491
 6207SOL    HW219521   0.797   5.921   3.428
 6208SOL     OW19522   4.478   4.125   5.651
 6208SOL    HW119523   4.468   4.119   5.552
 6208SOL    HW219524   4.412   4.064   5.694
 6209SOL     OW19525   3.442   1.791   1.266
 6209SOL    HW119526   3.533   1.816   1.299
 6209SOL    HW219527   3.389   1.753   1.342
 6210SOL     OW19528   5.863   1.175   4.320
 6210SOL    HW119529   5.787   1.240   4.314
 6210SOL    HW219530   5.831   1.084   4.295
 6211SOL     OW19531   5.638   3.947   4.718
 6211SOL    HW119532   5.695   3.888   4.661
 6211SOL    HW219533   5.617   3.901   4.804
 6212SOL     OW19534   5.569   4.276   4.508
 6212SOL    HW119535   5.533   4.255   4.417
 6212SOL    HW219536   5.669   4.268   4.507
 6213SOL     OW19537   4.456   5.871   0.611
 6213SOL    HW119538   4.380   5.922   0.572
 6213SOL    HW219539   4.442   5.859   0.709
 6214SOL     OW19540   6.126   0.093   0.032
 6214SOL    HW119541   6.130   0.190   0.010
 6214SOL    HW219542   6.212   0.049   0.009
 6215SOL     OW19543   5.777   2.072   5.104
 6215SOL    HW119544   5.691   2.027   5.130
 6215SOL    HW219545   5.853   2.029   5.153
 6216SOL     OW19546   4.973   1.952   4.747
 6216SOL    HW119547   4.900   2.019   4.760
 6216SOL    HW219548   5.044   1.991   4.689
 6217SOL     OW19549   1.078   4.524   2.612
 6217SOL    HW119550   1.134   4.457   2.661
 6217SOL    HW219551   1.079   4.504   2.514
 6218SOL     OW19552   4.529   6.523   0.463
 6218SOL    HW119553   4.454   6.548   0.524
 6218SOL    HW219554   4.607   6.493   0.517
 6219SOL     OW19555   2.358   0.795   6.996
 6219SOL    HW119556   2.406   0.710   7.018
 6219SOL    HW219557   2.267   0.773   6.960
 6220SOL     OW19558   3.283   6.547   1.187
 6220SOL    HW119559   3.216   6.621   1.180
 6220SOL    HW219560   3.247   6.476   1.247
 6221SOL     OW19561   4.974   5.869   5.799
 6221SOL    HW119562   4.958   5.771   5.787
 6221SOL    HW219563   4.887   5.918   5.802
 6222SOL     OW19564   6.748   1.323   2.635
 6222SOL    HW119565   6.842   1.321   2.670
 6222SOL    HW219566   6.728   1.413   2.597
 6223SOL     OW19567   6.885   4.810   4.896
 6223SOL    HW119568   6.967   4.802   4.839
 6223SOL    HW219569   6.816   4.863   4.848
 6224SOL     OW19570   3.545   6.597   0.020
 6224SOL    HW119571   3.554   6.514   0.075
 6224SOL    HW219572   3.483   6.580   6.973
 6225SOL     OW19573   4.774   6.261   6.243
 6225SOL    HW119574   4.786   6.222   6.151
 6225SOL    HW219575   4.679   6.249   6.272
 6226SOL     OW19576   0.599   0.923   3.639
 6226SOL    HW119577   0.503   0.907   3.661
 6226SOL    HW219578   0.640   0.840   3.603
 6227SOL     OW19579   3.045   4.827   5.654
 6227SOL    HW119580   3.054   4.814   5.752
 6227SOL    HW219581   2.978   4.761   5.618
 6228SOL     OW19582   1.380   2.986   3.671
 6228SOL    HW119583   1.429   3.040   3.603
 6228SOL    HW219584   1.332   3.047   3.734
 6229SOL     OW19585   0.628   3.880   4.127
 6229SOL    HW119586   0.707   3.922   4.081
 6229SOL    HW219587   0.610   3.790   4.088
 6230SOL     OW19588   0.499   0.961   1.528
 6230SOL    HW119589   0.498   1.056   1.496
 6230SOL    HW219590   0.405   0.927   1.534
 6231SOL     OW19591   2.061   5.595   5.601
 6231SOL    HW119592   2.044   5.530   5.526
 6231SOL    HW219593   2.137   5.561   5.657
 6232SOL     OW19594   4.388   0.698   6.542
 6232SOL    HW119595   4.374   0.637   6.464
 6232SOL    HW219596   4.322   0.675   6.613
 6233SOL     OW19597   6.953   3.425   1.083
 6233SOL    HW119598   0.014   3.394   1.114
 6233SOL    HW219599   6.884   3.358   1.108
 6234SOL     OW19600   5.132   5.167   4.520
 6234SOL    HW119601   5.134   5.198   4.616
 6234SOL    HW219602   5.124   5.068   4.517
 6235SOL     OW19603   0.383   0.883   2.120
 6235SOL    HW119604   0.383   0.828   2.036
 6235SOL    HW219605   0.477   0.899   2.149
 6236SOL     OW19606   6.799   5.941   0.927
 6236SOL    HW119607   6.820   5.845   0.950
 6236SOL    HW219608   6.810   5.954   0.829
 6237SOL     OW19609   3.176   1.344   2.094
 6237SOL    HW119610   3.164   1.288   2.012
 6237SOL    HW219611   3.241   1.300   2.156
 6238SOL     OW19612   2.268   1.184   3.586
 6238SOL    HW119613   2.172   1.202   3.566
 6238SOL    HW219614   2.324   1.261   3.555
 6239SOL     OW19615   4.817   1.357   4.377
 6239SOL    HW119616   4.788   1.347   4.473
 6239SOL    HW219617   4.812   1.268   4.332
 6240SOL     OW19618   4.085   3.732   3.959
 6240SOL    HW119619   4.185   3.734   3.961
 6240SOL    HW219620   4.054   3.684   3.877
 6241SOL     OW19621   3.716   0.276   3.401
 6241SOL    HW119622   3.618   0.272   3.382
 6241SOL    HW219623   3.749   0.369   3.388
 6242SOL     OW19624   3.105   1.971   4.468
 6242SOL    HW119625   3.081   1.996   4.374
 6242SOL    HW219626   3.024   1.975   4.526
 6243SOL     OW19627   4.611   1.429   6.994
 6243SOL    HW119628   4.526   1.376   6.996
 6243SOL    HW219629   4.617   1.485   0.048
 6244SOL     OW19630   4.475   2.421   1.721
 6244SOL    HW119631   4.517   2.444   1.809
 6244SOL    HW219632   4.413   2.494   1.694
 6245SOL     OW19633   0.202   5.252   2.507
 6245SOL    HW119634   0.265   5.202   2.447
 6245SOL    HW219635   0.249   5.279   2.590
 6246SOL     OW19636   0.290   6.784   4.921
 6246SOL    HW119637   0.377   6.789   4.872
 6246SOL    HW219638   0.302   6.729   5.004
 6247SOL     OW19639   6.478   5.928   3.089
 6247SOL    HW119640   6.455   5.988   3.165
 6247SOL    HW219641   6.546   5.861   3.118
 6248SOL     OW19642   3.821   3.418   5.597
 6248SOL    HW119643   3.742   3.408   5.659
 6248SOL    HW219644   3.901   3.377   5.639
 6249SOL     OW19645   5.366   3.639   3.057
 6249SOL    HW119646   5.395   3.722   3.010
 6249SOL    HW219647   5.306   3.585   2.997
 6250SOL     OW19648   5.652   6.892   6.251
 6250SOL    HW119649   5.603   6.868   6.334
 6250SOL    HW219650   5.696   6.981   6.262
 6251SOL     OW19651   2.803   0.805   4.658
 6251SOL    HW119652   2.847   0.859   4.729
 6251SOL    HW219653   2.803   0.856   4.572
 6252SOL     OW19654   2.799   5.402   0.199
 6252SOL    HW119655   2.761   5.337   0.265
 6252SOL    HW219656   2.890   5.371   0.170
 6253SOL     OW19657   4.317   6.323   3.954
 6253SOL    HW119658   4.247   6.255   3.933
 6253SOL    HW219659   4.312   6.347   4.051
 6254SOL     OW19660   0.198   0.197   1.817
 6254SOL    HW119661   0.115   0.142   1.809
 6254SOL    HW219662   0.183   0.286   1.774
 6255SOL     OW19663   1.515   1.867   0.863
 6255SOL    HW119664   1.552   1.809   0.790
 6255SOL    HW219665   1.436   1.822   0.905
 6256SOL     OW19666   6.474   5.403   1.977
 6256SOL    HW119667   6.463   5.329   2.044
 6256SOL    HW219668   6.555   5.457   2.000
 6257SOL     OW19669   3.444   4.524   1.161
 6257SOL    HW119670   3.416   4.521   1.257
 6257SOL    HW219671   3.461   4.619   1.133
 6258SOL     OW19672   4.188   5.519   4.642
 6258SOL    HW119673   4.125   5.578   4.694
 6258SOL    HW219674   4.281   5.554   4.651
 6259SOL     OW19675   4.211   0.732   5.319
 6259SOL    HW119676   4.178   0.761   5.229
 6259SOL    HW219677   4.305   0.765   5.333
 6260SOL     OW19678   2.515   1.875   0.999
 6260SOL    HW119679   2.438   1.853   0.939
 6260SOL    HW219680   2.596   1.824   0.969
 6261SOL     OW19681   3.260   6.846   0.934
 6261SOL    HW119682   3.314   6.785   0.876
 6261SOL    HW219683   3.227   6.923   0.880
 6262SOL     OW19684   6.089   1.111   2.424
 6262SOL    HW119685   6.095   1.143   2.329
 6262SOL    HW219686   6.173   1.135   2.473
 6263SOL     OW19687   6.399   5.933   6.079
 6263SOL    HW119688   6.491   5.967   6.062
 6263SOL    HW219689   6.393   5.895   6.172
 6264SOL     OW19690   1.760   5.821   0.479
 6264SOL    HW119691   1.688   5.859   0.421
 6264SOL    HW219692   1.769   5.722   0.462
 6265SOL     OW19693   4.187   6.234   6.207
 6265SOL    HW119694   4.091   6.246   6.183
 6265SOL    HW219695   4.236   6.321   6.195
 6266SOL     OW19696   3.861   5.440   3.083
 6266SOL    HW119697   3.769   5.423   3.119
 6266SOL    HW219698   3.928   5.418   3.154
 6267SOL     OW19699   0.572   6.501   4.112
 6267SOL    HW119700   0.634   6.439   4.064
 6267SOL    HW219701   0.479   6.463   4.110
 6268SOL     OW19702   3.059   1.633   1.193
 6268SOL    HW119703   3.045   1.665   1.099
 6268SOL    HW219704   3.125   1.558   1.193
 6269SOL     OW19705   6.419   5.635   6.776
 6269SOL    HW119706   6.508   5.662   6.812
 6269SOL    HW219707   6.374   5.715   6.735
 6270SOL     OW19708   1.500   6.405   1.093
 6270SOL    HW119709   1.466   6.451   1.012
 6270SOL    HW219710   1.440   6.328   1.115
 6271SOL     OW19711   0.004   2.902   6.139
 6271SOL    HW119712   0.051   2.826   6.184
 6271SOL    HW219713   6.939   2.908   6.173
 6272SOL     OW19714   0.214   1.291   6.870
 6272SOL    HW119715   0.144   1.359   6.846
 6272SOL    HW219716   0.273   1.275   6.791
 6273SOL     OW19717   0.230   6.932   2.948
 6273SOL    HW119718   0.231   6.857   2.882
 6273SOL    HW219719   0.225   6.894   3.041
 6274SOL     OW19720   3.103   5.427   3.875
 6274SOL    HW119721   3.172   5.438   3.946
 6274SOL    HW219722   3.014   5.456   3.911
 6275SOL     OW19723   2.676   5.959   6.786
 6275SOL    HW119724   2.707   5.931   6.695
 6275SOL    HW219725   2.720   5.901   6.855
 6276SOL     OW19726   1.930   5.476   2.660
 6276SOL    HW119727   1.852   5.538   2.672
 6276SOL    HW219728   1.968   5.489   2.569
 6277SOL     OW19729   4.887   2.509   1.392
 6277SOL    HW119730   4.796   2.496   1.431
 6277SOL    HW219731   4.936   2.422   1.392
 6278SOL     OW19732   4.377   2.358   0.515
 6278SOL    HW119733   4.423   2.303   0.585
 6278SOL    HW219734   4.278   2.355   0.530
 6279SOL     OW19735   2.861   6.577   1.970
 6279SOL    HW119736   2.946   6.526   1.986
 6279SOL    HW219737   2.883   6.664   1.924
 6280SOL     OW19738   4.946   2.044   6.398
 6280SOL    HW119739   5.011   2.052   6.474
 6280SOL    HW219740   4.968   2.112   6.328
 6281SOL     OW19741   4.934   4.862   5.922
 6281SOL    HW119742   4.836   4.880   5.914
 6281SOL    HW219743   4.978   4.937   5.972
 6282SOL     OW19744   0.764   3.661   6.010
 6282SOL    HW119745   0.829   3.587   6.021
 6282SOL    HW219746   0.782   3.732   6.079
 6283SOL     OW19747   2.598   6.874   4.780
 6283SOL    HW119748   2.677   6.931   4.757
 6283SOL    HW219749   2.599   6.792   4.724
 6284SOL     OW19750   1.460   2.815   5.733
 6284SOL    HW119751   1.369   2.779   5.751
 6284SOL    HW219752   1.468   2.907   5.773
 6285SOL     OW19753   1.301   3.326   2.887
 6285SOL    HW119754   1.397   3.335   2.916
 6285SOL    HW219755   1.292   3.250   2.824
 6286SOL     OW19756   0.650   2.671   6.560
 6286SOL    HW119757   0.628   2.594   6.619
 6286SOL    HW219758   0.572   2.734   6.555
 6287SOL     OW19759   4.340   4.669   4.684
 6287SOL    HW119760   4.292   4.609   4.748
 6287SOL    HW219761   4.438   4.651   4.689
 6288SOL     OW19762   2.792   3.636   5.881
 6288SOL    HW119763   2.785   3.603   5.787
 6288SOL    HW219764   2.789   3.736   5.881
 6289SOL     OW19765   2.120   4.779   4.358
 6289SOL    HW119766   2.123   4.846   4.433
 6289SOL    HW219767   2.083   4.823   4.276
 6290SOL     OW19768   6.161   0.070   3.620
 6290SOL    HW119769   6.092   0.089   3.550
 6290SOL    HW219770   6.165   7.001   3.638
 6291SOL     OW19771   3.782   3.591   2.009
 6291SOL    HW119772   3.742   3.589   2.101
 6291SOL    HW219773   3.874   3.631   2.013
 6292SOL     OW19774   1.320   4.617   5.090
 6292SOL    HW119775   1.228   4.578   5.094
 6292SOL    HW219776   1.380   4.553   5.042
 6293SOL     OW19777   2.656   1.534   5.919
 6293SOL    HW119778   2.603   1.450   5.916
 6293SOL    HW219779   2.600   1.611   5.890
 6294SOL     OW19780   2.152   1.155   2.246
 6294SOL    HW119781   2.118   1.117   2.160
 6294SOL    HW219782   2.210   1.235   2.226
 6295SOL     OW19783   4.251   3.922   6.321
 6295SOL    HW119784   4.224   4.018   6.315
 6295SOL    HW219785   4.336   3.914   6.374
 6296SOL     OW19786   0.587   2.728   6.921
 6296SOL    HW119787   0.640   2.813   6.924
 6296SOL    HW219788   0.640   2.657   6.875
 6297SOL     OW19789   6.763   1.032   3.890
 6297SOL    HW119790   6.762   1.055   3.988
 6297SOL    HW219791   6.858   1.025   3.859
 6298SOL     OW19792   6.959   6.814   0.409
 6298SOL    HW119793   6.976   6.911   0.428
 6298SOL    HW219794   7.017   6.784   0.333
 6299SOL     OW19795   3.880   1.584   4.282
 6299SOL    HW119796   3.823   1.651   4.235
 6299SOL    HW219797   3.833   1.495   4.282
 6300SOL     OW19798   3.067   2.296   0.930
 6300SOL    HW119799   2.988   2.349   0.898
 6300SOL    HW219800   3.083   2.317   1.026
 6301SOL     OW19801   4.079   6.161   6.847
 6301SOL    HW119802   4.117   6.251   6.868
 6301SOL    HW219803   3.980   6.170   6.832
 6302SOL     OW19804   1.281   3.505   0.210
 6302SOL    HW119805   1.292   3.416   0.253
 6302SOL    HW219806   1.306   3.577   0.276
 6303SOL     OW19807   6.767   4.576   4.257
 6303SOL    HW119808   6.741   4.669   4.286
 6303SOL    HW219809   6.863   4.577   4.228
 6304SOL     OW19810   3.044   1.355   4.290
 6304SOL    HW119811   3.016   1.381   4.383
 6304SOL    HW219812   3.002   1.419   4.225
 6305SOL     OW19813   0.873   5.842   5.722
 6305SOL    HW119814   0.878   5.939   5.745
 6305SOL    HW219815   0.782   5.806   5.744
 6306SOL     OW19816   0.451   4.260   4.570
 6306SOL    HW119817   0.417   4.353   4.560
 6306SOL    HW219818   0.534   4.249   4.516
 6307SOL     OW19819   3.745   2.978   2.582
 6307SOL    HW119820   3.721   3.055   2.524
 6307SOL    HW219821   3.666   2.917   2.590
 6308SOL     OW19822   1.040   2.066   0.752
 6308SOL    HW119823   1.101   2.144   0.766
 6308SOL    HW219824   0.948   2.091   0.780
 6309SOL     OW19825   1.619   6.142   4.779
 6309SOL    HW119826   1.556   6.198   4.833
 6309SOL    HW219827   1.598   6.046   4.794
 6310SOL     OW19828   0.729   6.795   3.742
 6310SOL    HW119829   0.689   6.874   3.693
 6310SOL    HW219830   0.821   6.818   3.773
 6311SOL     OW19831   6.411   1.284   6.580
 6311SOL    HW119832   6.479   1.268   6.509
 6311SOL    HW219833   6.375   1.377   6.570
 6312SOL     OW19834   2.904   5.731   0.659
 6312SOL    HW119835   2.896   5.767   0.751
 6312SOL    HW219836   2.929   5.805   0.596
 6313SOL     OW19837   5.692   4.665   3.875
 6313SOL    HW119838   5.600   4.687   3.907
 6313SOL    HW219839   5.751   4.744   3.887
 6314SOL     OW19840   1.566   6.149   3.052
 6314SOL    HW119841   1.607   6.080   3.112
 6314SOL    HW219842   1.624   6.230   3.049
 6315SOL     OW19843   2.331   1.730   3.628
 6315SOL    HW119844   2.409   1.746   3.567
 6315SOL    HW219845   2.338   1.791   3.707
 6316SOL     OW19846   4.524   0.778   4.951
 6316SOL    HW119847   4.498   0.852   4.890
 6316SOL    HW219848   4.623   0.764   4.946
 6317SOL     OW19849   4.611   4.439   3.152
 6317SOL    HW119850   4.648   4.361   3.100
 6317SOL    HW219851   4.637   4.524   3.107
 6318SOL     OW19852   6.712   6.892   0.215
 6318SOL    HW119853   6.761   6.805   0.213
 6318SOL    HW219854   6.670   6.904   0.306
 6319SOL     OW19855   4.633   1.887   4.523
 6319SOL    HW119856   4.612   1.923   4.614
 6319SOL    HW219857   4.584   1.801   4.509
 6320SOL     OW19858   6.445   1.771   5.969
 6320SOL    HW119859   6.481   1.767   5.876
 6320SOL    HW219860   6.351   1.804   5.967
 6321SOL     OW19861   0.365   3.159   0.249
 6321SOL    HW119862   0.315   3.246   0.251
 6321SOL    HW219863   0.439   3.165   0.182
 6322SOL     OW19864   1.823   1.457   3.079
 6322SOL    HW119865   1.884   1.436   3.003
 6322SOL    HW219866   1.756   1.527   3.050
 6323SOL     OW19867   2.236   5.209   0.853
 6323SOL    HW119868   2.144   5.171   0.854
 6323SOL    HW219869   2.233   5.306   0.830
 6324SOL     OW19870   4.553   3.323   1.064
 6324SOL    HW119871   4.506   3.411   1.066
 6324SOL    HW219872   4.550   3.285   0.972
 6325SOL     OW19873   1.508   2.885   3.892
 6325SOL    HW119874   1.532   2.969   3.940
 6325SOL    HW219875   1.440   2.905   3.822
 6326SOL     OW19876   5.209   5.014   4.874
 6326SOL    HW119877   5.184   4.943   4.940
 6326SOL    HW219878   5.227   4.972   4.785
 6327SOL     OW19879   0.432   1.326   3.645
 6327SOL    HW119880   0.490   1.344   3.566
 6327SOL    HW219881   0.396   1.233   3.640
 6328SOL     OW19882   4.100   3.648   5.285
 6328SOL    HW119883   4.041   3.659   5.205
 6328SOL    HW219884   4.138   3.556   5.285
 6329SOL     OW19885   0.761   2.214   5.737
 6329SOL    HW119886   0.805   2.135   5.778
 6329SOL    HW219887   0.686   2.245   5.795
 6330SOL     OW19888   4.673   1.804   3.636
 6330SOL    HW119889   4.684   1.730   3.702
 6330SOL    HW219890   4.743   1.874   3.652
 6331SOL     OW19891   1.573   3.427   4.051
 6331SOL    HW119892   1.632   3.463   3.979
 6331SOL    HW219893   1.579   3.328   4.053
 6332SOL     OW19894   3.906   1.785   6.944
 6332SOL    HW119895   3.951   1.864   6.986
 6332SOL    HW219896   3.842   1.816   6.874
 6333SOL     OW19897   5.702   0.576   0.755
 6333SOL    HW119898   5.798   0.565   0.729
 6333SOL    HW219899   5.651   0.495   0.728
 6334SOL     OW19900   2.320   1.157   1.803
 6334SOL    HW119901   2.413   1.126   1.786
 6334SOL    HW219902   2.267   1.084   1.846
 6335SOL     OW19903   6.876   3.773   6.029
 6335SOL    HW119904   6.971   3.750   6.008
 6335SOL    HW219905   6.818   3.755   5.950
 6336SOL     OW19906   0.622   4.360   5.640
 6336SOL    HW119907   0.559   4.287   5.615
 6336SOL    HW219908   0.715   4.336   5.612
 6337SOL     OW19909   6.193   0.075   4.841
 6337SOL    HW119910   6.202   0.025   4.755
 6337SOL    HW219911   6.282   0.111   4.868
 6338SOL     OW19912   0.961   1.051   3.267
 6338SOL    HW119913   0.985   0.988   3.340
 6338SOL    HW219914   1.002   1.021   3.181
 6339SOL     OW19915   6.783   3.792   3.052
 6339SOL    HW119916   6.753   3.812   3.145
 6339SOL    HW219917   6.815   3.698   3.046
 6340SOL     OW19918   2.831   5.088   0.117
 6340SOL    HW119919   2.907   5.147   0.088
 6340SOL    HW219920   2.744   5.132   0.094
 6341SOL     OW19921   7.013   5.128   2.372
 6341SOL    HW119922   7.009   5.138   2.272
 6341SOL    HW219923   0.060   5.183   2.407
 6342SOL     OW19924   2.239   0.932   1.521
 6342SOL    HW119925   2.293   0.895   1.445
 6342SOL    HW219926   2.269   0.889   1.607
 6343SOL     OW19927   1.206   5.720   0.021
 6343SOL    HW119928   1.261   5.793   7.009
 6343SOL    HW219929   1.185   5.743   0.116
 6344SOL     OW19930   1.220   1.338   4.727
 6344SOL    HW119931   1.208   1.415   4.790
 6344SOL    HW219932   1.238   1.373   4.635
 6345SOL     OW19933   5.754   2.826   2.643
 6345SOL    HW119934   5.798   2.853   2.557
 6345SOL    HW219935   5.665   2.786   2.623
 6346SOL     OW19936   0.531   4.271   4.890
 6346SOL    HW119937   0.566   4.279   4.797
 6346SOL    HW219938   0.549   4.356   4.940
 6347SOL     OW19939   2.116   2.290   4.094
 6347SOL    HW119940   2.116   2.388   4.075
 6347SOL    HW219941   2.029   2.250   4.066
 6348SOL     OW19942   0.971   2.611   6.699
 6348SOL    HW119943   1.022   2.626   6.783
 6348SOL    HW219944   0.962   2.697   6.649
 6349SOL     OW19945   5.487   0.656   0.953
 6349SOL    HW119946   5.556   0.637   0.883
 6349SOL    HW219947   5.489   0.754   0.975
 6350SOL     OW19948   0.822   6.554   1.129
 6350SOL    HW119949   0.815   6.488   1.203
 6350SOL    HW219950   0.894   6.620   1.150
 6351SOL     OW19951   5.660   3.274   1.466
 6351SOL    HW119952   5.709   3.344   1.518
 6351SOL    HW219953   5.586   3.237   1.522
 6352SOL     OW19954   4.051   0.427   4.243
 6352SOL    HW119955   4.087   0.503   4.297
 6352SOL    HW219956   3.979   0.460   4.183
 6353SOL     OW19957   3.652   6.216   5.094
 6353SOL    HW119958   3.580   6.235   5.028
 6353SOL    HW219959   3.619   6.150   5.162
 6354SOL     OW19960   4.993   4.730   2.327
 6354SOL    HW119961   5.005   4.802   2.395
 6354SOL    HW219962   4.953   4.649   2.371
 6355SOL     OW19963   3.523   5.721   1.029
 6355SOL    HW119964   3.608   5.703   1.079
 6355SOL    HW219965   3.485   5.809   1.059
 6356SOL     OW19966   0.219   6.194   6.264
 6356SOL    HW119967   0.229   6.118   6.200
 6356SOL    HW219968   0.145   6.174   6.328
 6357SOL     OW19969   4.924   1.811   3.019
 6357SOL    HW119970   4.876   1.793   3.105
 6357SOL    HW219971   4.997   1.877   3.035
 6358SOL     OW19972   1.124   1.710   4.566
 6358SOL    HW119973   1.106   1.629   4.622
 6358SOL    HW219974   1.134   1.683   4.470
 6359SOL     OW19975   5.857   5.492   1.653
 6359SOL    HW119976   5.764   5.484   1.619
 6359SOL    HW219977   5.910   5.412   1.624
 6360SOL     OW19978   2.278   2.427   1.122
 6360SOL    HW119979   2.352   2.394   1.064
 6360SOL    HW219980   2.312   2.437   1.216
 6361SOL     OW19981   0.593   1.442   2.064
 6361SOL    HW119982   0.682   1.465   2.026
 6361SOL    HW219983   0.538   1.395   1.995
 6362SOL     OW19984   1.353   5.236   0.462
 6362SOL    HW119985   1.408   5.164   0.419
 6362SOL    HW219986   1.258   5.206   0.466
 6363SOL     OW19987   1.050   3.137   1.803
 6363SOL    HW119988   1.136   3.095   1.832
 6363SOL    HW219989   0.981   3.126   1.875
 6364SOL     OW19990   2.952   1.608   4.127
 6364SOL    HW119991   2.991   1.585   4.038
 6364SOL    HW219992   2.967   1.705   4.145
 6365SOL     OW19993   5.989   6.960   2.578
 6365SOL    HW119994   5.961   6.932   2.670
 6365SOL    HW219995   6.082   6.929   2.560
 6366SOL     OW19996   5.997   1.173   5.213
 6366SOL    HW119997   6.026   1.084   5.177
 6366SOL    HW219998   6.013   1.176   5.311
 6367SOL     OW19999   1.181   2.211   3.949
 6367SOL    HW120000   1.163   2.296   3.998
 6367SOL    HW220001   1.173   2.133   4.012
 6368SOL     OW20002   4.939   3.469   4.745
 6368SOL    HW120003   5.011   3.407   4.774
 6368SOL    HW220004   4.894   3.508   4.826
 6369SOL     OW20005   4.190   4.874   0.528
 6369SOL    HW120006   4.116   4.890   0.463
 6369SOL    HW220007   4.191   4.947   0.597
 6370SOL     OW20008   5.481   3.920   4.469
 6370SOL    HW120009   5.403   3.870   4.507
 6370SOL    HW220010   5.536   3.958   4.544
 6371SOL     OW20011   5.552   4.756   0.943
 6371SOL    HW120012   5.577   4.816   0.867
 6371SOL    HW220013   5.586   4.663   0.925
 6372SOL     OW20014   6.874   1.409   1.426
 6372SOL    HW120015   6.812   1.333   1.408
 6372SOL    HW220016   6.846   1.488   1.370
 6373SOL     OW20017   4.865   2.905   1.774
 6373SOL    HW120018   4.788   2.930   1.832
 6373SOL    HW220019   4.846   2.933   1.680
 6374SOL     OW20020   4.781   3.716   5.828
 6374SOL    HW120021   4.769   3.636   5.769
 6374SOL    HW220022   4.692   3.756   5.848
 6375SOL     OW20023   4.699   1.159   1.575
 6375SOL    HW120024   4.670   1.074   1.529
 6375SOL    HW220025   4.667   1.237   1.523
 6376SOL     OW20026   3.002   0.585   0.252
 6376SOL    HW120027   2.954   0.528   0.185
 6376SOL    HW220028   3.091   0.612   0.214
 6377SOL     OW20029   0.347   0.572   6.667
 6377SOL    HW120030   0.264   0.536   6.711
 6377SOL    HW220031   0.382   0.504   6.603
 6378SOL     OW20032   5.628   4.197   2.110
 6378SOL    HW120033   5.710   4.253   2.105
 6378SOL    HW220034   5.632   4.139   2.191
 6379SOL     OW20035   1.975   5.582   6.515
 6379SOL    HW120036   2.028   5.665   6.498
 6379SOL    HW220037   1.889   5.586   6.464
 6380SOL     OW20038   1.775   2.679   5.323
 6380SOL    HW120039   1.682   2.680   5.359
 6380SOL    HW220040   1.781   2.740   5.244
 6381SOL     OW20041   3.698   3.957   0.227
 6381SOL    HW120042   3.693   3.984   0.323
 6381SOL    HW220043   3.732   4.033   0.173
 6382SOL     OW20044   1.392   1.373   0.826
 6382SOL    HW120045   1.377   1.445   0.894
 6382SOL    HW220046   1.318   1.306   0.831
 6383SOL     OW20047   2.491   2.545   2.242
 6383SOL    HW120048   2.430   2.466   2.238
 6383SOL    HW220049   2.500   2.576   2.337
 6384SOL     OW20050   6.480   2.655   1.946
 6384SOL    HW120051   6.562   2.712   1.945
 6384SOL    HW220052   6.455   2.635   2.041
 6385SOL     OW20053   6.351   3.771   0.741
 6385SOL    HW120054   6.330   3.675   0.723
 6385SOL    HW220055   6.450   3.782   0.754
 6386SOL     OW20056   3.648   3.471   0.201
 6386SOL    HW120057   3.604   3.555   0.169
 6386SOL    HW220058   3.596   3.434   0.278
 6387SOL     OW20059   6.776   0.215   6.436
 6387SOL    HW120060   6.735   0.125   6.453
 6387SOL    HW220061   6.724   0.285   6.484
 6388SOL     OW20062   5.708   5.375   1.938
 6388SOL    HW120063   5.806   5.355   1.935
 6388SOL    HW220064   5.675   5.364   2.032
 6389SOL     OW20065   6.741   6.870   0.581
 6389SOL    HW120066   6.777   6.917   0.662
 6389SOL    HW220067   6.816   6.846   0.520
 6390SOL     OW20068   5.503   0.235   6.696
 6390SOL    HW120069   5.553   0.229   6.783
 6390SOL    HW220070   5.446   0.154   6.684
 6391SOL     OW20071   1.842   1.984   4.620
 6391SOL    HW120072   1.813   1.891   4.643
 6391SOL    HW220073   1.867   2.033   4.704
 6392SOL     OW20074   4.561   6.831   3.982
 6392SOL    HW120075   4.600   6.870   3.899
 6392SOL    HW220076   4.484   6.887   4.012
 6393SOL     OW20077   1.650   4.684   0.598
 6393SOL    HW120078   1.743   4.692   0.563
 6393SOL    HW220079   1.652   4.687   0.698
 6394SOL     OW20080   2.009   5.092   1.876
 6394SOL    HW120081   1.965   5.083   1.786
 6394SOL    HW220082   1.967   5.167   1.926
 6395SOL     OW20083   1.713   4.490   4.894
 6395SOL    HW120084   1.759   4.411   4.853
 6395SOL    HW220085   1.780   4.547   4.941
 6396SOL     OW20086   2.297   2.732   5.289
 6396SOL    HW120087   2.359   2.711   5.365
 6396SOL    HW220088   2.248   2.817   5.308
 6397SOL     OW20089   6.474   3.543   4.951
 6397SOL    HW120090   6.446   3.637   4.966
 6397SOL    HW220091   6.417   3.482   5.006
 6398SOL     OW20092   1.940   0.446   2.609
 6398SOL    HW120093   1.994   0.513   2.559
 6398SOL    HW220094   1.843   0.457   2.586
 6399SOL     OW20095   2.886   0.269   0.216
 6399SOL    HW120096   2.980   0.259   0.249
 6399SOL    HW220097   2.886   0.315   0.128
 6400SOL     OW20098   0.318   6.764   2.523
 6400SOL    HW120099   0.300   6.713   2.438
 6400SOL    HW220100   0.294   6.861   2.508
 6401SOL     OW20101   3.651   5.216   2.216
 6401SOL    HW120102   3.628   5.119   2.208
 6401SOL    HW220103   3.680   5.252   2.127
 6402SOL     OW20104   3.715   4.515   6.111
 6402SOL    HW120105   3.699   4.417   6.105
 6402SOL    HW220106   3.760   4.547   6.027
 6403SOL     OW20107   5.073   5.696   5.503
 6403SOL    HW120108   5.038   5.685   5.596
 6403SOL    HW220109   5.057   5.789   5.472
 6404SOL     OW20110   4.750   5.920   0.062
 6404SOL    HW120111   4.821   5.909   7.022
 6404SOL    HW220112   4.673   5.859   0.039
 6405SOL     OW20113   4.793   1.021   2.649
 6405SOL    HW120114   4.828   1.012   2.556
 6405SOL    HW220115   4.803   1.116   2.680
 6406SOL     OW20116   0.439   3.155   2.402
 6406SOL    HW120117   0.421   3.251   2.422
 6406SOL    HW220118   0.353   3.106   2.395
 6407SOL     OW20119   0.223   7.023   2.404
 6407SOL    HW120120   0.202   0.017   2.309
 6407SOL    HW220121   0.309   0.038   2.430
 6408SOL     OW20122   0.125   1.318   1.918
 6408SOL    HW120123   0.131   1.284   2.012
 6408SOL    HW220124   0.140   1.416   1.917
 6409SOL     OW20125   5.972   4.403   3.066
 6409SOL    HW120126   5.895   4.466   3.060
 6409SOL    HW220127   6.048   4.448   3.113
 6410SOL     OW20128   2.140   1.270   0.187
 6410SOL    HW120129   2.058   1.213   0.190
 6410SOL    HW220130   2.171   1.280   0.092
 6411SOL     OW20131   0.690   2.704   2.707
 6411SOL    HW120132   0.742   2.789   2.718
 6411SOL    HW220133   0.658   2.672   2.796
 6412SOL     OW20134   3.512   0.389   6.909
 6412SOL    HW120135   3.502   0.335   6.992
 6412SOL    HW220136   3.608   0.415   6.897
 6413SOL     OW20137   4.919   6.406   3.270
 6413SOL    HW120138   4.963   6.319   3.292
 6413SOL    HW220139   4.870   6.439   3.351
 6414SOL     OW20140   2.748   0.619   0.430
 6414SOL    HW120141   2.839   0.611   0.389
 6414SOL    HW220142   2.730   0.715   0.453
 6415SOL     OW20143   0.835   1.312   3.596
 6415SOL    HW120144   0.854   1.225   3.642
 6415SOL    HW220145   0.889   1.384   3.638
 6416SOL     OW20146   3.091   5.019   0.309
 6416SOL    HW120147   3.081   5.005   0.211
 6416SOL    HW220148   3.004   5.004   0.355
 6417SOL     OW20149   4.461   3.127   6.561
 6417SOL    HW120150   4.437   3.209   6.508
 6417SOL    HW220151   4.381   3.095   6.612
 6418SOL     OW20152   5.030   5.254   0.441
 6418SOL    HW120153   5.060   5.303   0.523
 6418SOL    HW220154   5.107   5.242   0.379
 6419SOL     OW20155   0.806   6.917   6.827
 6419SOL    HW120156   0.900   6.951   6.822
 6419SOL    HW220157   0.790   6.876   6.917
 6420SOL     OW20158   2.470   4.492   3.771
 6420SOL    HW120159   2.421   4.418   3.818
 6420SOL    HW220160   2.500   4.560   3.837
 6421SOL     OW20161   4.759   0.023   1.963
 6421SOL    HW120162   4.757   0.098   1.898
 6421SOL    HW220163   4.838   0.034   2.024
 6422SOL     OW20164   0.001   2.599   4.853
 6422SOL    HW120165   0.039   2.651   4.776
 6422SOL    HW220166   6.947   2.645   4.886
 6423SOL     OW20167   1.090   4.180   5.099
 6423SOL    HW120168   1.154   4.109   5.068
 6423SOL    HW220169   1.008   4.177   5.042
 6424SOL     OW20170   6.737   4.338   6.085
 6424SOL    HW120171   6.828   4.339   6.127
 6424SOL    HW220172   6.710   4.244   6.066
 6425SOL     OW20173   0.287   6.466   4.375
 6425SOL    HW120174   0.291   6.543   4.439
 6425SOL    HW220175   0.377   6.452   4.334
 6426SOL     OW20176   4.767   5.425   4.277
 6426SOL    HW120177   4.846   5.483   4.299
 6426SOL    HW220178   4.683   5.478   4.290
 6427SOL     OW20179   4.065   3.577   3.722
 6427SOL    HW120180   4.086   3.529   3.637
 6427SOL    HW220181   4.099   3.523   3.799
 6428SOL     OW20182   5.568   3.050   0.167
 6428SOL    HW120183   5.489   3.107   0.189
 6428SOL    HW220184   5.541   2.978   0.103
 6429SOL     OW20185   2.406   1.422   5.841
 6429SOL    HW120186   2.368   1.406   5.750
 6429SOL    HW220187   2.364   1.503   5.881
 6430SOL     OW20188   5.575   1.598   4.816
 6430SOL    HW120189   5.515   1.640   4.748
 6430SOL    HW220190   5.651   1.660   4.838
 6431SOL     OW20191   3.477   5.174   2.550
 6431SOL    HW120192   3.559   5.195   2.603
 6431SOL    HW220193   3.396   5.182   2.609
 6432SOL     OW20194   4.875   2.995   5.880
 6432SOL    HW120195   4.780   3.011   5.907
 6432SOL    HW220196   4.880   2.913   5.823
 6433SOL     OW20197   3.379   5.319   6.036
 6433SOL    HW120198   3.433   5.374   6.100
 6433SOL    HW220199   3.357   5.231   6.079
 6434SOL     OW20200   5.556   5.462   5.795
 6434SOL    HW120201   5.519   5.491   5.707
 6434SOL    HW220202   5.572   5.363   5.794
 6435SOL     OW20203   4.677   1.184   0.923
 6435SOL    HW120204   4.664   1.116   0.850
 6435SOL    HW220205   4.657   1.275   0.887
 6436SOL     OW20206   0.346   3.560   3.625
 6436SOL    HW120207   0.423   3.603   3.577
 6436SOL    HW220208   0.344   3.591   3.720
 6437SOL     OW20209   1.649   2.649   5.953
 6437SOL    HW120210   1.620   2.653   6.049
 6437SOL    HW220211   1.570   2.669   5.895
 6438SOL     OW20212   0.499   5.382   0.554
 6438SOL    HW120213   0.579   5.377   0.495
 6438SOL    HW220214   0.458   5.291   0.564
 6439SOL     OW20215   5.442   6.939   2.492
 6439SOL    HW120216   5.449   6.893   2.404
 6439SOL    HW220217   5.485   7.029   2.486
 6440SOL     OW20218   2.315   1.974   6.290
 6440SOL    HW120219   2.222   1.938   6.280
 6440SOL    HW220220   2.379   1.916   6.240
 6441SOL     OW20221   0.373   2.432   1.872
 6441SOL    HW120222   0.428   2.348   1.873
 6441SOL    HW220223   0.280   2.410   1.844
 6442SOL     OW20224   2.476   1.830   4.690
 6442SOL    HW120225   2.416   1.828   4.770
 6442SOL    HW220226   2.421   1.817   4.607
 6443SOL     OW20227   3.591   3.228   6.477
 6443SOL    HW120228   3.554   3.141   6.447
 6443SOL    HW220229   3.594   3.292   6.400
 6444SOL     OW20230   6.963   3.967   5.020
 6444SOL    HW120231   6.943   3.870   5.033
 6444SOL    HW220232   0.029   3.978   4.989
 6445SOL     OW20233   3.874   2.943   3.471
 6445SOL    HW120234   3.800   2.908   3.529
 6445SOL    HW220235   3.939   2.870   3.452
 6446SOL     OW20236   1.503   0.941   0.355
 6446SOL    HW120237   1.588   0.902   0.389
 6446SOL    HW220238   1.426   0.882   0.380
 6447SOL     OW20239   5.963   3.745   1.717
 6447SOL    HW120240   5.882   3.754   1.659
 6447SOL    HW220241   5.935   3.717   1.809
 6448SOL     OW20242   4.208   4.699   1.076
 6448SOL    HW120243   4.269   4.777   1.088
 6448SOL    HW220244   4.209   4.670   0.980
 6449SOL     OW20245   3.780   5.303   0.331
 6449SOL    HW120246   3.740   5.211   0.336
 6449SOL    HW220247   3.786   5.341   0.423
 6450SOL     OW20248   6.082   3.816   0.049
 6450SOL    HW120249   6.075   3.718   0.068
 6450SOL    HW220250   6.115   3.830   6.985
 6451SOL     OW20251   4.349   2.665   1.602
 6451SOL    HW120252   4.258   2.687   1.636
 6451SOL    HW220253   4.409   2.744   1.613
 6452SOL     OW20254   4.092   1.871   5.100
 6452SOL    HW120255   4.063   1.943   5.163
 6452SOL    HW220256   4.028   1.795   5.104
 6453SOL     OW20257   2.295   0.422   2.863
 6453SOL    HW120258   2.278   0.428   2.962
 6453SOL    HW220259   2.229   0.361   2.821
 6454SOL     OW20260   5.173   2.790   4.403
 6454SOL    HW120261   5.117   2.867   4.433
 6454SOL    HW220262   5.114   2.712   4.383
 6455SOL     OW20263   0.134   2.870   4.027
 6455SOL    HW120264   0.194   2.887   3.949
 6455SOL    HW220265   0.084   2.785   4.013
 6456SOL     OW20266   6.662   2.043   2.659
 6456SOL    HW120267   6.685   1.952   2.624
 6456SOL    HW220268   6.634   2.035   2.755
 6457SOL     OW20269   2.354   6.331   2.602
 6457SOL    HW120270   2.312   6.341   2.512
 6457SOL    HW220271   2.378   6.235   2.617
 6458SOL     OW20272   0.089   0.270   4.346
 6458SOL    HW120273   0.029   0.279   4.267
 6458SOL    HW220274   0.054   0.327   4.421
 6459SOL     OW20275   0.251   3.175   3.210
 6459SOL    HW120276   0.254   3.084   3.167
 6459SOL    HW220277   0.156   3.201   3.227
 6460SOL     OW20278   1.391   5.333   6.527
 6460SOL    HW120279   1.354   5.248   6.489
 6460SOL    HW220280   1.481   5.315   6.566
 6461SOL     OW20281   0.559   6.494   1.022
 6461SOL    HW120282   0.527   6.415   1.073
 6461SOL    HW220283   0.659   6.500   1.029
 6462SOL     OW20284   1.964   3.787   5.289
 6462SOL    HW120285   1.874   3.761   5.254
 6462SOL    HW220286   1.991   3.874   5.249
 6463SOL     OW20287   4.725   2.733   1.153
 6463SOL    HW120288   4.671   2.813   1.178
 6463SOL    HW220289   4.711   2.712   1.056
 6464SOL     OW20290   0.591   3.671   3.533
 6464SOL    HW120291   0.594   3.637   3.440
 6464SOL    HW220292   0.681   3.662   3.576
 6465SOL     OW20293   3.068   0.797   3.830
 6465SOL    HW120294   3.087   0.723   3.766
 6465SOL    HW220295   3.091   0.885   3.787
 6466SOL     OW20296   6.517   5.036   6.317
 6466SOL    HW120297   6.535   5.105   6.247
 6466SOL    HW220298   6.482   5.080   6.399
 6467SOL     OW20299   2.291   2.742   6.432
 6467SOL    HW120300   2.252   2.808   6.496
 6467SOL    HW220301   2.267   2.767   6.339
 6468SOL     OW20302   1.283   0.630   1.738
 6468SOL    HW120303   1.382   0.646   1.738
 6468SOL    HW220304   1.239   0.691   1.672
 6469SOL     OW20305   2.062   1.137   1.535
 6469SOL    HW120306   2.111   1.051   1.533
 6469SOL    HW220307   2.119   1.210   1.497
 6470SOL     OW20308   6.167   1.696   6.931
 6470SOL    HW120309   6.214   1.709   7.019
 6470SOL    HW220310   6.195   1.767   6.867
 6471SOL     OW20311   0.135   6.332   5.952
 6471SOL    HW120312   0.221   6.326   5.901
 6471SOL    HW220313   0.128   6.422   5.995
 6472SOL     OW20314   6.985   6.006   2.155
 6472SOL    HW120315   7.007   5.938   2.225
 6472SOL    HW220316   0.013   6.087   2.170
 6473SOL     OW20317   3.074   0.801   3.507
 6473SOL    HW120318   2.988   0.779   3.461
 6473SOL    HW220319   3.143   0.733   3.483
 6474SOL     OW20320   3.475   6.756   3.851
 6474SOL    HW120321   3.452   6.850   3.825
 6474SOL    HW220322   3.571   6.752   3.881
 6475SOL     OW20323   5.597   5.657   3.088
 6475SOL    HW120324   5.674   5.707   3.128
 6475SOL    HW220325   5.570   5.700   3.001
 6476SOL     OW20326   4.652   3.569   6.082
 6476SOL    HW120327   4.749   3.544   6.079
 6476SOL    HW220328   4.627   3.592   6.176
 6477SOL     OW20329   0.836   6.662   0.523
 6477SOL    HW120330   0.818   6.647   0.620
 6477SOL    HW220331   0.869   6.756   0.509
 6478SOL     OW20332   1.294   6.257   1.177
 6478SOL    HW120333   1.199   6.280   1.158
 6478SOL    HW220334   1.303   6.223   1.270
 6479SOL     OW20335   4.647   5.970   3.432
 6479SOL    HW120336   4.626   6.067   3.424
 6479SOL    HW220337   4.747   5.957   3.429
 6480SOL     OW20338   3.531   1.414   5.360
 6480SOL    HW120339   3.457   1.480   5.361
 6480SOL    HW220340   3.493   1.321   5.364
 6481SOL     OW20341   4.123   3.281   1.996
 6481SOL    HW120342   4.209   3.256   1.952
 6481SOL    HW220343   4.074   3.199   2.025
 6482SOL     OW20344   4.629   3.386   5.394
 6482SOL    HW120345   4.723   3.389   5.361
 6482SOL    HW220346   4.596   3.480   5.408
 6483SOL     OW20347   2.140   5.837   5.369
 6483SOL    HW120348   2.185   5.779   5.301
 6483SOL    HW220349   2.080   5.782   5.427
 6484SOL     OW20350   4.456   1.483   3.730
 6484SOL    HW120351   4.373   1.495   3.676
 6484SOL    HW220352   4.478   1.568   3.777
 6485SOL     OW20353   2.236   5.146   5.209
 6485SOL    HW120354   2.199   5.056   5.231
 6485SOL    HW220355   2.161   5.210   5.193
 6486SOL     OW20356   6.909   4.672   2.374
 6486SOL    HW120357   6.887   4.726   2.455
 6486SOL    HW220358   6.996   4.626   2.387
 6487SOL     OW20359   6.443   5.111   3.914
 6487SOL    HW120360   6.401   5.132   4.003
 6487SOL    HW220361   6.532   5.157   3.908
 6488SOL     OW20362   3.924   5.133   4.036
 6488SOL    HW120363   3.917   5.231   4.055
 6488SOL    HW220364   3.848   5.105   3.979
 6489SOL     OW20365   6.098   3.318   5.165
 6489SOL    HW120366   6.049   3.362   5.089
 6489SOL    HW220367   6.035   3.306   5.242
 6490SOL     OW20368   2.196   2.411   0.358
 6490SOL    HW120369   2.261   2.359   0.413
 6490SOL    HW220370   2.244   2.487   0.313
 6491SOL     OW20371   1.526   6.967   1.709
 6491SOL    HW120372   1.566   0.020   1.669
 6491SOL    HW220373   1.482   6.990   1.796
 6492SOL     OW20374   3.934   4.017   4.055
 6492SOL    HW120375   3.962   3.925   4.028
 6492SOL    HW220376   3.910   4.071   3.974
 6493SOL     OW20377   1.236   4.732   3.740
 6493SOL    HW120378   1.268   4.656   3.683
 6493SOL    HW220379   1.274   4.818   3.704
 6494SOL     OW20380   6.470   0.535   1.121
 6494SOL    HW120381   6.424   0.479   1.191
 6494SOL    HW220382   6.402   0.590   1.073
 6495SOL     OW20383   0.002   0.110   3.471
 6495SOL    HW120384   0.037   0.195   3.510
 6495SOL    HW220385   6.932   0.104   3.487
 6496SOL     OW20386   3.349   2.180   1.619
 6496SOL    HW120387   3.333   2.270   1.660
 6496SOL    HW220388   3.447   2.158   1.626
 6497SOL     OW20389   0.671   1.605   0.664
 6497SOL    HW120390   0.751   1.626   0.608
 6497SOL    HW220391   0.675   1.658   0.749
 6498SOL     OW20392   2.035   4.506   4.610
 6498SOL    HW120393   2.069   4.571   4.678
 6498SOL    HW220394   1.954   4.460   4.646
 6499SOL     OW20395   4.746   2.316   3.320
 6499SOL    HW120396   4.814   2.349   3.385
 6499SOL    HW220397   4.729   2.219   3.337
 6500SOL     OW20398   1.211   3.527   3.154
 6500SOL    HW120399   1.305   3.533   3.187
 6500SOL    HW220400   1.207   3.460   3.080
 6501SOL     OW20401   6.217   0.934   2.637
 6501SOL    HW120402   6.198   0.839   2.662
 6501SOL    HW220403   6.131   0.984   2.628
 6502SOL     OW20404   0.968   2.977   1.582
 6502SOL    HW120405   0.965   3.044   1.508
 6502SOL    HW220406   0.995   3.022   1.667
 6503SOL     OW20407   6.930   2.765   5.556
 6503SOL    HW120408   6.930   2.755   5.656
 6503SOL    HW220409   6.839   2.791   5.525
 6504SOL     OW20410   3.417   6.666   6.170
 6504SOL    HW120411   3.492   6.612   6.130
 6504SOL    HW220412   3.330   6.636   6.132
 6505SOL     OW20413   0.178   6.965   1.124
 6505SOL    HW120414   0.128   6.898   1.178
 6505SOL    HW220415   0.274   6.965   1.150
 6506SOL     OW20416   0.145   3.889   2.036
 6506SOL    HW120417   0.073   3.880   1.968
 6506SOL    HW220418   0.229   3.846   2.002
 6507SOL     OW20419   3.780   5.949   1.085
 6507SOL    HW120420   3.689   5.992   1.083
 6507SOL    HW220421   3.771   5.854   1.114
 6508SOL     OW20422   6.660   0.338   3.789
 6508SOL    HW120423   6.649   0.398   3.869
 6508SOL    HW220424   6.754   0.303   3.786
 6509SOL     OW20425   2.164   1.753   0.032
 6509SOL    HW120426   2.137   1.828   0.093
 6509SOL    HW220427   2.260   1.766   0.005
 6510SOL     OW20428   3.276   5.365   4.726
 6510SOL    HW120429   3.342   5.293   4.707
 6510SOL    HW220430   3.308   5.451   4.686
 6511SOL     OW20431   3.356   2.212   0.206
 6511SOL    HW120432   3.398   2.145   0.266
 6511SOL    HW220433   3.426   2.270   0.165
 6512SOL     OW20434   5.004   0.444   0.651
 6512SOL    HW120435   5.024   0.418   0.556
 6512SOL    HW220436   4.930   0.388   0.687
 6513SOL     OW20437   2.846   4.735   2.922
 6513SOL    HW120438   2.773   4.799   2.944
 6513SOL    HW220439   2.807   4.647   2.895
 6514SOL     OW20440   5.238   6.222   5.404
 6514SOL    HW120441   5.193   6.186   5.322
 6514SOL    HW220442   5.265   6.317   5.387
 6515SOL     OW20443   0.568   4.707   2.482
 6515SOL    HW120444   0.643   4.641   2.493
 6515SOL    HW220445   0.604   4.800   2.491
 6516SOL     OW20446   6.184   2.043   2.944
 6516SOL    HW120447   6.127   2.125   2.942
 6516SOL    HW220448   6.181   1.998   2.855
 6517SOL     OW20449   6.319   3.690   0.360
 6517SOL    HW120450   6.278   3.781   0.364
 6517SOL    HW220451   6.397   3.685   0.422
 6518SOL     OW20452   0.899   1.155   2.233
 6518SOL    HW120453   0.803   1.169   2.210
 6518SOL    HW220454   0.930   1.229   2.293
 6519SOL     OW20455   1.236   0.859   3.605
 6519SOL    HW120456   1.294   0.832   3.528
 6519SOL    HW220457   1.262   0.950   3.637
 6520SOL     OW20458   6.448   5.238   6.812
 6520SOL    HW120459   6.404   5.322   6.843
 6520SOL    HW220460   6.538   5.229   6.855
 6521SOL     OW20461   1.624   4.795   4.825
 6521SOL    HW120462   1.687   4.734   4.872
 6521SOL    HW220463   1.652   4.890   4.840
 6522SOL     OW20464   2.605   2.903   5.387
 6522SOL    HW120465   2.544   2.842   5.436
 6522SOL    HW220466   2.553   2.957   5.321
 6523SOL     OW20467   6.037   6.420   0.782
 6523SOL    HW120468   6.020   6.504   0.730
 6523SOL    HW220469   6.117   6.433   0.841
 6524SOL     OW20470   2.961   2.774   1.216
 6524SOL    HW120471   3.039   2.831   1.191
 6524SOL    HW220472   2.885   2.831   1.244
 6525SOL     OW20473   1.585   5.004   3.889
 6525SOL    HW120474   1.673   5.008   3.842
 6525SOL    HW220475   1.598   5.012   3.987
 6526SOL     OW20476   6.565   6.730   0.893
 6526SOL    HW120477   6.656   6.742   0.853
 6526SOL    HW220478   6.502   6.797   0.854
 6527SOL     OW20479   5.801   1.425   0.772
 6527SOL    HW120480   5.729   1.483   0.734
 6527SOL    HW220481   5.773   1.329   0.767
 6528SOL     OW20482   4.262   6.820   0.278
 6528SOL    HW120483   4.183   6.778   0.232
 6528SOL    HW220484   4.343   6.810   0.221
 6529SOL     OW20485   4.733   0.208   1.768
 6529SOL    HW120486   4.659   0.177   1.709
 6529SOL    HW220487   4.709   0.297   1.807
 6530SOL     OW20488   0.210   2.463   3.561
 6530SOL    HW120489   0.111   2.456   3.545
 6530SOL    HW220490   0.257   2.391   3.510
 6531SOL     OW20491   3.738   3.751   3.789
 6531SOL    HW120492   3.768   3.695   3.866
 6531SOL    HW220493   3.645   3.783   3.804
 6532SOL     OW20494   0.661   6.147   0.530
 6532SOL    HW120495   0.711   6.060   0.525
 6532SOL    HW220496   0.690   6.197   0.612
 6533SOL     OW20497   4.679   4.543   1.253
 6533SOL    HW120498   4.637   4.552   1.343
 6533SOL    HW220499   4.629   4.600   1.187
 6534SOL     OW20500   0.077   4.222   4.058
 6534SOL    HW120501   7.013   4.208   4.092
 6534SOL    HW220502   0.092   4.319   4.039
 6535SOL     OW20503   5.425   4.500   5.612
 6535SOL    HW120504   5.346   4.444   5.637
 6535SOL    HW220505   5.498   4.441   5.577
 6536SOL     OW20506   0.274   4.866   5.681
 6536SOL    HW120507   0.195   4.887   5.624
 6536SOL    HW220508   0.307   4.774   5.659
 6537SOL     OW20509   0.019   5.081   4.211
 6537SOL    HW120510   0.024   5.176   4.241
 6537SOL    HW220511   6.993   5.075   4.127
 6538SOL     OW20512   1.052   2.712   3.954
 6538SOL    HW120513   1.022   2.780   3.888
 6538SOL    HW220514   1.004   2.626   3.937
 6539SOL     OW20515   4.699   6.576   6.855
 6539SOL    HW120516   4.647   6.651   6.896
 6539SOL    HW220517   4.788   6.610   6.826
 6540SOL     OW20518   0.136   2.603   5.505
 6540SOL    HW120519   0.084   2.593   5.420
 6540SOL    HW220520   0.124   2.696   5.541
 6541SOL     OW20521   4.356   1.570   5.383
 6541SOL    HW120522   4.356   1.517   5.298
 6541SOL    HW220523   4.387   1.512   5.458
 6542SOL     OW20524   1.601   4.046   2.446
 6542SOL    HW120525   1.548   4.055   2.531
 6542SOL    HW220526   1.596   4.132   2.395
 6543SOL     OW20527   4.186   1.154   4.353
 6543SOL    HW120528   4.115   1.092   4.386
 6543SOL    HW220529   4.276   1.119   4.378
 6544SOL     OW20530   0.099   0.305   0.425
 6544SOL    HW120531   0.056   0.386   0.385
 6544SOL    HW220532   0.150   0.332   0.507
 6545SOL     OW20533   4.933   6.127   1.135
 6545SOL    HW120534   4.983   6.041   1.131
 6545SOL    HW220535   4.876   6.128   1.217
 6546SOL     OW20536   4.747   5.464   5.707
 6546SOL    HW120537   4.688   5.387   5.684
 6546SOL    HW220538   4.739   5.535   5.637
 6547SOL     OW20539   0.718   6.264   5.382
 6547SOL    HW120540   0.667   6.344   5.416
 6547SOL    HW220541   0.710   6.261   5.282
 6548SOL     OW20542   1.402   1.726   6.117
 6548SOL    HW120543   1.315   1.688   6.088
 6548SOL    HW220544   1.394   1.762   6.210
 6549SOL     OW20545   3.528   1.520   2.711
 6549SOL    HW120546   3.501   1.616   2.698
 6549SOL    HW220547   3.621   1.507   2.677
 6550SOL     OW20548   5.955   6.421   2.114
 6550SOL    HW120549   5.903   6.490   2.164
 6550SOL    HW220550   5.892   6.362   2.063
 6551SOL     OW20551   3.012   4.957   0.659
 6551SOL    HW120552   2.953   5.023   0.705
 6551SOL    HW220553   2.962   4.915   0.583
 6552SOL     OW20554   2.278   4.280   0.204
 6552SOL    HW120555   2.259   4.186   0.234
 6552SOL    HW220556   2.353   4.318   0.258
 6553SOL     OW20557   0.629   1.894   3.913
 6553SOL    HW120558   0.540   1.888   3.958
 6553SOL    HW220559   0.622   1.955   3.834
 6554SOL     OW20560   1.411   2.215   4.247
 6554SOL    HW120561   1.464   2.173   4.320
 6554SOL    HW220562   1.454   2.301   4.219
 6555SOL     OW20563   1.624   3.168   4.352
 6555SOL    HW120564   1.577   3.102   4.293
 6555SOL    HW220565   1.670   3.236   4.295
 6556SOL     OW20566   4.888   3.233   2.925
 6556SOL    HW120567   4.896   3.331   2.904
 6556SOL    HW220568   4.966   3.205   2.982
 6557SOL     OW20569   2.196   0.783   2.371
 6557SOL    HW120570   2.191   0.703   2.430
 6557SOL    HW220571   2.209   0.865   2.427
 6558SOL     OW20572   5.392   6.017   1.006
 6558SOL    HW120573   5.455   6.019   1.085
 6558SOL    HW220574   5.402   5.930   0.958
 6559SOL     OW20575   6.803   2.158   6.456
 6559SOL    HW120576   6.873   2.229   6.469
 6559SOL    HW220577   6.749   2.149   6.539
 6560SOL     OW20578   6.273   4.498   6.764
 6560SOL    HW120579   6.259   4.503   6.863
 6560SOL    HW220580   6.353   4.442   6.744
 6561SOL     OW20581   2.388   4.777   0.571
 6561SOL    HW120582   2.394   4.723   0.655
 6561SOL    HW220583   2.422   4.869   0.588
 6562SOL     OW20584   4.785   2.368   1.823
 6562SOL    HW120585   4.875   2.391   1.859
 6562SOL    HW220586   4.714   2.403   1.885
 6563SOL     OW20587   6.569   4.790   5.428
 6563SOL    HW120588   6.531   4.814   5.339
 6563SOL    HW220589   6.509   4.725   5.474
 6564SOL     OW20590   5.493   3.277   2.181
 6564SOL    HW120591   5.393   3.267   2.174
 6564SOL    HW220592   5.518   3.371   2.157
 6565SOL     OW20593   5.105   6.672   2.558
 6565SOL    HW120594   5.110   6.596   2.623
 6565SOL    HW220595   5.095   6.758   2.607
 6566SOL     OW20596   5.456   5.290   3.663
 6566SOL    HW120597   5.478   5.205   3.614
 6566SOL    HW220598   5.499   5.367   3.616
 6567SOL     OW20599   3.426   0.726   2.712
 6567SOL    HW120600   3.496   0.654   2.707
 6567SOL    HW220601   3.435   0.775   2.798
 6568SOL     OW20602   4.882   0.862   0.740
 6568SOL    HW120603   4.903   0.927   0.813
 6568SOL    HW220604   4.933   0.777   0.756
 6569SOL     OW20605   0.962   4.753   3.893
 6569SOL    HW120606   0.897   4.809   3.842
 6569SOL    HW220607   1.048   4.747   3.843
 6570SOL     OW20608   4.356   0.551   2.184
 6570SOL    HW120609   4.378   0.541   2.087
 6570SOL    HW220610   4.258   0.567   2.195
 6571SOL     OW20611   2.504   6.793   3.186
 6571SOL    HW120612   2.553   6.727   3.128
 6571SOL    HW220613   2.521   6.770   3.282
 6572SOL     OW20614   1.905   6.143   4.232
 6572SOL    HW120615   1.885   6.226   4.180
 6572SOL    HW220616   1.999   6.115   4.215
 6573SOL     OW20617   0.094   2.382   3.170
 6573SOL    HW120618   0.120   2.318   3.242
 6573SOL    HW220619   0.128   2.349   3.082
 6574SOL     OW20620   1.180   4.635   2.244
 6574SOL    HW120621   1.172   4.735   2.236
 6574SOL    HW220622   1.101   4.599   2.293
 6575SOL     OW20623   7.009   1.842   3.752
 6575SOL    HW120624   0.016   1.928   3.787
 6575SOL    HW220625   6.954   1.860   3.670
 6576SOL     OW20626   3.691   6.894   1.475
 6576SOL    HW120627   3.740   6.918   1.559
 6576SOL    HW220628   3.596   6.923   1.483
 6577SOL     OW20629   3.499   0.825   4.936
 6577SOL    HW120630   3.453   0.854   5.020
 6577SOL    HW220631   3.554   0.901   4.901
 6578SOL     OW20632   1.212   4.879   0.748
 6578SOL    HW120633   1.231   4.831   0.834
 6578SOL    HW220634   1.205   4.814   0.673
 6579SOL     OW20635   1.409   1.510   3.910
 6579SOL    HW120636   1.397   1.436   3.844
 6579SOL    HW220637   1.393   1.474   4.002
 6580SOL     OW20638   3.118   2.114   0.270
 6580SOL    HW120639   3.204   2.165   0.265
 6580SOL    HW220640   3.116   2.044   0.198
 6581SOL     OW20641   0.379   1.749   1.329
 6581SOL    HW120642   0.318   1.696   1.271
 6581SOL    HW220643   0.370   1.846   1.306
 6582SOL     OW20644   5.004   0.726   3.085
 6582SOL    HW120645   4.908   0.714   3.111
 6582SOL    HW220646   5.063   0.710   3.164
 6583SOL     OW20647   2.934   4.466   0.897
 6583SOL    HW120648   2.955   4.413   0.979
 6583SOL    HW220649   2.977   4.556   0.902
 6584SOL     OW20650   4.196   2.521   6.262
 6584SOL    HW120651   4.215   2.522   6.164
 6584SOL    HW220652   4.097   2.526   6.277
 6585SOL     OW20653   5.372   0.044   1.785
 6585SOL    HW120654   5.297   0.065   1.848
 6585SOL    HW220655   5.349   6.992   1.732
 6586SOL     OW20656   6.658   1.002   6.296
 6586SOL    HW120657   6.748   0.986   6.337
 6586SOL    HW220658   6.596   0.928   6.322
 6587SOL     OW20659   3.119   5.169   4.838
 6587SOL    HW120660   3.022   5.149   4.821
 6587SOL    HW220661   3.144   5.252   4.788
 6588SOL     OW20662   1.191   1.822   0.225
 6588SOL    HW120663   1.104   1.851   0.267
 6588SOL    HW220664   1.202   1.870   0.138
 6589SOL     OW20665   6.449   6.505   1.913
 6589SOL    HW120666   6.515   6.430   1.899
 6589SOL    HW220667   6.495   6.580   1.960
 6590SOL     OW20668   1.197   6.377   4.396
 6590SOL    HW120669   1.240   6.334   4.476
 6590SOL    HW220670   1.187   6.308   4.324
 6591SOL     OW20671   6.329   3.269   3.609
 6591SOL    HW120672   6.306   3.231   3.699
 6591SOL    HW220673   6.428   3.268   3.596
 6592SOL     OW20674   6.532   0.475   4.087
 6592SOL    HW120675   6.446   0.458   4.039
 6592SOL    HW220676   6.517   0.467   4.186
 6593SOL     OW20677   2.305   1.025   2.432
 6593SOL    HW120678   2.241   1.068   2.368
 6593SOL    HW220679   2.381   1.087   2.449
 6594SOL     OW20680   5.241   0.075   0.185
 6594SOL    HW120681   5.320   0.019   0.160
 6594SOL    HW220682   5.221   0.065   0.282
 6595SOL     OW20683   0.757   1.703   5.152
 6595SOL    HW120684   0.803   1.661   5.074
 6595SOL    HW220685   0.825   1.751   5.208
 6596SOL     OW20686   5.263   1.262   2.401
 6596SOL    HW120687   5.225   1.268   2.494
 6596SOL    HW220688   5.263   1.167   2.371
 6597SOL     OW20689   0.864   4.582   1.154
 6597SOL    HW120690   0.926   4.507   1.180
 6597SOL    HW220691   0.841   4.573   1.057
 6598SOL     OW20692   1.381   5.178   3.129
 6598SOL    HW120693   1.365   5.086   3.162
 6598SOL    HW220694   1.355   5.244   3.199
 6599SOL     OW20695   0.425   5.715   6.506
 6599SOL    HW120696   0.450   5.700   6.410
 6599SOL    HW220697   0.344   5.773   6.511
 6600SOL     OW20698   4.776   6.568   4.637
 6600SOL    HW120699   4.814   6.521   4.716
 6600SOL    HW220700   4.677   6.556   4.635
 6601SOL     OW20701   1.459   2.826   1.810
 6601SOL    HW120702   1.380   2.769   1.832
 6601SOL    HW220703   1.538   2.794   1.862
 6602SOL     OW20704   6.999   5.146   1.271
 6602SOL    HW120705   6.947   5.101   1.198
 6602SOL    HW220706   7.008   5.084   1.349
 6603SOL     OW20707   0.568   4.329   2.501
 6603SOL    HW120708   0.559   4.263   2.576
 6603SOL    HW220709   0.512   4.409   2.521
 6604SOL     OW20710   1.473   5.717   3.044
 6604SOL    HW120711   1.515   5.771   3.117
 6604SOL    HW220712   1.441   5.778   2.972
 6605SOL     OW20713   0.195   5.308   1.297
 6605SOL    HW120714   0.241   5.299   1.209
 6605SOL    HW220715   0.109   5.258   1.296
 6606SOL     OW20716   1.783   4.224   2.795
 6606SOL    HW120717   1.801   4.165   2.874
 6606SOL    HW220718   1.821   4.182   2.712
 6607SOL     OW20719   6.087   3.221   4.091
 6607SOL    HW120720   6.100   3.126   4.119
 6607SOL    HW220721   5.993   3.248   4.111
 6608SOL     OW20722   1.140   0.294   5.846
 6608SOL    HW120723   1.076   0.234   5.798
 6608SOL    HW220724   1.092   0.377   5.875
 6609SOL     OW20725   3.413   2.606   0.166
 6609SOL    HW120726   3.481   2.624   0.095
 6609SOL    HW220727   3.393   2.692   0.214
 6610SOL     OW20728   2.915   6.260   1.190
 6610SOL    HW120729   2.828   6.228   1.151
 6610SOL    HW220730   2.932   6.354   1.160
 6611SOL     OW20731   3.164   1.244   4.649
 6611SOL    HW120732   3.146   1.335   4.685
 6611SOL    HW220733   3.222   1.251   4.567
 6612SOL     OW20734   0.680   0.097   0.125
 6612SOL    HW120735   0.711   0.078   0.032
 6612SOL    HW220736   0.698   0.193   0.147
 6613SOL     OW20737   4.643   6.585   0.704
 6613SOL    HW120738   4.668   6.522   0.777
 6613SOL    HW220739   4.689   6.672   0.718
 6614SOL     OW20740   3.975   4.867   0.780
 6614SOL    HW120741   4.014   4.786   0.737
 6614SOL    HW220742   3.923   4.919   0.712
 6615SOL     OW20743   3.532   5.471   6.220
 6615SOL    HW120744   3.486   5.467   6.309
 6615SOL    HW220745   3.630   5.451   6.233
 6616SOL     OW20746   4.393   1.179   0.165
 6616SOL    HW120747   4.365   1.274   0.177
 6616SOL    HW220748   4.430   1.144   0.251
 6617SOL     OW20749   3.387   0.909   3.574
 6617SOL    HW120750   3.451   0.964   3.521
 6617SOL    HW220751   3.379   0.947   3.666
 6618SOL     OW20752   6.024   2.681   4.281
 6618SOL    HW120753   6.011   2.696   4.379
 6618SOL    HW220754   6.018   2.769   4.233
 6619SOL     OW20755   4.833   5.080   3.875
 6619SOL    HW120756   4.773   5.004   3.899
 6619SOL    HW220757   4.841   5.143   3.952
 6620SOL     OW20758   0.944   2.522   3.465
 6620SOL    HW120759   1.029   2.540   3.417
 6620SOL    HW220760   0.891   2.453   3.415
 6621SOL     OW20761   2.936   3.482   3.874
 6621SOL    HW120762   2.991   3.534   3.808
 6621SOL    HW220763   2.890   3.546   3.935
 6622SOL     OW20764   0.436   5.113   1.320
 6622SOL    HW120765   0.440   5.019   1.353
 6622SOL    HW220766   0.343   5.135   1.290
 6623SOL     OW20767   2.911   3.782   3.689
 6623SOL    HW120768   2.926   3.872   3.730
 6623SOL    HW220769   2.993   3.726   3.700
 6624SOL     OW20770   2.760   2.357   2.808
 6624SOL    HW120771   2.691   2.286   2.799
 6624SOL    HW220772   2.732   2.437   2.755
 6625SOL     OW20773   6.854   3.703   5.484
 6625SOL    HW120774   6.772   3.761   5.479
 6625SOL    HW220775   6.905   3.725   5.567
 6626SOL     OW20776   3.282   5.687   5.261
 6626SOL    HW120777   3.284   5.786   5.244
 6626SOL    HW220778   3.315   5.639   5.180
 6627SOL     OW20779   2.615   6.051   4.161
 6627SOL    HW120780   2.565   6.138   4.159
 6627SOL    HW220781   2.618   6.013   4.068
 6628SOL     OW20782   3.782   6.939   2.989
 6628SOL    HW120783   3.728   6.943   3.074
 6628SOL    HW220784   3.832   7.025   2.978
 6629SOL     OW20785   4.507   5.398   4.871
 6629SOL    HW120786   4.554   5.329   4.816
 6629SOL    HW220787   4.415   5.366   4.893
 6630SOL     OW20788   1.828   0.650   0.022
 6630SOL    HW120789   1.874   0.591   0.089
 6630SOL    HW220790   1.856   0.625   6.959
 6631SOL     OW20791   2.137   2.924   5.922
 6631SOL    HW120792   2.044   2.889   5.915
 6631SOL    HW220793   2.196   2.878   5.856
 6632SOL     OW20794   1.382   0.490   6.833
 6632SOL    HW120795   1.343   0.514   6.744
 6632SOL    HW220796   1.424   0.571   6.874
 6633SOL     OW20797   4.400   5.757   6.069
 6633SOL    HW120798   4.317   5.813   6.061
 6633SOL    HW220799   4.447   5.781   6.154
 6634SOL     OW20800   3.141   2.162   4.117
 6634SOL    HW120801   3.183   2.157   4.027
 6634SOL    HW220802   3.212   2.155   4.187
 6635SOL     OW20803   4.963   5.533   5.134
 6635SOL    HW120804   4.947   5.632   5.129
 6635SOL    HW220805   4.876   5.485   5.131
 6636SOL     OW20806   4.300   1.309   0.538
 6636SOL    HW120807   4.365   1.290   0.464
 6636SOL    HW220808   4.293   1.408   0.551
 6637SOL     OW20809   6.994   1.897   0.266
 6637SOL    HW120810   7.014   1.867   0.359
 6637SOL    HW220811   6.895   1.903   0.253
 6638SOL     OW20812   3.510   3.539   3.833
 6638SOL    HW120813   3.608   3.558   3.829
 6638SOL    HW220814   3.494   3.443   3.808
 6639SOL     OW20815   5.014   2.251   1.439
 6639SOL    HW120816   5.094   2.192   1.454
 6639SOL    HW220817   4.939   2.221   1.498
 6640SOL     OW20818   1.506   4.173   5.131
 6640SOL    HW120819   1.588   4.124   5.102
 6640SOL    HW220820   1.480   4.145   5.223
 6641SOL     OW20821   6.037   2.377   0.168
 6641SOL    HW120822   6.084   2.424   0.093
 6641SOL    HW220823   6.026   2.440   0.245
 6642SOL     OW20824   0.938   5.452   6.730
 6642SOL    HW120825   0.856   5.410   6.767
 6642SOL    HW220826   1.001   5.473   6.804
 6643SOL     OW20827   3.577   5.734   6.119
 6643SOL    HW120828   3.550   5.651   6.168
 6643SOL    HW220829   3.611   5.802   6.184
 6644SOL     OW20830   2.469   0.135   4.003
 6644SOL    HW120831   2.438   0.188   3.924
 6644SOL    HW220832   2.391   0.114   4.062
 6645SOL     OW20833   4.903   2.769   6.112
 6645SOL    HW120834   4.887   2.733   6.204
 6645SOL    HW220835   4.833   2.837   6.090
 6646SOL     OW20836   4.580   0.224   5.354
 6646SOL    HW120837   4.560   0.191   5.261
 6646SOL    HW220838   4.669   0.270   5.355
 6647SOL     OW20839   4.069   4.357   0.446
 6647SOL    HW120840   4.098   4.420   0.518
 6647SOL    HW220841   4.148   4.328   0.392
 6648SOL     OW20842   3.064   5.596   5.372
 6648SOL    HW120843   3.143   5.654   5.351
 6648SOL    HW220844   2.996   5.605   5.300
 6649SOL     OW20845   4.309   3.086   6.109
 6649SOL    HW120846   4.335   3.150   6.180
 6649SOL    HW220847   4.317   3.129   6.019
 6650SOL     OW20848   2.456   1.114   5.526
 6650SOL    HW120849   2.416   1.196   5.569
 6650SOL    HW220850   2.414   1.032   5.565
 6651SOL     OW20851   0.247   1.806   5.684
 6651SOL    HW120852   0.180   1.808   5.610
 6651SOL    HW220853   0.304   1.724   5.676
 6652SOL     OW20854   0.038   4.387   0.106
 6652SOL    HW120855   7.004   4.411   0.033
 6652SOL    HW220856   0.126   4.432   0.092
 6653SOL     OW20857   5.809   4.215   6.650
 6653SOL    HW120858   5.840   4.159   6.573
 6653SOL    HW220859   5.781   4.155   6.725
 6654SOL     OW20860   6.387   2.690   3.068
 6654SOL    HW120861   6.366   2.654   3.158
 6654SOL    HW220862   6.464   2.754   3.074
 6655SOL     OW20863   0.166   5.896   1.515
 6655SOL    HW120864   0.183   5.993   1.536
 6655SOL    HW220865   0.129   5.889   1.422
 6656SOL     OW20866   4.304   0.960   2.824
 6656SOL    HW120867   4.221   0.905   2.810
 6656SOL    HW220868   4.281   1.057   2.813
 6657SOL     OW20869   5.226   1.228   4.772
 6657SOL    HW120870   5.235   1.285   4.854
 6657SOL    HW220871   5.171   1.276   4.704
 6658SOL     OW20872   6.815   5.925   5.025
 6658SOL    HW120873   6.719   5.927   5.054
 6658SOL    HW220874   6.839   5.833   4.994
 6659SOL     OW20875   0.535   5.850   1.219
 6659SOL    HW120876   0.556   5.782   1.148
 6659SOL    HW220877   0.444   5.887   1.203
 6660SOL     OW20878   0.539   0.500   4.847
 6660SOL    HW120879   0.448   0.460   4.862
 6660SOL    HW220880   0.609   0.431   4.865
 6661SOL     OW20881   4.133   5.908   3.975
 6661SOL    HW120882   4.158   5.914   4.071
 6661SOL    HW220883   4.081   5.823   3.959
 6662SOL     OW20884   3.233   6.418   2.357
 6662SOL    HW120885   3.271   6.482   2.290
 6662SOL    HW220886   3.307   6.373   2.407
 6663SOL     OW20887   1.480   4.496   5.728
 6663SOL    HW120888   1.556   4.522   5.788
 6663SOL    HW220889   1.453   4.575   5.673
 6664SOL     OW20890   3.497   0.377   1.788
 6664SOL    HW120891   3.540   0.288   1.781
 6664SOL    HW220892   3.398   0.368   1.774
 6665SOL     OW20893   2.460   0.551   0.053
 6665SOL    HW120894   2.559   0.542   0.049
 6665SOL    HW220895   2.428   0.531   0.146
 6666SOL     OW20896   3.378   6.184   5.560
 6666SOL    HW120897   3.349   6.093   5.587
 6666SOL    HW220898   3.298   6.242   5.544
 6667SOL     OW20899   1.653   5.985   6.567
 6667SOL    HW120900   1.696   6.044   6.498
 6667SOL    HW220901   1.554   5.999   6.566
 6668SOL     OW20902   6.780   4.145   0.177
 6668SOL    HW120903   6.715   4.082   0.220
 6668SOL    HW220904   6.802   4.218   0.242
 6669SOL     OW20905   1.554   2.522   3.507
 6669SOL    HW120906   1.616   2.519   3.429
 6669SOL    HW220907   1.602   2.563   3.585
 6670SOL     OW20908   3.541   3.603   0.664
 6670SOL    HW120909   3.565   3.691   0.623
 6670SOL    HW220910   3.496   3.619   0.752
 6671SOL     OW20911   4.461   4.965   0.292
 6671SOL    HW120912   4.386   5.030   0.281
 6671SOL    HW220913   4.466   4.936   0.388
 6672SOL     OW20914   1.081   2.431   0.981
 6672SOL    HW120915   1.109   2.356   0.921
 6672SOL    HW220916   1.057   2.394   1.071
 6673SOL     OW20917   6.218   2.967   4.127
 6673SOL    HW120918   6.312   3.000   4.117
 6673SOL    HW220919   6.205   2.886   4.070
 6674SOL     OW20920   6.856   0.560   0.540
 6674SOL    HW120921   6.864   0.630   0.468
 6674SOL    HW220922   6.787   0.493   0.513
 6675SOL     OW20923   5.016   0.427   0.121
 6675SOL    HW120924   5.108   0.391   0.103
 6675SOL    HW220925   4.948   0.358   0.095
 6676SOL     OW20926   0.741   3.929   4.915
 6676SOL    HW120927   0.701   3.981   4.839
 6676SOL    HW220928   0.669   3.881   4.965
 6677SOL     OW20929   0.440   1.829   6.235
 6677SOL    HW120930   0.490   1.899   6.287
 6677SOL    HW220931   0.479   1.739   6.255
 6678SOL     OW20932   2.959   4.028   6.553
 6678SOL    HW120933   3.047   4.004   6.512
 6678SOL    HW220934   2.975   4.081   6.636
 6679SOL     OW20935   1.367   0.794   3.874
 6679SOL    HW120936   1.310   0.723   3.915
 6679SOL    HW220937   1.444   0.752   3.825
 6680SOL     OW20938   6.783   5.328   1.287
 6680SOL    HW120939   6.851   5.255   1.296
 6680SOL    HW220940   6.762   5.365   1.377
 6681SOL     OW20941   2.865   6.083   1.502
 6681SOL    HW120942   2.831   6.001   1.548
 6681SOL    HW220943   2.930   6.056   1.431
 6682SOL     OW20944   2.884   5.317   6.352
 6682SOL    HW120945   2.818   5.386   6.320
 6682SOL    HW220946   2.868   5.231   6.303
 6683SOL     OW20947   6.904   5.130   5.696
 6683SOL    HW120948   6.930   5.223   5.672
 6683SOL    HW220949   6.960   5.097   5.771
 6684SOL     OW20950   2.963   5.396   6.828
 6684SOL    HW120951   2.919   5.440   6.749
 6684SOL    HW220952   3.011   5.314   6.797
 6685SOL     OW20953   4.759   2.656   0.886
 6685SOL    HW120954   4.724   2.708   0.809
 6685SOL    HW220955   4.733   2.560   0.876
 6686SOL     OW20956   5.136   4.781   5.018
 6686SOL    HW120957   5.039   4.789   5.042
 6686SOL    HW220958   5.172   4.695   5.054
 6687SOL     OW20959   0.384   1.440   1.475
 6687SOL    HW120960   0.301   1.489   1.447
 6687SOL    HW220961   0.461   1.469   1.419
 6688SOL     OW20962   4.635   5.879   0.375
 6688SOL    HW120963   4.576   5.835   0.308
 6688SOL    HW220964   4.588   5.884   0.463
 6689SOL     OW20965   3.270   4.547   5.374
 6689SOL    HW120966   3.353   4.507   5.335
 6689SOL    HW220967   3.294   4.599   5.456
 6690SOL     OW20968   0.650   1.064   0.151
 6690SOL    HW120969   0.673   0.979   0.199
 6690SOL    HW220970   0.709   1.072   0.070
 6691SOL     OW20971   2.661   1.175   2.408
 6691SOL    HW120972   2.730   1.237   2.372
 6691SOL    HW220973   2.572   1.220   2.406
 6692SOL     OW20974   4.330   5.976   2.521
 6692SOL    HW120975   4.265   6.051   2.511
 6692SOL    HW220976   4.339   5.953   2.618
 6693SOL     OW20977   3.308   0.830   5.555
 6693SOL    HW120978   3.302   0.850   5.653
 6693SOL    HW220979   3.389   0.875   5.517
 6694SOL     OW20980   4.269   4.105   1.363
 6694SOL    HW120981   4.357   4.112   1.410
 6694SOL    HW220982   4.217   4.189   1.377
 6695SOL     OW20983   2.695   2.530   0.512
 6695SOL    HW120984   2.681   2.544   0.414
 6695SOL    HW220985   2.617   2.567   0.562
 6696SOL     OW20986   3.953   3.235   4.902
 6696SOL    HW120987   3.949   3.287   4.816
 6696SOL    HW220988   4.025   3.273   4.960
 6697SOL     OW20989   4.339   2.142   1.801
 6697SOL    HW120990   4.378   2.234   1.800
 6697SOL    HW220991   4.248   2.145   1.844
 6698SOL     OW20992   3.601   4.109   1.390
 6698SOL    HW120993   3.580   4.161   1.474
 6698SOL    HW220994   3.654   4.028   1.413
 6699SOL     OW20995   1.171   3.324   5.560
 6699SOL    HW120996   1.256   3.376   5.568
 6699SOL    HW220997   1.176   3.244   5.620
 6700SOL     OW20998   5.797   6.998   1.400
 6700SOL    HW120999   5.820   0.060   1.434
 6700SOL    HW221000   5.819   6.992   1.303
 6701SOL     OW21001   5.875   6.723   1.618
 6701SOL    HW121002   5.920   6.667   1.687
 6701SOL    HW221003   5.891   6.820   1.638
 6702SOL     OW21004   3.619   3.290   1.032
 6702SOL    HW121005   3.546   3.348   1.068
 6702SOL    HW221006   3.591   3.250   0.945
 6703SOL     OW21007   0.320   1.399   0.388
 6703SOL    HW121008   0.411   1.417   0.426
 6703SOL    HW221009   0.329   1.348   0.303
 6704SOL     OW21010   3.223   6.984   5.432
 6704SOL    HW121011   3.243   0.029   5.495
 6704SOL    HW221012   3.287   6.908   5.449
 6705SOL     OW21013   0.126   4.569   2.364
 6705SOL    HW121014   0.135   4.473   2.392
 6705SOL    HW221015   0.213   4.601   2.326
 6706SOL     OW21016   0.168   0.024   0.748
 6706SOL    HW121017   0.121   0.035   0.836
 6706SOL    HW221018   0.126   6.979   0.696
 6707SOL     OW21019   4.239   1.196   2.709
 6707SOL    HW121020   4.305   1.256   2.754
 6707SOL    HW221021   4.238   1.215   2.611
 6708SOL     OW21022   0.209   3.080   0.005
 6708SOL    HW121023   0.162   3.164   7.009
 6708SOL    HW221024   0.254   3.092   0.094
 6709SOL     OW21025   2.335   4.278   2.079
 6709SOL    HW121026   2.255   4.332   2.051
 6709SOL    HW221027   2.305   4.188   2.110
 6710SOL     OW21028   4.530   1.744   0.689
 6710SOL    HW121029   4.485   1.656   0.706
 6710SOL    HW221030   4.473   1.800   0.629
 6711SOL     OW21031   3.634   6.083   6.042
 6711SOL    HW121032   3.555   6.052   5.989
 6711SOL    HW221033   3.717   6.038   6.009
 6712SOL     OW21034   5.219   4.687   1.128
 6712SOL    HW121035   5.262   4.775   1.148
 6712SOL    HW221036   5.132   4.680   1.176
 6713SOL     OW21037   1.330   4.839   4.863
 6713SOL    HW121038   1.426   4.857   4.839
 6713SOL    HW221039   1.325   4.796   4.953
 6714SOL     OW21040   5.458   1.359   1.803
 6714SOL    HW121041   5.527   1.409   1.856
 6714SOL    HW221042   5.502   1.314   1.725
 6715SOL     OW21043   1.693   0.267   6.324
 6715SOL    HW121044   1.624   0.197   6.341
 6715SOL    HW221045   1.655   0.358   6.344
 6716SOL     OW21046   0.828   5.706   1.953
 6716SOL    HW121047   0.850   5.609   1.942
 6716SOL    HW221048   0.897   5.749   2.011
 6717SOL     OW21049   5.918   2.206   5.673
 6717SOL    HW121050   5.860   2.126   5.664
 6717SOL    HW221051   5.985   2.208   5.598
 6718SOL     OW21052   4.885   1.386   0.869
 6718SOL    HW121053   4.875   1.408   0.772
 6718SOL    HW221054   4.976   1.415   0.900
 6719SOL     OW21055   1.759   1.496   6.999
 6719SOL    HW121056   1.837   1.529   0.023
 6719SOL    HW221057   1.777   1.403   6.967
 6720SOL     OW21058   1.884   0.943   5.866
 6720SOL    HW121059   1.881   1.043   5.872
 6720SOL    HW221060   1.834   0.913   5.785
 6721SOL     OW21061   6.210   6.710   1.200
 6721SOL    HW121062   6.224   6.771   1.278
 6721SOL    HW221063   6.126   6.658   1.212
 6722SOL     OW21064   5.353   3.934   0.407
 6722SOL    HW121065   5.283   3.867   0.380
 6722SOL    HW221066   5.443   3.900   0.382
 6723SOL     OW21067   1.572   3.271   5.295
 6723SOL    HW121068   1.556   3.212   5.374
 6723SOL    HW221069   1.653   3.239   5.245
 6724SOL     OW21070   2.162   3.858   4.286
 6724SOL    HW121071   2.180   3.826   4.378
 6724SOL    HW221072   2.154   3.780   4.224
 6725SOL     OW21073   5.038   3.148   3.797
 6725SOL    HW121074   4.974   3.080   3.761
 6725SOL    HW221075   5.012   3.172   3.891
 6726SOL     OW21076   0.705   0.987   6.201
 6726SOL    HW121077   0.733   0.925   6.127
 6726SOL    HW221078   0.611   1.015   6.188
 6727SOL     OW21079   1.285   5.088   5.796
 6727SOL    HW121080   1.195   5.092   5.751
 6727SOL    HW221081   1.329   5.178   5.788
 6728SOL     OW21082   3.719   1.510   3.586
 6728SOL    HW121083   3.794   1.459   3.543
 6728SOL    HW221084   3.678   1.571   3.520
 6729SOL     OW21085   3.888   1.013   2.038
 6729SOL    HW121086   3.819   1.080   2.012
 6729SOL    HW221087   3.845   0.925   2.057
 6730SOL     OW21088   7.007   1.824   0.553
 6730SOL    HW121089   6.925   1.867   0.591
 6730SOL    HW221090   0.023   1.771   0.625
 6731SOL     OW21091   4.373   0.543   6.300
 6731SOL    HW121092   4.420   0.537   6.211
 6731SOL    HW221093   4.294   0.603   6.291
 6732SOL     OW21094   6.999   4.735   5.531
 6732SOL    HW121095   6.943   4.708   5.609
 6732SOL    HW221096   0.020   4.819   5.553
 6733SOL     OW21097   4.646   4.877   4.966
 6733SOL    HW121098   4.697   4.840   4.888
 6733SOL    HW221099   4.666   4.974   4.976
 6734SOL     OW21100   5.856   1.983   4.662
 6734SOL    HW121101   5.831   2.053   4.729
 6734SOL    HW221102   5.862   2.025   4.571
 6735SOL     OW21103   6.016   2.368   3.593
 6735SOL    HW121104   5.976   2.428   3.662
 6735SOL    HW221105   5.945   2.309   3.554
 6736SOL     OW21106   3.663   3.792   0.532
 6736SOL    HW121107   3.688   3.889   0.527
 6736SOL    HW221108   3.676   3.750   0.442
 6737SOL     OW21109   6.259   3.496   0.661
 6737SOL    HW121110   6.249   3.562   0.586
 6737SOL    HW221111   6.168   3.470   0.694
 6738SOL     OW21112   2.460   6.268   4.250
 6738SOL    HW121113   2.493   6.358   4.220
 6738SOL    HW221114   2.361   6.272   4.264
 6739SOL     OW21115   7.011   0.207   5.659
 6739SOL    HW121116   6.969   0.191   5.569
 6739SOL    HW221117   0.054   0.138   5.674
 6740SOL     OW21118   6.807   6.992   2.416
 6740SOL    HW121119   6.853   0.035   2.468
 6740SOL    HW221120   6.712   6.985   2.444
 6741SOL     OW21121   3.546   1.743   0.203
 6741SOL    HW121122   3.460   1.778   0.240
 6741SOL    HW221123   3.565   1.787   0.116
 6742SOL     OW21124   6.155   4.663   3.060
 6742SOL    HW121125   6.069   4.682   3.013
 6742SOL    HW221126   6.207   4.595   3.008
 6743SOL     OW21127   3.774   3.712   7.000
 6743SOL    HW121128   3.780   3.618   6.966
 6743SOL    HW221129   3.687   3.752   6.973
 6744SOL     OW21130   6.374   6.948   5.661
 6744SOL    HW121131   6.401   6.969   5.754
 6744SOL    HW221132   6.401   6.855   5.638
 6745SOL     OW21133   6.972   4.165   5.365
 6745SOL    HW121134   6.883   4.146   5.324
 6745SOL    HW221135   6.966   4.156   5.464
 6746SOL     OW21136   1.177   1.952   2.840
 6746SOL    HW121137   1.227   1.978   2.757
 6746SOL    HW221138   1.149   1.856   2.832
 6747SOL     OW21139   0.762   6.086   5.614
 6747SOL    HW121140   0.741   5.993   5.585
 6747SOL    HW221141   0.728   6.151   5.545
 6748SOL     OW21142   1.930   0.682   5.177
 6748SOL    HW121143   1.910   0.612   5.246
 6748SOL    HW221144   1.944   0.638   5.088
 6749SOL     OW21145   4.289   4.941   2.283
 6749SOL    HW121146   4.365   4.923   2.221
 6749SOL    HW221147   4.254   4.855   2.319
 6750SOL     OW21148   3.536   0.897   5.409
 6750SOL    HW121149   3.613   0.939   5.362
 6750SOL    HW221150   3.569   0.821   5.466
 6751SOL     OW21151   4.444   0.554   5.060
 6751SOL    HW121152   4.482   0.637   5.018
 6751SOL    HW221153   4.507   0.478   5.046
 6752SOL     OW21154   2.142   4.607   2.517
 6752SOL    HW121155   2.145   4.607   2.617
 6752SOL    HW221156   2.200   4.681   2.482
 6753SOL     OW21157   3.791   3.177   6.651
 6753SOL    HW121158   3.727   3.201   6.578
 6753SOL    HW221159   3.861   3.248   6.658
 6754SOL     OW21160   6.193   1.412   0.327
 6754SOL    HW121161   6.145   1.360   0.398
 6754SOL    HW221162   6.284   1.436   0.360
 6755SOL     OW21163   2.977   5.919   5.995
 6755SOL    HW121164   3.038   5.848   5.959
 6755SOL    HW221165   3.028   5.977   6.058
 6756SOL     OW21166   3.936   3.185   6.342
 6756SOL    HW121167   4.022   3.172   6.392
 6756SOL    HW221168   3.906   3.280   6.352
 6757SOL     OW21169   3.940   0.266   1.265
 6757SOL    HW121170   4.030   0.229   1.288
 6757SOL    HW221171   3.888   0.283   1.348
 6758SOL     OW21172   5.051   2.856   3.203
 6758SOL    HW121173   5.046   2.931   3.137
 6758SOL    HW221174   5.142   2.853   3.244
 6759SOL     OW21175   0.873   1.506   2.507
 6759SOL    HW121176   0.932   1.514   2.588
 6759SOL    HW221177   0.779   1.490   2.536
 6760SOL     OW21178   5.216   2.053   4.932
 6760SOL    HW121179   5.128   2.018   4.964
 6760SOL    HW221180   5.286   2.037   5.003
 6761SOL     OW21181   3.805   1.650   5.154
 6761SOL    HW121182   3.782   1.694   5.068
 6761SOL    HW221183   3.730   1.590   5.182
 6762SOL     OW21184   6.563   5.189   4.722
 6762SOL    HW121185   6.654   5.147   4.730
 6762SOL    HW221186   6.524   5.200   4.814
 6763SOL     OW21187   5.804   6.464   4.428
 6763SOL    HW121188   5.751   6.421   4.501
 6763SOL    HW221189   5.853   6.393   4.377
 6764SOL     OW21190   0.700   5.220   1.320
 6764SOL    HW121191   0.689   5.231   1.418
 6764SOL    HW221192   0.617   5.178   1.281
 6765SOL     OW21193   0.251   3.557   2.098
 6765SOL    HW121194   0.222   3.564   2.194
 6765SOL    HW221195   0.344   3.593   2.089
 6766SOL     OW21196   5.714   0.331   1.478
 6766SOL    HW121197   5.756   0.418   1.506
 6766SOL    HW221198   5.677   0.284   1.559
 6767SOL     OW21199   3.333   0.481   1.235
 6767SOL    HW121200   3.253   0.522   1.190
 6767SOL    HW221201   3.414   0.498   1.180
 6768SOL     OW21202   1.873   0.209   6.896
 6768SOL    HW121203   1.962   0.254   6.904
 6768SOL    HW221204   1.852   0.163   6.983
 6769SOL     OW21205   4.472   2.898   1.611
 6769SOL    HW121206   4.555   2.923   1.562
 6769SOL    HW221207   4.491   2.892   1.709
 6770SOL     OW21208   0.234   0.899   1.538
 6770SOL    HW121209   0.174   0.910   1.459
 6770SOL    HW221210   0.184   0.923   1.621
 6771SOL     OW21211   4.874   2.317   3.050
 6771SOL    HW121212   4.809   2.297   3.124
 6771SOL    HW221213   4.956   2.260   3.062
 6772SOL     OW21214   3.596   1.612   4.039
 6772SOL    HW121215   3.679   1.581   3.994
 6772SOL    HW221216   3.617   1.690   4.099
 6773SOL     OW21217   0.522   3.830   0.992
 6773SOL    HW121218   0.439   3.774   1.006
 6773SOL    HW221219   0.495   3.924   0.972
 6774SOL     OW21220   0.944   2.550   6.423
 6774SOL    HW121221   0.854   2.574   6.385
 6774SOL    HW221222   0.949   2.578   6.518
 6775SOL     OW21223   1.812   4.753   0.242
 6775SOL    HW121224   1.848   4.687   0.177
 6775SOL    HW221225   1.857   4.742   0.331
 6776SOL     OW21226   6.006   5.502   6.686
 6776SOL    HW121227   6.058   5.475   6.606
 6776SOL    HW221228   5.911   5.517   6.661
 6777SOL     OW21229   4.999   5.705   6.570
 6777SOL    HW121230   4.994   5.802   6.546
 6777SOL    HW221231   5.013   5.651   6.487
 6778SOL     OW21232   0.064   5.362   3.256
 6778SOL    HW121233   0.099   5.450   3.291
 6778SOL    HW221234   0.140   5.297   3.249
 6779SOL     OW21235   6.939   3.970   6.634
 6779SOL    HW121236   7.010   4.040   6.636
 6779SOL    HW221237   6.966   3.897   6.571
 6780SOL     OW21238   0.813   2.637   1.873
 6780SOL    HW121239   0.832   2.645   1.775
 6780SOL    HW221240   0.714   2.643   1.887
 6781SOL     OW21241   5.874   4.778   5.467
 6781SOL    HW121242   5.843   4.736   5.552
 6781SOL    HW221243   5.883   4.877   5.480
 6782SOL     OW21244   5.850   1.504   2.552
 6782SOL    HW121245   5.879   1.542   2.464
 6782SOL    HW221246   5.758   1.536   2.574
 6783SOL     OW21247   0.494   6.165   6.517
 6783SOL    HW121248   0.501   6.256   6.476
 6783SOL    HW221249   0.488   6.097   6.445
 6784SOL     OW21250   3.821   2.867   0.524
 6784SOL    HW121251   3.771   2.796   0.573
 6784SOL    HW221252   3.807   2.857   0.426
 6785SOL     OW21253   5.943   5.635   1.891
 6785SOL    HW121254   5.875   5.703   1.920
 6785SOL    HW221255   5.927   5.610   1.795
 6786SOL     OW21256   1.707   3.517   6.275
 6786SOL    HW121257   1.728   3.471   6.189
 6786SOL    HW221258   1.772   3.488   6.345
 6787SOL     OW21259   1.041   3.342   2.095
 6787SOL    HW121260   1.044   3.408   2.019
 6787SOL    HW221261   1.132   3.333   2.135
 6788SOL     OW21262   2.889   5.166   0.829
 6788SOL    HW121263   2.801   5.214   0.829
 6788SOL    HW221264   2.962   5.230   0.802
 6789SOL     OW21265   0.402   5.976   3.292
 6789SOL    HW121266   0.372   5.992   3.386
 6789SOL    HW221267   0.450   6.057   3.258
 6790SOL     OW21268   1.394   3.244   0.437
 6790SOL    HW121269   1.428   3.153   0.461
 6790SOL    HW221270   1.295   3.242   0.431
 6791SOL     OW21271   3.352   3.769   6.493
 6791SOL    HW121272   3.449   3.752   6.511
 6791SOL    HW221273   3.343   3.848   6.432
 6792SOL     OW21274   0.350   4.796   0.522
 6792SOL    HW121275   0.308   4.789   0.431
 6792SOL    HW221276   0.279   4.811   0.591
 6793SOL     OW21277   6.173   1.927   1.427
 6793SOL    HW121278   6.094   1.936   1.368
 6793SOL    HW221279   6.190   1.830   1.446
 6794SOL     OW21280   4.309   1.081   4.970
 6794SOL    HW121281   4.285   1.169   5.010
 6794SOL    HW221282   4.408   1.070   4.971
 6795SOL     OW21283   2.821   5.810   6.951
 6795SOL    HW121284   2.873   5.841   0.002
 6795SOL    HW221285   2.814   5.711   6.952
 6796SOL     OW21286   3.932   2.188   3.003
 6796SOL    HW121287   3.949   2.280   2.969
 6796SOL    HW221288   3.857   2.146   2.951
 6797SOL     OW21289   7.011   2.971   1.780
 6797SOL    HW121290   0.013   2.901   1.715
 6797SOL    HW221291   6.950   3.036   1.732
 6798SOL     OW21292   6.098   0.191   1.939
 6798SOL    HW121293   6.124   0.106   1.893
 6798SOL    HW221294   6.168   0.261   1.922
 6799SOL     OW21295   5.495   5.976   1.951
 6799SOL    HW121296   5.471   5.944   2.043
 6799SOL    HW221297   5.496   6.076   1.950
 6800SOL     OW21298   2.960   3.867   0.322
 6800SOL    HW121299   3.024   3.920   0.378
 6800SOL    HW221300   2.991   3.772   0.316
 6801SOL     OW21301   1.574   1.649   3.081
 6801SOL    HW121302   1.539   1.704   3.156
 6801SOL    HW221303   1.530   1.559   3.083
 6802SOL     OW21304   2.442   4.986   2.763
 6802SOL    HW121305   2.445   5.085   2.776
 6802SOL    HW221306   2.463   4.964   2.668
 6803SOL     OW21307   5.096   2.180   0.069
 6803SOL    HW121308   5.111   2.273   0.036
 6803SOL    HW221309   5.184   2.133   0.077
 6804SOL     OW21310   1.455   0.017   4.114
 6804SOL    HW121311   1.417   6.954   4.111
 6804SOL    HW221312   1.541   0.020   4.063
 6805SOL     OW21313   5.372   0.495   4.741
 6805SOL    HW121314   5.367   0.592   4.719
 6805SOL    HW221315   5.394   0.443   4.659
 6806SOL     OW21316   5.106   0.112   5.411
 6806SOL    HW121317   5.014   0.153   5.415
 6806SOL    HW221318   5.170   0.170   5.460
 6807SOL     OW21319   3.749   3.243   0.151
 6807SOL    HW121320   3.742   3.337   0.184
 6807SOL    HW221321   3.718   3.238   0.057
 6808SOL     OW21322   1.779   2.695   4.699
 6808SOL    HW121323   1.814   2.788   4.689
 6808SOL    HW221324   1.680   2.695   4.687
 6809SOL     OW21325   2.627   3.983   6.688
 6809SOL    HW121326   2.586   3.907   6.638
 6809SOL    HW221327   2.692   4.031   6.628
 6810SOL     OW21328   5.294   2.014   2.657
 6810SOL    HW121329   5.259   2.030   2.565
 6810SOL    HW221330   5.357   2.087   2.681
 6811SOL     OW21331   5.115   5.343   1.880
 6811SOL    HW121332   5.015   5.343   1.872
 6811SOL    HW221333   5.145   5.432   1.914
 6812SOL     OW21334   3.874   2.964   2.819
 6812SOL    HW121335   3.784   2.959   2.864
 6812SOL    HW221336   3.862   2.957   2.720
 6813SOL     OW21337   4.638   3.606   1.273
 6813SOL    HW121338   4.687   3.527   1.238
 6813SOL    HW221339   4.703   3.672   1.310
 6814SOL     OW21340   2.272   3.526   0.492
 6814SOL    HW121341   2.198   3.594   0.485
 6814SOL    HW221342   2.233   3.437   0.513
 6815SOL     OW21343   2.470   6.977   1.825
 6815SOL    HW121344   2.386   0.001   1.841
 6815SOL    HW221345   2.542   7.010   1.887
 6816SOL     OW21346   6.145   4.039   1.482
 6816SOL    HW121347   6.096   4.080   1.405
 6816SOL    HW221348   6.239   4.019   1.455
 6817SOL     OW21349   0.286   2.204   6.049
 6817SOL    HW121350   0.265   2.107   6.039
 6817SOL    HW221351   0.289   2.228   6.146
 6818SOL     OW21352   3.058   5.971   2.331
 6818SOL    HW121353   3.152   6.005   2.328
 6818SOL    HW221354   3.059   5.871   2.332
 6819SOL     OW21355   3.119   1.052   3.718
 6819SOL    HW121356   3.218   1.043   3.731
 6819SOL    HW221357   3.100   1.069   3.621
 6820SOL     OW21358   1.646   4.560   3.641
 6820SOL    HW121359   1.579   4.520   3.704
 6820SOL    HW221360   1.614   4.651   3.613
 6821SOL     OW21361   2.584   2.222   4.326
 6821SOL    HW121362   2.655   2.193   4.262
 6821SOL    HW221363   2.621   2.292   4.387
 6822SOL     OW21364   4.973   2.112   5.743
 6822SOL    HW121365   5.031   2.192   5.759
 6822SOL    HW221366   5.018   2.030   5.776
 6823SOL     OW21367   3.142   3.214   2.032
 6823SOL    HW121368   3.235   3.250   2.025
 6823SOL    HW221369   3.129   3.170   2.121
 6824SOL     OW21370   1.315   4.862   6.497
 6824SOL    HW121371   1.340   4.878   6.401
 6824SOL    HW221372   1.235   4.916   6.521
 6825SOL     OW21373   5.126   0.559   4.180
 6825SOL    HW121374   5.200   0.587   4.240
 6825SOL    HW221375   5.148   0.471   4.138
 6826SOL     OW21376   1.278   2.308   2.799
 6826SOL    HW121377   1.290   2.250   2.718
 6826SOL    HW221378   1.236   2.394   2.772
 6827SOL     OW21379   5.729   6.489   5.405
 6827SOL    HW121380   5.652   6.504   5.467
 6827SOL    HW221381   5.755   6.393   5.406
 6828SOL     OW21382   1.809   2.174   1.520
 6828SOL    HW121383   1.796   2.107   1.447
 6828SOL    HW221384   1.907   2.196   1.527
 6829SOL     OW21385   5.046   4.985   3.675
 6829SOL    HW121386   5.036   5.085   3.678
 6829SOL    HW221387   5.070   4.951   3.766
 6830SOL     OW21388   5.469   2.258   3.938
 6830SOL    HW121389   5.442   2.185   4.000
 6830SOL    HW221390   5.410   2.338   3.953
 6831SOL     OW21391   0.303   1.130   5.855
 6831SOL    HW121392   0.317   1.214   5.803
 6831SOL    HW221393   0.293   1.053   5.792
 6832SOL     OW21394   3.138   4.899   2.144
 6832SOL    HW121395   3.157   4.897   2.242
 6832SOL    HW221396   3.221   4.879   2.093
 6833SOL     OW21397   4.170   5.517   0.625
 6833SOL    HW121398   4.215   5.591   0.674
 6833SOL    HW221399   4.151   5.441   0.689
 6834SOL     OW21400   3.825   5.261   2.458
 6834SOL    HW121401   3.784   5.323   2.525
 6834SOL    HW221402   3.764   5.251   2.380
 6835SOL     OW21403   4.022   6.668   4.583
 6835SOL    HW121404   3.978   6.606   4.648
 6835SOL    HW221405   4.016   6.630   4.491
 6836SOL     OW21406   3.149   5.838   6.452
 6836SOL    HW121407   3.182   5.915   6.506
 6836SOL    HW221408   3.177   5.850   6.356
 6837SOL     OW21409   0.568   2.779   2.192
 6837SOL    HW121410   0.619   2.730   2.263
 6837SOL    HW221411   0.597   2.748   2.102
 6838SOL     OW21412   2.861   1.335   0.164
 6838SOL    HW121413   2.957   1.364   0.160
 6838SOL    HW221414   2.830   1.310   0.072
 6839SOL     OW21415   4.421   0.829   1.260
 6839SOL    HW121416   4.352   0.758   1.273
 6839SOL    HW221417   4.382   0.919   1.281
 6840SOL     OW21418   1.021   1.351   6.153
 6840SOL    HW121419   1.063   1.286   6.090
 6840SOL    HW221420   0.922   1.337   6.154
 6841SOL     OW21421   6.768   3.357   6.373
 6841SOL    HW121422   6.783   3.292   6.447
 6841SOL    HW221423   6.848   3.360   6.314
 6842SOL     OW21424   2.273   4.266   3.122
 6842SOL    HW121425   2.353   4.289   3.177
 6842SOL    HW221426   2.250   4.343   3.063
 6843SOL     OW21427   4.029   6.487   0.394
 6843SOL    HW121428   4.094   6.438   0.454
 6843SOL    HW221429   4.068   6.493   0.302
 6844SOL     OW21430   5.469   0.580   5.885
 6844SOL    HW121431   5.472   0.679   5.874
 6844SOL    HW221432   5.549   0.539   5.840
 6845SOL     OW21433   4.826   2.218   2.284
 6845SOL    HW121434   4.734   2.192   2.258
 6845SOL    HW221435   4.854   2.168   2.366
 6846SOL     OW21436   2.518   3.678   6.967
 6846SOL    HW121437   2.459   3.707   6.892
 6846SOL    HW221438   2.608   3.721   6.958
 6847SOL     OW21439   0.182   2.783   4.293
 6847SOL    HW121440   0.171   2.817   4.200
 6847SOL    HW221441   0.230   2.695   4.291
 6848SOL     OW21442   6.783   4.679   3.154
 6848SOL    HW121443   6.697   4.670   3.102
 6848SOL    HW221444   6.813   4.774   3.152
 6849SOL     OW21445   3.046   3.729   6.054
 6849SOL    HW121446   3.040   3.661   6.126
 6849SOL    HW221447   3.143   3.748   6.035
 6850SOL     OW21448   4.429   0.835   4.289
 6850SOL    HW121449   4.529   0.834   4.277
 6850SOL    HW221450   4.386   0.852   4.200
 6851SOL     OW21451   2.156   3.253   3.412
 6851SOL    HW121452   2.084   3.306   3.368
 6851SOL    HW221453   2.244   3.276   3.372
 6852SOL     OW21454   3.354   4.290   0.132
 6852SOL    HW121455   3.272   4.342   0.108
 6852SOL    HW221456   3.377   4.306   0.228
 6853SOL     OW21457   4.893   3.843   6.209
 6853SOL    HW121458   4.940   3.789   6.140
 6853SOL    HW221459   4.941   3.930   6.222
 6854SOL     OW21460   5.700   6.366   6.263
 6854SOL    HW121461   5.716   6.293   6.197
 6854SOL    HW221462   5.608   6.357   6.301
 6855SOL     OW21463   4.139   5.228   3.471
 6855SOL    HW121464   4.218   5.260   3.418
 6855SOL    HW221465   4.166   5.150   3.527
 6856SOL     OW21466   0.333   2.199   6.487
 6856SOL    HW121467   0.289   2.280   6.449
 6856SOL    HW221468   0.283   2.168   6.567
 6857SOL     OW21469   0.801   3.771   5.321
 6857SOL    HW121470   0.889   3.813   5.300
 6857SOL    HW221471   0.814   3.673   5.337
 6858SOL     OW21472   1.776   3.881   2.305
 6858SOL    HW121473   1.791   3.783   2.320
 6858SOL    HW221474   1.698   3.911   2.359
 6859SOL     OW21475   1.732   1.819   2.282
 6859SOL    HW121476   1.633   1.805   2.276
 6859SOL    HW221477   1.759   1.822   2.378
 6860SOL     OW21478   0.547   6.874   0.980
 6860SOL    HW121479   0.499   6.911   1.060
 6860SOL    HW221480   0.483   6.868   0.903
 6861SOL     OW21481   6.551   3.125   6.362
 6861SOL    HW121482   6.507   3.051   6.412
 6861SOL    HW221483   6.596   3.187   6.426
 6862SOL     OW21484   0.859   4.191   4.158
 6862SOL    HW121485   0.857   4.288   4.136
 6862SOL    HW221486   0.918   4.176   4.237
 6863SOL     OW21487   5.784   1.487   5.308
 6863SOL    HW121488   5.752   1.397   5.278
 6863SOL    HW221489   5.705   1.547   5.322
 6864SOL     OW21490   1.122   3.906   6.159
 6864SOL    HW121491   1.115   3.866   6.068
 6864SOL    HW221492   1.178   3.848   6.217
 6865SOL     OW21493   2.809   0.328   3.774
 6865SOL    HW121494   2.893   0.278   3.797
 6865SOL    HW221495   2.832   0.419   3.741
 6866SOL     OW21496   1.008   4.749   0.272
 6866SOL    HW121497   0.931   4.760   0.335
 6866SOL    HW221498   1.093   4.775   0.317
 6867SOL     OW21499   1.843   3.824   6.207
 6867SOL    HW121500   1.805   3.785   6.291
 6867SOL    HW221501   1.943   3.824   6.212
 6868SOL     OW21502   2.850   4.968   3.720
 6868SOL    HW121503   2.814   4.979   3.627
 6868SOL    HW221504   2.869   5.058   3.759
 6869SOL     OW21505   3.247   0.968   6.064
 6869SOL    HW121506   3.176   0.982   6.133
 6869SOL    HW221507   3.309   1.047   6.064
 6870SOL     OW21508   5.983   2.057   0.214
 6870SOL    HW121509   6.017   2.021   0.300
 6870SOL    HW221510   5.996   2.156   0.211
 6871SOL     OW21511   6.967   3.569   2.465
 6871SOL    HW121512   6.943   3.620   2.382
 6871SOL    HW221513   6.901   3.494   2.478
 6872SOL     OW21514   1.763   4.324   0.972
 6872SOL    HW121515   1.845   4.280   1.009
 6872SOL    HW221516   1.708   4.362   1.046
 6873SOL     OW21517   0.861   4.426   3.156
 6873SOL    HW121518   0.879   4.456   3.062
 6873SOL    HW221519   0.777   4.372   3.158
 6874SOL     OW21520   5.328   6.457   3.380
 6874SOL    HW121521   5.329   6.412   3.290
 6874SOL    HW221522   5.290   6.395   3.448
 6875SOL     OW21523   2.684   1.176   0.522
 6875SOL    HW121524   2.763   1.163   0.462
 6875SOL    HW221525   2.716   1.199   0.614
 6876SOL     OW21526   5.170   5.300   3.718
 6876SOL    HW121527   5.265   5.320   3.694
 6876SOL    HW221528   5.116   5.291   3.634
 6877SOL     OW21529   0.788   3.330   1.442
 6877SOL    HW121530   0.718   3.258   1.436
 6877SOL    HW221531   0.837   3.321   1.529
 6878SOL     OW21532   1.912   0.567   4.881
 6878SOL    HW121533   2.002   0.611   4.878
 6878SOL    HW221534   1.924   0.468   4.874
 6879SOL     OW21535   1.409   1.195   1.169
 6879SOL    HW121536   1.345   1.187   1.092
 6879SOL    HW221537   1.454   1.108   1.184
 6880SOL     OW21538   1.427   5.507   0.276
 6880SOL    HW121539   1.399   5.524   0.181
 6880SOL    HW221540   1.347   5.477   0.328
 6881SOL     OW21541   0.326   2.894   0.324
 6881SOL    HW121542   0.241   2.904   0.272
 6881SOL    HW221543   0.372   2.983   0.331
 6882SOL     OW21544   2.434   6.371   7.020
 6882SOL    HW121545   2.353   6.360   6.962
 6882SOL    HW221546   2.493   6.291   7.010
 6883SOL     OW21547   4.780   0.438   1.503
 6883SOL    HW121548   4.849   0.510   1.508
 6883SOL    HW221549   4.708   0.465   1.440
 6884SOL     OW21550   1.699   4.123   3.200
 6884SOL    HW121551   1.767   4.134   3.272
 6884SOL    HW221552   1.736   4.065   3.127
 6885SOL     OW21553   6.268   5.118   4.593
 6885SOL    HW121554   6.207   5.089   4.519
 6885SOL    HW221555   6.363   5.097   4.568
 6886SOL     OW21556   5.000   2.689   0.435
 6886SOL    HW121557   4.994   2.787   0.420
 6886SOL    HW221558   4.913   2.646   0.413
 6887SOL     OW21559   5.797   5.971   5.785
 6887SOL    HW121560   5.718   5.923   5.746
 6887SOL    HW221561   5.795   5.961   5.884
 6888SOL     OW21562   6.341   4.242   6.593
 6888SOL    HW121563   6.284   4.307   6.543
 6888SOL    HW221564   6.437   4.255   6.567
 6889SOL     OW21565   0.119   2.449   6.243
 6889SOL    HW121566   0.085   2.440   6.150
 6889SOL    HW221567   0.112   2.544   6.273
 6890SOL     OW21568   4.658   4.377   3.693
 6890SOL    HW121569   4.626   4.399   3.601
 6890SOL    HW221570   4.592   4.408   3.760
 6891SOL     OW21571   1.581   1.424   1.205
 6891SOL    HW121572   1.627   1.464   1.125
 6891SOL    HW221573   1.513   1.357   1.175
 6892SOL     OW21574   3.569   1.309   4.621
 6892SOL    HW121575   3.579   1.399   4.579
 6892SOL    HW221576   3.490   1.262   4.581
 6893SOL     OW21577   5.984   3.461   0.614
 6893SOL    HW121578   5.886   3.450   0.635
 6893SOL    HW221579   5.993   3.507   0.526
 6894SOL     OW21580   6.257   5.091   0.358
 6894SOL    HW121581   6.209   5.007   0.335
 6894SOL    HW221582   6.353   5.083   0.331
 6895SOL     OW21583   0.701   6.237   2.574
 6895SOL    HW121584   0.617   6.248   2.626
 6895SOL    HW221585   0.703   6.304   2.499
 6896SOL     OW21586   5.019   0.928   5.001
 6896SOL    HW121587   5.051   0.905   5.093
 6896SOL    HW221588   5.098   0.948   4.942
 6897SOL     OW21589   4.598   2.648   5.194
 6897SOL    HW121590   4.512   2.607   5.225
 6897SOL    HW221591   4.654   2.577   5.150
 6898SOL     OW21592   1.390   6.570   1.318
 6898SOL    HW121593   1.425   6.524   1.237
 6898SOL    HW221594   1.422   6.523   1.400
 6899SOL     OW21595   6.136   5.874   2.510
 6899SOL    HW121596   6.100   5.867   2.417
 6899SOL    HW221597   6.170   5.967   2.526
 6900SOL     OW21598   6.386   3.802   4.951
 6900SOL    HW121599   6.357   3.825   4.858
 6900SOL    HW221600   6.326   3.847   5.017
 6901SOL     OW21601   5.503   5.035   6.439
 6901SOL    HW121602   5.483   4.979   6.519
 6901SOL    HW221603   5.552   5.117   6.468
 6902SOL     OW21604   0.305   5.803   6.189
 6902SOL    HW121605   0.228   5.779   6.248
 6902SOL    HW221606   0.343   5.721   6.147
 6903SOL     OW21607   1.085   6.022   4.476
 6903SOL    HW121608   0.995   5.995   4.510
 6903SOL    HW221609   1.153   6.009   4.548
 6904SOL     OW21610   0.122   0.512   5.995
 6904SOL    HW121611   0.149   0.597   5.950
 6904SOL    HW221612   0.022   0.508   6.002
 6905SOL     OW21613   5.217   6.353   5.895
 6905SOL    HW121614   5.125   6.370   5.931
 6905SOL    HW221615   5.213   6.349   5.795
 6906SOL     OW21616   3.418   1.005   3.835
 6906SOL    HW121617   3.393   0.920   3.882
 6906SOL    HW221618   3.420   1.080   3.901
 6907SOL     OW21619   6.073   1.848   0.688
 6907SOL    HW121620   5.997   1.793   0.652
 6907SOL    HW221621   6.055   1.870   0.784
 6908SOL     OW21622   3.004   5.517   0.528
 6908SOL    HW121623   2.971   5.586   0.592
 6908SOL    HW221624   2.949   5.434   0.538
 6909SOL     OW21625   5.811   4.986   2.037
 6909SOL    HW121626   5.868   5.053   2.084
 6909SOL    HW221627   5.786   4.913   2.101
 6910SOL     OW21628   1.172   2.201   2.384
 6910SOL    HW121629   1.084   2.231   2.420
 6910SOL    HW221630   1.160   2.115   2.335
 6911SOL     OW21631   2.119   6.370   5.873
 6911SOL    HW121632   2.150   6.282   5.838
 6911SOL    HW221633   2.020   6.368   5.885
 6912SOL     OW21634   2.769   3.843   6.920
 6912SOL    HW121635   2.689   3.890   6.882
 6912SOL    HW221636   2.825   3.808   6.845
 6913SOL     OW21637   4.630   6.159   5.580
 6913SOL    HW121638   4.689   6.149   5.500
 6913SOL    HW221639   4.659   6.239   5.633
 6914SOL     OW21640   5.958   2.827   2.001
 6914SOL    HW121641   5.986   2.732   1.987
 6914SOL    HW221642   5.864   2.830   2.033
 6915SOL     OW21643   6.938   3.543   3.767
 6915SOL    HW121644   6.933   3.634   3.808
 6915SOL    HW221645   6.975   3.550   3.674
 6916SOL     OW21646   4.919   6.372   6.443
 6916SOL    HW121647   4.874   6.334   6.361
 6916SOL    HW221648   4.972   6.300   6.488
 6917SOL     OW21649   3.873   6.730   1.884
 6917SOL    HW121650   3.892   6.664   1.811
 6917SOL    HW221651   3.824   6.684   1.958
 6918SOL     OW21652   2.341   3.897   0.874
 6918SOL    HW121653   2.284   3.821   0.906
 6918SOL    HW221654   2.324   3.977   0.931
 6919SOL     OW21655   5.705   5.905   3.653
 6919SOL    HW121656   5.760   5.945   3.580
 6919SOL    HW221657   5.611   5.937   3.646
 6920SOL     OW21658   6.110   1.529   6.147
 6920SOL    HW121659   6.035   1.587   6.114
 6920SOL    HW221660   6.095   1.506   6.243
 6921SOL     OW21661   4.512   0.445   4.273
 6921SOL    HW121662   4.448   0.488   4.337
 6921SOL    HW221663   4.606   0.468   4.300
 6922SOL     OW21664   1.824   5.227   6.470
 6922SOL    HW121665   1.833   5.128   6.457
 6922SOL    HW221666   1.914   5.270   6.462
 6923SOL     OW21667   5.504   0.117   2.101
 6923SOL    HW121668   5.452   0.199   2.079
 6923SOL    HW221669   5.491   0.094   2.197
 6924SOL     OW21670   3.296   5.746   1.926
 6924SOL    HW121671   3.352   5.827   1.944
 6924SOL    HW221672   3.232   5.766   1.852
 6925SOL     OW21673   5.615   6.626   5.199
 6925SOL    HW121674   5.522   6.619   5.234
 6925SOL    HW221675   5.679   6.586   5.264
 6926SOL     OW21676   3.190   2.455   0.219
 6926SOL    HW121677   3.219   2.367   0.258
 6926SOL    HW221678   3.270   2.512   0.202
 6927SOL     OW21679   4.430   0.180   0.401
 6927SOL    HW121680   4.353   0.128   0.364
 6927SOL    HW221681   4.498   0.117   0.439
 6928SOL     OW21682   3.813   5.190   6.576
 6928SOL    HW121683   3.845   5.185   6.671
 6928SOL    HW221684   3.741   5.259   6.569
 6929SOL     OW21685   5.029   4.894   2.545
 6929SOL    HW121686   5.116   4.850   2.567
 6929SOL    HW221687   4.978   4.912   2.629
 6930SOL     OW21688   0.300   6.630   1.752
 6930SOL    HW121689   0.380   6.669   1.707
 6930SOL    HW221690   0.294   6.532   1.729
 6931SOL     OW21691   3.129   3.510   1.079
 6931SOL    HW121692   3.060   3.524   1.150
 6931SOL    HW221693   3.085   3.507   0.989
 6932SOL     OW21694   3.737   6.962   6.477
 6932SOL    HW121695   3.707   0.027   6.491
 6932SOL    HW221696   3.658   6.901   6.473
 6933SOL     OW21697   3.378   5.544   6.483
 6933SOL    HW121698   3.414   5.475   6.546
 6933SOL    HW221699   3.281   5.525   6.465
 6934SOL     OW21700   4.938   5.059   6.727
 6934SOL    HW121701   4.990   5.002   6.791
 6934SOL    HW221702   4.852   5.088   6.769
 6935SOL     OW21703   4.046   6.254   1.833
 6935SOL    HW121704   4.140   6.243   1.867
 6935SOL    HW221705   3.982   6.231   1.906
 6936SOL     OW21706   0.652   1.851   5.596
 6936SOL    HW121707   0.679   1.911   5.521
 6936SOL    HW221708   0.734   1.814   5.640
 6937SOL     OW21709   5.675   5.020   0.036
 6937SOL    HW121710   5.765   5.046   0.072
 6937SOL    HW221711   5.645   4.935   0.078
 6938SOL     OW21712   2.788   1.218   5.012
 6938SOL    HW121713   2.765   1.215   4.915
 6938SOL    HW221714   2.757   1.135   5.057
 6939SOL     OW21715   5.632   3.196   3.482
 6939SOL    HW121716   5.552   3.225   3.534
 6939SOL    HW221717   5.674   3.275   3.437
 6940SOL     OW21718   2.472   6.305   0.809
 6940SOL    HW121719   2.408   6.380   0.794
 6940SOL    HW221720   2.566   6.341   0.814
 6941SOL     OW21721   3.369   3.747   2.587
 6941SOL    HW121722   3.337   3.842   2.593
 6941SOL    HW221723   3.297   3.686   2.620
 6942SOL     OW21724   6.120   5.419   2.373
 6942SOL    HW121725   6.055   5.410   2.449
 6942SOL    HW221726   6.212   5.395   2.405
 6943SOL     OW21727   4.612   4.547   6.514
 6943SOL    HW121728   4.590   4.644   6.514
 6943SOL    HW221729   4.572   4.503   6.594
 6944SOL     OW21730   1.401   4.428   5.350
 6944SOL    HW121731   1.316   4.479   5.333
 6944SOL    HW221732   1.457   4.429   5.268
 6945SOL     OW21733   5.631   1.646   1.278
 6945SOL    HW121734   5.692   1.581   1.324
 6945SOL    HW221735   5.536   1.618   1.292
 6946SOL     OW21736   5.273   6.453   2.917
 6946SOL    HW121737   5.231   6.504   2.992
 6946SOL    HW221738   5.202   6.415   2.858
 6947SOL     OW21739   6.366   4.078   5.333
 6947SOL    HW121740   6.328   4.153   5.387
 6947SOL    HW221741   6.453   4.107   5.293
 6948SOL     OW21742   6.892   4.477   6.962
 6948SOL    HW121743   6.841   4.408   6.911
 6948SOL    HW221744   6.900   4.560   6.908
 6949SOL     OW21745   2.404   1.561   2.968
 6949SOL    HW121746   2.331   1.612   3.014
 6949SOL    HW221747   2.459   1.623   2.912
 6950SOL     OW21748   0.920   1.175   4.382
 6950SOL    HW121749   0.989   1.124   4.433
 6950SOL    HW221750   0.856   1.112   4.339
 6951SOL     OW21751   0.862   4.315   6.716
 6951SOL    HW121752   0.920   4.278   6.789
 6951SOL    HW221753   0.844   4.243   6.648
 6952SOL     OW21754   5.238   5.405   4.169
 6952SOL    HW121755   5.327   5.361   4.157
 6952SOL    HW221756   5.210   5.398   4.265
 6953SOL     OW21757   6.421   1.704   1.255
 6953SOL    HW121758   6.430   1.705   1.155
 6953SOL    HW221759   6.451   1.792   1.292
 6954SOL     OW21760   6.986   4.685   6.768
 6954SOL    HW121761   0.016   4.704   6.689
 6954SOL    HW221762   6.946   4.771   6.800
 6955SOL     OW21763   4.719   6.101   3.072
 6955SOL    HW121764   4.788   6.048   3.120
 6955SOL    HW221765   4.633   6.097   3.121
 6956SOL     OW21766   5.417   5.077   2.428
 6956SOL    HW121767   5.470   5.071   2.513
 6956SOL    HW221768   5.329   5.121   2.447
 6957SOL     OW21769   6.406   5.303   5.182
 6957SOL    HW121770   6.309   5.321   5.198
 6957SOL    HW221771   6.435   5.227   5.240
 6958SOL     OW21772   3.790   3.514   2.578
 6958SOL    HW121773   3.852   3.482   2.507
 6958SOL    HW221774   3.791   3.450   2.655
 6959SOL     OW21775   1.527   3.745   2.950
 6959SOL    HW121776   1.597   3.764   2.880
 6959SOL    HW221777   1.436   3.755   2.909
 6960SOL     OW21778   3.835   4.477   6.905
 6960SOL    HW121779   3.887   4.419   6.968
 6960SOL    HW221780   3.820   4.427   6.820
 6961SOL     OW21781   4.648   2.516   5.461
 6961SOL    HW121782   4.687   2.425   5.476
 6961SOL    HW221783   4.622   2.525   5.365
 6962SOL     OW21784   2.582   6.171   6.972
 6962SOL    HW121785   2.642   6.199   0.018
 6962SOL    HW221786   2.632   6.109   6.912
 6963SOL     OW21787   6.458   5.865   0.285
 6963SOL    HW121788   6.457   5.931   0.211
 6963SOL    HW221789   6.369   5.819   0.290
 6964SOL     OW21790   2.316   1.338   5.607
 6964SOL    HW121791   2.227   1.304   5.638
 6964SOL    HW221792   2.302   1.421   5.553
 6965SOL     OW21793   1.248   1.212   6.786
 6965SOL    HW121794   1.174   1.181   6.728
 6965SOL    HW221795   1.214   1.226   6.879
 6966SOL     OW21796   0.973   6.763   1.200
 6966SOL    HW121797   1.052   6.739   1.256
 6966SOL    HW221798   1.001   6.824   1.126
 6967SOL     OW21799   4.064   1.364   6.888
 6967SOL    HW121800   4.001   1.323   6.821
 6967SOL    HW221801   4.073   1.462   6.867
 6968SOL     OW21802   3.935   0.103   2.724
 6968SOL    HW121803   3.936   0.138   2.818
 6968SOL    HW221804   3.846   0.063   2.705
 6969SOL     OW21805   2.144   2.552   2.164
 6969SOL    HW121806   2.230   2.597   2.139
 6969SOL    HW221807   2.089   2.536   2.082
 6970SOL     OW21808   3.834   5.218   5.336
 6970SOL    HW121809   3.893   5.262   5.269
 6970SOL    HW221810   3.740   5.248   5.323
 6971SOL     OW21811   6.201   4.259   0.216
 6971SOL    HW121812   6.218   4.186   0.150
 6971SOL    HW221813   6.178   4.219   0.305
 6972SOL     OW21814   5.434   4.078   1.486
 6972SOL    HW121815   5.354   4.024   1.462
 6972SOL    HW221816   5.410   4.175   1.484
 6973SOL     OW21817   1.624   1.787   2.794
 6973SOL    HW121818   1.637   1.858   2.862
 6973SOL    HW221819   1.650   1.698   2.833
 6974SOL     OW21820   3.877   3.979   3.136
 6974SOL    HW121821   3.915   3.965   3.044
 6974SOL    HW221822   3.932   3.929   3.203
 6975SOL     OW21823   3.023   5.772   4.317
 6975SOL    HW121824   3.063   5.823   4.240
 6975SOL    HW221825   3.040   5.822   4.402
 6976SOL     OW21826   4.679   4.672   5.984
 6976SOL    HW121827   4.657   4.764   5.949
 6976SOL    HW221828   4.735   4.624   5.917
 6977SOL     OW21829   4.653   4.772   2.406
 6977SOL    HW121830   4.730   4.725   2.362
 6977SOL    HW221831   4.571   4.716   2.398
 6978SOL     OW21832   0.221   3.562   0.797
 6978SOL    HW121833   0.288   3.495   0.763
 6978SOL    HW221834   0.255   3.602   0.882
 6979SOL     OW21835   1.008   3.417   2.792
 6979SOL    HW121836   1.018   3.344   2.860
 6979SOL    HW221837   1.069   3.493   2.815
 6980SOL     OW21838   2.038   5.249   3.246
 6980SOL    HW121839   2.108   5.190   3.288
 6980SOL    HW221840   1.985   5.195   3.180
 6981SOL     OW21841   4.524   2.868   6.887
 6981SOL    HW121842   4.577   2.857   6.972
 6981SOL    HW221843   4.585   2.899   6.814
 6982SOL     OW21844   0.649   0.949   2.214
 6982SOL    HW121845   0.653   1.042   2.251
 6982SOL    HW221846   0.702   0.945   2.129
 6983SOL     OW21847   6.282   0.725   4.425
 6983SOL    HW121848   6.191   0.728   4.466
 6983SOL    HW221849   6.347   0.771   4.485
 6984SOL     OW21850   1.510   2.856   3.078
 6984SOL    HW121851   1.453   2.911   3.138
 6984SOL    HW221852   1.596   2.905   3.060
 6985SOL     OW21853   5.304   3.194   6.271
 6985SOL    HW121854   5.252   3.109   6.275
 6985SOL    HW221855   5.312   3.224   6.176
 6986SOL     OW21856   4.876   4.695   5.117
 6986SOL    HW121857   4.932   4.699   5.200
 6986SOL    HW221858   4.894   4.610   5.068
 6987SOL     OW21859   0.051   1.058   6.678
 6987SOL    HW121860   0.001   1.134   6.637
 6987SOL    HW221861   0.149   1.068   6.659
 6988SOL     OW21862   2.752   1.610   6.494
 6988SOL    HW121863   2.772   1.708   6.499
 6988SOL    HW221864   2.776   1.576   6.403
 6989SOL     OW21865   0.899   3.458   2.551
 6989SOL    HW121866   0.969   3.514   2.508
 6989SOL    HW221867   0.914   3.457   2.650
 6990SOL     OW21868   4.003   3.824   6.984
 6990SOL    HW121869   3.910   3.793   7.006
 6990SOL    HW221870   4.067   3.748   6.998
 6991SOL     OW21871   5.628   3.407   2.581
 6991SOL    HW121872   5.670   3.320   2.556
 6991SOL    HW221873   5.570   3.439   2.506
 6992SOL     OW21874   0.715   5.273   0.408
 6992SOL    HW121875   0.665   5.206   0.353
 6992SOL    HW221876   0.756   5.226   0.487
 6993SOL     OW21877   3.801   2.325   1.364
 6993SOL    HW121878   3.840   2.331   1.456
 6993SOL    HW221879   3.705   2.353   1.367
 6994SOL     OW21880   3.047   1.373   3.036
 6994SOL    HW121881   3.019   1.289   3.082
 6994SOL    HW221882   3.121   1.353   2.972
 6995SOL     OW21883   0.183   4.159   0.879
 6995SOL    HW121884   0.150   4.109   0.960
 6995SOL    HW221885   0.170   4.257   0.894
 6996SOL     OW21886   0.968   1.282   6.736
 6996SOL    HW121887   0.958   1.354   6.805
 6996SOL    HW221888   0.896   1.293   6.667
 6997SOL     OW21889   6.641   6.098   6.051
 6997SOL    HW121890   6.616   6.168   6.119
 6997SOL    HW221891   6.736   6.072   6.064
 6998SOL     OW21892   0.036   0.687   0.287
 6998SOL    HW121893   0.114   0.735   0.246
 6998SOL    HW221894   7.010   0.752   0.338
 6999SOL     OW21895   6.985   2.813   6.781
 6999SOL    HW121896   6.971   2.907   6.813
 6999SOL    HW221897   6.899   2.763   6.788
 7000SOL     OW21898   6.969   5.284   3.604
 7000SOL    HW121899   6.944   5.314   3.512
 7000SOL    HW221900   0.040   5.273   3.610
 7001SOL     OW21901   6.444   1.881   4.791
 7001SOL    HW121902   6.346   1.881   4.769
 7001SOL    HW221903   6.488   1.802   4.747
 7002SOL     OW21904   1.057   5.469   2.800
 7002SOL    HW121905   0.997   5.390   2.814
 7002SOL    HW221906   1.147   5.436   2.771
 7003SOL     OW21907   0.579   4.303   0.581
 7003SOL    HW121908   0.541   4.212   0.598
 7003SOL    HW221909   0.555   4.332   0.488
 7004SOL     OW21910   1.739   0.231   0.408
 7004SOL    HW121911   1.759   0.134   0.400
 7004SOL    HW221912   1.802   0.273   0.473
 7005SOL     OW21913   1.166   5.710   0.297
 7005SOL    HW121914   1.168   5.610   0.297
 7005SOL    HW221915   1.223   5.745   0.371
 7006SOL     OW21916   0.552   0.217   3.884
 7006SOL    HW121917   0.633   0.159   3.892
 7006SOL    HW221918   0.570   0.305   3.928
 7007SOL     OW21919   2.098   0.206   6.005
 7007SOL    HW121920   2.046   0.139   6.059
 7007SOL    HW221921   2.086   0.297   6.044
 7008SOL     OW21922   5.773   3.423   3.335
 7008SOL    HW121923   5.680   3.454   3.315
 7008SOL    HW221924   5.833   3.502   3.345
 7009SOL     OW21925   5.270   6.197   2.528
 7009SOL    HW121926   5.173   6.173   2.521
 7009SOL    HW221927   5.308   6.157   2.611
 7010SOL     OW21928   4.956   3.468   2.825
 7010SOL    HW121929   4.961   3.491   2.727
 7010SOL    HW221930   4.906   3.539   2.873
 7011SOL     OW21931   2.839   6.452   6.133
 7011SOL    HW121932   2.743   6.468   6.158
 7011SOL    HW221933   2.874   6.531   6.083
 7012SOL     OW21934   6.855   2.875   0.453
 7012SOL    HW121935   6.799   2.862   0.372
 7012SOL    HW221936   6.872   2.972   0.468
 7013SOL     OW21937   3.401   2.856   0.652
 7013SOL    HW121938   3.492   2.816   0.658
 7013SOL    HW221939   3.334   2.792   0.691
 7014SOL     OW21940   5.224   3.341   0.599
 7014SOL    HW121941   5.126   3.327   0.616
 7014SOL    HW221942   5.270   3.253   0.594
 7015SOL     OW21943   5.771   6.134   1.612
 7015SOL    HW121944   5.708   6.211   1.608
 7015SOL    HW221945   5.720   6.050   1.627
 7016SOL     OW21946   3.590   4.881   0.709
 7016SOL    HW121947   3.503   4.882   0.659
 7016SOL    HW221948   3.578   4.924   0.798
 7017SOL     OW21949   6.015   4.350   5.508
 7017SOL    HW121950   6.016   4.447   5.482
 7017SOL    HW221951   5.990   4.295   5.428
 7018SOL     OW21952   5.052   3.636   5.094
 7018SOL    HW121953   4.961   3.621   5.056
 7018SOL    HW221954   5.119   3.634   5.020
 7019SOL     OW21955   4.209   5.154   2.094
 7019SOL    HW121956   4.130   5.205   2.127
 7019SOL    HW221957   4.285   5.163   2.159
 7020SOL     OW21958   0.855   2.281   6.298
 7020SOL    HW121959   0.919   2.353   6.327
 7020SOL    HW221960   0.799   2.315   6.223
 7021SOL     OW21961   0.704   1.924   4.752
 7021SOL    HW121962   0.756   2.007   4.771
 7021SOL    HW221963   0.606   1.945   4.752
 7022SOL     OW21964   2.852   3.105   0.718
 7022SOL    HW121965   2.810   3.094   0.628
 7022SOL    HW221966   2.946   3.072   0.715
 7023SOL     OW21967   0.714   1.738   0.885
 7023SOL    HW121968   0.779   1.774   0.952
 7023SOL    HW221969   0.666   1.814   0.841
 7024SOL     OW21970   3.034   3.785   4.824
 7024SOL    HW121971   3.062   3.755   4.915
 7024SOL    HW221972   3.075   3.874   4.804
 7025SOL     OW21973   3.148   0.614   1.097
 7025SOL    HW121974   3.183   0.644   1.008
 7025SOL    HW221975   3.124   0.694   1.152
 7026SOL     OW21976   3.262   2.839   0.975
 7026SOL    HW121977   3.263   2.767   0.906
 7026SOL    HW221978   3.257   2.797   1.066
 7027SOL     OW21979   3.353   4.836   1.980
 7027SOL    HW121980   3.437   4.838   1.926
 7027SOL    HW221981   3.291   4.767   1.942
 7028SOL     OW21982   3.464   0.011   3.417
 7028SOL    HW121983   3.431   0.101   3.388
 7028SOL    HW221984   3.524   0.021   3.497
 7029SOL     OW21985   3.290   3.651   3.417
 7029SOL    HW121986   3.293   3.595   3.335
 7029SOL    HW221987   3.368   3.629   3.476
 7030SOL     OW21988   6.502   0.165   4.717
 7030SOL    HW121989   6.506   0.098   4.790
 7030SOL    HW221990   6.494   0.118   4.629
 7031SOL     OW21991   5.067   6.217   0.585
 7031SOL    HW121992   5.050   6.184   0.678
 7031SOL    HW221993   5.105   6.310   0.589
 7032SOL     OW21994   4.704   4.836   3.931
 7032SOL    HW121995   4.704   4.779   4.013
 7032SOL    HW221996   4.612   4.870   3.914
 7033SOL     OW21997   1.652   1.625   5.427
 7033SOL    HW121998   1.689   1.693   5.490
 7033SOL    HW221999   1.673   1.533   5.461
 7034SOL     OW22000   6.188   0.803   2.216
 7034SOL    HW122001   6.179   0.868   2.140
 7034SOL    HW222002   6.119   0.824   2.285
 7035SOL     OW22003   2.763   1.085   1.483
 7035SOL    HW122004   2.819   1.138   1.547
 7035SOL    HW222005   2.720   1.148   1.417
 7036SOL     OW22006   6.559   1.496   1.468
 7036SOL    HW122007   6.524   1.414   1.512
 7036SOL    HW222008   6.623   1.542   1.529
 7037SOL     OW22009   1.458   0.552   6.082
 7037SOL    HW122010   1.511   0.477   6.042
 7037SOL    HW222011   1.491   0.639   6.045
 7038SOL     OW22012   1.481   3.829   0.113
 7038SOL    HW122013   1.406   3.880   0.155
 7038SOL    HW222014   1.560   3.830   0.174
 7039SOL     OW22015   0.018   6.506   1.840
 7039SOL    HW122016   0.090   6.476   1.776
 7039SOL    HW222017   7.002   6.587   1.803
 7040SOL     OW22018   5.666   2.363   4.746
 7040SOL    HW122019   5.636   2.420   4.823
 7040SOL    HW222020   5.586   2.319   4.705
 7041SOL     OW22021   1.345   0.199   4.305
 7041SOL    HW122022   1.268   0.140   4.326
 7041SOL    HW222023   1.396   0.162   4.227
 7042SOL     OW22024   5.447   5.692   5.319
 7042SOL    HW122025   5.540   5.700   5.285
 7042SOL    HW222026   5.446   5.631   5.398
 7043SOL     OW22027   1.790   6.150   1.066
 7043SOL    HW122028   1.832   6.063   1.092
 7043SOL    HW222029   1.832   6.225   1.117
 7044SOL     OW22030   5.401   6.112   4.980
 7044SOL    HW122031   5.474   6.068   5.033
 7044SOL    HW222032   5.440   6.188   4.928
 7045SOL     OW22033   6.218   5.971   1.932
 7045SOL    HW122034   6.314   5.990   1.914
 7045SOL    HW222035   6.206   5.874   1.951
 7046SOL     OW22036   1.947   1.271   3.905
 7046SOL    HW122037   1.885   1.319   3.968
 7046SOL    HW222038   2.020   1.334   3.876
 7047SOL     OW22039   1.295   6.386   0.660
 7047SOL    HW122040   1.293   6.321   0.736
 7047SOL    HW222041   1.248   6.470   0.687
 7048SOL     OW22042   0.869   6.379   3.444
 7048SOL    HW122043   0.804   6.452   3.467
 7048SOL    HW222044   0.962   6.409   3.465
 7049SOL     OW22045   3.835   1.311   4.089
 7049SOL    HW122046   3.934   1.303   4.097
 7049SOL    HW222047   3.792   1.283   4.175
 7050SOL     OW22048   3.835   4.261   0.355
 7050SOL    HW122049   3.783   4.346   0.345
 7050SOL    HW222050   3.926   4.281   0.391
 7051SOL     OW22051   1.186   1.900   1.497
 7051SOL    HW122052   1.220   1.825   1.553
 7051SOL    HW222053   1.248   1.979   1.506
 7052SOL     OW22054   4.552   2.006   2.733
 7052SOL    HW122055   4.478   1.958   2.780
 7052SOL    HW222056   4.575   2.090   2.781
 7053SOL     OW22057   1.455   3.543   3.253
 7053SOL    HW122058   1.539   3.580   3.215
 7053SOL    HW222059   1.466   3.528   3.351
 7054SOL     OW22060   5.270   0.312   0.036
 7054SOL    HW122061   5.237   0.228   0.078
 7054SOL    HW222062   5.351   0.292   7.010
 7055SOL     OW22063   2.439   0.553   0.609
 7055SOL    HW122064   2.414   0.549   0.512
 7055SOL    HW222065   2.423   0.645   0.643
 7056SOL     OW22066   0.117   4.873   1.247
 7056SOL    HW122067   0.168   4.797   1.207
 7056SOL    HW222068   0.136   4.957   1.196
 7057SOL     OW22069   3.229   5.651   4.846
 7057SOL    HW122070   3.291   5.689   4.778
 7057SOL    HW222071   3.280   5.619   4.925
 7058SOL     OW22072   6.296   2.551   6.352
 7058SOL    HW122073   6.368   2.521   6.290
 7058SOL    HW222074   6.337   2.587   6.436
 7059SOL     OW22075   1.633   0.059   5.242
 7059SOL    HW122076   1.696   7.014   5.219
 7059SOL    HW222077   1.541   0.035   5.212
 7060SOL     OW22078   3.323   2.447   1.285
 7060SOL    HW122079   3.282   2.451   1.377
 7060SOL    HW222080   3.362   2.356   1.270
 7061SOL     OW22081   1.190   1.120   1.335
 7061SOL    HW122082   1.208   1.024   1.315
 7061SOL    HW222083   1.249   1.177   1.277
 7062SOL     OW22084   3.431   0.485   4.123
 7062SOL    HW122085   3.369   0.520   4.194
 7062SOL    HW222086   3.380   0.426   4.061
 7063SOL     OW22087   7.017   1.529   1.174
 7063SOL    HW122088   0.035   1.536   1.085
 7063SOL    HW222089   6.996   1.433   1.192
 7064SOL     OW22090   3.040   1.609   5.314
 7064SOL    HW122091   3.002   1.521   5.341
 7064SOL    HW222092   3.129   1.623   5.358
 7065SOL     OW22093   4.062   5.699   5.164
 7065SOL    HW122094   3.966   5.725   5.177
 7065SOL    HW222095   4.119   5.782   5.162
 7066SOL     OW22096   3.331   7.012   1.233
 7066SOL    HW122097   3.242   0.015   1.265
 7066SOL    HW222098   3.367   0.046   1.165
 7067SOL     OW22099   2.258   4.029   6.441
 7067SOL    HW122100   2.296   4.057   6.352
 7067SOL    HW222101   2.280   3.933   6.457
 7068SOL     OW22102   5.016   4.263   4.224
 7068SOL    HW122103   4.922   4.237   4.249
 7068SOL    HW222104   5.046   4.209   4.146
 7069SOL     OW22105   5.010   0.675   6.021
 7069SOL    HW122106   5.103   0.655   6.052
 7069SOL    HW222107   4.970   0.746   6.079
 7070SOL     OW22108   0.479   0.542   5.810
 7070SOL    HW122109   0.480   0.448   5.776
 7070SOL    HW222110   0.552   0.554   5.877
 7071SOL     OW22111   4.590   6.372   6.694
 7071SOL    HW122112   4.620   6.450   6.749
 7071SOL    HW222113   4.520   6.401   6.629
 7072SOL     OW22114   0.770   3.858   6.218
 7072SOL    HW122115   0.738   3.876   6.311
 7072SOL    HW222116   0.816   3.940   6.182
 7073SOL     OW22117   4.805   1.760   4.188
 7073SOL    HW122118   4.903   1.755   4.169
 7073SOL    HW222119   4.772   1.853   4.169
 7074SOL     OW22120   5.601   4.094   2.816
 7074SOL    HW122121   5.521   4.146   2.844
 7074SOL    HW222122   5.678   4.156   2.801
 7075SOL     OW22123   2.670   5.398   3.482
 7075SOL    HW122124   2.600   5.393   3.554
 7075SOL    HW222125   2.708   5.307   3.466
 7076SOL     OW22126   5.545   2.172   1.267
 7076SOL    HW122127   5.563   2.270   1.264
 7076SOL    HW222128   5.509   2.148   1.357
 7077SOL     OW22129   3.576   6.149   1.445
 7077SOL    HW122130   3.495   6.197   1.477
 7077SOL    HW222131   3.629   6.209   1.385
 7078SOL     OW22132   6.646   0.943   6.651
 7078SOL    HW122133   6.670   0.864   6.595
 7078SOL    HW222134   6.719   0.960   6.718
 7079SOL     OW22135   1.942   5.604   4.890
 7079SOL    HW122136   1.969   5.624   4.796
 7079SOL    HW222137   1.899   5.514   4.894
 7080SOL     OW22138   4.082   2.182   6.166
 7080SOL    HW122139   4.179   2.196   6.184
 7080SOL    HW222140   4.056   2.089   6.192
 7081SOL     OW22141   2.450   0.015   0.633
 7081SOL    HW122142   2.379   0.052   0.574
 7081SOL    HW222143   2.487   6.961   0.593
 7082SOL     OW22144   0.627   3.755   2.318
 7082SOL    HW122145   0.616   3.705   2.232
 7082SOL    HW222146   0.651   3.692   2.391
 7083SOL     OW22147   4.963   2.487   3.487
 7083SOL    HW122148   4.994   2.426   3.560
 7083SOL    HW222149   4.938   2.576   3.526
 7084SOL     OW22150   0.869   4.865   0.521
 7084SOL    HW122151   0.788   4.807   0.518
 7084SOL    HW222152   0.950   4.808   0.533
 7085SOL     OW22153   0.769   4.100   2.615
 7085SOL    HW122154   0.717   4.146   2.686
 7085SOL    HW222155   0.865   4.129   2.620
 7086SOL     OW22156   5.338   0.492   3.756
 7086SOL    HW122157   5.385   0.572   3.793
 7086SOL    HW222158   5.403   0.436   3.706
 7087SOL     OW22159   4.650   2.588   3.705
 7087SOL    HW122160   4.700   2.608   3.789
 7087SOL    HW222161   4.682   2.648   3.632
 7088SOL     OW22162   6.612   2.274   5.466
 7088SOL    HW122163   6.580   2.368   5.479
 7088SOL    HW222164   6.543   2.210   5.499
 7089SOL     OW22165   2.390   5.742   1.251
 7089SOL    HW122166   2.341   5.747   1.338
 7089SOL    HW222167   2.432   5.831   1.231
 7090SOL     OW22168   4.219   3.240   0.894
 7090SOL    HW122169   4.205   3.262   0.990
 7090SOL    HW222170   4.152   3.172   0.865
 7091SOL     OW22171   0.067   6.790   0.177
 7091SOL    HW122172   0.132   6.766   0.106
 7091SOL    HW222173   0.050   6.889   0.175
 7092SOL     OW22174   4.405   6.836   6.754
 7092SOL    HW122175   4.364   6.908   6.810
 7092SOL    HW222176   4.406   6.750   6.805
 7093SOL     OW22177   3.614   3.262   0.702
 7093SOL    HW122178   3.599   3.359   0.719
 7093SOL    HW222179   3.527   3.213   0.706
 7094SOL     OW22180   4.164   0.789   5.583
 7094SOL    HW122181   4.134   0.790   5.487
 7094SOL    HW222182   4.257   0.751   5.588
 7095SOL     OW22183   2.732   4.970   4.677
 7095SOL    HW122184   2.768   5.051   4.630
 7095SOL    HW222185   2.799   4.895   4.671
 7096SOL     OW22186   6.297   6.501   0.943
 7096SOL    HW122187   6.341   6.479   1.030
 7096SOL    HW222188   6.348   6.574   0.897
 7097SOL     OW22189   4.703   1.540   2.658
 7097SOL    HW122190   4.661   1.626   2.686
 7097SOL    HW222191   4.704   1.534   2.558
 7098SOL     OW22192   0.907   1.310   3.321
 7098SOL    HW122193   0.893   1.315   3.420
 7098SOL    HW222194   0.909   1.214   3.293
 7099SOL     OW22195   3.665   2.039   4.480
 7099SOL    HW122196   3.632   2.048   4.574
 7099SOL    HW222197   3.745   2.098   4.466
 7100SOL     OW22198   6.983   3.942   1.270
 7100SOL    HW122199   0.013   3.868   1.303
 7100SOL    HW222200   6.903   3.949   1.331
 7101SOL     OW22201   2.619   5.672   4.381
 7101SOL    HW122202   2.583   5.599   4.438
 7101SOL    HW222203   2.573   5.758   4.404
 7102SOL     OW22204   5.501   1.582   3.099
 7102SOL    HW122205   5.403   1.598   3.108
 7102SOL    HW222206   5.544   1.663   3.059
 7103SOL     OW22207   4.910   3.729   3.742
 7103SOL    HW122208   4.877   3.797   3.808
 7103SOL    HW222209   4.966   3.661   3.789
 7104SOL     OW22210   5.093   2.987   4.573
 7104SOL    HW122211   5.118   2.981   4.670
 7104SOL    HW222212   4.995   2.968   4.563
 7105SOL     OW22213   2.893   3.666   2.890
 7105SOL    HW122214   2.947   3.731   2.943
 7105SOL    HW222215   2.797   3.692   2.891
 7106SOL     OW22216   3.014   1.683   2.324
 7106SOL    HW122217   3.083   1.755   2.329
 7106SOL    HW222218   2.996   1.661   2.228
 7107SOL     OW22219   3.653   0.890   6.597
 7107SOL    HW122220   3.603   0.890   6.510
 7107SOL    HW222221   3.635   0.976   6.646
 7108SOL     OW22222   4.125   0.282   2.100
 7108SOL    HW122223   4.213   0.245   2.071
 7108SOL    HW222224   4.139   0.345   2.177
 7109SOL     OW22225   2.980   5.669   6.180
 7109SOL    HW122226   2.943   5.762   6.187
 7109SOL    HW222227   2.910   5.603   6.205
 7110SOL     OW22228   2.548   6.370   4.945
 7110SOL    HW122229   2.551   6.281   4.900
 7110SOL    HW222230   2.559   6.358   5.044
 7111SOL     OW22231   6.494   0.909   5.075
 7111SOL    HW122232   6.471   0.859   5.158
 7111SOL    HW222233   6.516   1.004   5.097
 7112SOL     OW22234   0.877   4.712   5.038
 7112SOL    HW122235   0.962   4.666   5.063
 7112SOL    HW222236   0.891   4.764   4.953
 7113SOL     OW22237   3.290   6.501   4.656
 7113SOL    HW122238   3.367   6.546   4.702
 7113SOL    HW222239   3.205   6.548   4.678
 7114SOL     OW22240   5.792   4.026   1.392
 7114SOL    HW122241   5.701   4.018   1.433
 7114SOL    HW222242   5.800   3.964   1.314
 7115SOL     OW22243   5.625   3.171   5.669
 7115SOL    HW122244   5.633   3.267   5.697
 7115SOL    HW222245   5.567   3.122   5.734
 7116SOL     OW22246   0.188   4.056   4.935
 7116SOL    HW122247   0.276   4.011   4.947
 7116SOL    HW222248   0.162   4.053   4.838
 7117SOL     OW22249   4.970   6.913   2.656
 7117SOL    HW122250   4.873   6.899   2.637
 7117SOL    HW222251   4.980   6.967   2.740
 7118SOL     OW22252   4.608   4.638   6.243
 7118SOL    HW122253   4.620   4.727   6.287
 7118SOL    HW222254   4.627   4.646   6.145
 7119SOL     OW22255   3.071   6.731   5.575
 7119SOL    HW122256   3.122   6.785   5.642
 7119SOL    HW222257   2.981   6.771   5.561
 7120SOL     OW22258   4.372   1.223   0.946
 7120SOL    HW122259   4.414   1.253   0.860
 7120SOL    HW222260   4.394   1.287   1.019
 7121SOL     OW22261   1.042   6.094   2.469
 7121SOL    HW122262   0.990   6.021   2.512
 7121SOL    HW222263   0.988   6.179   2.470
 7122SOL     OW22264   3.764   2.258   6.726
 7122SOL    HW122265   3.856   2.226   6.750
 7122SOL    HW222266   3.759   2.357   6.736
 7123SOL     OW22267   5.632   5.186   5.791
 7123SOL    HW122268   5.606   5.092   5.770
 7123SOL    HW222269   5.732   5.193   5.790
 7124SOL     OW22270   1.910   3.116   1.048
 7124SOL    HW122271   1.884   3.166   1.131
 7124SOL    HW222272   1.975   3.044   1.071
 7125SOL     OW22273   0.714   6.484   2.431
 7125SOL    HW122274   0.700   6.557   2.498
 7125SOL    HW222275   0.707   6.523   2.339
 7126SOL     OW22276   3.730   5.172   1.346
 7126SOL    HW122277   3.695   5.120   1.268
 7126SOL    HW222278   3.681   5.145   1.429
 7127SOL     OW22279   3.184   6.086   6.592
 7127SOL    HW122280   3.164   6.168   6.537
 7127SOL    HW222281   3.114   6.075   6.662
 7128SOL     OW22282   3.018   4.140   0.073
 7128SOL    HW122283   2.921   4.117   0.082
 7128SOL    HW222284   3.073   4.067   0.114
 7129SOL     OW22285   0.397   0.102   7.021
 7129SOL    HW122286   0.426   0.197   0.002
 7129SOL    HW222287   0.314   0.086   0.044
 7130SOL     OW22288   3.055   0.175   3.840
 7130SOL    HW122289   3.109   0.226   3.907
 7130SOL    HW222290   3.013   0.095   3.885
 7131SOL     OW22291   2.493   1.529   1.858
 7131SOL    HW122292   2.566   1.535   1.789
 7131SOL    HW222293   2.405   1.517   1.812
 7132SOL     OW22294   4.775   4.268   1.226
 7132SOL    HW122295   4.754   4.221   1.312
 7132SOL    HW222296   4.742   4.362   1.231
 7133SOL     OW22297   4.903   6.068   2.722
 7133SOL    HW122298   4.951   6.096   2.804
 7133SOL    HW222299   4.833   6.000   2.746
 7134SOL     OW22300   5.239   5.186   0.265
 7134SOL    HW122301   5.179   5.185   0.186
 7134SOL    HW222302   5.284   5.097   0.274
 7135SOL     OW22303   1.892   3.611   1.487
 7135SOL    HW122304   1.950   3.688   1.515
 7135SOL    HW222305   1.807   3.613   1.539
 7136SOL     OW22306   1.015   2.312   1.870
 7136SOL    HW122307   1.076   2.375   1.821
 7136SOL    HW222308   1.005   2.228   1.817
 7137SOL     OW22309   3.089   0.628   2.441
 7137SOL    HW122310   3.165   0.623   2.376
 7137SOL    HW222311   3.055   0.722   2.445
 7138SOL     OW22312   0.182   3.414   0.512
 7138SOL    HW122313   0.161   3.503   0.552
 7138SOL    HW222314   0.272   3.383   0.543
 7139SOL     OW22315   5.828   6.099   0.891
 7139SOL    HW122316   5.835   6.036   0.968
 7139SOL    HW222317   5.835   6.193   0.924
 7140SOL     OW22318   6.719   4.507   0.140
 7140SOL    HW122319   6.741   4.444   0.214
 7140SOL    HW222320   6.790   4.501   0.069
 7141SOL     OW22321   3.242   0.728   0.878
 7141SOL    HW122322   3.200   0.688   0.796
 7141SOL    HW222323   3.263   0.824   0.861
 7142SOL     OW22324   4.658   0.440   4.919
 7142SOL    HW122325   4.597   0.449   4.841
 7142SOL    HW222326   4.745   0.485   4.899
 7143SOL     OW22327   2.755   2.943   6.522
 7143SOL    HW122328   2.718   3.035   6.534
 7143SOL    HW222329   2.731   2.887   6.601
 7144SOL     OW22330   0.016   0.890   6.083
 7144SOL    HW122331   0.031   0.890   5.984
 7144SOL    HW222332   0.042   0.802   6.121
 7145SOL     OW22333   5.547   1.890   6.050
 7145SOL    HW122334   5.602   1.924   5.974
 7145SOL    HW222335   5.562   1.946   6.131
 7146SOL     OW22336   0.781   2.525   5.262
 7146SOL    HW122337   0.860   2.470   5.236
 7146SOL    HW222338   0.804   2.580   5.342
 7147SOL     OW22339   6.665   6.619   2.040
 7147SOL    HW122340   6.712   6.695   2.084
 7147SOL    HW222341   6.629   6.557   2.109
 7148SOL     OW22342   6.287   6.914   1.418
 7148SOL    HW122343   6.270   7.013   1.426
 7148SOL    HW222344   6.276   6.872   1.508
 7149SOL     OW22345   5.399   4.632   5.882
 7149SOL    HW122346   5.471   4.693   5.914
 7149SOL    HW222347   5.428   4.589   5.796
 7150SOL     OW22348   3.173   2.409   6.894
 7150SOL    HW122349   3.228   2.430   6.813
 7150SOL    HW222350   3.233   2.396   6.973
 7151SOL     OW22351   5.239   1.426   6.790
 7151SOL    HW122352   5.152   1.463   6.823
 7151SOL    HW222353   5.266   1.473   6.706
 7152SOL     OW22354   4.681   0.659   5.608
 7152SOL    HW122355   4.705   0.660   5.705
 7152SOL    HW222356   4.584   0.682   5.598
 7153SOL     OW22357   3.356   5.690   0.488
 7153SOL    HW122358   3.436   5.735   0.529
 7153SOL    HW222359   3.327   5.614   0.547
 7154SOL     OW22360   4.426   0.840   1.973
 7154SOL    HW122361   4.449   0.938   1.970
 7154SOL    HW222362   4.395   0.811   1.883
 7155SOL     OW22363   1.613   0.106   2.041
 7155SOL    HW122364   1.688   0.165   2.070
 7155SOL    HW222365   1.545   0.099   2.114
 7156SOL     OW22366   6.556   3.842   5.524
 7156SOL    HW122367   6.518   3.804   5.439
 7156SOL    HW222368   6.574   3.939   5.512
 7157SOL     OW22369   0.188   4.327   5.840
 7157SOL    HW122370   0.249   4.339   5.919
 7157SOL    HW222371   0.159   4.231   5.835
 7158SOL     OW22372   5.237   0.309   4.059
 7158SOL    HW122373   5.325   0.287   4.018
 7158SOL    HW222374   5.179   0.354   3.991
 7159SOL     OW22375   0.787   6.502   3.060
 7159SOL    HW122376   0.870   6.448   3.048
 7159SOL    HW222377   0.707   6.443   3.050
 7160SOL     OW22378   5.901   6.905   2.846
 7160SOL    HW122379   5.811   6.924   2.884
 7160SOL    HW222380   5.968   6.898   2.921
 7161SOL     OW22381   3.886   4.044   2.421
 7161SOL    HW122382   3.875   4.026   2.324
 7161SOL    HW222383   3.870   3.960   2.473
 7162SOL     OW22384   0.494   6.242   1.157
 7162SOL    HW122385   0.584   6.213   1.123
 7162SOL    HW222386   0.430   6.165   1.152
 7163SOL     OW22387   6.645   0.716   1.265
 7163SOL    HW122388   6.697   0.672   1.339
 7163SOL    HW222389   6.618   0.647   1.198
 7164SOL     OW22390   1.514   1.173   6.938
 7164SOL    HW122391   1.447   1.179   6.863
 7164SOL    HW222392   1.483   1.106   7.005
 7165SOL     OW22393   5.575   2.333   0.138
 7165SOL    HW122394   5.616   2.420   0.166
 7165SOL    HW222395   5.558   2.277   0.218
 7166SOL     OW22396   0.280   5.506   5.769
 7166SOL    HW122397   0.208   5.553   5.819
 7166SOL    HW222398   0.284   5.411   5.798
 7167SOL     OW22399   0.112   2.906   5.467
 7167SOL    HW122400   0.082   2.898   5.372
 7167SOL    HW222401   0.044   2.865   5.527
 7168SOL     OW22402   1.831   1.948   2.050
 7168SOL    HW122403   1.905   1.944   1.983
 7168SOL    HW222404   1.829   1.864   2.103
 7169SOL     OW22405   1.725   4.719   5.643
 7169SOL    HW122406   1.639   4.704   5.594
 7169SOL    HW222407   1.737   4.816   5.661
 7170SOL     OW22408   3.553   1.299   1.114
 7170SOL    HW122409   3.531   1.277   1.019
 7170SOL    HW222410   3.651   1.314   1.123
 7171SOL     OW22411   6.595   3.746   0.864
 7171SOL    HW122412   6.642   3.688   0.797
 7171SOL    HW222413   6.585   3.695   0.950
 7172SOL     OW22414   0.676   2.025   3.657
 7172SOL    HW122415   0.710   2.100   3.714
 7172SOL    HW222416   0.703   2.041   3.562
 7173SOL     OW22417   4.531   5.792   5.835
 7173SOL    HW122418   4.447   5.819   5.788
 7173SOL    HW222419   4.512   5.780   5.933
 7174SOL     OW22420   6.365   4.147   2.435
 7174SOL    HW122421   6.324   4.059   2.412
 7174SOL    HW222422   6.337   4.216   2.369
 7175SOL     OW22423   6.215   4.065   5.800
 7175SOL    HW122424   6.232   4.000   5.727
 7175SOL    HW222425   6.213   4.158   5.763
 7176SOL     OW22426   0.208   1.198   6.094
 7176SOL    HW122427   0.165   1.282   6.060
 7176SOL    HW222428   0.229   1.138   6.017
 7177SOL     OW22429   1.548   6.155   3.828
 7177SOL    HW122430   1.644   6.183   3.832
 7177SOL    HW222431   1.492   6.234   3.804
 7178SOL     OW22432   1.385   6.981   5.089
 7178SOL    HW122433   1.323   6.951   5.017
 7178SOL    HW222434   1.336   0.009   5.154
 7179SOL     OW22435   4.670   4.933   5.851
 7179SOL    HW122436   4.576   4.956   5.873
 7179SOL    HW222437   4.707   4.997   5.784
 7180SOL     OW22438   1.863   3.019   1.823
 7180SOL    HW122439   1.925   3.071   1.881
 7180SOL    HW222440   1.784   3.075   1.799
 7181SOL     OW22441   2.174   1.343   6.944
 7181SOL    HW122442   2.262   1.332   6.898
 7181SOL    HW222443   2.107   1.281   6.904
 7182SOL     OW22444   1.672   1.007   3.681
 7182SOL    HW122445   1.653   1.046   3.771
 7182SOL    HW222446   1.595   1.023   3.620
 7183SOL     OW22447   1.899   6.928   1.711
 7183SOL    HW122448   1.861   6.971   1.629
 7183SOL    HW222449   1.824   6.895   1.769
 7184SOL     OW22450   6.737   0.799   3.736
 7184SOL    HW122451   6.720   0.895   3.758
 7184SOL    HW222452   6.726   0.743   3.818
 7185SOL     OW22453   4.278   0.602   4.025
 7185SOL    HW122454   4.268   0.503   4.016
 7185SOL    HW222455   4.246   0.631   4.115
 7186SOL     OW22456   6.394   0.848   6.717
 7186SOL    HW122457   6.317   0.909   6.702
 7186SOL    HW222458   6.475   0.884   6.672
 7187SOL     OW22459   3.811   3.604   4.012
 7187SOL    HW122460   3.838   3.509   3.993
 7187SOL    HW222461   3.890   3.654   4.047
 7188SOL     OW22462   4.558   4.668   0.205
 7188SOL    HW122463   4.535   4.701   0.114
 7188SOL    HW222464   4.635   4.722   0.241
 7189SOL     OW22465   6.796   2.623   5.904
 7189SOL    HW122466   6.774   2.569   5.985
 7189SOL    HW222467   6.764   2.576   5.822
 7190SOL     OW22468   6.082   5.039   6.802
 7190SOL    HW122469   6.035   5.114   6.849
 7190SOL    HW222470   6.043   5.028   6.710
 7191SOL     OW22471   6.473   4.674   2.327
 7191SOL    HW122472   6.452   4.692   2.423
 7191SOL    HW222473   6.564   4.633   2.321
 7192SOL     OW22474   2.346   4.134   5.486
 7192SOL    HW122475   2.410   4.211   5.489
 7192SOL    HW222476   2.381   4.066   5.421
 7193SOL     OW22477   3.335   1.737   3.203
 7193SOL    HW122478   3.271   1.708   3.132
 7193SOL    HW222479   3.426   1.701   3.183
 7194SOL     OW22480   2.751   2.568   6.293
 7194SOL    HW122481   2.766   2.633   6.219
 7194SOL    HW222482   2.653   2.556   6.309
 7195SOL     OW22483   1.000   4.244   5.821
 7195SOL    HW122484   0.952   4.268   5.737
 7195SOL    HW222485   1.099   4.252   5.807
 7196SOL     OW22486   3.380   4.191   1.587
 7196SOL    HW122487   3.337   4.158   1.671
 7196SOL    HW222488   3.368   4.290   1.580
 7197SOL     OW22489   3.402   4.794   6.875
 7197SOL    HW122490   3.485   4.739   6.870
 7197SOL    HW222491   3.343   4.774   6.797
 7198SOL     OW22492   0.745   0.219   2.016
 7198SOL    HW122493   0.699   0.182   1.936
 7198SOL    HW222494   0.685   0.284   2.062
 7199SOL     OW22495   5.876   1.534   2.817
 7199SOL    HW122496   5.799   1.481   2.853
 7199SOL    HW222497   5.897   1.502   2.724
 7200SOL     OW22498   0.933   2.866   6.974
 7200SOL    HW122499   0.975   2.775   6.969
 7200SOL    HW222500   0.903   2.884   0.038
 7201SOL     OW22501   5.919   5.594   4.103
 7201SOL    HW122502   5.978   5.611   4.183
 7201SOL    HW222503   5.971   5.612   4.020
 7202SOL     OW22504   4.664   6.582   5.861
 7202SOL    HW122505   4.578   6.601   5.907
 7202SOL    HW222506   4.730   6.656   5.880
 7203SOL     OW22507   0.247   1.772   1.043
 7203SOL    HW122508   0.303   1.819   0.974
 7203SOL    HW222509   0.280   1.678   1.055
 7204SOL     OW22510   6.547   1.059   2.251
 7204SOL    HW122511   6.488   1.032   2.175
 7204SOL    HW222512   6.495   1.053   2.337
 7205SOL     OW22513   3.223   1.800   4.697
 7205SOL    HW122514   3.149   1.828   4.759
 7205SOL    HW222515   3.206   1.836   4.606
 7206SOL     OW22516   1.999   3.726   6.732
 7206SOL    HW122517   1.962   3.810   6.772
 7206SOL    HW222518   1.983   3.649   6.793
 7207SOL     OW22519   2.041   1.294   3.497
 7207SOL    HW122520   2.048   1.382   3.545
 7207SOL    HW222521   1.972   1.300   3.425
 7208SOL     OW22522   3.910   0.878   3.961
 7208SOL    HW122523   3.953   0.799   3.918
 7208SOL    HW222524   3.940   0.884   4.057
 7209SOL     OW22525   3.499   1.072   1.840
 7209SOL    HW122526   3.591   1.068   1.800
 7209SOL    HW222527   3.451   1.153   1.807
 7210SOL     OW22528   3.701   1.186   3.807
 7210SOL    HW122529   3.664   1.201   3.716
 7210SOL    HW222530   3.627   1.169   3.872
 7211SOL     OW22531   4.432   6.570   5.671
 7211SOL    HW122532   4.355   6.572   5.735
 7211SOL    HW222533   4.517   6.586   5.721
 7212SOL     OW22534   0.722   5.253   5.065
 7212SOL    HW122535   0.677   5.171   5.029
 7212SOL    HW222536   0.702   5.261   5.162
 7213SOL     OW22537   4.275   2.408   0.091
 7213SOL    HW122538   4.241   2.376   0.003
 7213SOL    HW222539   4.231   2.355   0.164
 7214SOL     OW22540   6.305   7.011   6.289
 7214SOL    HW122541   6.281   0.033   6.372
 7214SOL    HW222542   6.243   0.008   6.215
 7215SOL     OW22543   6.470   1.355   2.617
 7215SOL    HW122544   6.470   1.451   2.588
 7215SOL    HW222545   6.564   1.326   2.632
 7216SOL     OW22546   4.778   0.260   3.359
 7216SOL    HW122547   4.695   0.248   3.413
 7216SOL    HW222548   4.755   0.256   3.262
 7217SOL     OW22549   1.128   2.540   3.095
 7217SOL    HW122550   1.104   2.550   3.192
 7217SOL    HW222551   1.107   2.447   3.065
 7218SOL     OW22552   6.335   2.590   4.835
 7218SOL    HW122553   6.237   2.609   4.846
 7218SOL    HW222554   6.346   2.500   4.791
 7219SOL     OW22555   2.870   6.031   2.591
 7219SOL    HW122556   2.916   5.945   2.569
 7219SOL    HW222557   2.848   6.033   2.689
 7220SOL     OW22558   6.256   4.307   3.466
 7220SOL    HW122559   6.241   4.225   3.410
 7220SOL    HW222560   6.352   4.313   3.493
 7221SOL     OW22561   3.975   5.550   3.561
 7221SOL    HW122562   4.024   5.528   3.476
 7221SOL    HW222563   3.886   5.505   3.560
 7222SOL     OW22564   6.717   6.052   4.275
 7222SOL    HW122565   6.767   6.017   4.196
 7222SOL    HW222566   6.715   6.152   4.271
 7223SOL     OW22567   0.232   4.423   1.703
 7223SOL    HW122568   0.237   4.444   1.606
 7223SOL    HW222569   0.302   4.354   1.726
 7224SOL     OW22570   4.162   2.209   2.451
 7224SOL    HW122571   4.120   2.217   2.360
 7224SOL    HW222572   4.091   2.192   2.519
 7225SOL     OW22573   1.285   6.221   0.918
 7225SOL    HW122574   1.316   6.243   1.011
 7225SOL    HW222575   1.187   6.237   0.912
 7226SOL     OW22576   6.672   6.323   0.132
 7226SOL    HW122577   6.665   6.309   0.033
 7226SOL    HW222578   6.751   6.273   0.167
 7227SOL     OW22579   1.937   1.397   2.620
 7227SOL    HW122580   1.853   1.393   2.565
 7227SOL    HW222581   1.977   1.305   2.627
 7228SOL     OW22582   6.281   3.381   2.077
 7228SOL    HW122583   6.292   3.473   2.038
 7228SOL    HW222584   6.239   3.388   2.167
 7229SOL     OW22585   6.093   0.925   5.124
 7229SOL    HW122586   6.047   0.839   5.104
 7229SOL    HW222587   6.164   0.942   5.056
 7230SOL     OW22588   2.509   5.051   4.514
 7230SOL    HW122589   2.584   5.006   4.562
 7230SOL    HW222590   2.425   4.998   4.525
 7231SOL     OW22591   4.247   3.102   5.774
 7231SOL    HW122592   4.313   3.056   5.715
 7231SOL    HW222593   4.177   3.037   5.803
 7232SOL     OW22594   4.534   6.335   3.452
 7232SOL    HW122595   4.512   6.253   3.506
 7232SOL    HW222596   4.628   6.363   3.471
 7233SOL     OW22597   0.246   1.425   5.444
 7233SOL    HW122598   0.232   1.524   5.431
 7233SOL    HW222599   0.251   1.380   5.355
 7234SOL     OW22600   5.413   4.389   3.531
 7234SOL    HW122601   5.345   4.369   3.601
 7234SOL    HW222602   5.500   4.411   3.574
 7235SOL     OW22603   6.163   6.564   2.030
 7235SOL    HW122604   6.244   6.506   2.025
 7235SOL    HW222605   6.088   6.514   2.074
 7236SOL     OW22606   1.891   3.637   2.749
 7236SOL    HW122607   1.988   3.658   2.754
 7236SOL    HW222608   1.838   3.721   2.761
 7237SOL     OW22609   5.747   1.085   0.523
 7237SOL    HW122610   5.806   1.011   0.493
 7237SOL    HW222611   5.759   1.100   0.621
 7238SOL     OW22612   4.266   3.714   0.035
 7238SOL    HW122613   4.311   3.626   0.049
 7238SOL    HW222614   4.335   3.785   0.020
 7239SOL     OW22615   5.935   2.518   2.192
 7239SOL    HW122616   5.929   2.591   2.260
 7239SOL    HW222617   6.031   2.499   2.170
 7240SOL     OW22618   6.968   1.645   0.784
 7240SOL    HW122619   7.002   1.556   0.816
 7240SOL    HW222620   6.911   1.686   0.855
 7241SOL     OW22621   1.818   0.702   2.339
 7241SOL    HW122622   1.770   0.789   2.350
 7241SOL    HW222623   1.751   0.629   2.323
 7242SOL     OW22624   6.918   4.364   4.955
 7242SOL    HW122625   6.971   4.394   4.876
 7242SOL    HW222626   6.906   4.440   5.018
 7243SOL     OW22627   5.492   4.771   6.296
 7243SOL    HW122628   5.585   4.734   6.292
 7243SOL    HW222629   5.496   4.871   6.297
 7244SOL     OW22630   6.880   5.875   0.092
 7244SOL    HW122631   6.809   5.917   0.149
 7244SOL    HW222632   6.965   5.868   0.145
 7245SOL     OW22633   1.137   3.321   0.487
 7245SOL    HW122634   1.133   3.329   0.586
 7245SOL    HW222635   1.067   3.379   0.445
 7246SOL     OW22636   4.241   6.735   2.804
 7246SOL    HW122637   4.170   6.780   2.751
 7246SOL    HW222638   4.212   6.727   2.899
 7247SOL     OW22639   3.146   4.021   4.763
 7247SOL    HW122640   3.226   3.961   4.766
 7247SOL    HW222641   3.129   4.048   4.668
 7248SOL     OW22642   2.846   1.722   5.480
 7248SOL    HW122643   2.908   1.688   5.409
 7248SOL    HW222644   2.845   1.822   5.478
 7249SOL     OW22645   4.086   5.275   2.570
 7249SOL    HW122646   4.145   5.325   2.507
 7249SOL    HW222647   3.999   5.255   2.525
 7250SOL     OW22648   5.759   5.177   5.117
 7250SOL    HW122649   5.748   5.247   5.188
 7250SOL    HW222650   5.807   5.098   5.156
 7251SOL     OW22651   0.477   5.734   5.133
 7251SOL    HW122652   0.484   5.703   5.038
 7251SOL    HW222653   0.409   5.807   5.139
 7252SOL     OW22654   3.631   4.106   2.555
 7252SOL    HW122655   3.644   4.100   2.654
 7252SOL    HW222656   3.712   4.146   2.513
 7253SOL     OW22657   2.558   5.509   4.952
 7253SOL    HW122658   2.602   5.431   4.907
 7253SOL    HW222659   2.491   5.475   5.018
 7254SOL     OW22660   5.790   2.888   4.283
 7254SOL    HW122661   5.706   2.933   4.314
 7254SOL    HW222662   5.869   2.926   4.332
 7255SOL     OW22663   5.100   3.796   6.819
 7255SOL    HW122664   5.006   3.769   6.840
 7255SOL    HW222665   5.101   3.848   6.733
 7256SOL     OW22666   3.118   6.806   4.982
 7256SOL    HW122667   3.061   6.862   4.922
 7256SOL    HW222668   3.079   6.805   5.075
 7257SOL     OW22669   0.921   1.547   4.644
 7257SOL    HW122670   0.931   1.511   4.551
 7257SOL    HW222671   0.881   1.476   4.703
 7258SOL     OW22672   5.655   3.138   2.446
 7258SOL    HW122673   5.587   3.154   2.374
 7258SOL    HW222674   5.728   3.080   2.410
 7259SOL     OW22675   1.526   4.295   2.739
 7259SOL    HW122676   1.480   4.216   2.699
 7259SOL    HW222677   1.622   4.272   2.758
 7260SOL     OW22678   5.491   3.126   0.692
 7260SOL    HW122679   5.573   3.138   0.636
 7260SOL    HW222680   5.470   3.212   0.739
 7261SOL     OW22681   6.454   4.338   0.241
 7261SOL    HW122682   6.513   4.330   0.160
 7261SOL    HW222683   6.361   4.311   0.216
 7262SOL     OW22684   5.852   1.332   4.951
 7262SOL    HW122685   5.802   1.326   5.038
 7262SOL    HW222686   5.946   1.360   4.969
 7263SOL     OW22687   6.693   5.670   6.823
 7263SOL    HW122688   6.779   5.669   6.874
 7263SOL    HW222689   6.696   5.741   6.753
 7264SOL     OW22690   5.905   1.066   1.039
 7264SOL    HW122691   5.940   1.137   1.099
 7264SOL    HW222692   5.982   1.021   0.993
 7265SOL     OW22693   3.818   7.024   5.622
 7265SOL    HW122694   3.894   0.044   5.579
 7265SOL    HW222695   3.854   6.954   5.684
 7266SOL     OW22696   0.357   0.839   3.770
 7266SOL    HW122697   0.372   0.844   3.869
 7266SOL    HW222698   0.324   0.748   3.746
 7267SOL     OW22699   6.453   4.463   4.848
 7267SOL    HW122700   6.509   4.525   4.903
 7267SOL    HW222701   6.455   4.492   4.753
 7268SOL     OW22702   5.967   6.651   4.327
 7268SOL    HW122703   5.912   6.586   4.380
 7268SOL    HW222704   5.908   6.725   4.293
 7269SOL     OW22705   2.585   4.772   4.865
 7269SOL    HW122706   2.649   4.715   4.916
 7269SOL    HW222707   2.630   4.856   4.837
 7270SOL     OW22708   1.014   1.182   4.868
 7270SOL    HW122709   1.092   1.212   4.924
 7270SOL    HW222710   0.984   1.092   4.900
 7271SOL     OW22711   0.858   4.516   2.891
 7271SOL    HW122712   0.761   4.516   2.865
 7271SOL    HW222713   0.903   4.436   2.852
 7272SOL     OW22714   6.449   4.379   1.506
 7272SOL    HW122715   6.470   4.474   1.480
 7272SOL    HW222716   6.351   4.363   1.497
 7273SOL     OW22717   0.822   2.626   5.537
 7273SOL    HW122718   0.733   2.661   5.508
 7273SOL    HW222719   0.812   2.582   5.627
 7274SOL     OW22720   0.649   4.753   6.927
 7274SOL    HW122721   0.603   4.840   6.945
 7274SOL    HW222722   0.597   4.702   6.859
 7275SOL     OW22723   0.378   6.362   3.424
 7275SOL    HW122724   0.343   6.409   3.506
 7275SOL    HW222725   0.400   6.430   3.354
 7276SOL     OW22726   5.417   6.397   4.193
 7276SOL    HW122727   5.496   6.455   4.211
 7276SOL    HW222728   5.391   6.349   4.277
 7277SOL     OW22729   4.636   0.486   6.846
 7277SOL    HW122730   4.573   0.471   6.922
 7277SOL    HW222731   4.680   0.575   6.856
 7278SOL     OW22732   3.688   2.873   2.236
 7278SOL    HW122733   3.748   2.817   2.179
 7278SOL    HW222734   3.593   2.846   2.221
 7279SOL     OW22735   3.320   6.259   6.104
 7279SOL    HW122736   3.233   6.253   6.054
 7279SOL    HW222737   3.380   6.323   6.058
 7280SOL     OW22738   4.963   1.362   5.866
 7280SOL    HW122739   5.029   1.437   5.864
 7280SOL    HW222740   4.874   1.395   5.833
 7281SOL     OW22741   4.958   1.313   6.208
 7281SOL    HW122742   5.037   1.373   6.211
 7281SOL    HW222743   4.967   1.248   6.133
 7282SOL     OW22744   5.707   5.303   2.233
 7282SOL    HW122745   5.795   5.260   2.212
 7282SOL    HW222746   5.689   5.295   2.331
 7283SOL     OW22747   2.078   0.823   3.900
 7283SOL    HW122748   2.091   0.726   3.882
 7283SOL    HW222749   2.027   0.865   3.826
 7284SOL     OW22750   0.347   2.650   5.245
 7284SOL    HW122751   0.407   2.576   5.214
 7284SOL    HW222752   0.292   2.618   5.322
 7285SOL     OW22753   5.419   5.215   2.189
 7285SOL    HW122754   5.437   5.160   2.271
 7285SOL    HW222755   5.468   5.175   2.111
 7286SOL     OW22756   2.356   3.839   1.431
 7286SOL    HW122757   2.273   3.871   1.385
 7286SOL    HW222758   2.412   3.918   1.457
 7287SOL     OW22759   5.928   1.777   6.460
 7287SOL    HW122760   5.948   1.812   6.369
 7287SOL    HW222761   5.921   1.854   6.524
 7288SOL     OW22762   3.387   6.516   6.491
 7288SOL    HW122763   3.386   6.566   6.578
 7288SOL    HW222764   3.396   6.580   6.416
 7289SOL     OW22765   5.151   1.881   3.765
 7289SOL    HW122766   5.193   1.808   3.819
 7289SOL    HW222767   5.174   1.969   3.806
 7290SOL     OW22768   2.771   4.876   4.081
 7290SOL    HW122769   2.842   4.839   4.141
 7290SOL    HW222770   2.811   4.947   4.023
 7291SOL     OW22771   2.852   5.048   2.270
 7291SOL    HW122772   2.908   4.969   2.246
 7291SOL    HW222773   2.820   5.093   2.186
 7292SOL     OW22774   2.866   0.021   4.449
 7292SOL    HW122775   2.965   0.011   4.460
 7292SOL    HW222776   2.834   0.095   4.508
 7293SOL     OW22777   1.512   2.395   6.052
 7293SOL    HW122778   1.478   2.421   5.961
 7293SOL    HW222779   1.435   2.384   6.115
 7294SOL     OW22780   3.801   5.400   0.577
 7294SOL    HW122781   3.784   5.410   0.675
 7294SOL    HW222782   3.870   5.467   0.548
 7295SOL     OW22783   5.614   0.146   1.697
 7295SOL    HW122784   5.518   0.121   1.712
 7295SOL    HW222785   5.668   0.118   1.777
 7296SOL     OW22786   4.204   5.071   1.825
 7296SOL    HW122787   4.287   5.118   1.797
 7296SOL    HW222788   4.188   5.086   1.922
 7297SOL     OW22789   5.172   7.013   1.963
 7297SOL    HW122790   5.205   6.922   1.989
 7297SOL    HW222791   5.112   0.020   2.035
 7298SOL     OW22792   6.186   3.451   3.970
 7298SOL    HW122793   6.195   3.471   3.873
 7298SOL    HW222794   6.129   3.369   3.982
 7299SOL     OW22795   6.134   3.585   6.528
 7299SOL    HW122796   6.163   3.550   6.617
 7299SOL    HW222797   6.175   3.530   6.455
 7300SOL     OW22798   4.586   4.751   1.086
 7300SOL    HW122799   4.611   4.697   1.005
 7300SOL    HW222800   4.561   4.843   1.057
 7301SOL     OW22801   6.907   0.518   6.447
 7301SOL    HW122802   6.855   0.541   6.365
 7301SOL    HW222803   6.964   0.437   6.429
 7302SOL     OW22804   4.939   0.826   6.253
 7302SOL    HW122805   4.873   0.755   6.277
 7302SOL    HW222806   4.992   0.852   6.334
 7303SOL     OW22807   3.537   1.015   0.520
 7303SOL    HW122808   3.491   0.940   0.473
 7303SOL    HW222809   3.567   1.083   0.454
 7304SOL     OW22810   3.485   4.415   5.282
 7304SOL    HW122811   3.575   4.426   5.324
 7304SOL    HW222812   3.484   4.331   5.227
 7305SOL     OW22813   5.449   1.014   0.200
 7305SOL    HW122814   5.528   1.064   0.165
 7305SOL    HW222815   5.380   1.006   0.129
 7306SOL     OW22816   4.708   4.945   1.749
 7306SOL    HW122817   4.709   5.011   1.674
 7306SOL    HW222818   4.707   4.995   1.836
 7307SOL     OW22819   4.007   6.782   2.435
 7307SOL    HW122820   4.028   6.850   2.505
 7307SOL    HW222821   3.992   6.827   2.347
 7308SOL     OW22822   6.396   1.494   4.487
 7308SOL    HW122823   6.322   1.429   4.504
 7308SOL    HW222824   6.383   1.538   4.398
 7309SOL     OW22825   4.707   6.180   1.708
 7309SOL    HW122826   4.792   6.145   1.670
 7309SOL    HW222827   4.631   6.123   1.678
 7310SOL     OW22828   2.402   5.165   1.366
 7310SOL    HW122829   2.494   5.126   1.362
 7310SOL    HW222830   2.335   5.092   1.381
 7311SOL     OW22831   2.672   2.335   2.137
 7311SOL    HW122832   2.767   2.328   2.105
 7311SOL    HW222833   2.672   2.360   2.234
 7312SOL     OW22834   6.937   1.877   6.088
 7312SOL    HW122835   6.985   1.848   6.005
 7312SOL    HW222836   7.000   1.931   6.144
 7313SOL     OW22837   4.263   2.827   6.788
 7313SOL    HW122838   4.224   2.901   6.843
 7313SOL    HW222839   4.361   2.822   6.804
 7314SOL     OW22840   0.212   2.863   4.564
 7314SOL    HW122841   0.202   2.850   4.465
 7314SOL    HW222842   0.292   2.921   4.581
 7315SOL     OW22843   0.013   0.687   5.205
 7315SOL    HW122844   6.979   0.753   5.246
 7315SOL    HW222845   6.999   0.646   5.124
 7316SOL     OW22846   3.526   4.145   5.434
 7316SOL    HW122847   3.435   4.137   5.474
 7316SOL    HW222848   3.519   4.165   5.336
 7317SOL     OW22849   3.183   1.228   3.895
 7317SOL    HW122850   3.200   1.193   3.988
 7317SOL    HW222851   3.138   1.157   3.841
 7318SOL     OW22852   1.650   1.736   1.468
 7318SOL    HW122853   1.705   1.657   1.494
 7318SOL    HW222854   1.601   1.716   1.383
 7319SOL     OW22855   6.639   4.569   6.370
 7319SOL    HW122856   6.612   4.473   6.377
 7319SOL    HW222857   6.566   4.621   6.326
 7320SOL     OW22858   6.748   2.810   1.989
 7320SOL    HW122859   6.805   2.750   2.045
 7320SOL    HW222860   6.779   2.804   1.894
 7321SOL     OW22861   2.966   1.070   4.728
 7321SOL    HW122862   3.056   1.114   4.719
 7321SOL    HW222863   2.896   1.132   4.694
 7322SOL     OW22864   0.383   3.408   2.473
 7322SOL    HW122865   0.326   3.456   2.407
 7322SOL    HW222866   0.349   3.425   2.565
 7323SOL     OW22867   2.020   3.418   3.183
 7323SOL    HW122868   1.929   3.402   3.222
 7323SOL    HW222869   2.060   3.499   3.226
 7324SOL     OW22870   5.369   6.302   3.155
 7324SOL    HW122871   5.449   6.242   3.161
 7324SOL    HW222872   5.363   6.340   3.062
 7325SOL     OW22873   3.045   6.287   7.006
 7325SOL    HW122874   2.969   6.315   0.036
 7325SOL    HW222875   3.131   6.319   0.017
 7326SOL     OW22876   2.631   6.818   5.319
 7326SOL    HW122877   2.577   6.744   5.358
 7326SOL    HW222878   2.607   6.830   5.223
 7327SOL     OW22879   1.685   2.520   5.645
 7327SOL    HW122880   1.664   2.500   5.549
 7327SOL    HW222881   1.765   2.580   5.650
 7328SOL     OW22882   2.672   0.122   0.152
 7328SOL    HW122883   2.583   0.144   0.193
 7328SOL    HW222884   2.743   0.175   0.197
 7329SOL     OW22885   4.383   3.265   1.372
 7329SOL    HW122886   4.328   3.335   1.418
 7329SOL    HW222887   4.349   3.174   1.398
 7330SOL     OW22888   4.137   1.657   0.281
 7330SOL    HW122889   4.202   1.711   0.228
 7330SOL    HW222890   4.071   1.718   0.326
 7331SOL     OW22891   5.379   0.671   1.454
 7331SOL    HW122892   5.409   0.643   1.363
 7331SOL    HW222893   5.454   0.713   1.504
 7332SOL     OW22894   3.737   5.451   1.302
 7332SOL    HW122895   3.771   5.497   1.383
 7332SOL    HW222896   3.749   5.352   1.312
 7333SOL     OW22897   0.960   5.017   2.933
 7333SOL    HW122898   1.041   5.075   2.943
 7333SOL    HW222899   0.884   5.072   2.899
 7334SOL     OW22900   3.946   6.892   4.091
 7334SOL    HW122901   3.996   6.815   4.051
 7334SOL    HW222902   3.999   6.930   4.167
 7335SOL     OW22903   1.858   2.443   2.678
 7335SOL    HW122904   1.835   2.482   2.767
 7335SOL    HW222905   1.809   2.357   2.666
 7336SOL     OW22906   1.983   6.790   3.764
 7336SOL    HW122907   2.080   6.805   3.745
 7336SOL    HW222908   1.945   6.872   3.808
 7337SOL     OW22909   5.871   2.979   2.402
 7337SOL    HW122910   5.878   2.882   2.377
 7337SOL    HW222911   5.931   3.032   2.341
 7338SOL     OW22912   6.299   3.082   0.102
 7338SOL    HW122913   6.361   3.083   0.181
 7338SOL    HW222914   6.206   3.061   0.133
 7339SOL     OW22915   0.771   5.296   4.714
 7339SOL    HW122916   0.818   5.385   4.718
 7339SOL    HW222917   0.679   5.305   4.751
 7340SOL     OW22918   1.928   6.999   6.438
 7340SOL    HW122919   1.927   0.051   6.380
 7340SOL    HW222920   1.863   7.011   6.513
 7341SOL     OW22921   6.531   2.617   0.183
 7341SOL    HW122922   6.555   2.619   0.280
 7341SOL    HW222923   6.598   2.562   0.133
 7342SOL     OW22924   6.685   0.081   2.732
 7342SOL    HW122925   6.697   0.141   2.653
 7342SOL    HW222926   6.751   0.105   2.803
 7343SOL     OW22927   5.150   2.824   0.594
 7343SOL    HW122928   5.093   2.759   0.544
 7343SOL    HW222929   5.120   2.830   0.689
 7344SOL     OW22930   1.119   6.417   5.870
 7344SOL    HW122931   1.075   6.507   5.876
 7344SOL    HW222932   1.193   6.421   5.803
 7345SOL     OW22933   3.084   5.066   6.306
 7345SOL    HW122934   3.118   5.101   6.393
 7345SOL    HW222935   3.093   4.966   6.304
 7346SOL     OW22936   4.659   4.682   2.684
 7346SOL    HW122937   4.656   4.738   2.601
 7346SOL    HW222938   4.736   4.710   2.741
 7347SOL     OW22939   6.148   2.261   6.261
 7347SOL    HW122940   6.059   2.236   6.225
 7347SOL    HW222941   6.163   2.217   6.349
 7348SOL     OW22942   6.969   4.415   1.505
 7348SOL    HW122943   7.027   4.393   1.584
 7348SOL    HW222944   7.014   4.383   1.421
 7349SOL     OW22945   3.722   1.847   2.155
 7349SOL    HW122946   3.673   1.895   2.082
 7349SOL    HW222947   3.820   1.863   2.146
 7350SOL     OW22948   3.665   0.976   4.343
 7350SOL    HW122949   3.679   0.958   4.246
 7350SOL    HW222950   3.632   0.893   4.388
 7351SOL     OW22951   3.024   4.886   3.904
 7351SOL    HW122952   3.108   4.872   3.851
 7351SOL    HW222953   2.948   4.904   3.842
 7352SOL     OW22954   6.500   2.863   3.847
 7352SOL    HW122955   6.455   2.778   3.818
 7352SOL    HW222956   6.598   2.848   3.853
 7353SOL     OW22957   6.269   0.140   6.517
 7353SOL    HW122958   6.173   0.150   6.544
 7353SOL    HW222959   6.314   0.229   6.519
 7354SOL     OW22960   0.189   1.656   3.456
 7354SOL    HW122961   0.098   1.633   3.491
 7354SOL    HW222962   0.179   1.697   3.365
 7355SOL     OW22963   2.641   1.823   0.015
 7355SOL    HW122964   2.596   1.823   0.104
 7355SOL    HW222965   2.678   1.914   7.026
 7356SOL     OW22966   4.278   4.183   5.926
 7356SOL    HW122967   4.288   4.101   5.982
 7356SOL    HW222968   4.183   4.192   5.896
 7357SOL     OW22969   4.930   5.896   2.315
 7357SOL    HW122970   5.008   5.936   2.269
 7357SOL    HW222971   4.891   5.823   2.259
 7358SOL     OW22972   5.537   1.104   2.995
 7358SOL    HW122973   5.551   1.067   2.903
 7358SOL    HW222974   5.580   1.194   3.001
 7359SOL     OW22975   4.971   0.275   1.658
 7359SOL    HW122976   4.905   0.329   1.605
 7359SOL    HW222977   4.925   0.194   1.695
 7360SOL     OW22978   3.177   3.480   5.175
 7360SOL    HW122979   3.134   3.406   5.122
 7360SOL    HW222980   3.270   3.453   5.200
 7361SOL     OW22981   5.933   0.417   3.243
 7361SOL    HW122982   6.014   0.371   3.207
 7361SOL    HW222983   5.892   0.361   3.315
 7362SOL     OW22984   3.248   5.036   6.837
 7362SOL    HW122985   3.305   4.954   6.839
 7362SOL    HW222986   3.297   5.112   6.879
 7363SOL     OW22987   3.794   0.853   0.435
 7363SOL    HW122988   3.801   0.805   0.523
 7363SOL    HW222989   3.765   0.789   0.364
 7364SOL     OW22990   5.631   6.601   1.554
 7364SOL    HW122991   5.702   6.659   1.593
 7364SOL    HW222992   5.636   6.605   1.454
 7365SOL     OW22993   5.252   4.790   2.653
 7365SOL    HW122994   5.328   4.740   2.610
 7365SOL    HW222995   5.288   4.869   2.702
 7366SOL     OW22996   1.645   0.523   4.098
 7366SOL    HW122997   1.708   0.559   4.030
 7366SOL    HW222998   1.696   0.470   4.166
 7367SOL     OW22999   4.258   0.253   7.006
 7367SOL    HW123000   4.192   0.245   6.931
 7367SOL    HW223001   4.210   0.244   0.064
 7368SOL     OW23002   3.784   3.585   3.512
 7368SOL    HW123003   3.808   3.622   3.601
 7368SOL    HW223004   3.690   3.612   3.489
 7369SOL     OW23005   5.307   1.823   0.429
 7369SOL    HW123006   5.384   1.768   0.396
 7369SOL    HW223007   5.261   1.866   0.352
 7370SOL     OW23008   1.713   1.056   4.545
 7370SOL    HW123009   1.658   1.008   4.476
 7370SOL    HW223010   1.675   1.147   4.561
 7371SOL     OW23011   3.949   1.074   3.783
 7371SOL    HW123012   3.934   1.010   3.858
 7371SOL    HW223013   3.872   1.138   3.778
 7372SOL     OW23014   6.013   1.072   5.484
 7372SOL    HW123015   5.942   1.104   5.547
 7372SOL    HW223016   6.102   1.107   5.513
 7373SOL     OW23017   6.058   3.415   4.459
 7373SOL    HW123018   6.104   3.404   4.370
 7373SOL    HW223019   5.963   3.443   4.444
 7374SOL     OW23020   6.495   2.527   5.509
 7374SOL    HW123021   6.444   2.576   5.579
 7374SOL    HW223022   6.476   2.567   5.419
 7375SOL     OW23023   1.340   3.376   2.192
 7375SOL    HW123024   1.379   3.315   2.123
 7375SOL    HW223025   1.369   3.470   2.174
 7376SOL     OW23026   6.561   3.670   0.501
 7376SOL    HW123027   6.626   3.595   0.517
 7376SOL    HW223028   6.611   3.757   0.503
 7377SOL     OW23029   2.326   6.453   1.087
 7377SOL    HW123030   2.324   6.433   0.989
 7377SOL    HW223031   2.379   6.383   1.134
 7378SOL     OW23032   1.349   5.553   4.365
 7378SOL    HW123033   1.291   5.472   4.361
 7378SOL    HW223034   1.318   5.613   4.438
 7379SOL     OW23035   3.966   1.234   1.632
 7379SOL    HW123036   4.048   1.258   1.684
 7379SOL    HW223037   3.963   1.135   1.619
 7380SOL     OW23038   5.147   4.220   1.736
 7380SOL    HW123039   5.078   4.164   1.692
 7380SOL    HW223040   5.104   4.279   1.803
 7381SOL     OW23041   3.561   0.262   1.348
 7381SOL    HW123042   3.520   0.206   1.420
 7381SOL    HW223043   3.652   0.292   1.377
 7382SOL     OW23044   6.218   1.071   6.207
 7382SOL    HW123045   6.174   1.067   6.297
 7382SOL    HW223046   6.304   1.123   6.215
 7383SOL     OW23047   2.027   0.496   1.064
 7383SOL    HW123048   2.103   0.433   1.079
 7383SOL    HW223049   2.049   0.556   0.987
 7384SOL     OW23050   6.915   6.548   1.057
 7384SOL    HW123051   6.881   6.548   1.151
 7384SOL    HW223052   6.966   6.463   1.041
 7385SOL     OW23053   6.272   4.447   2.934
 7385SOL    HW123054   6.219   4.363   2.931
 7385SOL    HW223055   6.362   4.431   2.895
 7386SOL     OW23056   5.208   3.285   6.878
 7386SOL    HW123057   5.238   3.368   6.926
 7386SOL    HW223058   5.224   3.205   6.937
 7387SOL     OW23059   6.540   5.875   5.073
 7387SOL    HW123060   6.512   5.854   5.167
 7387SOL    HW223061   6.479   5.830   5.009
 7388SOL     OW23062   2.070   4.809   3.255
 7388SOL    HW123063   2.101   4.815   3.350
 7388SOL    HW223064   2.115   4.879   3.200
 7389SOL     OW23065   6.098   2.820   0.066
 7389SOL    HW123066   6.193   2.788   0.056
 7389SOL    HW223067   6.089   2.870   0.152
 7390SOL     OW23068   2.226   2.498   3.451
 7390SOL    HW123069   2.222   2.591   3.487
 7390SOL    HW223070   2.234   2.433   3.527
 7391SOL     OW23071   3.312   3.514   3.184
 7391SOL    HW123072   3.229   3.476   3.143
 7391SOL    HW223073   3.367   3.559   3.113
 7392SOL     OW23074   3.514   6.823   6.563
 7392SOL    HW123075   3.501   6.883   6.642
 7392SOL    HW223076   3.461   6.857   6.485
 7393SOL     OW23077   5.535   4.999   4.088
 7393SOL    HW123078   5.446   4.980   4.130
 7393SOL    HW223079   5.529   5.082   4.033
 7394SOL     OW23080   2.721   2.025   5.791
 7394SOL    HW123081   2.806   2.062   5.829
 7394SOL    HW223082   2.652   2.019   5.864
 7395SOL     OW23083   2.638   6.306   1.139
 7395SOL    HW123084   2.630   6.405   1.138
 7395SOL    HW223085   2.598   6.270   1.223
 7396SOL     OW23086   2.133   5.030   2.343
 7396SOL    HW123087   2.190   4.948   2.348
 7396SOL    HW223088   2.185   5.105   2.303
 7397SOL     OW23089   6.045   4.112   3.789
 7397SOL    HW123090   6.046   4.041   3.719
 7397SOL    HW223091   6.015   4.198   3.748
 7398SOL     OW23092   2.803   4.846   2.463
 7398SOL    HW123093   2.868   4.871   2.534
 7398SOL    HW223094   2.829   4.891   2.377
 7399SOL     OW23095   5.180   1.931   6.171
 7399SOL    HW123096   5.098   1.987   6.161
 7399SOL    HW223097   5.192   1.876   6.089
 7400SOL     OW23098   5.323   3.367   5.746
 7400SOL    HW123099   5.376   3.452   5.755
 7400SOL    HW223100   5.232   3.380   5.783
 7401SOL     OW23101   1.548   2.467   4.169
 7401SOL    HW123102   1.496   2.525   4.105
 7401SOL    HW223103   1.643   2.460   4.139
 7402SOL     OW23104   3.902   5.828   4.386
 7402SOL    HW123105   3.851   5.897   4.336
 7402SOL    HW223106   3.978   5.795   4.330
 7403SOL     OW23107   1.680   3.928   4.423
 7403SOL    HW123108   1.667   3.894   4.329
 7403SOL    HW223109   1.777   3.937   4.442
 7404SOL     OW23110   3.481   3.596   0.948
 7404SOL    HW123111   3.426   3.534   1.004
 7404SOL    HW223112   3.423   3.670   0.913
 7405SOL     OW23113   3.923   6.675   3.715
 7405SOL    HW123114   3.991   6.602   3.704
 7405SOL    HW223115   3.874   6.689   3.629
 7406SOL     OW23116   1.047   1.823   5.035
 7406SOL    HW123117   0.981   1.774   4.979
 7406SOL    HW223118   1.107   1.878   4.976
 7407SOL     OW23119   0.913   5.808   5.293
 7407SOL    HW123120   0.940   5.896   5.331
 7407SOL    HW223121   0.905   5.741   5.367
 7408SOL     OW23122   4.328   5.373   5.410
 7408SOL    HW123123   4.261   5.445   5.425
 7408SOL    HW223124   4.312   5.298   5.475
 7409SOL     OW23125   6.716   3.855   1.219
 7409SOL    HW123126   6.788   3.816   1.163
 7409SOL    HW223127   6.666   3.782   1.266
 7410SOL     OW23128   0.220   0.821   1.118
 7410SOL    HW123129   0.213   0.885   1.042
 7410SOL    HW223130   0.298   0.759   1.102
 7411SOL     OW23131   2.692   2.099   5.069
 7411SOL    HW123132   2.676   2.064   4.976
 7411SOL    HW223133   2.730   2.026   5.125
 7412SOL     OW23134   3.818   6.704   0.008
 7412SOL    HW123135   3.790   6.798   0.026
 7412SOL    HW223136   3.764   6.642   0.066
 7413SOL     OW23137   4.701   0.615   2.883
 7413SOL    HW123138   4.674   0.622   2.787
 7413SOL    HW223139   4.729   0.705   2.916
 7414SOL     OW23140   2.728   1.352   3.944
 7414SOL    HW123141   2.687   1.326   3.856
 7414SOL    HW223142   2.825   1.328   3.943
 7415SOL     OW23143   4.262   6.692   6.148
 7415SOL    HW123144   4.170   6.709   6.183
 7415SOL    HW223145   4.321   6.770   6.171
 7416SOL     OW23146   1.623   0.733   1.966
 7416SOL    HW123147   1.660   0.821   1.938
 7416SOL    HW223148   1.594   0.682   1.885
 7417SOL     OW23149   0.653   1.115   2.835
 7417SOL    HW123150   0.615   1.119   2.743
 7417SOL    HW223151   0.579   1.104   2.901
 7418SOL     OW23152   1.815   4.308   5.886
 7418SOL    HW123153   1.826   4.348   5.795
 7418SOL    HW223154   1.754   4.229   5.881
 7419SOL     OW23155   6.866   3.854   4.032
 7419SOL    HW123156   6.878   3.894   4.122
 7419SOL    HW223157   6.770   3.855   4.007
 7420SOL     OW23158   0.481   6.775   1.614
 7420SOL    HW123159   0.480   6.874   1.628
 7420SOL    HW223160   0.423   6.752   1.536
 7421SOL     OW23161   5.790   3.857   1.182
 7421SOL    HW123162   5.844   3.780   1.216
 7421SOL    HW223163   5.699   3.825   1.157
 7422SOL     OW23164   5.647   2.688   2.369
 7422SOL    HW123165   5.740   2.724   2.365
 7422SOL    HW223166   5.595   2.738   2.438
 7423SOL     OW23167   4.716   2.189   5.708
 7423SOL    HW123168   4.814   2.178   5.721
 7423SOL    HW223169   4.670   2.191   5.797
 7424SOL     OW23170   6.945   2.498   3.490
 7424SOL    HW123171   6.916   2.504   3.585
 7424SOL    HW223172   6.927   2.406   3.456
 7425SOL     OW23173   5.688   0.885   1.008
 7425SOL    HW123174   5.656   0.935   0.927
 7425SOL    HW223175   5.781   0.914   1.031
 7426SOL     OW23176   3.692   3.026   5.773
 7426SOL    HW123177   3.647   3.106   5.734
 7426SOL    HW223178   3.680   3.026   5.872
 7427SOL     OW23179   3.307   0.674   3.404
 7427SOL    HW123180   3.356   0.752   3.444
 7427SOL    HW223181   3.359   0.590   3.420
 7428SOL     OW23182   4.149   6.380   4.906
 7428SOL    HW123183   4.200   6.376   4.992
 7428SOL    HW223184   4.142   6.288   4.867
 7429SOL     OW23185   0.801   0.014   2.787
 7429SOL    HW123186   0.754   0.088   2.738
 7429SOL    HW223187   0.775   0.016   2.883
 7430SOL     OW23188   6.738   5.563   2.919
 7430SOL    HW123189   6.736   5.562   2.819
 7430SOL    HW223190   6.825   5.525   2.950
 7431SOL     OW23191   1.177   1.381   3.322
 7431SOL    HW123192   1.080   1.360   3.337
 7431SOL    HW223193   1.213   1.427   3.403
 7432SOL     OW23194   2.507   1.148   3.137
 7432SOL    HW123195   2.527   1.138   3.234
 7432SOL    HW223196   2.451   1.071   3.106
 7433SOL     OW23197   2.893   6.704   6.838
 7433SOL    HW123198   2.793   6.694   6.838
 7433SOL    HW223199   2.936   6.616   6.817
 7434SOL     OW23200   3.756   6.740   3.940
 7434SOL    HW123201   3.813   6.693   3.872
 7434SOL    HW223202   3.815   6.794   4.000
 7435SOL     OW23203   5.028   4.164   2.641
 7435SOL    HW123204   4.934   4.147   2.609
 7435SOL    HW223205   5.034   4.141   2.738
 7436SOL     OW23206   5.466   3.012   5.905
 7436SOL    HW123207   5.496   2.923   5.938
 7436SOL    HW223208   5.372   3.005   5.871
 7437SOL     OW23209   3.132   0.190   1.053
 7437SOL    HW123210   3.086   0.124   1.112
 7437SOL    HW223211   3.069   0.265   1.033
 7438SOL     OW23212   2.011   0.322   0.202
 7438SOL    HW123213   2.019   0.400   0.265
 7438SOL    HW223214   2.102   0.297   0.169
 7439SOL     OW23215   1.238   4.616   6.623
 7439SOL    HW123216   1.264   4.691   6.562
 7439SOL    HW223217   1.211   4.653   6.712
 7440SOL     OW23218   5.432   3.874   3.688
 7440SOL    HW123219   5.509   3.928   3.720
 7440SOL    HW223220   5.382   3.836   3.766
 7441SOL     OW23221   5.579   5.803   0.602
 7441SOL    HW123222   5.546   5.874   0.666
 7441SOL    HW223223   5.553   5.713   0.637
 7442SOL     OW23224   5.423   0.742   6.182
 7442SOL    HW123225   5.382   0.717   6.094
 7442SOL    HW223226   5.395   0.675   6.251
 7443SOL     OW23227   0.310   1.249   2.156
 7443SOL    HW123228   0.316   1.273   2.253
 7443SOL    HW223229   0.246   1.173   2.145
 7444SOL     OW23230   1.699   6.750   0.056
 7444SOL    HW123231   1.652   6.701   0.129
 7444SOL    HW223232   1.711   6.689   7.006
 7445SOL     OW23233   3.873   5.961   1.648
 7445SOL    HW123234   3.858   5.862   1.646
 7445SOL    HW223235   3.785   6.008   1.651
 7446SOL     OW23236   5.253   4.681   6.790
 7446SOL    HW123237   5.250   4.633   6.878
 7446SOL    HW223238   5.302   4.626   6.723
 7447SOL     OW23239   0.209   4.521   0.435
 7447SOL    HW123240   0.266   4.563   0.506
 7447SOL    HW223241   0.228   4.423   0.432
 7448SOL     OW23242   4.693   6.099   6.613
 7448SOL    HW123243   4.657   6.046   6.690
 7448SOL    HW223244   4.658   6.193   6.617
 7449SOL     OW23245   6.842   4.612   5.717
 7449SOL    HW123246   6.915   4.557   5.759
 7449SOL    HW223247   6.768   4.625   5.783
 7450SOL     OW23248   5.629   2.247   5.545
 7450SOL    HW123249   5.622   2.318   5.615
 7450SOL    HW223250   5.721   2.245   5.507
 7451SOL     OW23251   4.614   4.419   3.436
 7451SOL    HW123252   4.709   4.393   3.425
 7451SOL    HW223253   4.573   4.435   3.347
 7452SOL     OW23254   6.620   5.627   5.888
 7452SOL    HW123255   6.550   5.624   5.960
 7452SOL    HW223256   6.591   5.571   5.811
 7453SOL     OW23257   3.953   5.628   6.114
 7453SOL    HW123258   3.981   5.631   6.018
 7453SOL    HW223259   3.966   5.718   6.155
 7454SOL     OW23260   3.917   2.312   0.925
 7454SOL    HW123261   3.905   2.324   0.827
 7454SOL    HW223262   3.991   2.370   0.958
 7455SOL     OW23263   6.578   1.752   3.162
 7455SOL    HW123264   6.500   1.813   3.152
 7455SOL    HW223265   6.663   1.804   3.153
 7456SOL     OW23266   2.616   2.102   6.767
 7456SOL    HW123267   2.620   2.021   6.709
 7456SOL    HW223268   2.525   2.144   6.761
 7457SOL     OW23269   1.507   1.136   2.188
 7457SOL    HW123270   1.590   1.115   2.240
 7457SOL    HW223271   1.514   1.096   2.097
 7458SOL     OW23272   1.496   5.451   5.482
 7458SOL    HW123273   1.437   5.413   5.411
 7458SOL    HW223274   1.505   5.550   5.468
 7459SOL     OW23275   5.858   0.384   2.545
 7459SOL    HW123276   5.855   0.290   2.512
 7459SOL    HW223277   5.912   0.440   2.481
 7460SOL     OW23278   1.810   6.626   1.449
 7460SOL    HW123279   1.734   6.675   1.491
 7460SOL    HW223280   1.804   6.529   1.473
 7461SOL     OW23281   2.504   4.390   5.508
 7461SOL    HW123282   2.572   4.387   5.582
 7461SOL    HW223283   2.452   4.475   5.514
 7462SOL     OW23284   1.496   3.904   0.795
 7462SOL    HW123285   1.514   3.908   0.697
 7462SOL    HW223286   1.497   3.996   0.833
 7463SOL     OW23287   4.211   4.956   0.901
 7463SOL    HW123288   4.139   4.897   0.866
 7463SOL    HW223289   4.175   5.015   0.973
 7464SOL     OW23290   5.942   6.610   5.555
 7464SOL    HW123291   5.856   6.573   5.519
 7464SOL    HW223292   5.964   6.563   5.641
 7465SOL     OW23293   1.901   4.899   7.021
 7465SOL    HW123294   1.816   4.846   7.015
 7465SOL    HW223295   1.880   4.996   7.027
 7466SOL     OW23296   0.480   0.312   5.191
 7466SOL    HW123297   0.508   0.257   5.113
 7466SOL    HW223298   0.409   0.263   5.243
 7467SOL     OW23299   1.127   3.642   4.919
 7467SOL    HW123300   1.128   3.728   4.867
 7467SOL    HW223301   1.194   3.647   4.993
 7468SOL     OW23302   5.911   3.133   5.611
 7468SOL    HW123303   5.954   3.129   5.702
 7468SOL    HW223304   5.812   3.124   5.621
 7469SOL     OW23305   0.517   1.789   0.501
 7469SOL    HW123306   0.579   1.865   0.482
 7469SOL    HW223307   0.558   1.730   0.571
 7470SOL     OW23308   5.726   2.457   3.439
 7470SOL    HW123309   5.742   2.366   3.476
 7470SOL    HW223310   5.804   2.483   3.381
 7471SOL     OW23311   4.020   6.585   6.469
 7471SOL    HW123312   3.970   6.644   6.406
 7471SOL    HW223313   3.972   6.581   6.556
 7472SOL     OW23314   6.745   6.941   6.163
 7472SOL    HW123315   6.672   6.997   6.202
 7472SOL    HW223316   6.754   6.857   6.216
 7473SOL     OW23317   3.473   5.690   3.789
 7473SOL    HW123318   3.474   5.645   3.879
 7473SOL    HW223319   3.566   5.711   3.761
 7474SOL     OW23320   5.971   2.121   6.847
 7474SOL    HW123321   6.063   2.161   6.843
 7474SOL    HW223322   5.927   2.148   6.933
 7475SOL     OW23323   4.903   2.032   0.971
 7475SOL    HW123324   4.839   1.996   0.903
 7475SOL    HW223325   4.969   2.093   0.926
 7476SOL     OW23326   2.339   0.459   3.482
 7476SOL    HW123327   2.260   0.426   3.430
 7476SOL    HW223328   2.307   0.516   3.558
 7477SOL     OW23329   1.575   3.021   5.600
 7477SOL    HW123330   1.583   2.928   5.637
 7477SOL    HW223331   1.492   3.028   5.545
 7478SOL     OW23332   0.348   1.348   5.708
 7478SOL    HW123333   0.447   1.364   5.707
 7478SOL    HW223334   0.310   1.371   5.619
 7479SOL     OW23335   5.159   2.602   0.926
 7479SOL    HW123336   5.075   2.567   0.967
 7479SOL    HW223337   5.230   2.610   0.997
 7480SOL     OW23338   3.465   4.934   2.414
 7480SOL    HW123339   3.464   5.026   2.453
 7480SOL    HW223340   3.500   4.937   2.321
 7481SOL     OW23341   0.272   3.860   6.915
 7481SOL    HW123342   0.309   3.943   6.873
 7481SOL    HW223343   0.216   3.810   6.849
 7482SOL     OW23344   5.344   2.097   2.979
 7482SOL    HW123345   5.269   2.031   2.971
 7482SOL    HW223346   5.359   2.120   3.075
 7483SOL     OW23347   4.420   1.928   5.724
 7483SOL    HW123348   4.351   1.883   5.667
 7483SOL    HW223349   4.382   2.013   5.760
 7484SOL     OW23350   3.194   0.137   3.606
 7484SOL    HW123351   3.147   0.136   3.694
 7484SOL    HW223352   3.134   0.177   3.537
 7485SOL     OW23353   3.714   6.539   6.151
 7485SOL    HW123354   3.780   6.607   6.184
 7485SOL    HW223355   3.727   6.453   6.201
 7486SOL     OW23356   2.730   6.720   0.690
 7486SOL    HW123357   2.633   6.703   0.674
 7486SOL    HW223358   2.744   6.744   0.786
 7487SOL     OW23359   3.587   6.491   4.491
 7487SOL    HW123360   3.679   6.451   4.485
 7487SOL    HW223361   3.518   6.420   4.476
 7488SOL     OW23362   0.965   5.687   3.898
 7488SOL    HW123363   0.970   5.761   3.965
 7488SOL    HW223364   1.002   5.718   3.810
 7489SOL     OW23365   5.193   3.414   6.385
 7489SOL    HW123366   5.161   3.356   6.460
 7489SOL    HW223367   5.270   3.369   6.339
 7490SOL     OW23368   1.359   2.636   2.564
 7490SOL    HW123369   1.431   2.610   2.628
 7490SOL    HW223370   1.340   2.560   2.503
 7491SOL     OW23371   4.198   4.017   7.002
 7491SOL    HW123372   4.145   3.932   7.007
 7491SOL    HW223373   4.293   3.995   6.981
 7492SOL     OW23374   1.254   0.506   4.360
 7492SOL    HW123375   1.203   0.429   4.321
 7492SOL    HW223376   1.347   0.476   4.380
 7493SOL     OW23377   6.223   4.205   4.921
 7493SOL    HW123378   6.281   4.134   4.962
 7493SOL    HW223379   6.271   4.293   4.926
 7494SOL     OW23380   6.478   1.506   1.827
 7494SOL    HW123381   6.386   1.484   1.793
 7494SOL    HW223382   6.505   1.437   1.895
 7495SOL     OW23383   1.416   2.971   4.786
 7495SOL    HW123384   1.489   3.025   4.827
 7495SOL    HW223385   1.332   3.026   4.784
 7496SOL     OW23386   5.897   3.994   2.576
 7496SOL    HW123387   5.944   4.045   2.648
 7496SOL    HW223388   5.834   3.928   2.617
 7497SOL     OW23389   6.364   6.495   1.607
 7497SOL    HW123390   6.354   6.477   1.705
 7497SOL    HW223391   6.458   6.522   1.588
 7498SOL     OW23392   2.801   6.266   3.134
 7498SOL    HW123393   2.815   6.273   3.233
 7498SOL    HW223394   2.840   6.347   3.089
 7499SOL     OW23395   2.569   1.581   3.870
 7499SOL    HW123396   2.477   1.588   3.907
 7499SOL    HW223397   2.619   1.509   3.918
 7500SOL     OW23398   4.282   1.235   3.274
 7500SOL    HW123399   4.292   1.262   3.370
 7500SOL    HW223400   4.369   1.199   3.240
 7501SOL     OW23401   6.701   2.469   5.706
 7501SOL    HW123402   6.645   2.486   5.625
 7501SOL    HW223403   6.778   2.410   5.683
 7502SOL     OW23404   4.718   0.820   4.285
 7502SOL    HW123405   4.739   0.723   4.287
 7502SOL    HW223406   4.788   0.868   4.232
 7503SOL     OW23407   1.714   5.597   1.966
 7503SOL    HW123408   1.755   5.652   2.038
 7503SOL    HW223409   1.620   5.574   1.991
 7504SOL     OW23410   5.966   6.089   4.911
 7504SOL    HW123411   5.981   6.187   4.907
 7504SOL    HW223412   6.004   6.046   4.829
 7505SOL     OW23413   6.999   6.570   4.594
 7505SOL    HW123414   7.027   6.666   4.582
 7505SOL    HW223415   7.023   6.518   4.512
 7506SOL     OW23416   3.527   1.785   3.650
 7506SOL    HW123417   3.607   1.813   3.701
 7506SOL    HW223418   3.477   1.866   3.618
 7507SOL     OW23419   5.764   4.288   5.662
 7507SOL    HW123420   5.702   4.300   5.584
 7507SOL    HW223421   5.856   4.313   5.634
 7508SOL     OW23422   2.474   5.780   0.431
 7508SOL    HW123423   2.506   5.714   0.362
 7508SOL    HW223424   2.436   5.731   0.509
 7509SOL     OW23425   6.049   4.915   2.363
 7509SOL    HW123426   6.086   4.932   2.272
 7509SOL    HW223427   6.113   4.859   2.415
 7510SOL     OW23428   3.094   3.971   2.627
 7510SOL    HW123429   3.107   4.018   2.540
 7510SOL    HW223430   3.168   3.996   2.690
 7511SOL     OW23431   5.067   6.750   4.198
 7511SOL    HW123432   4.969   6.769   4.204
 7511SOL    HW223433   5.082   6.670   4.140
 7512SOL     OW23434   3.636   1.013   0.786
 7512SOL    HW123435   3.686   0.927   0.777
 7512SOL    HW223436   3.595   1.036   0.698
 7513SOL     OW23437   1.399   1.905   2.033
 7513SOL    HW123438   1.443   1.848   2.102
 7513SOL    HW223439   1.459   1.981   2.010
 7514SOL     OW23440   1.247   6.251   1.736
 7514SOL    HW123441   1.200   6.277   1.820
 7514SOL    HW223442   1.250   6.329   1.674
 7515SOL     OW23443   0.418   4.563   5.192
 7515SOL    HW123444   0.322   4.592   5.195
 7515SOL    HW223445   0.454   4.575   5.100
 7516SOL     OW23446   1.608   6.755   5.415
 7516SOL    HW123447   1.618   6.675   5.474
 7516SOL    HW223448   1.695   6.776   5.372
 7517SOL     OW23449   1.160   1.532   5.881
 7517SOL    HW123450   1.180   1.572   5.791
 7517SOL    HW223451   1.101   1.593   5.933
 7518SOL     OW23452   5.018   1.979   4.356
 7518SOL    HW123453   4.924   2.012   4.349
 7518SOL    HW223454   5.046   1.939   4.269
 7519SOL     OW23455   3.893   6.375   3.851
 7519SOL    HW123456   3.868   6.425   3.935
 7519SOL    HW223457   3.958   6.303   3.874
 7520SOL     OW23458   1.577   1.951   0.491
 7520SOL    HW123459   1.571   1.922   0.396
 7520SOL    HW223460   1.666   1.993   0.508
 7521SOL     OW23461   3.993   1.048   4.531
 7521SOL    HW123462   4.054   1.013   4.602
 7521SOL    HW223463   3.933   1.117   4.571
 7522SOL     OW23464   2.187   0.036   3.811
 7522SOL    HW123465   2.140   0.120   3.783
 7522SOL    HW223466   2.193   0.033   3.911
 7523SOL     OW23467   5.516   1.035   0.815
 7523SOL    HW123468   5.544   0.961   0.754
 7523SOL    HW223469   5.419   1.026   0.837
 7524SOL     OW23470   0.719   3.472   4.427
 7524SOL    HW123471   0.814   3.451   4.450
 7524SOL    HW223472   0.709   3.476   4.327
 7525SOL     OW23473   3.590   5.017   5.998
 7525SOL    HW123474   3.658   4.946   5.984
 7525SOL    HW223475   3.545   5.004   6.086
 7526SOL     OW23476   2.626   3.824   1.330
 7526SOL    HW123477   2.638   3.837   1.232
 7526SOL    HW223478   2.537   3.784   1.348
 7527SOL     OW23479   3.858   5.193   3.408
 7527SOL    HW123480   3.922   5.256   3.364
 7527SOL    HW223481   3.898   5.102   3.413
 7528SOL     OW23482   6.587   2.831   6.083
 7528SOL    HW123483   6.602   2.919   6.129
 7528SOL    HW223484   6.656   2.818   6.012
 7529SOL     OW23485   6.266   3.525   3.706
 7529SOL    HW123486   6.291   3.446   3.650
 7529SOL    HW223487   6.313   3.606   3.672
 7530SOL     OW23488   0.730   2.178   1.962
 7530SOL    HW123489   0.634   2.191   1.935
 7530SOL    HW223490   0.775   2.267   1.966
 7531SOL     OW23491   3.873   2.055   3.883
 7531SOL    HW123492   3.848   1.958   3.883
 7531SOL    HW223493   3.847   2.097   3.969
 7532SOL     OW23494   4.716   5.727   6.137
 7532SOL    HW123495   4.670   5.698   6.221
 7532SOL    HW223496   4.698   5.824   6.121
 7533SOL     OW23497   4.410   4.371   1.655
 7533SOL    HW123498   4.313   4.375   1.634
 7533SOL    HW223499   4.425   4.310   1.733
 7534SOL     OW23500   4.371   6.913   5.184
 7534SOL    HW123501   4.408   6.828   5.146
 7534SOL    HW223502   4.423   6.939   5.265
 7535SOL     OW23503   0.735   6.593   3.555
 7535SOL    HW123504   0.740   6.673   3.615
 7535SOL    HW223505   0.672   6.611   3.480
 7536SOL     OW23506   5.959   6.263   4.100
 7536SOL    HW123507   5.967   6.166   4.078
 7536SOL    HW223508   5.950   6.275   4.199
 7537SOL     OW23509   1.976   6.416   3.110
 7537SOL    HW123510   1.992   6.514   3.111
 7537SOL    HW223511   1.937   6.389   3.022
 7538SOL     OW23512   1.148   3.971   0.735
 7538SOL    HW123513   1.210   3.942   0.808
 7538SOL    HW223514   1.201   3.995   0.654
 7539SOL     OW23515   6.785   0.233   4.577
 7539SOL    HW123516   6.737   0.155   4.539
 7539SOL    HW223517   6.861   0.202   4.634
 7540SOL     OW23518   5.641   4.953   2.889
 7540SOL    HW123519   5.690   4.997   2.965
 7540SOL    HW223520   5.592   4.873   2.923
 7541SOL     OW23521   2.716   4.209   5.408
 7541SOL    HW123522   2.627   4.233   5.448
 7541SOL    HW223523   2.763   4.292   5.378
 7542SOL     OW23524   6.082   5.507   4.575
 7542SOL    HW123525   6.046   5.597   4.550
 7542SOL    HW223526   6.182   5.509   4.576
 7543SOL     OW23527   2.882   0.968   0.102
 7543SOL    HW123528   2.896   1.027   0.023
 7543SOL    HW223529   2.798   0.916   0.091
 7544SOL     OW23530   6.525   1.699   4.608
 7544SOL    HW123531   6.613   1.721   4.567
 7544SOL    HW223532   6.481   1.626   4.556
 7545SOL     OW23533   1.780   5.857   5.828
 7545SOL    HW123534   1.855   5.849   5.762
 7545SOL    HW223535   1.793   5.790   5.900
 7546SOL     OW23536   2.419   2.655   2.007
 7546SOL    HW123537   2.442   2.639   2.103
 7546SOL    HW223538   2.477   2.597   1.949
 7547SOL     OW23539   4.090   0.320   1.619
 7547SOL    HW123540   4.065   0.268   1.537
 7547SOL    HW223541   4.062   0.268   1.700
 7548SOL     OW23542   3.471   2.993   6.338
 7548SOL    HW123543   3.565   2.978   6.309
 7548SOL    HW223544   3.414   2.917   6.308
 7549SOL     OW23545   5.432   1.082   4.356
 7549SOL    HW123546   5.493   1.124   4.289
 7549SOL    HW223547   5.399   0.994   4.322
 7550SOL     OW23548   2.701   5.333   4.796
 7550SOL    HW123549   2.668   5.242   4.822
 7550SOL    HW223550   2.801   5.335   4.797
 7551SOL     OW23551   6.457   2.434   6.172
 7551SOL    HW123552   6.455   2.447   6.073
 7551SOL    HW223553   6.527   2.494   6.212
 7552SOL     OW23554   2.318   0.120   5.051
 7552SOL    HW123555   2.364   0.098   4.965
 7552SOL    HW223556   2.342   0.213   5.080
 7553SOL     OW23557   5.476   6.545   5.602
 7553SOL    HW123558   5.377   6.544   5.617
 7553SOL    HW223559   5.518   6.617   5.657
 7554SOL     OW23560   4.583   1.366   0.734
 7554SOL    HW123561   4.615   1.368   0.639
 7554SOL    HW223562   4.506   1.428   0.745
 7555SOL     OW23563   4.447   5.093   4.179
 7555SOL    HW123564   4.406   5.054   4.096
 7555SOL    HW223565   4.496   5.177   4.156
 7556SOL     OW23566   0.728   6.609   1.588
 7556SOL    HW123567   0.704   6.559   1.505
 7556SOL    HW223568   0.653   6.669   1.614
 7557SOL     OW23569   4.826   6.903   1.403
 7557SOL    HW123570   4.908   6.884   1.350
 7557SOL    HW223571   4.758   6.947   1.344
 7558SOL     OW23572   0.631   1.612   3.800
 7558SOL    HW123573   0.619   1.695   3.854
 7558SOL    HW223574   0.577   1.538   3.841
 7559SOL     OW23575   2.814   1.813   4.894
 7559SOL    HW123576   2.905   1.853   4.900
 7559SOL    HW223577   2.749   1.882   4.863
 7560SOL     OW23578   1.238   1.113   5.944
 7560SOL    HW123579   1.152   1.137   5.899
 7560SOL    HW223580   1.297   1.194   5.949
 7561SOL     OW23581   6.053   1.672   5.621
 7561SOL    HW123582   6.112   1.622   5.558
 7561SOL    HW223583   6.001   1.607   5.676
 7562SOL     OW23584   1.920   5.427   3.415
 7562SOL    HW123585   1.949   5.365   3.342
 7562SOL    HW223586   1.880   5.509   3.375
 7563SOL     OW23587   3.892   6.095   2.027
 7563SOL    HW123588   3.833   6.029   1.981
 7563SOL    HW223589   3.898   6.073   2.124
 7564SOL     OW23590   3.935   1.758   5.382
 7564SOL    HW123591   3.914   1.721   5.292
 7564SOL    HW223592   3.876   1.715   5.450
 7565SOL     OW23593   6.677   3.522   5.877
 7565SOL    HW123594   6.672   3.620   5.857
 7565SOL    HW223595   6.768   3.488   5.854
 7566SOL     OW23596   4.467   4.716   1.465
 7566SOL    HW123597   4.502   4.678   1.551
 7566SOL    HW223598   4.414   4.647   1.417
 7567SOL     OW23599   0.870   7.007   4.179
 7567SOL    HW123600   0.951   6.970   4.133
 7567SOL    HW223601   0.834   6.939   4.242
 7568SOL     OW23602   6.127   5.498   1.562
 7568SOL    HW123603   6.224   5.476   1.576
 7568SOL    HW223604   6.119   5.570   1.493
 7569SOL     OW23605   4.936   3.714   0.207
 7569SOL    HW123606   4.954   3.624   0.167
 7569SOL    HW223607   4.837   3.728   0.213
 7570SOL     OW23608   0.761   3.316   2.310
 7570SOL    HW123609   0.743   3.370   2.392
 7570SOL    HW223610   0.705   3.233   2.312
 7571SOL     OW23611   4.583   2.209   2.200
 7571SOL    HW123612   4.597   2.200   2.102
 7571SOL    HW223613   4.537   2.296   2.219
 7572SOL     OW23614   4.441   0.017   3.720
 7572SOL    HW123615   4.431   0.116   3.732
 7572SOL    HW223616   4.539   7.022   3.719
 7573SOL     OW23617   4.426   6.729   5.936
 7573SOL    HW123618   4.482   6.780   6.001
 7573SOL    HW223619   4.340   6.704   5.980
 7574SOL     OW23620   0.711   2.237   3.827
 7574SOL    HW123621   0.773   2.221   3.904
 7574SOL    HW223622   0.717   2.333   3.799
 7575SOL     OW23623   0.174   6.457   2.716
 7575SOL    HW123624   0.134   6.548   2.728
 7575SOL    HW223625   0.251   6.462   2.652
 7576SOL     OW23626   5.149   2.829   0.018
 7576SOL    HW123627   5.050   2.816   0.018
 7576SOL    HW223628   5.191   2.771   6.978
 7577SOL     OW23629   1.072   0.570   0.412
 7577SOL    HW123630   1.108   0.551   0.320
 7577SOL    HW223631   0.984   0.524   0.424
 7578SOL     OW23632   6.513   5.854   3.375
 7578SOL    HW123633   6.438   5.918   3.363
 7578SOL    HW223634   6.488   5.765   3.335
 7579SOL     OW23635   0.734   1.604   6.525
 7579SOL    HW123636   0.656   1.665   6.515
 7579SOL    HW223637   0.819   1.657   6.517
 7580SOL     OW23638   1.934   4.903   3.910
 7580SOL    HW123639   1.901   4.953   3.831
 7580SOL    HW223640   1.909   4.806   3.901
 7581SOL     OW23641   6.937   0.876   2.182
 7581SOL    HW123642   6.976   0.930   2.257
 7581SOL    HW223643   7.004   0.808   2.152
 7582SOL     OW23644   2.374   1.750   6.837
 7582SOL    HW123645   2.399   1.667   6.787
 7582SOL    HW223646   2.280   1.774   6.816
 7583SOL     OW23647   5.102   3.125   3.067
 7583SOL    HW123648   5.132   3.161   3.155
 7583SOL    HW223649   5.181   3.088   3.018
 7584SOL     OW23650   0.545   0.964   3.283
 7584SOL    HW123651   0.619   0.898   3.268
 7584SOL    HW223652   0.580   1.040   3.337
 7585SOL     OW23653   0.762   1.404   6.016
 7585SOL    HW123654   0.701   1.332   5.982
 7585SOL    HW223655   0.763   1.481   5.953
 7586SOL     OW23656   1.860   0.199   3.105
 7586SOL    HW123657   1.769   0.212   3.065
 7586SOL    HW223658   1.867   0.107   3.142
 7587SOL     OW23659   4.008   0.016   0.816
 7587SOL    HW123660   4.014   6.974   0.886
 7587SOL    HW223661   3.975   0.101   0.856
 7588SOL     OW23662   2.505   2.605   4.613
 7588SOL    HW123663   2.482   2.550   4.533
 7588SOL    HW223664   2.571   2.556   4.669
 7589SOL     OW23665   0.395   0.254   2.746
 7589SOL    HW123666   0.426   0.212   2.661
 7589SOL    HW223667   0.369   0.349   2.729
 7590SOL     OW23668   6.650   0.904   0.105
 7590SOL    HW123669   6.569   0.911   0.046
 7590SOL    HW223670   6.698   0.992   0.106
 7591SOL     OW23671   3.665   3.090   4.654
 7591SOL    HW123672   3.659   3.173   4.598
 7591SOL    HW223673   3.759   3.077   4.684
 7592SOL     OW23674   6.625   6.610   4.229
 7592SOL    HW123675   6.677   6.692   4.251
 7592SOL    HW223676   6.628   6.594   4.130
 7593SOL     OW23677   0.520   1.208   5.308
 7593SOL    HW123678   0.438   1.264   5.317
 7593SOL    HW223679   0.496   1.111   5.313
 7594SOL     OW23680   0.370   4.056   6.770
 7594SOL    HW123681   0.407   4.140   6.810
 7594SOL    HW223682   0.326   4.077   6.683
 7595SOL     OW23683   1.138   3.363   7.008
 7595SOL    HW123684   1.203   3.412   0.037
 7595SOL    HW223685   1.050   3.355   0.026
 7596SOL     OW23686   2.869   1.540   5.728
 7596SOL    HW123687   2.816   1.504   5.652
 7596SOL    HW223688   2.816   1.532   5.813
 7597SOL     OW23689   1.700   4.813   1.661
 7597SOL    HW123690   1.704   4.745   1.587
 7597SOL    HW223691   1.619   4.870   1.649
 7598SOL     OW23692   6.329   0.657   2.003
 7598SOL    HW123693   6.396   0.582   2.000
 7598SOL    HW223694   6.300   0.671   2.097
 7599SOL     OW23695   3.237   3.829   1.063
 7599SOL    HW123696   3.191   3.918   1.062
 7599SOL    HW223697   3.175   3.760   1.101
 7600SOL     OW23698   1.416   6.799   3.954
 7600SOL    HW123699   1.340   6.737   3.932
 7600SOL    HW223700   1.412   6.878   3.894
 7601SOL     OW23701   3.094   6.712   2.337
 7601SOL    HW123702   3.060   6.776   2.269
 7601SOL    HW223703   3.188   6.685   2.314
 7602SOL     OW23704   0.627   1.360   1.040
 7602SOL    HW123705   0.598   1.337   0.947
 7602SOL    HW223706   0.646   1.276   1.090
 7603SOL     OW23707   3.726   0.793   6.156
 7603SOL    HW123708   3.799   0.733   6.187
 7603SOL    HW223709   3.762   0.885   6.142
 7604SOL     OW23710   0.697   2.505   4.994
 7604SOL    HW123711   0.714   2.529   5.089
 7604SOL    HW223712   0.615   2.449   4.988
 7605SOL     OW23713   2.110   6.240   0.063
 7605SOL    HW123714   2.111   6.300   7.013
 7605SOL    HW223715   2.036   6.265   0.125
 7606SOL     OW23716   0.031   0.964   3.410
 7606SOL    HW123717   7.010   1.049   3.392
 7606SOL    HW223718   0.111   0.959   3.350
 7607SOL     OW23719   1.762   6.055   5.526
 7607SOL    HW123720   1.804   6.138   5.561
 7607SOL    HW223721   1.828   5.980   5.531
 7608SOL     OW23722   6.100   2.467   6.510
 7608SOL    HW123723   6.082   2.380   6.464
 7608SOL    HW223724   6.145   2.529   6.447
 7609SOL     OW23725   2.474   1.469   4.716
 7609SOL    HW123726   2.532   1.544   4.685
 7609SOL    HW223727   2.469   1.471   4.816
 7610SOL     OW23728   4.198   5.060   4.538
 7610SOL    HW123729   4.120   5.116   4.569
 7610SOL    HW223730   4.167   4.967   4.519
 7611SOL     OW23731   4.659   2.985   0.810
 7611SOL    HW123732   4.616   3.076   0.809
 7611SOL    HW223733   4.738   2.987   0.872
 7612SOL     OW23734   4.119   1.831   2.686
 7612SOL    HW123735   4.211   1.823   2.724
 7612SOL    HW223736   4.060   1.761   2.726
 7613SOL     OW23737   1.015   0.565   1.401
 7613SOL    HW123738   0.990   0.581   1.305
 7613SOL    HW223739   1.014   0.652   1.450
 7614SOL     OW23740   5.452   3.949   6.973
 7614SOL    HW123741   5.507   3.895   0.009
 7614SOL    HW223742   5.477   3.923   6.879
 7615SOL     OW23743   6.243   3.028   4.846
 7615SOL    HW123744   6.276   3.122   4.845
 7615SOL    HW223745   6.263   2.987   4.935
 7616SOL     OW23746   6.531   0.134   3.209
 7616SOL    HW123747   6.583   0.059   3.167
 7616SOL    HW223748   6.462   0.096   3.270
 7617SOL     OW23749   6.267   4.085   3.286
 7617SOL    HW123750   6.365   4.086   3.268
 7617SOL    HW223751   6.242   4.000   3.332
 7618SOL     OW23752   2.225   2.675   0.193
 7618SOL    HW123753   2.268   2.703   0.278
 7618SOL    HW223754   2.264   2.727   0.117
 7619SOL     OW23755   1.951   1.425   4.600
 7619SOL    HW123756   1.986   1.358   4.666
 7619SOL    HW223757   1.975   1.396   4.507
 7620SOL     OW23758   3.418   5.013   0.964
 7620SOL    HW123759   3.378   5.051   1.047
 7620SOL    HW223760   3.346   5.004   0.894
 7621SOL     OW23761   6.203   3.929   0.261
 7621SOL    HW123762   6.154   3.887   0.185
 7621SOL    HW223763   6.139   3.987   0.313
 7622SOL     OW23764   3.260   3.839   1.757
 7622SOL    HW123765   3.333   3.770   1.757
 7622SOL    HW223766   3.173   3.795   1.736
 7623SOL     OW23767   4.932   4.075   1.675
 7623SOL    HW123768   4.967   3.981   1.668
 7623SOL    HW223769   4.855   4.077   1.738
 7624SOL     OW23770   1.161   3.312   2.561
 7624SOL    HW123771   1.098   3.345   2.631
 7624SOL    HW223772   1.232   3.256   2.603
 7625SOL     OW23773   5.162   0.669   1.806
 7625SOL    HW123774   5.204   0.593   1.755
 7625SOL    HW223775   5.076   0.638   1.846
 7626SOL     OW23776   4.659   0.647   6.494
 7626SOL    HW123777   4.572   0.686   6.462
 7626SOL    HW223778   4.642   0.556   6.532
 7627SOL     OW23779   4.329   3.318   6.301
 7627SOL    HW123780   4.331   3.399   6.360
 7627SOL    HW223781   4.268   3.333   6.223
 7628SOL     OW23782   3.545   2.489   0.399
 7628SOL    HW123783   3.645   2.482   0.408
 7628SOL    HW223784   3.522   2.505   0.304
 7629SOL     OW23785   5.808   2.209   3.054
 7629SOL    HW123786   5.798   2.153   2.971
 7629SOL    HW223787   5.727   2.267   3.064
 7630SOL     OW23788   1.302   6.492   3.999
 7630SOL    HW123789   1.216   6.489   4.050
 7630SOL    HW223790   1.379   6.492   4.063
 7631SOL     OW23791   0.604   0.174   5.474
 7631SOL    HW123792   0.576   0.149   5.382
 7631SOL    HW223793   0.688   0.229   5.470
 7632SOL     OW23794   4.919   5.844   0.438
 7632SOL    HW123795   4.982   5.913   0.401
 7632SOL    HW223796   4.831   5.851   0.392
 7633SOL     OW23797   6.666   1.020   1.203
 7633SOL    HW123798   6.688   1.053   1.112
 7633SOL    HW223799   6.653   0.921   1.201
 7634SOL     OW23800   6.875   1.988   6.928
 7634SOL    HW123801   6.807   1.967   6.999
 7634SOL    HW223802   6.959   1.938   6.947
 7635SOL     OW23803   2.152   2.982   5.548
 7635SOL    HW123804   2.066   2.930   5.548
 7635SOL    HW223805   2.185   2.992   5.454
 7636SOL     OW23806   0.006   3.555   4.478
 7636SOL    HW123807   0.082   3.494   4.498
 7636SOL    HW223808   6.973   3.511   4.413
 7637SOL     OW23809   0.779   4.655   4.609
 7637SOL    HW123810   0.871   4.631   4.580
 7637SOL    HW223811   0.712   4.605   4.554
 7638SOL     OW23812   0.463   6.033   1.429
 7638SOL    HW123813   0.517   5.952   1.406
 7638SOL    HW223814   0.511   6.085   1.499
 7639SOL     OW23815   1.937   1.100   0.202
 7639SOL    HW123816   1.955   1.036   0.276
 7639SOL    HW223817   1.848   1.143   0.215
 7640SOL     OW23818   3.202   1.369   0.867
 7640SOL    HW123819   3.115   1.356   0.819
 7640SOL    HW223820   3.211   1.465   0.894
 7641SOL     OW23821   0.355   3.854   4.253
 7641SOL    HW123822   0.442   3.876   4.209
 7641SOL    HW223823   0.302   3.938   4.266
 7642SOL     OW23824   5.251   0.709   3.221
 7642SOL    HW123825   5.255   0.640   3.294
 7642SOL    HW223826   5.341   0.719   3.179
 7643SOL     OW23827   5.271   3.384   4.209
 7643SOL    HW123828   5.250   3.358   4.303
 7643SOL    HW223829   5.297   3.302   4.158
 7644SOL     OW23830   5.130   3.336   1.041
 7644SOL    HW123831   5.174   3.418   1.078
 7644SOL    HW223832   5.104   3.276   1.117
 7645SOL     OW23833   3.579   4.990   0.099
 7645SOL    HW123834   3.502   4.962   0.157
 7645SOL    HW223835   3.584   4.930   0.020
 7646SOL     OW23836   6.514   1.791   0.387
 7646SOL    HW123837   6.566   1.855   0.330
 7646SOL    HW223838   6.577   1.742   0.447
 7647SOL     OW23839   0.191   2.410   3.872
 7647SOL    HW123840   0.242   2.348   3.811
 7647SOL    HW223841   0.093   2.396   3.857
 7648SOL     OW23842   2.246   2.127   2.025
 7648SOL    HW123843   2.341   2.099   2.040
 7648SOL    HW223844   2.216   2.182   2.103
 7649SOL     OW23845   3.519   1.313   6.408
 7649SOL    HW123846   3.468   1.301   6.493
 7649SOL    HW223847   3.535   1.411   6.393
 7650SOL     OW23848   4.375   2.649   0.184
 7650SOL    HW123849   4.349   2.575   0.122
 7650SOL    HW223850   4.311   2.726   0.173
 7651SOL     OW23851   3.184   5.140   6.558
 7651SOL    HW123852   3.146   5.139   6.650
 7651SOL    HW223853   3.282   5.123   6.561
 7652SOL     OW23854   1.020   0.914   4.138
 7652SOL    HW123855   1.096   0.943   4.081
 7652SOL    HW223856   1.054   0.886   4.228
 7653SOL     OW23857   2.213   0.514   6.697
 7653SOL    HW123858   2.221   0.597   6.641
 7653SOL    HW223859   2.197   0.435   6.637
 7654SOL     OW23860   6.151   1.948   6.090
 7654SOL    HW123861   6.191   2.040   6.086
 7654SOL    HW223862   6.163   1.904   6.001
 7655SOL     OW23863   3.375   1.681   3.857
 7655SOL    HW123864   3.445   1.663   3.926
 7655SOL    HW223865   3.417   1.683   3.767
 7656SOL     OW23866   6.298   4.210   7.003
 7656SOL    HW123867   6.387   4.171   6.978
 7656SOL    HW223868   6.236   4.203   6.925
 7657SOL     OW23869   1.294   3.989   5.061
 7657SOL    HW123870   1.363   4.057   5.084
 7657SOL    HW223871   1.334   3.897   5.070
 7658SOL     OW23872   2.880   0.641   0.832
 7658SOL    HW123873   2.843   0.733   0.837
 7658SOL    HW223874   2.929   0.628   0.746
 7659SOL     OW23875   4.965   4.280   5.841
 7659SOL    HW123876   4.891   4.212   5.836
 7659SOL    HW223877   4.994   4.291   5.936
 7660SOL     OW23878   6.839   5.560   5.592
 7660SOL    HW123879   6.889   5.587   5.509
 7660SOL    HW223880   6.900   5.506   5.650
 7661SOL     OW23881   3.689   1.444   4.895
 7661SOL    HW123882   3.590   1.432   4.897
 7661SOL    HW223883   3.714   1.515   4.829
 7662SOL     OW23884   6.671   6.151   1.420
 7662SOL    HW123885   6.576   6.121   1.414
 7662SOL    HW223886   6.708   6.162   1.327
 7663SOL     OW23887   0.412   5.397   5.100
 7663SOL    HW123888   0.452   5.423   5.188
 7663SOL    HW223889   0.404   5.478   5.042
 7664SOL     OW23890   3.686   2.063   2.574
 7664SOL    HW123891   3.689   1.972   2.532
 7664SOL    HW223892   3.610   2.115   2.536
 7665SOL     OW23893   3.701   0.494   5.791
 7665SOL    HW123894   3.698   0.496   5.691
 7665SOL    HW223895   3.620   0.538   5.829
 7666SOL     OW23896   5.606   4.201   3.826
 7666SOL    HW123897   5.606   4.294   3.863
 7666SOL    HW223898   5.521   4.156   3.852
 7667SOL     OW23899   4.302   6.296   2.487
 7667SOL    HW123900   4.254   6.384   2.489
 7667SOL    HW223901   4.339   6.277   2.578
 7668SOL     OW23902   1.911   5.837   0.858
 7668SOL    HW123903   1.958   5.917   0.820
 7668SOL    HW223904   1.816   5.835   0.826
 7669SOL     OW23905   2.402   1.019   6.617
 7669SOL    HW123906   2.386   1.042   6.521
 7669SOL    HW223907   2.382   1.099   6.674
 7670SOL     OW23908   0.974   0.610   1.126
 7670SOL    HW123909   0.933   0.699   1.105
 7670SOL    HW223910   0.923   0.538   1.079
 7671SOL     OW23911   3.098   6.756   1.143
 7671SOL    HW123912   3.022   6.809   1.179
 7671SOL    HW223913   3.119   6.786   1.050
 7672SOL     OW23914   4.877   4.354   1.928
 7672SOL    HW123915   4.974   4.361   1.950
 7672SOL    HW223916   4.823   4.380   2.008
 7673SOL     OW23917   1.700   6.763   4.900
 7673SOL    HW123918   1.741   6.701   4.832
 7673SOL    HW223919   1.698   6.717   4.989
 7674SOL     OW23920   4.458   5.852   4.810
 7674SOL    HW123921   4.459   5.938   4.758
 7674SOL    HW223922   4.364   5.828   4.834
 7675SOL     OW23923   5.006   6.166   3.341
 7675SOL    HW123924   4.964   6.095   3.397
 7675SOL    HW223925   5.101   6.142   3.321
 7676SOL     OW23926   3.745   2.926   5.540
 7676SOL    HW123927   3.738   2.951   5.636
 7676SOL    HW223928   3.691   2.991   5.485
 7677SOL     OW23929   6.519   4.927   0.036
 7677SOL    HW123930   6.457   4.951   6.990
 7677SOL    HW223931   6.506   4.831   0.059
 7678SOL     OW23932   3.072   1.567   4.986
 7678SOL    HW123933   3.084   1.474   4.951
 7678SOL    HW223934   3.074   1.566   5.086
 7679SOL     OW23935   3.872   6.014   4.668
 7679SOL    HW123936   3.791   6.055   4.627
 7679SOL    HW223937   3.899   5.933   4.615
 7680SOL     OW23938   2.155   6.850   4.715
 7680SOL    HW123939   2.061   6.884   4.710
 7680SOL    HW223940   2.162   6.783   4.789
 7681SOL     OW23941   2.262   2.784   6.152
 7681SOL    HW123942   2.359   2.760   6.144
 7681SOL    HW223943   2.243   2.866   6.098
 7682SOL     OW23944   3.226   0.938   2.857
 7682SOL    HW123945   3.294   0.978   2.918
 7682SOL    HW223946   3.153   0.896   2.911
 7683SOL     OW23947   0.647   4.475   4.365
 7683SOL    HW123948   0.567   4.525   4.397
 7683SOL    HW223949   0.634   4.377   4.382
 7684SOL     OW23950   4.964   3.425   1.385
 7684SOL    HW123951   4.967   3.327   1.365
 7684SOL    HW223952   4.869   3.454   1.394
 7685SOL     OW23953   2.460   0.402   0.851
 7685SOL    HW123954   2.437   0.451   0.767
 7685SOL    HW223955   2.519   0.458   0.908
 7686SOL     OW23956   6.775   6.775   4.680
 7686SOL    HW123957   6.816   6.799   4.768
 7686SOL    HW223958   6.838   6.717   4.628
 7687SOL     OW23959   5.462   3.619   5.837
 7687SOL    HW123960   5.372   3.649   5.868
 7687SOL    HW223961   5.512   3.578   5.914
 7688SOL     OW23962   6.643   3.602   6.452
 7688SOL    HW123963   6.677   3.517   6.412
 7688SOL    HW223964   6.692   3.621   6.537
 7689SOL     OW23965   4.887   1.098   2.006
 7689SOL    HW123966   4.931   1.117   1.918
 7689SOL    HW223967   4.798   1.143   2.010
 7690SOL     OW23968   6.223   5.158   2.178
 7690SOL    HW123969   6.206   5.132   2.083
 7690SOL    HW223970   6.308   5.211   2.183
 7691SOL     OW23971   4.885   3.244   4.037
 7691SOL    HW123972   4.933   3.221   4.122
 7691SOL    HW223973   4.882   3.343   4.027
 7692SOL     OW23974   2.949   6.401   2.736
 7692SOL    HW123975   2.979   6.361   2.650
 7692SOL    HW223976   2.850   6.388   2.746
 7693SOL     OW23977   3.025   0.787   1.822
 7693SOL    HW123978   3.104   0.829   1.776
 7693SOL    HW223979   2.995   0.846   1.896
 7694SOL     OW23980   4.478   1.797   6.391
 7694SOL    HW123981   4.402   1.756   6.442
 7694SOL    HW223982   4.561   1.744   6.408
 7695SOL     OW23983   4.844   0.037   3.519
 7695SOL    HW123984   4.851   0.117   3.460
 7695SOL    HW223985   4.914   6.999   3.492
 7696SOL     OW23986   2.226   2.492   6.073
 7696SOL    HW123987   2.325   2.501   6.063
 7696SOL    HW223988   2.191   2.566   6.130
 7697SOL     OW23989   5.833   6.877   3.255
 7697SOL    HW123990   5.895   6.954   3.240
 7697SOL    HW223991   5.809   6.871   3.351
 7698SOL     OW23992   6.281   3.477   1.046
 7698SOL    HW123993   6.273   3.570   1.081
 7698SOL    HW223994   6.195   3.452   1.000
 7699SOL     OW23995   4.806   6.356   5.355
 7699SOL    HW123996   4.789   6.262   5.327
 7699SOL    HW223997   4.879   6.395   5.300
 7700SOL     OW23998   5.336   5.637   1.805
 7700SOL    HW123999   5.265   5.625   1.874
 7700SOL    HW224000   5.423   5.602   1.841
 7701SOL     OW24001   1.487   2.270   6.449
 7701SOL    HW124002   1.450   2.188   6.406
 7701SOL    HW224003   1.417   2.312   6.507
 7702SOL     OW24004   5.150   0.057   4.711
 7702SOL    HW124005   5.105   7.021   4.650
 7702SOL    HW224006   5.080   0.111   4.758
 7703SOL     OW24007   0.081   6.868   5.367
 7703SOL    HW124008   0.117   6.780   5.396
 7703SOL    HW224009   0.133   6.941   5.411
 7704SOL     OW24010   0.856   1.714   4.864
 7704SOL    HW124011   0.881   1.676   4.775
 7704SOL    HW224012   0.781   1.780   4.852
 7705SOL     OW24013   1.070   5.251   6.956
 7705SOL    HW124014   1.091   5.347   6.934
 7705SOL    HW224015   0.987   5.247   7.011
 7706SOL     OW24016   3.600   3.150   2.890
 7706SOL    HW124017   3.604   3.061   2.845
 7706SOL    HW224018   3.629   3.140   2.986
 7707SOL     OW24019   6.590   4.224   7.025
 7707SOL    HW124020   6.668   4.184   0.045
 7707SOL    HW224021   6.623   4.278   6.948
 7708SOL     OW24022   1.814   0.352   4.267
 7708SOL    HW124023   1.847   0.304   4.348
 7708SOL    HW224024   1.822   0.292   4.187
 7709SOL     OW24025   0.075   4.876   1.675
 7709SOL    HW124026   0.113   4.793   1.717
 7709SOL    HW224027   0.022   4.926   1.743
 7710SOL     OW24028   6.354   2.914   0.994
 7710SOL    HW124029   6.408   2.891   1.075
 7710SOL    HW224030   6.323   3.009   1.001
 7711SOL     OW24031   0.034   4.461   4.722
 7711SOL    HW124032   0.077   4.549   4.700
 7711SOL    HW224033   0.060   4.393   4.654
 7712SOL     OW24034   0.068   4.977   5.540
 7712SOL    HW124035   0.124   5.006   5.462
 7712SOL    HW224036   0.024   5.057   5.581
 7713SOL     OW24037   1.510   4.555   0.133
 7713SOL    HW124038   1.546   4.599   0.215
 7713SOL    HW224039   1.552   4.594   0.051
 7714SOL     OW24040   5.960   1.723   4.755
 7714SOL    HW124041   6.040   1.768   4.795
 7714SOL    HW224042   5.902   1.791   4.711
 7715SOL     OW24043   3.668   3.333   5.352
 7715SOL    HW124044   3.664   3.234   5.341
 7715SOL    HW224045   3.720   3.355   5.435
 7716SOL     OW24046   1.162   6.775   6.160
 7716SOL    HW124047   1.154   6.782   6.060
 7716SOL    HW224048   1.258   6.756   6.184
 7717SOL     OW24049   0.023   2.290   6.449
 7717SOL    HW124050   0.080   2.349   6.393
 7717SOL    HW224051   0.031   2.317   6.545
 7718SOL     OW24052   0.396   3.423   3.151
 7718SOL    HW124053   0.351   3.498   3.103
 7718SOL    HW224054   0.336   3.343   3.152
 7719SOL     OW24055   1.691   5.399   5.263
 7719SOL    HW124056   1.682   5.419   5.165
 7719SOL    HW224057   1.690   5.300   5.277
 7720SOL     OW24058   4.357   1.353   6.862
 7720SOL    HW124059   4.362   1.411   6.781
 7720SOL    HW224060   4.261   1.329   6.879
 7721SOL     OW24061   6.755   6.641   2.613
 7721SOL    HW124062   6.700   6.562   2.638
 7721SOL    HW224063   6.698   6.723   2.610
 7722SOL     OW24064   1.210   6.021   3.677
 7722SOL    HW124065   1.209   6.100   3.616
 7722SOL    HW224066   1.297   5.972   3.666
 7723SOL     OW24067   4.753   3.999   6.729
 7723SOL    HW124068   4.803   4.065   6.672
 7723SOL    HW224069   4.759   4.027   6.825
 7724SOL     OW24070   2.074   3.438   1.054
 7724SOL    HW124071   2.027   3.484   0.978
 7724SOL    HW224072   2.074   3.497   1.134
 7725SOL     OW24073   5.276   2.629   4.625
 7725SOL    HW124074   5.296   2.644   4.722
 7725SOL    HW224075   5.229   2.708   4.588
 7726SOL     OW24076   1.259   3.527   6.528
 7726SOL    HW124077   1.200   3.513   6.607
 7726SOL    HW224078   1.217   3.485   6.447
 7727SOL     OW24079   4.364   0.805   2.520
 7727SOL    HW124080   4.369   0.880   2.585
 7727SOL    HW224081   4.297   0.738   2.550
 7728SOL     OW24082   1.885   3.953   4.894
 7728SOL    HW124083   1.898   3.926   4.798
 7728SOL    HW224084   1.974   3.969   4.936
 7729SOL     OW24085   6.905   1.183   3.003
 7729SOL    HW124086   6.918   1.198   3.101
 7729SOL    HW224087   6.846   1.103   2.989
 7730SOL     OW24088   6.652   4.489   5.496
 7730SOL    HW124089   6.714   4.506   5.419
 7730SOL    HW224090   6.694   4.523   5.580
 7731SOL     OW24091   6.604   0.237   5.567
 7731SOL    HW124092   6.602   0.291   5.652
 7731SOL    HW224093   6.637   0.145   5.587
 7732SOL     OW24094   3.977   0.117   6.383
 7732SOL    HW124095   3.928   0.083   6.303
 7732SOL    HW224096   3.986   0.044   6.450
 7733SOL     OW24097   0.093   5.361   1.548
 7733SOL    HW124098   0.096   5.460   1.565
 7733SOL    HW224099   0.145   5.339   1.466
 7734SOL     OW24100   3.337   4.117   3.783
 7734SOL    HW124101   3.435   4.125   3.763
 7734SOL    HW224102   3.304   4.202   3.823
 7735SOL     OW24103   0.517   6.670   1.245
 7735SOL    HW124104   0.567   6.756   1.232
 7735SOL    HW224105   0.522   6.616   1.161
 7736SOL     OW24106   1.542   2.335   0.152
 7736SOL    HW124107   1.502   2.426   0.166
 7736SOL    HW224108   1.626   2.327   0.206
 7737SOL     OW24109   4.494   4.654   6.969
 7737SOL    HW124110   4.473   4.563   6.934
 7737SOL    HW224111   4.555   4.701   6.905
 7738SOL     OW24112   1.915   0.481   5.421
 7738SOL    HW124113   1.877   0.507   5.510
 7738SOL    HW224114   1.861   0.407   5.382
 7739SOL     OW24115   1.934   2.333   0.508
 7739SOL    HW124116   1.940   2.426   0.542
 7739SOL    HW224117   2.026   2.293   0.502
 7740SOL     OW24118   2.353   0.364   5.124
 7740SOL    HW124119   2.256   0.373   5.149
 7740SOL    HW224120   2.372   0.420   5.044
 7741SOL     OW24121   0.736   4.664   6.201
 7741SOL    HW124122   0.797   4.602   6.151
 7741SOL    HW224123   0.692   4.727   6.136
 7742SOL     OW24124   4.411   2.054   3.874
 7742SOL    HW124125   4.486   2.108   3.837
 7742SOL    HW224126   4.325   2.081   3.831
 7743SOL     OW24127   4.144   1.642   5.981
 7743SOL    HW124128   4.133   1.692   5.895
 7743SOL    HW224129   4.239   1.610   5.989
 7744SOL     OW24130   1.110   6.994   4.436
 7744SOL    HW124131   1.192   6.967   4.488
 7744SOL    HW224132   1.045   6.919   4.435
 7745SOL     OW24133   3.072   0.066   1.334
 7745SOL    HW124134   3.045   0.141   1.394
 7745SOL    HW224135   2.995   0.005   1.320
 7746SOL     OW24136   0.675   5.435   2.174
 7746SOL    HW124137   0.672   5.356   2.112
 7746SOL    HW224138   0.646   5.517   2.124
 7747SOL     OW24139   6.769   5.982   0.651
 7747SOL    HW124140   6.676   5.946   0.650
 7747SOL    HW224141   6.767   6.081   0.635
 7748SOL     OW24142   4.323   1.364   5.820
 7748SOL    HW124143   4.349   1.442   5.876
 7748SOL    HW224144   4.384   1.287   5.841
 7749SOL     OW24145   4.049   3.585   3.239
 7749SOL    HW124146   3.964   3.532   3.241
 7749SOL    HW224147   4.109   3.554   3.313
 7750SOL     OW24148   5.028   5.233   5.591
 7750SOL    HW124149   4.967   5.293   5.540
 7750SOL    HW224150   5.086   5.182   5.527
 7751SOL     OW24151   6.781   1.773   4.462
 7751SOL    HW124152   6.819   1.854   4.418
 7751SOL    HW224153   6.816   1.767   4.556
 7752SOL     OW24154   6.372   4.900   5.221
 7752SOL    HW124155   6.293   4.956   5.194
 7752SOL    HW224156   6.413   4.859   5.139
 7753SOL     OW24157   2.653   0.852   5.462
 7753SOL    HW124158   2.556   0.837   5.481
 7753SOL    HW224159   2.665   0.940   5.415
 7754SOL     OW24160   6.712   1.210   1.393
 7754SOL    HW124161   6.613   1.217   1.404
 7754SOL    HW224162   6.733   1.137   1.327
 7755SOL     OW24163   1.356   6.059   5.179
 7755SOL    HW124164   1.452   6.066   5.153
 7755SOL    HW224165   1.348   6.009   5.265
 7756SOL     OW24166   3.851   5.649   3.298
 7756SOL    HW124167   3.871   5.730   3.243
 7756SOL    HW224168   3.767   5.606   3.265
 7757SOL     OW24169   3.232   6.493   5.578
 7757SOL    HW124170   3.161   6.531   5.637
 7757SOL    HW224171   3.319   6.538   5.596
 7758SOL     OW24172   3.123   2.694   6.524
 7758SOL    HW124173   3.061   2.616   6.516
 7758SOL    HW224174   3.080   2.774   6.481
 7759SOL     OW24175   2.357   1.353   5.195
 7759SOL    HW124176   2.353   1.254   5.184
 7759SOL    HW224177   2.439   1.388   5.148
 7760SOL     OW24178   4.893   1.684   3.451
 7760SOL    HW124179   4.826   1.611   3.438
 7760SOL    HW224180   4.857   1.751   3.517
 7761SOL     OW24181   4.170   0.435   6.631
 7761SOL    HW124182   4.118   0.432   6.545
 7761SOL    HW224183   4.126   0.500   6.693
 7762SOL     OW24184   1.531   2.345   0.519
 7762SOL    HW124185   1.532   2.355   0.618
 7762SOL    HW224186   1.604   2.282   0.491
 7763SOL     OW24187   2.343   2.448   1.376
 7763SOL    HW124188   2.408   2.411   1.442
 7763SOL    HW224189   2.264   2.485   1.425
 7764SOL     OW24190   4.095   3.680   2.234
 7764SOL    HW124191   4.106   3.581   2.239
 7764SOL    HW224192   4.118   3.721   2.323
 7765SOL     OW24193   0.257   1.929   2.397
 7765SOL    HW124194   0.275   2.005   2.333
 7765SOL    HW224195   0.158   1.914   2.403
 7766SOL     OW24196   6.825   3.601   0.264
 7766SOL    HW124197   6.813   3.519   0.321
 7766SOL    HW224198   6.741   3.618   0.212
 7767SOL     OW24199   5.635   4.175   5.178
 7767SOL    HW124200   5.570   4.125   5.121
 7767SOL    HW224201   5.728   4.156   5.146
 7768SOL     OW24202   4.471   5.471   1.805
 7768SOL    HW124203   4.421   5.493   1.721
 7768SOL    HW224204   4.407   5.432   1.872
 7769SOL     OW24205   6.703   1.992   2.226
 7769SOL    HW124206   6.775   1.922   2.217
 7769SOL    HW224207   6.640   1.985   2.149
 7770SOL     OW24208   3.423   5.842   1.615
 7770SOL    HW124209   3.338   5.796   1.642
 7770SOL    HW224210   3.460   5.797   1.534
 7771SOL     OW24211   2.330   1.010   4.831
 7771SOL    HW124212   2.387   1.082   4.789
 7771SOL    HW224213   2.321   0.934   4.767
 7772SOL     OW24214   5.659   0.824   5.267
 7772SOL    HW124215   5.565   0.838   5.300
 7772SOL    HW224216   5.723   0.850   5.339
 7773SOL     OW24217   4.166   4.535   5.392
 7773SOL    HW124218   4.202   4.480   5.317
 7773SOL    HW224219   4.241   4.576   5.442
 7774SOL     OW24220   4.991   1.558   6.710
 7774SOL    HW124221   5.023   1.515   6.626
 7774SOL    HW224222   4.908   1.512   6.741
 7775SOL     OW24223   2.691   6.569   2.204
 7775SOL    HW124224   2.785   6.552   2.174
 7775SOL    HW224225   2.643   6.482   2.215
 7776SOL     OW24226   3.723   4.208   0.767
 7776SOL    HW124227   3.722   4.157   0.853
 7776SOL    HW224228   3.806   4.264   0.762
 7777SOL     OW24229   1.750   0.430   6.640
 7777SOL    HW124230   1.798   0.504   6.687
 7777SOL    HW224231   1.713   0.366   6.707
 7778SOL     OW24232   5.093   1.144   1.520
 7778SOL    HW124233   5.033   1.134   1.599
 7778SOL    HW224234   5.138   1.057   1.501
 7779SOL     OW24235   4.022   3.160   0.170
 7779SOL    HW124236   4.049   3.118   0.256
 7779SOL    HW224237   3.928   3.196   0.178
 7780SOL     OW24238   1.046   0.125   4.834
 7780SOL    HW124239   0.983   0.062   4.879
 7780SOL    HW224240   0.994   0.190   4.777
 7781SOL     OW24241   1.159   4.894   5.409
 7781SOL    HW124242   1.081   4.867   5.353
 7781SOL    HW224243   1.217   4.814   5.426
 7782SOL     OW24244   3.732   4.916   6.747
 7782SOL    HW124245   3.799   4.985   6.774
 7782SOL    HW224246   3.779   4.835   6.712
 7783SOL     OW24247   2.806   4.922   6.831
 7783SOL    HW124248   2.823   4.829   6.799
 7783SOL    HW224249   2.824   4.928   6.929
 7784SOL     OW24250   0.166   2.706   6.858
 7784SOL    HW124251   0.080   2.749   6.832
 7784SOL    HW224252   0.223   2.771   6.906
 7785SOL     OW24253   2.035   5.984   4.724
 7785SOL    HW124254   1.999   6.073   4.695
 7785SOL    HW224255   2.119   5.965   4.673
 7786SOL     OW24256   3.382   4.142   4.912
 7786SOL    HW124257   3.313   4.206   4.880
 7786SOL    HW224258   3.338   4.061   4.952
 7787SOL     OW24259   3.011   2.385   5.326
 7787SOL    HW124260   2.953   2.385   5.245
 7787SOL    HW224261   3.107   2.378   5.299
 7788SOL     OW24262   0.588   1.427   0.157
 7788SOL    HW124263   0.659   1.434   0.227
 7788SOL    HW224264   0.553   1.333   0.155
 7789SOL     OW24265   1.793   0.428   1.430
 7789SOL    HW124266   1.818   0.346   1.379
 7789SOL    HW224267   1.796   0.408   1.528
 7790SOL     OW24268   6.604   3.532   2.792
 7790SOL    HW124269   6.580   3.447   2.745
 7790SOL    HW224270   6.686   3.572   2.749
 7791SOL     OW24271   0.782   4.309   4.712
 7791SOL    HW124272   0.810   4.259   4.794
 7791SOL    HW224273   0.772   4.406   4.734
 7792SOL     OW24274   2.191   5.783   5.914
 7792SOL    HW124275   2.241   5.825   5.838
 7792SOL    HW224276   2.256   5.742   5.978
 7793SOL     OW24277   1.493   0.945   6.721
 7793SOL    HW124278   1.575   0.909   6.767
 7793SOL    HW224279   1.521   0.992   6.637
 7794SOL     OW24280   5.402   5.824   3.346
 7794SOL    HW124281   5.488   5.778   3.323
 7794SOL    HW224282   5.325   5.763   3.326
 7795SOL     OW24283   1.736   5.365   5.604
 7795SOL    HW124284   1.652   5.375   5.550
 7795SOL    HW224285   1.720   5.397   5.697
 7796SOL     OW24286   4.008   3.219   4.252
 7796SOL    HW124287   3.975   3.313   4.246
 7796SOL    HW224288   3.976   3.178   4.338
 7797SOL     OW24289   1.027   0.188   3.176
 7797SOL    HW124290   1.088   0.267   3.187
 7797SOL    HW224291   0.958   0.209   3.107
 7798SOL     OW24292   4.185   5.997   6.380
 7798SOL    HW124293   4.192   6.092   6.350
 7798SOL    HW224294   4.100   5.957   6.345
 7799SOL     OW24295   6.257   4.613   1.310
 7799SOL    HW124296   6.209   4.688   1.355
 7799SOL    HW224297   6.222   4.526   1.344
 7800SOL     OW24298   0.693   6.069   2.053
 7800SOL    HW124299   0.652   5.983   2.023
 7800SOL    HW224300   0.719   6.062   2.149
 7801SOL     OW24301   3.733   2.418   6.033
 7801SOL    HW124302   3.685   2.506   6.025
 7801SOL    HW224303   3.668   2.344   6.017
 7802SOL     OW24304   5.681   2.047   1.058
 7802SOL    HW124305   5.713   1.955   1.077
 7802SOL    HW224306   5.617   2.075   1.130
 7803SOL     OW24307   3.533   4.288   6.191
 7803SOL    HW124308   3.509   4.200   6.151
 7803SOL    HW224309   3.478   4.304   6.273
 7804SOL     OW24310   5.069   1.477   6.470
 7804SOL    HW124311   5.159   1.436   6.452
 7804SOL    HW224312   5.057   1.556   6.411
 7805SOL     OW24313   5.438   3.557   2.124
 7805SOL    HW124314   5.475   3.645   2.095
 7805SOL    HW224315   5.345   3.546   2.087
 7806SOL     OW24316   4.688   3.008   6.710
 7806SOL    HW124317   4.730   2.955   6.636
 7806SOL    HW224318   4.631   3.080   6.671
 7807SOL     OW24319   0.222   3.291   6.786
 7807SOL    HW124320   0.270   3.339   6.713
 7807SOL    HW224321   0.161   3.354   6.833
 7808SOL     OW24322   0.773   1.462   5.318
 7808SOL    HW124323   0.693   1.404   5.302
 7808SOL    HW224324   0.774   1.535   5.249
 7809SOL     OW24325   1.645   5.553   5.862
 7809SOL    HW124326   1.546   5.566   5.874
 7809SOL    HW224327   1.671   5.463   5.895
 7810SOL     OW24328   2.432   1.110   0.007
 7810SOL    HW124329   2.388   1.022   7.017
 7810SOL    HW224330   2.444   1.160   6.950
 7811SOL     OW24331   0.248   4.426   4.984
 7811SOL    HW124332   0.162   4.392   4.946
 7811SOL    HW224333   0.324   4.375   4.944
 7812SOL     OW24334   0.390   1.895   4.039
 7812SOL    HW124335   0.357   1.947   3.961
 7812SOL    HW224336   0.328   1.819   4.058
 7813SOL     OW24337   6.194   2.601   1.081
 7813SOL    HW124338   6.096   2.580   1.083
 7813SOL    HW224339   6.215   2.651   0.997
 7814SOL     OW24340   1.842   3.478   4.016
 7814SOL    HW124341   1.910   3.419   3.973
 7814SOL    HW224342   1.799   3.535   3.947
 7815SOL     OW24343   6.910   1.490   6.097
 7815SOL    HW124344   6.849   1.551   6.147
 7815SOL    HW224345   6.975   1.544   6.044
 7816SOL     OW24346   1.309   3.714   5.144
 7816SOL    HW124347   1.354   3.629   5.172
 7816SOL    HW224348   1.255   3.750   5.220
 7817SOL     OW24349   5.184   3.816   5.230
 7817SOL    HW124350   5.214   3.754   5.303
 7817SOL    HW224351   5.127   3.765   5.165
 7818SOL     OW24352   4.919   5.225   2.824
 7818SOL    HW124353   4.844   5.231   2.757
 7818SOL    HW224354   4.970   5.140   2.811
 7819SOL     OW24355   0.149   1.580   1.421
 7819SOL    HW124356   0.109   1.651   1.480
 7819SOL    HW224357   0.093   1.569   1.339
 7820SOL     OW24358   2.157   6.783   6.351
 7820SOL    HW124359   2.090   6.857   6.349
 7820SOL    HW224360   2.240   6.814   6.398
 7821SOL     OW24361   2.643   5.647   0.835
 7821SOL    HW124362   2.667   5.739   0.865
 7821SOL    HW224363   2.572   5.609   0.895
 7822SOL     OW24364   1.441   6.199   5.809
 7822SOL    HW124365   1.494   6.282   5.824
 7822SOL    HW224366   1.436   6.180   5.711
 7823SOL     OW24367   1.876   4.236   5.049
 7823SOL    HW124368   1.927   4.151   5.058
 7823SOL    HW224369   1.826   4.254   5.134
 7824SOL     OW24370   0.770   3.709   5.728
 7824SOL    HW124371   0.705   3.659   5.671
 7824SOL    HW224372   0.764   3.676   5.822
 7825SOL     OW24373   2.935   0.833   6.713
 7825SOL    HW124374   2.849   0.879   6.692
 7825SOL    HW224375   2.920   0.735   6.718
 7826SOL     OW24376   0.805   3.131   5.726
 7826SOL    HW124377   0.781   3.036   5.749
 7826SOL    HW224378   0.866   3.168   5.795
 7827SOL     OW24379   6.633   5.432   4.567
 7827SOL    HW124380   6.618   5.337   4.596
 7827SOL    HW224381   6.731   5.450   4.561
 7828SOL     OW24382   0.441   5.127   0.442
 7828SOL    HW124383   0.445   5.087   0.534
 7828SOL    HW224384   0.478   5.063   0.375
 7829SOL     OW24385   3.871   3.419   0.410
 7829SOL    HW124386   3.879   3.458   0.502
 7829SOL    HW224387   3.857   3.494   0.345
 7830SOL     OW24388   2.382   5.878   3.844
 7830SOL    HW124389   2.316   5.924   3.903
 7830SOL    HW224390   2.474   5.893   3.879
 7831SOL     OW24391   1.636   7.007   6.989
 7831SOL    HW124392   1.661   6.918   0.000
 7831SOL    HW224393   1.675   0.051   0.016
 7832SOL     OW24394   6.430   0.866   4.605
 7832SOL    HW124395   6.423   0.964   4.626
 7832SOL    HW224396   6.429   0.815   4.691
 7833SOL     OW24397   1.263   0.662   3.269
 7833SOL    HW124398   1.320   0.677   3.188
 7833SOL    HW224399   1.320   0.672   3.351
 7834SOL     OW24400   6.333   3.360   5.596
 7834SOL    HW124401   6.360   3.393   5.686
 7834SOL    HW224402   6.373   3.418   5.525
 7835SOL     OW24403   3.990   2.399   5.572
 7835SOL    HW124404   4.088   2.392   5.553
 7835SOL    HW224405   3.977   2.433   5.665
 7836SOL     OW24406   3.275   3.630   3.944
 7836SOL    HW124407   3.236   3.575   4.018
 7836SOL    HW224408   3.371   3.605   3.931
 7837SOL     OW24409   0.354   5.882   7.010
 7837SOL    HW124410   0.301   5.949   6.959
 7837SOL    HW224411   0.346   5.900   0.079
 7838SOL     OW24412   4.674   5.728   2.387
 7838SOL    HW124413   4.585   5.730   2.342
 7838SOL    HW224414   4.716   5.818   2.384
 7839SOL     OW24415   6.050   2.983   4.348
 7839SOL    HW124416   6.118   2.965   4.277
 7839SOL    HW224417   6.095   3.023   4.428
 7840SOL     OW24418   1.847   2.817   4.150
 7840SOL    HW124419   1.920   2.827   4.218
 7840SOL    HW224420   1.851   2.726   4.110
 7841SOL     OW24421   3.757   1.914   6.472
 7841SOL    HW124422   3.789   1.991   6.416
 7841SOL    HW224423   3.784   1.828   6.430
 7842SOL     OW24424   1.128   0.715   1.959
 7842SOL    HW124425   1.192   0.788   1.985
 7842SOL    HW224426   1.165   0.663   1.883
 7843SOL     OW24427   0.175   6.151   3.195
 7843SOL    HW124428   0.165   6.219   3.268
 7843SOL    HW224429   0.243   6.083   3.223
 7844SOL     OW24430   3.860   0.483   2.107
 7844SOL    HW124431   3.847   0.418   2.033
 7844SOL    HW224432   3.795   0.464   2.181
 7845SOL     OW24433   6.582   2.805   0.881
 7845SOL    HW124434   6.505   2.866   0.865
 7845SOL    HW224435   6.550   2.710   0.883
 7846SOL     OW24436   1.054   1.146   0.270
 7846SOL    HW124437   1.062   1.077   0.198
 7846SOL    HW224438   1.065   1.237   0.230
 7847SOL     OW24439   5.673   4.564   6.384
 7847SOL    HW124440   5.625   4.500   6.443
 7847SOL    HW224441   5.743   4.613   6.436
 7848SOL     OW24442   3.170   4.461   0.415
 7848SOL    HW124443   3.071   4.448   0.415
 7848SOL    HW224444   3.191   4.554   0.382
 7849SOL     OW24445   4.401   5.453   0.013
 7849SOL    HW124446   4.404   5.375   6.980
 7849SOL    HW224447   4.398   5.421   0.107
 7850SOL     OW24448   0.152   1.419   4.197
 7850SOL    HW124449   0.234   1.382   4.152
 7850SOL    HW224450   0.145   1.380   4.289
 7851SOL     OW24451   0.084   4.648   1.085
 7851SOL    HW124452   7.023   4.659   1.126
 7851SOL    HW224453   0.075   4.627   0.988
 7852SOL     OW24454   1.384   2.898   6.863
 7852SOL    HW124455   1.386   2.928   6.958
 7852SOL    HW224456   1.358   2.802   6.859
 7853SOL     OW24457   4.169   2.948   1.706
 7853SOL    HW124458   4.106   3.005   1.758
 7853SOL    HW224459   4.261   2.986   1.710
 7854SOL     OW24460   4.702   1.623   0.168
 7854SOL    HW124461   4.792   1.616   0.210
 7854SOL    HW224462   4.702   1.699   0.102
 7855SOL     OW24463   5.172   0.019   3.978
 7855SOL    HW124464   5.269   0.038   3.963
 7855SOL    HW224465   5.162   6.957   4.018
 7856SOL     OW24466   2.120   6.658   4.900
 7856SOL    HW124467   2.027   6.625   4.886
 7856SOL    HW224468   2.183   6.581   4.895
 7857SOL     OW24469   5.947   4.281   1.086
 7857SOL    HW124470   5.863   4.231   1.108
 7857SOL    HW224471   5.941   4.374   1.121
 7858SOL     OW24472   0.108   3.932   6.305
 7858SOL    HW124473   0.165   3.851   6.293
 7858SOL    HW224474   0.043   3.916   6.380
 7859SOL     OW24475   5.213   1.831   0.687
 7859SOL    HW124476   5.121   1.871   0.683
 7859SOL    HW224477   5.254   1.833   0.596
 7860SOL     OW24478   2.831   0.911   4.416
 7860SOL    HW124479   2.909   0.970   4.398
 7860SOL    HW224480   2.747   0.965   4.414
 7861SOL     OW24481   2.147   6.351   0.558
 7861SOL    HW124482   2.191   6.405   0.486
 7861SOL    HW224483   2.194   6.368   0.645
 7862SOL     OW24484   1.680   6.305   0.156
 7862SOL    HW124485   1.771   6.271   0.178
 7862SOL    HW224486   1.674   6.402   0.180
 7863SOL     OW24487   1.598   3.917   3.894
 7863SOL    HW124488   1.663   3.990   3.871
 7863SOL    HW224489   1.508   3.941   3.859
 7864SOL     OW24490   2.461   5.821   5.231
 7864SOL    HW124491   2.388   5.755   5.250
 7864SOL    HW224492   2.454   5.850   5.135
 7865SOL     OW24493   5.919   3.880   3.188
 7865SOL    HW124494   5.942   3.958   3.247
 7865SOL    HW224495   5.827   3.893   3.152
 7866SOL     OW24496   0.870   1.071   5.774
 7866SOL    HW124497   0.921   1.153   5.797
 7866SOL    HW224498   0.787   1.096   5.725
 7867SOL     OW24499   4.526   5.172   3.501
 7867SOL    HW124500   4.465   5.209   3.571
 7867SOL    HW224501   4.545   5.076   3.521
 7868SOL     OW24502   2.746   6.332   1.518
 7868SOL    HW124503   2.783   6.239   1.517
 7868SOL    HW224504   2.648   6.329   1.496
 7869SOL     OW24505   5.928   4.681   0.187
 7869SOL    HW124506   5.958   4.699   0.093
 7869SOL    HW224507   5.992   4.619   0.231
 7870SOL     OW24508   5.941   6.002   4.036
 7870SOL    HW124509   6.014   5.995   3.967
 7870SOL    HW224510   5.852   6.002   3.990
 7871SOL     OW24511   4.663   1.397   0.460
 7871SOL    HW124512   4.597   1.455   0.411
 7871SOL    HW224513   4.749   1.447   0.471
 7872SOL     OW24514   1.298   5.483   3.012
 7872SOL    HW124515   1.259   5.489   2.920
 7872SOL    HW224516   1.380   5.540   3.017
 7873SOL     OW24517   4.849   2.082   0.226
 7873SOL    HW124518   4.793   2.164   0.244
 7873SOL    HW224519   4.896   2.093   0.138
 7874SOL     OW24520   5.883   2.419   0.736
 7874SOL    HW124521   5.832   2.386   0.814
 7874SOL    HW224522   5.884   2.519   0.736
 7875SOL     OW24523   5.934   4.395   5.899
 7875SOL    HW124524   5.876   4.343   5.837
 7875SOL    HW224525   5.877   4.445   5.965
 7876SOL     OW24526   1.112   0.090   3.889
 7876SOL    HW124527   1.191   0.105   3.831
 7876SOL    HW224528   1.136   0.109   3.984
 7877SOL     OW24529   0.030   2.948   3.422
 7877SOL    HW124530   0.113   2.935   3.367
 7877SOL    HW224531   0.044   3.023   3.487
 7878SOL     OW24532   4.160   5.626   2.936
 7878SOL    HW124533   4.258   5.628   2.956
 7878SOL    HW224534   4.134   5.533   2.908
 7879SOL     OW24535   3.054   4.833   3.032
 7879SOL    HW124536   3.032   4.846   3.129
 7879SOL    HW224537   2.975   4.795   2.985
 7880SOL     OW24538   1.179   4.931   2.629
 7880SOL    HW124539   1.268   4.888   2.613
 7880SOL    HW224540   1.175   5.018   2.579
 7881SOL     OW24541   4.789   3.957   3.579
 7881SOL    HW124542   4.820   3.900   3.503
 7881SOL    HW224543   4.737   3.901   3.644
 7882SOL     OW24544   0.553   3.188   0.049
 7882SOL    HW124545   0.597   3.130   7.009
 7882SOL    HW224546   0.589   3.281   0.042
 7883SOL     OW24547   0.529   0.587   5.371
 7883SOL    HW124548   0.511   0.572   5.273
 7883SOL    HW224549   0.627   0.580   5.388
 7884SOL     OW24550   0.709   2.908   4.466
 7884SOL    HW124551   0.665   2.875   4.382
 7884SOL    HW224552   0.736   3.003   4.454
 7885SOL     OW24553   0.030   6.055   6.462
 7885SOL    HW124554   6.960   6.048   6.466
 7885SOL    HW224555   0.066   6.079   6.552
 7886SOL     OW24556   5.175   4.413   1.045
 7886SOL    HW124557   5.105   4.421   0.975
 7886SOL    HW224558   5.176   4.496   1.101
 7887SOL     OW24559   4.586   3.085   5.887
 7887SOL    HW124560   4.572   3.183   5.872
 7887SOL    HW224561   4.552   3.034   5.808
 7888SOL     OW24562   5.445   6.106   4.610
 7888SOL    HW124563   5.377   6.034   4.625
 7888SOL    HW224564   5.532   6.080   4.653
 7889SOL     OW24565   6.856   4.777   2.813
 7889SOL    HW124566   6.848   4.681   2.788
 7889SOL    HW224567   6.909   4.826   2.743
 7890SOL     OW24568   1.719   3.153   2.572
 7890SOL    HW124569   1.673   3.146   2.483
 7890SOL    HW224570   1.736   3.249   2.593
 7891SOL     OW24571   1.096   4.685   3.098
 7891SOL    HW124572   1.193   4.701   3.082
 7891SOL    HW224573   1.084   4.628   3.179
 7892SOL     OW24574   2.087   2.269   5.504
 7892SOL    HW124575   2.180   2.268   5.467
 7892SOL    HW224576   2.089   2.238   5.599
 7893SOL     OW24577   5.962   6.559   1.829
 7893SOL    HW124578   6.038   6.583   1.890
 7893SOL    HW224579   5.974   6.465   1.796
 7894SOL     OW24580   2.976   0.122   1.946
 7894SOL    HW124581   2.925   0.208   1.945
 7894SOL    HW224582   2.977   0.083   1.853
 7895SOL     OW24583   6.691   1.345   3.317
 7895SOL    HW124584   6.646   1.350   3.406
 7895SOL    HW224585   6.629   1.379   3.246
 7896SOL     OW24586   4.335   1.903   6.141
 7896SOL    HW124587   4.366   1.859   6.226
 7896SOL    HW224588   4.235   1.907   6.140
 7897SOL     OW24589   3.132   3.104   6.498
 7897SOL    HW124590   3.201   3.061   6.556
 7897SOL    HW224591   3.088   3.033   6.442
 7898SOL     OW24592   5.142   1.754   3.343
 7898SOL    HW124593   5.044   1.743   3.359
 7898SOL    HW224594   5.169   1.700   3.264
 7899SOL     OW24595   4.643   1.760   2.818
 7899SOL    HW124596   4.605   1.842   2.775
 7899SOL    HW224597   4.612   1.756   2.913
 7900SOL     OW24598   1.228   5.439   1.062
 7900SOL    HW124599   1.288   5.487   0.999
 7900SOL    HW224600   1.262   5.346   1.077
 7901SOL     OW24601   6.255   5.464   0.893
 7901SOL    HW124602   6.273   5.519   0.974
 7901SOL    HW224603   6.252   5.524   0.812
 7902SOL     OW24604   5.158   4.743   5.767
 7902SOL    HW124605   5.080   4.782   5.815
 7902SOL    HW224606   5.236   4.737   5.830
 7903SOL     OW24607   0.185   2.459   6.912
 7903SOL    HW124608   0.176   2.557   6.890
 7903SOL    HW224609   0.192   2.448   7.011
 7904SOL     OW24610   6.356   1.594   2.144
 7904SOL    HW124611   6.399   1.657   2.209
 7904SOL    HW224612   6.410   1.510   2.139
 7905SOL     OW24613   2.580   2.138   1.701
 7905SOL    HW124614   2.679   2.124   1.707
 7905SOL    HW224615   2.543   2.150   1.793
 7906SOL     OW24616   0.807   4.514   0.538
 7906SOL    HW124617   0.827   4.504   0.440
 7906SOL    HW224618   0.878   4.467   0.591
 7907SOL     OW24619   6.216   2.883   1.785
 7907SOL    HW124620   6.177   2.953   1.844
 7907SOL    HW224621   6.315   2.896   1.778
 7908SOL     OW24622   6.503   1.117   3.180
 7908SOL    HW124623   6.497   1.178   3.101
 7908SOL    HW224624   6.596   1.080   3.185
 7909SOL     OW24625   4.372   6.308   5.062
 7909SOL    HW124626   4.456   6.262   5.034
 7909SOL    HW224627   4.383   6.345   5.154
 7910SOL     OW24628   6.144   3.616   6.123
 7910SOL    HW124629   6.157   3.705   6.167
 7910SOL    HW224630   6.179   3.544   6.184
 7911SOL     OW24631   0.102   4.866   0.065
 7911SOL    HW124632   0.129   4.846   7.000
 7911SOL    HW224633   0.104   4.965   0.080
 7912SOL     OW24634   0.031   5.371   5.636
 7912SOL    HW124635   0.113   5.342   5.686
 7912SOL    HW224636   0.058   5.414   5.550
 7913SOL     OW24637   1.030   6.064   6.567
 7913SOL    HW124638   1.063   6.155   6.543
 7913SOL    HW224639   1.088   6.026   6.639
 7914SOL     OW24640   6.680   3.756   1.993
 7914SOL    HW124641   6.600   3.701   1.969
 7914SOL    HW224642   6.654   3.827   2.058
 7915SOL     OW24643   4.071   1.186   2.200
 7915SOL    HW124644   4.131   1.181   2.120
 7915SOL    HW224645   3.980   1.152   2.175
 7916SOL     OW24646   4.810   3.745   5.540
 7916SOL    HW124647   4.782   3.841   5.536
 7916SOL    HW224648   4.909   3.738   5.539
 7917SOL     OW24649   3.607   4.125   3.687
 7917SOL    HW124650   3.651   4.057   3.629
 7917SOL    HW224651   3.675   4.164   3.750
 7918SOL     OW24652   6.446   2.453   2.606
 7918SOL    HW124653   6.463   2.483   2.700
 7918SOL    HW224654   6.512   2.498   2.545
 7919SOL     OW24655   5.887   4.650   1.911
 7919SOL    HW124656   5.810   4.587   1.897
 7919SOL    HW224657   5.893   4.673   2.008
 7920SOL     OW24658   0.394   6.474   2.548
 7920SOL    HW124659   0.372   6.448   2.455
 7920SOL    HW224660   0.439   6.563   2.548
 7921SOL     OW24661   2.792   6.200   1.913
 7921SOL    HW124662   2.699   6.165   1.895
 7921SOL    HW224663   2.815   6.186   2.009
 7922SOL     OW24664   0.991   4.618   5.834
 7922SOL    HW124665   1.055   4.609   5.910
 7922SOL    HW224666   0.914   4.555   5.847
 7923SOL     OW24667   0.712   1.693   2.915
 7923SOL    HW124668   0.783   1.756   2.883
 7923SOL    HW224669   0.671   1.729   2.998
 7924SOL     OW24670   2.345   0.887   3.908
 7924SOL    HW124671   2.397   0.842   3.835
 7924SOL    HW224672   2.250   0.858   3.903
 7925SOL     OW24673   0.500   1.347   6.434
 7925SOL    HW124674   0.577   1.326   6.375
 7925SOL    HW224675   0.528   1.338   6.530
 7926SOL     OW24676   3.527   6.829   1.727
 7926SOL    HW124677   3.616   6.877   1.724
 7926SOL    HW224678   3.454   6.897   1.729
 7927SOL     OW24679   4.755   4.158   4.232
 7927SOL    HW124680   4.777   4.073   4.279
 7927SOL    HW224681   4.722   4.225   4.297
 7928SOL     OW24682   0.824   4.609   0.022
 7928SOL    HW124683   0.886   4.676   0.062
 7928SOL    HW224684   0.739   4.654   7.022
 7929SOL     OW24685   4.019   3.914   4.295
 7929SOL    HW124686   4.027   3.972   4.214
 7929SOL    HW224687   4.080   3.948   4.366
 7930SOL     OW24688   5.812   6.294   3.551
 7930SOL    HW124689   5.808   6.270   3.648
 7930SOL    HW224690   5.737   6.251   3.503
 7931SOL     OW24691   2.291   3.198   0.051
 7931SOL    HW124692   2.238   3.131   7.028
 7931SOL    HW224693   2.288   3.175   0.149
 7932SOL     OW24694   2.977   6.878   0.767
 7932SOL    HW124695   3.003   6.806   0.703
 7932SOL    HW224696   3.023   6.964   0.742
 7933SOL     OW24697   1.657   1.165   6.081
 7933SOL    HW124698   1.620   1.257   6.093
 7933SOL    HW224699   1.603   1.100   6.135
 7934SOL     OW24700   3.980   2.723   5.601
 7934SOL    HW124701   4.001   2.790   5.673
 7934SOL    HW224702   4.065   2.700   5.552
 7935SOL     OW24703   4.922   6.051   1.557
 7935SOL    HW124704   4.867   6.000   1.491
 7935SOL    HW224705   4.979   5.987   1.609
 7936SOL     OW24706   4.271   5.831   2.763
 7936SOL    HW124707   4.178   5.795   2.768
 7936SOL    HW224708   4.325   5.775   2.700
 7937SOL     OW24709   6.485   0.634   6.054
 7937SOL    HW124710   6.557   0.703   6.057
 7937SOL    HW224711   6.467   0.609   5.959
 7938SOL     OW24712   6.186   5.012   4.229
 7938SOL    HW124713   6.239   5.097   4.218
 7938SOL    HW224714   6.119   5.025   4.302
 7939SOL     OW24715   0.529   6.941   4.189
 7939SOL    HW124716   0.579   6.888   4.120
 7939SOL    HW224717   0.468   7.006   4.143
 7940SOL     OW24718   2.075   6.102   0.511
 7940SOL    HW124719   2.118   6.188   0.537
 7940SOL    HW224720   1.976   6.113   0.509
 7941SOL     OW24721   0.165   0.494   0.645
 7941SOL    HW124722   0.076   0.462   0.678
 7941SOL    HW224723   0.185   0.583   0.687
 7942SOL     OW24724   1.207   1.179   0.981
 7942SOL    HW124725   1.190   1.274   0.957
 7942SOL    HW224726   1.234   1.127   0.900
 7943SOL     OW24727   5.843   2.261   0.021
 7943SOL    HW124728   5.755   2.261   0.067
 7943SOL    HW224729   5.908   2.317   0.072
 7944SOL     OW24730   6.985   3.253   2.229
 7944SOL    HW124731   6.942   3.163   2.227
 7944SOL    HW224732   6.945   3.311   2.157
 7945SOL     OW24733   5.352   6.702   1.378
 7945SOL    HW124734   5.425   6.670   1.318
 7945SOL    HW224735   5.265   6.659   1.351
 7946SOL     OW24736   1.621   1.619   5.997
 7946SOL    HW124737   1.633   1.541   6.059
 7946SOL    HW224738   1.549   1.679   6.032
 7947SOL     OW24739   4.325   5.246   5.969
 7947SOL    HW124740   4.346   5.342   5.950
 7947SOL    HW224741   4.229   5.238   5.997
 7948SOL     OW24742   0.510   4.749   5.960
 7948SOL    HW124743   0.508   4.666   5.905
 7948SOL    HW224744   0.440   4.743   6.031
 7949SOL     OW24745   6.594   3.826   3.979
 7949SOL    HW124746   6.535   3.748   3.999
 7949SOL    HW224747   6.553   3.882   3.907
 7950SOL     OW24748   3.792   5.316   4.465
 7950SOL    HW124749   3.860   5.250   4.433
 7950SOL    HW224750   3.708   5.305   4.411
 7951SOL     OW24751   3.166   3.525   0.752
 7951SOL    HW124752   3.068   3.540   0.737
 7951SOL    HW224753   3.197   3.447   0.698
 7952SOL     OW24754   4.917   4.896   0.225
 7952SOL    HW124755   4.931   4.973   0.163
 7952SOL    HW224756   4.923   4.928   0.319
 7953SOL     OW24757   2.078   3.302   2.938
 7953SOL    HW124758   2.142   3.231   2.966
 7953SOL    HW224759   2.069   3.369   3.012
 7954SOL     OW24760   5.237   5.474   4.789
 7954SOL    HW124761   5.247   5.570   4.766
 7954SOL    HW224762   5.148   5.459   4.831
 7955SOL     OW24763   1.488   0.104   6.407
 7955SOL    HW124764   1.549   0.026   6.389
 7955SOL    HW224765   1.412   0.102   6.342
 7956SOL     OW24766   6.155   6.953   2.961
 7956SOL    HW124767   6.216   6.876   2.982
 7956SOL    HW224768   6.196   7.009   2.888
 7957SOL     OW24769   0.706   2.321   1.070
 7957SOL    HW124770   0.620   2.371   1.081
 7957SOL    HW224771   0.688   2.223   1.081
 7958SOL     OW24772   2.114   5.463   3.634
 7958SOL    HW124773   2.050   5.478   3.558
 7958SOL    HW224774   2.067   5.479   3.720
 7959SOL     OW24775   4.941   5.636   0.621
 7959SOL    HW124776   4.853   5.628   0.669
 7959SOL    HW224777   4.936   5.711   0.555
 7960SOL     OW24778   2.496   2.563   0.998
 7960SOL    HW124779   2.494   2.611   1.085
 7960SOL    HW224780   2.578   2.506   0.993
 7961SOL     OW24781   1.736   5.710   0.133
 7961SOL    HW124782   1.683   5.783   0.090
 7961SOL    HW224783   1.833   5.721   0.112
 7962SOL     OW24784   1.727   6.539   2.184
 7962SOL    HW124785   1.796   6.541   2.112
 7962SOL    HW224786   1.705   6.632   2.212
 7963SOL     OW24787   0.622   6.259   4.714
 7963SOL    HW124788   0.641   6.164   4.739
 7963SOL    HW224789   0.559   6.299   4.780
 7964SOL     OW24790   6.378   5.590   3.579
 7964SOL    HW124791   6.478   5.590   3.572
 7964SOL    HW224792   6.352   5.576   3.674
 7965SOL     OW24793   5.638   1.627   0.385
 7965SOL    HW124794   5.701   1.572   0.330
 7965SOL    HW224795   5.563   1.659   0.327
 7966SOL     OW24796   6.842   6.422   3.456
 7966SOL    HW124797   6.841   6.378   3.366
 7966SOL    HW224798   6.761   6.393   3.507
 7967SOL     OW24799   2.905   6.932   3.101
 7967SOL    HW124800   2.846   6.943   3.022
 7967SOL    HW224801   2.880   6.849   3.150
 7968SOL     OW24802   2.031   0.779   1.575
 7968SOL    HW124803   2.091   0.859   1.578
 7968SOL    HW224804   2.057   0.721   1.498
 7969SOL     OW24805   3.216   1.660   3.435
 7969SOL    HW124806   3.176   1.748   3.459
 7969SOL    HW224807   3.258   1.666   3.344
 7970SOL     OW24808   0.548   5.079   3.151
 7970SOL    HW124809   0.612   5.150   3.180
 7970SOL    HW224810   0.507   5.037   3.232
 7971SOL     OW24811   2.747   1.454   2.111
 7971SOL    HW124812   2.729   1.545   2.147
 7971SOL    HW224813   2.844   1.447   2.085
 7972SOL     OW24814   0.452   5.329   1.557
 7972SOL    HW124815   0.411   5.238   1.550
 7972SOL    HW224816   0.425   5.384   1.478
 7973SOL     OW24817   4.402   2.336   2.465
 7973SOL    HW124818   4.455   2.359   2.547
 7973SOL    HW224819   4.313   2.300   2.492
 7974SOL     OW24820   5.852   6.760   3.904
 7974SOL    HW124821   5.845   6.682   3.966
 7974SOL    HW224822   5.918   6.740   3.832
 7975SOL     OW24823   2.148   0.905   3.087
 7975SOL    HW124824   2.199   0.843   3.147
 7975SOL    HW224825   2.065   0.935   3.132
 7976SOL     OW24826   0.901   6.145   6.331
 7976SOL    HW124827   0.914   6.083   6.409
 7976SOL    HW224828   0.836   6.105   6.267
 7977SOL     OW24829   4.871   6.496   1.592
 7977SOL    HW124830   4.790   6.515   1.538
 7977SOL    HW224831   4.922   6.420   1.551
 7978SOL     OW24832   3.617   2.658   5.965
 7978SOL    HW124833   3.596   2.695   5.875
 7978SOL    HW224834   3.552   2.694   6.032
 7979SOL     OW24835   4.973   0.335   4.483
 7979SOL    HW124836   5.015   0.295   4.402
 7979SOL    HW224837   4.876   0.310   4.487
 7980SOL     OW24838   2.733   0.497   2.299
 7980SOL    HW124839   2.650   0.499   2.354
 7980SOL    HW224840   2.764   0.591   2.283
 7981SOL     OW24841   0.917   5.871   2.582
 7981SOL    HW124842   0.921   5.932   2.661
 7981SOL    HW224843   0.967   5.787   2.602
 7982SOL     OW24844   0.387   2.389   0.487
 7982SOL    HW124845   0.329   2.328   0.434
 7982SOL    HW224846   0.386   2.480   0.445
 7983SOL     OW24847   4.664   2.627   2.201
 7983SOL    HW124848   4.677   2.727   2.204
 7983SOL    HW224849   4.737   2.583   2.252
 7984SOL     OW24850   0.048   0.478   0.082
 7984SOL    HW124851   6.991   0.427   0.085
 7984SOL    HW224852   0.045   0.552   0.149
 7985SOL     OW24853   0.320   1.052   0.948
 7985SOL    HW124854   0.253   1.101   0.893
 7985SOL    HW224855   0.396   1.022   0.891
 7986SOL     OW24856   4.770   3.169   6.935
 7986SOL    HW124857   4.721   3.123   6.861
 7986SOL    HW224858   4.706   3.190   7.009
 7987SOL     OW24859   0.913   2.175   4.671
 7987SOL    HW124860   0.977   2.249   4.688
 7987SOL    HW224861   0.903   2.161   4.572
 7988SOL     OW24862   2.685   2.213   5.590
 7988SOL    HW124863   2.680   2.132   5.647
 7988SOL    HW224864   2.697   2.294   5.647
 7989SOL     OW24865   3.569   3.544   5.742
 7989SOL    HW124866   3.625   3.621   5.709
 7989SOL    HW224867   3.486   3.538   5.686
 7990SOL     OW24868   2.271   2.736   4.705
 7990SOL    HW124869   2.259   2.762   4.801
 7990SOL    HW224870   2.360   2.691   4.694
 7991SOL     OW24871   0.675   2.905   5.180
 7991SOL    HW124872   0.658   3.003   5.166
 7991SOL    HW224873   0.736   2.893   5.258
 7992SOL     OW24874   2.400   1.038   0.922
 7992SOL    HW124875   2.389   1.130   0.884
 7992SOL    HW224876   2.496   1.022   0.943
 7993SOL     OW24877   2.248   6.314   6.278
 7993SOL    HW124878   2.290   6.257   6.349
 7993SOL    HW224879   2.177   6.372   6.319
 7994SOL     OW24880   6.066   0.845   4.516
 7994SOL    HW124881   6.054   0.857   4.615
 7994SOL    HW224882   6.112   0.926   4.479
 7995SOL     OW24883   4.546   5.883   3.660
 7995SOL    HW124884   4.558   5.902   3.563
 7995SOL    HW224885   4.608   5.809   3.687
 7996SOL     OW24886   3.911   0.875   5.345
 7996SOL    HW124887   3.946   0.807   5.280
 7996SOL    HW224888   3.859   0.944   5.296
 7997SOL     OW24889   5.450   2.649   2.131
 7997SOL    HW124890   5.483   2.735   2.092
 7997SOL    HW224891   5.509   2.622   2.207
 7998SOL     OW24892   5.882   4.694   6.482
 7998SOL    HW124893   5.944   4.737   6.417
 7998SOL    HW224894   5.933   4.630   6.539
 7999SOL     OW24895   1.832   0.543   5.664
 7999SOL    HW124896   1.773   0.470   5.697
 7999SOL    HW224897   1.919   0.540   5.713
 8000SOL     OW24898   5.898   0.283   5.939
 8000SOL    HW124899   5.917   0.366   5.991
 8000SOL    HW224900   5.805   0.252   5.957
 8001SOL     OW24901   2.416   6.282   1.298
 8001SOL    HW124902   2.414   6.196   1.248
 8001SOL    HW224903   2.435   6.264   1.395
 8002SOL     OW24904   4.862   2.813   5.680
 8002SOL    HW124905   4.917   2.731   5.667
 8002SOL    HW224906   4.765   2.789   5.679
 8003SOL     OW24907   3.781   5.902   3.756
 8003SOL    HW124908   3.757   5.999   3.752
 8003SOL    HW224909   3.762   5.860   3.667
 8004SOL     OW24910   1.117   3.948   2.946
 8004SOL    HW124911   1.092   3.925   3.040
 8004SOL    HW224912   1.110   4.047   2.932
 8005SOL     OW24913   2.496   0.343   2.525
 8005SOL    HW124914   2.430   0.349   2.450
 8005SOL    HW224915   2.482   0.418   2.589
 8006SOL     OW24916   3.682   6.322   1.263
 8006SOL    HW124917   3.761   6.323   1.201
 8006SOL    HW224918   3.667   6.415   1.298
 8007SOL     OW24919   0.368   1.325   4.093
 8007SOL    HW124920   0.401   1.279   4.011
 8007SOL    HW224921   0.446   1.345   4.153
 8008SOL     OW24922   5.960   5.424   0.426
 8008SOL    HW124923   5.926   5.333   0.448
 8008SOL    HW224924   5.941   5.486   0.502
 8009SOL     OW24925   6.802   6.870   4.163
 8009SOL    HW124926   6.703   6.869   4.153
 8009SOL    HW224927   6.840   6.788   4.121
 8010SOL     OW24928   1.647   3.188   6.538
 8010SOL    HW124929   1.581   3.147   6.601
 8010SOL    HW224930   1.617   3.280   6.513
 8011SOL     OW24931   2.406   2.339   0.748
 8011SOL    HW124932   2.478   2.327   0.816
 8011SOL    HW224933   2.402   2.435   0.720
 8012SOL     OW24934   3.065   0.501   3.702
 8012SOL    HW124935   3.164   0.505   3.717
 8012SOL    HW224936   3.044   0.422   3.646
 8013SOL     OW24937   6.046   5.264   4.697
 8013SOL    HW124938   6.126   5.228   4.649
 8013SOL    HW224939   6.023   5.354   4.659
 8014SOL     OW24940   2.088   0.079   6.751
 8014SOL    HW124941   1.996   0.045   6.772
 8014SOL    HW224942   2.135   0.100   6.837
 8015SOL     OW24943   1.726   2.086   6.364
 8015SOL    HW124944   1.752   2.134   6.280
 8015SOL    HW224945   1.641   2.123   6.400
 8016SOL     OW24946   3.924   6.480   1.694
 8016SOL    HW124947   3.982   6.526   1.627
 8016SOL    HW224948   3.979   6.418   1.750
 8017SOL     OW24949   5.915   4.013   5.052
 8017SOL    HW124950   5.871   3.927   5.077
 8017SOL    HW224951   5.899   4.032   4.955
 8018SOL     OW24952   5.483   2.923   4.615
 8018SOL    HW124953   5.486   2.955   4.521
 8018SOL    HW224954   5.407   2.858   4.627
 8019SOL     OW24955   2.108   5.008   1.369
 8019SOL    HW124956   2.057   5.075   1.423
 8019SOL    HW224957   2.088   4.916   1.404
 8020SOL     OW24958   5.879   6.351   6.478
 8020SOL    HW124959   5.957   6.410   6.460
 8020SOL    HW224960   5.814   6.358   6.403
 8021SOL     OW24961   0.421   0.783   0.857
 8021SOL    HW124962   0.400   0.712   0.925
 8021SOL    HW224963   0.516   0.813   0.869
 8022SOL     OW24964   4.659   5.680   3.311
 8022SOL    HW124965   4.599   5.745   3.265
 8022SOL    HW224966   4.610   5.639   3.389
 8023SOL     OW24967   6.567   6.414   3.559
 8023SOL    HW124968   6.487   6.392   3.503
 8023SOL    HW224969   6.597   6.332   3.608
 8024SOL     OW24970   4.852   5.862   4.621
 8024SOL    HW124971   4.782   5.934   4.631
 8024SOL    HW224972   4.863   5.839   4.525
 8025SOL     OW24973   2.914   5.966   0.512
 8025SOL    HW124974   2.988   5.974   0.445
 8025SOL    HW224975   2.918   6.044   0.575
 8026SOL     OW24976   1.906   2.975   0.746
 8026SOL    HW124977   1.882   2.879   0.757
 8026SOL    HW224978   1.877   3.026   0.827
 8027SOL     OW24979   5.054   3.346   5.842
 8027SOL    HW124980   5.051   3.271   5.908
 8027SOL    HW224981   4.966   3.394   5.842
 8028SOL     OW24982   5.287   5.826   0.511
 8028SOL    HW124983   5.386   5.817   0.527
 8028SOL    HW224984   5.241   5.852   0.595
 8029SOL     OW24985   3.222   4.705   0.296
 8029SOL    HW124986   3.177   4.786   0.333
 8029SOL    HW224987   3.210   4.703   0.197
 8030SOL     OW24988   6.025   3.626   0.392
 8030SOL    HW124989   6.000   3.576   0.309
 8030SOL    HW224990   6.121   3.653   0.387
 8031SOL     OW24991   3.260   5.784   1.167
 8031SOL    HW124992   3.300   5.748   1.251
 8031SOL    HW224993   3.253   5.884   1.174
 8032SOL     OW24994   4.844   4.869   5.349
 8032SOL    HW124995   4.817   4.841   5.441
 8032SOL    HW224996   4.886   4.960   5.353
 8033SOL     OW24997   6.083   2.200   0.710
 8033SOL    HW124998   6.088   2.173   0.806
 8033SOL    HW224999   6.010   2.267   0.697
 8034SOL     OW25000   6.195   1.320   4.538
 8034SOL    HW125001   6.161   1.291   4.449
 8034SOL    HW225002   6.129   1.296   4.609
 8035SOL     OW25003   5.610   6.271   0.017
 8035SOL    HW125004   5.514   6.262   7.017
 8035SOL    HW225005   5.632   6.198   0.082
 8036SOL     OW25006   1.674   4.650   1.440
 8036SOL    HW125007   1.591   4.677   1.393
 8036SOL    HW225008   1.704   4.560   1.407
 8037SOL     OW25009   2.006   3.283   1.584
 8037SOL    HW125010   2.047   3.362   1.629
 8037SOL    HW225011   1.986   3.212   1.652
 8038SOL     OW25012   6.466   1.555   3.926
 8038SOL    HW125013   6.559   1.528   3.951
 8038SOL    HW225014   6.436   1.631   3.984
 8039SOL     OW25015   3.150   6.906   4.431
 8039SOL    HW125016   3.187   6.988   4.474
 8039SOL    HW225017   3.116   6.928   4.340
 8040SOL     OW25018   6.275   5.903   0.869
 8040SOL    HW125019   6.305   5.838   0.799
 8040SOL    HW225020   6.350   5.920   0.933
 8041SOL     OW25021   4.083   1.925   0.688
 8041SOL    HW125022   4.082   2.022   0.661
 8041SOL    HW225023   4.177   1.893   0.695
 8042SOL     OW25024   2.456   4.172   0.700
 8042SOL    HW125025   2.455   4.139   0.795
 8042SOL    HW225026   2.549   4.197   0.675
 8043SOL     OW25027   2.391   0.307   1.433
 8043SOL    HW125028   2.338   0.238   1.383
 8043SOL    HW225029   2.485   0.274   1.444
 8044SOL     OW25030   3.181   3.997   1.474
 8044SOL    HW125031   3.139   3.948   1.551
 8044SOL    HW225032   3.251   4.060   1.510
 8045SOL     OW25033   6.365   2.853   3.404
 8045SOL    HW125034   6.324   2.940   3.376
 8045SOL    HW225035   6.464   2.856   3.390
 8046SOL     OW25036   0.027   5.073   5.940
 8046SOL    HW125037   0.040   4.974   5.935
 8046SOL    HW225038   0.028   5.102   6.036
 8047SOL     OW25039   2.766   6.557   4.158
 8047SOL    HW125040   2.722   6.593   4.240
 8047SOL    HW225041   2.821   6.477   4.182
 8048SOL     OW25042   6.242   0.670   6.159
 8048SOL    HW125043   6.339   0.655   6.137
 8048SOL    HW225044   6.195   0.708   6.080
 8049SOL     OW25045   1.399   6.324   0.204
 8049SOL    HW125046   1.487   6.292   0.169
 8049SOL    HW225047   1.378   6.413   0.163
 8050SOL     OW25048   0.729   3.234   0.711
 8050SOL    HW125049   0.706   3.299   0.783
 8050SOL    HW225050   0.666   3.156   0.715
 8051SOL     OW25051   3.624   2.149   3.819
 8051SOL    HW125052   3.720   2.122   3.830
 8051SOL    HW225053   3.609   2.179   3.725
 8052SOL     OW25054   3.529   2.125   3.066
 8052SOL    HW125055   3.614   2.098   3.112
 8052SOL    HW225056   3.451   2.086   3.114
 8053SOL     OW25057   3.874   3.360   1.901
 8053SOL    HW125058   3.837   3.444   1.940
 8053SOL    HW225059   3.966   3.345   1.936
 8054SOL     OW25060   4.600   5.942   4.374
 8054SOL    HW125061   4.613   6.015   4.441
 8054SOL    HW225062   4.535   5.875   4.412
 8055SOL     OW25063   0.993   6.762   4.928
 8055SOL    HW125064   1.068   6.826   4.946
 8055SOL    HW225065   0.984   6.699   5.004
 8056SOL     OW25066   4.313   1.502   2.512
 8056SOL    HW125067   4.255   1.501   2.593
 8056SOL    HW225068   4.392   1.444   2.527
 8057SOL     OW25069   3.570   6.967   3.185
 8057SOL    HW125070   3.514   6.986   3.266
 8057SOL    HW225071   3.526   6.896   3.130
 8058SOL     OW25072   2.654   0.133   3.651
 8058SOL    HW125073   2.709   0.205   3.693
 8058SOL    HW225074   2.678   0.124   3.555
 8059SOL     OW25075   2.671   1.104   4.092
 8059SOL    HW125076   2.692   1.196   4.057
 8059SOL    HW225077   2.757   1.057   4.114
 8060SOL     OW25078   0.958   2.132   5.083
 8060SOL    HW125079   1.052   2.165   5.073
 8060SOL    HW225080   0.959   2.035   5.108
 8061SOL     OW25081   6.789   5.730   1.565
 8061SOL    HW125082   6.841   5.791   1.505
 8061SOL    HW225083   6.827   5.735   1.658
 8062SOL     OW25084   2.120   3.499   2.239
 8062SOL    HW125085   2.064   3.430   2.285
 8062SOL    HW225086   2.167   3.458   2.161
 8063SOL     OW25087   2.564   3.487   6.706
 8063SOL    HW125088   2.542   3.396   6.671
 8063SOL    HW225089   2.633   3.480   6.778
 8064SOL     OW25090   6.342   3.050   6.873
 8064SOL    HW125091   6.254   3.027   6.832
 8064SOL    HW225092   6.328   3.073   6.970
 8065SOL     OW25093   4.375   6.794   6.469
 8065SOL    HW125094   4.423   6.714   6.432
 8065SOL    HW225095   4.380   6.792   6.569
 8066SOL     OW25096   2.629   0.078   2.013
 8066SOL    HW125097   2.684   7.024   2.005
 8066SOL    HW225098   2.644   0.120   2.102
 8067SOL     OW25099   4.947   2.235   2.034
 8067SOL    HW125100   4.859   2.187   2.024
 8067SOL    HW225101   4.979   2.226   2.129
 8068SOL     OW25102   6.402   4.827   4.247
 8068SOL    HW125103   6.333   4.899   4.255
 8068SOL    HW225104   6.357   4.738   4.241
 8069SOL     OW25105   0.990   6.353   2.453
 8069SOL    HW125106   0.892   6.375   2.447
 8069SOL    HW225107   1.042   6.438   2.456
 8070SOL     OW25108   3.754   7.018   2.213
 8070SOL    HW125109   3.681   0.033   2.160
 8070SOL    HW225110   3.816   0.059   2.248
 8071SOL     OW25111   3.491   6.552   0.520
 8071SOL    HW125112   3.443   6.466   0.535
 8071SOL    HW225113   3.575   6.535   0.468
 8072SOL     OW25114   5.188   0.800   2.521
 8072SOL    HW125115   5.281   0.818   2.487
 8072SOL    HW225116   5.193   0.762   2.613
 8073SOL     OW25117   4.700   0.118   6.484
 8073SOL    HW125118   4.632   0.091   6.416
 8073SOL    HW225119   4.672   0.203   6.529
 8074SOL     OW25120   3.312   4.009   6.889
 8074SOL    HW125121   3.312   4.104   6.919
 8074SOL    HW225122   3.274   4.003   6.797
 8075SOL     OW25123   5.567   2.233   2.842
 8075SOL    HW125124   5.653   2.184   2.828
 8075SOL    HW225125   5.513   2.187   2.913
 8076SOL     OW25126   4.686   2.959   6.108
 8076SOL    HW125127   4.654   3.004   6.025
 8076SOL    HW225128   4.611   2.953   6.174
 8077SOL     OW25129   1.306   0.794   0.443
 8077SOL    HW125130   1.252   0.814   0.525
 8077SOL    HW225131   1.333   0.698   0.444
 8078SOL     OW25132   5.916   3.151   0.578
 8078SOL    HW125133   5.864   3.070   0.552
 8078SOL    HW225134   5.864   3.205   0.644
 8079SOL     OW25135   0.842   1.684   1.562
 8079SOL    HW125136   0.763   1.723   1.515
 8079SOL    HW225137   0.835   1.585   1.562
 8080SOL     OW25138   3.259   5.424   0.589
 8080SOL    HW125139   3.271   5.333   0.550
 8080SOL    HW225140   3.176   5.466   0.551
 8081SOL     OW25141   5.945   1.869   5.214
 8081SOL    HW125142   6.022   1.910   5.165
 8081SOL    HW225143   5.914   1.787   5.165
 8082SOL     OW25144   6.505   3.318   4.295
 8082SOL    HW125145   6.559   3.344   4.215
 8082SOL    HW225146   6.528   3.224   4.321
 8083SOL     OW25147   5.869   2.143   4.424
 8083SOL    HW125148   5.956   2.148   4.374
 8083SOL    HW225149   5.839   2.236   4.446
 8084SOL     OW25150   6.657   0.093   1.103
 8084SOL    HW125151   6.721   0.039   1.048
 8084SOL    HW225152   6.609   0.032   1.167
 8085SOL     OW25153   6.066   2.023   0.497
 8085SOL    HW125154   6.094   2.096   0.560
 8085SOL    HW225155   6.041   1.942   0.548
 8086SOL     OW25156   3.040   6.112   5.554
 8086SOL    HW125157   3.049   6.012   5.556
 8086SOL    HW225158   3.024   6.141   5.459
 8087SOL     OW25159   2.719   3.968   0.642
 8087SOL    HW125160   2.625   3.935   0.652
 8087SOL    HW225161   2.782   3.900   0.679
 8088SOL     OW25162   4.447   0.398   2.754
 8088SOL    HW125163   4.457   0.303   2.785
 8088SOL    HW225164   4.527   0.423   2.700
 8089SOL     OW25165   6.045   2.989   0.279
 8089SOL    HW125166   6.033   3.088   0.277
 8089SOL    HW225167   5.958   2.945   0.302
 8090SOL     OW25168   4.400   2.478   5.272
 8090SOL    HW125169   4.313   2.464   5.225
 8090SOL    HW225170   4.440   2.389   5.294
 8091SOL     OW25171   2.479   4.888   5.802
 8091SOL    HW125172   2.487   4.973   5.854
 8091SOL    HW225173   2.566   4.869   5.757
 8092SOL     OW25174   6.763   2.174   4.241
 8092SOL    HW125175   6.712   2.158   4.326
 8092SOL    HW225176   6.860   2.188   4.263
 8093SOL     OW25177   5.468   5.539   1.254
 8093SOL    HW125178   5.395   5.599   1.286
 8093SOL    HW225179   5.436   5.486   1.176
 8094SOL     OW25180   1.160   3.898   4.431
 8094SOL    HW125181   1.226   3.963   4.469
 8094SOL    HW225182   1.208   3.816   4.400
 8095SOL     OW25183   6.158   3.455   4.735
 8095SOL    HW125184   6.115   3.416   4.653
 8095SOL    HW225185   6.224   3.390   4.772
 8096SOL     OW25186   3.940   0.502   0.056
 8096SOL    HW125187   4.008   0.435   0.085
 8096SOL    HW225188   3.906   0.551   0.137
 8097SOL     OW25189   4.717   1.052   4.486
 8097SOL    HW125190   4.768   1.035   4.401
 8097SOL    HW225191   4.782   1.074   4.559
 8098SOL     OW25192   2.685   1.398   4.458
 8098SOL    HW125193   2.628   1.480   4.449
 8098SOL    HW225194   2.781   1.423   4.448
 8099SOL     OW25195   4.848   6.425   4.864
 8099SOL    HW125196   4.848   6.326   4.878
 8099SOL    HW225197   4.793   6.469   4.935
 8100SOL     OW25198   0.125   6.345   0.852
 8100SOL    HW125199   0.108   6.333   0.950
 8100SOL    HW225200   0.038   6.335   0.802
 8101SOL     OW25201   0.859   5.283   2.834
 8101SOL    HW125202   0.761   5.283   2.813
 8101SOL    HW225203   0.872   5.299   2.931
 8102SOL     OW25204   0.143   0.091   6.261
 8102SOL    HW125205   0.151   0.107   6.163
 8102SOL    HW225206   0.219   0.034   6.292
 8103SOL     OW25207   2.557   1.732   2.403
 8103SOL    HW125208   2.482   1.790   2.434
 8103SOL    HW225209   2.633   1.737   2.468
 8104SOL     OW25210   2.972   6.169   5.817
 8104SOL    HW125211   2.994   6.151   5.721
 8104SOL    HW225212   2.958   6.083   5.865
 8105SOL     OW25213   2.190   2.885   2.503
 8105SOL    HW125214   2.227   2.933   2.424
 8105SOL    HW225215   2.092   2.869   2.490
 8106SOL     OW25216   0.195   4.142   5.251
 8106SOL    HW125217   0.200   4.109   5.157
 8106SOL    HW225218   0.099   4.157   5.276
 8107SOL     OW25219   1.051   5.643   6.576
 8107SOL    HW125220   1.118   5.607   6.510
 8107SOL    HW225221   0.997   5.567   6.612
 8108SOL     OW25222   2.122   3.630   5.103
 8108SOL    HW125223   2.085   3.717   5.135
 8108SOL    HW225224   2.159   3.579   5.181
 8109SOL     OW25225   1.086   5.778   5.063
 8109SOL    HW125226   1.157   5.736   5.120
 8109SOL    HW225227   1.018   5.822   5.122
 8110SOL     OW25228   1.399   4.564   0.629
 8110SOL    HW125229   1.473   4.630   0.615
 8110SOL    HW225230   1.399   4.534   0.724
 8111SOL     OW25231   3.120   5.972   4.129
 8111SOL    HW125232   3.204   5.958   4.078
 8111SOL    HW225233   3.067   6.046   4.086
 8112SOL     OW25234   4.178   0.936   4.754
 8112SOL    HW125235   4.216   0.846   4.734
 8112SOL    HW225236   4.231   0.978   4.828
 8113SOL     OW25237   3.650   3.115   6.068
 8113SOL    HW125238   3.741   3.097   6.107
 8113SOL    HW225239   3.592   3.157   6.138
 8114SOL     OW25240   3.368   3.571   1.789
 8114SOL    HW125241   3.303   3.502   1.822
 8114SOL    HW225242   3.461   3.537   1.802
 8115SOL     OW25243   3.730   2.144   0.858
 8115SOL    HW125244   3.756   2.048   0.874
 8115SOL    HW225245   3.806   2.204   0.885
 8116SOL     OW25246   5.102   1.275   5.458
 8116SOL    HW125247   5.023   1.258   5.519
 8116SOL    HW225248   5.186   1.254   5.507
 8117SOL     OW25249   2.457   2.062   5.872
 8117SOL    HW125250   2.419   1.982   5.917
 8117SOL    HW225251   2.398   2.088   5.795
 8118SOL     OW25252   1.154   2.347   4.287
 8118SOL    HW125253   1.240   2.302   4.313
 8118SOL    HW225254   1.171   2.412   4.212
 8119SOL     OW25255   1.224   5.972   1.798
 8119SOL    HW125256   1.163   5.938   1.727
 8119SOL    HW225257   1.240   6.070   1.783
 8120SOL     OW25258   4.480   4.045   1.570
 8120SOL    HW125259   4.454   4.075   1.661
 8120SOL    HW225260   4.482   3.945   1.566
 8121SOL     OW25261   6.927   6.756   3.197
 8121SOL    HW125262   6.958   6.850   3.179
 8121SOL    HW225263   6.887   6.751   3.288
 8122SOL     OW25264   0.573   5.728   1.480
 8122SOL    HW125265   0.663   5.732   1.523
 8122SOL    HW225266   0.580   5.759   1.385
 8123SOL     OW25267   0.756   5.527   0.300
 8123SOL    HW125268   0.739   5.430   0.320
 8123SOL    HW225269   0.820   5.563   0.369
 8124SOL     OW25270   1.008   6.324   3.067
 8124SOL    HW125271   1.093   6.272   3.074
 8124SOL    HW225272   0.933   6.271   3.106
 8125SOL     OW25273   5.596   5.272   2.854
 8125SOL    HW125274   5.665   5.222   2.908
 8125SOL    HW225275   5.639   5.349   2.809
 8126SOL     OW25276   6.764   4.553   2.607
 8126SOL    HW125277   6.699   4.626   2.626
 8126SOL    HW225278   6.719   4.480   2.555
 8127SOL     OW25279   3.704   4.712   1.007
 8127SOL    HW125280   3.614   4.751   1.025
 8127SOL    HW225281   3.772   4.758   1.064
 8128SOL     OW25282   3.535   2.242   5.292
 8128SOL    HW125283   3.494   2.179   5.358
 8128SOL    HW225284   3.463   2.283   5.235
 8129SOL     OW25285   5.170   6.244   6.615
 8129SOL    HW125286   5.128   6.320   6.664
 8129SOL    HW225287   5.120   6.160   6.634
 8130SOL     OW25288   0.673   6.704   0.297
 8130SOL    HW125289   0.710   6.701   0.390
 8130SOL    HW225290   0.647   6.613   0.267
 8131SOL     OW25291   1.808   1.324   0.705
 8131SOL    HW125292   1.766   1.317   0.615
 8131SOL    HW225293   1.849   1.415   0.716
 8132SOL     OW25294   6.406   4.715   2.782
 8132SOL    HW125295   6.351   4.793   2.753
 8132SOL    HW225296   6.370   4.631   2.742
 8133SOL     OW25297   0.272   6.099   2.055
 8133SOL    HW125298   0.351   6.065   2.004
 8133SOL    HW225299   0.277   6.068   2.150
 8134SOL     OW25300   1.747   2.812   1.962
 8134SOL    HW125301   1.697   2.836   2.045
 8134SOL    HW225302   1.781   2.895   1.918
 8135SOL     OW25303   3.994   6.367   2.439
 8135SOL    HW125304   3.972   6.300   2.510
 8135SOL    HW225305   4.043   6.444   2.480
 8136SOL     OW25306   2.267   5.911   1.440
 8136SOL    HW125307   2.334   5.917   1.514
 8136SOL    HW225308   2.298   5.965   1.363
 8137SOL     OW25309   3.266   3.547   4.833
 8137SOL    HW125310   3.268   3.515   4.739
 8137SOL    HW225311   3.286   3.470   4.895
 8138SOL     OW25312   5.019   1.017   3.769
 8138SOL    HW125313   5.098   1.033   3.710
 8138SOL    HW225314   5.010   1.092   3.834
 8139SOL     OW25315   1.518   3.207   4.969
 8139SOL    HW125316   1.526   3.302   4.940
 8139SOL    HW225317   1.436   3.196   5.026
 8140SOL     OW25318   4.477   0.826   1.003
 8140SOL    HW125319   4.572   0.847   0.978
 8140SOL    HW225320   4.466   0.834   1.102
 8141SOL     OW25321   6.338   0.303   5.862
 8141SOL    HW125322   6.296   0.328   5.950
 8141SOL    HW225323   6.394   0.380   5.830
 8142SOL     OW25324   2.395   5.423   0.545
 8142SOL    HW125325   2.353   5.476   0.472
 8142SOL    HW225326   2.492   5.446   0.552
 8143SOL     OW25327   5.628   4.872   0.691
 8143SOL    HW125328   5.725   4.864   0.714
 8143SOL    HW225329   5.615   4.951   0.631
 8144SOL     OW25330   0.936   6.033   0.321
 8144SOL    HW125331   0.863   6.077   0.270
 8144SOL    HW225332   0.899   5.955   0.372
 8145SOL     OW25333   5.640   5.637   6.811
 8145SOL    HW125334   5.691   5.602   6.889
 8145SOL    HW225335   5.564   5.693   6.845
 8146SOL     OW25336   6.692   6.293   4.933
 8146SOL    HW125337   6.780   6.310   4.888
 8146SOL    HW225338   6.664   6.375   4.982
 8147SOL     OW25339   2.127   0.832   5.890
 8147SOL    HW125340   2.144   0.742   5.849
 8147SOL    HW225341   2.038   0.866   5.861
 8148SOL     OW25342   4.727   3.729   0.423
 8148SOL    HW125343   4.751   3.819   0.385
 8148SOL    HW225344   4.808   3.672   0.427
 8149SOL     OW25345   1.206   0.330   5.421
 8149SOL    HW125346   1.234   0.378   5.504
 8149SOL    HW225347   1.121   0.369   5.386
 8150SOL     OW25348   0.858   3.925   0.770
 8150SOL    HW125349   0.842   3.929   0.869
 8150SOL    HW225350   0.956   3.930   0.752
 8151SOL     OW25351   6.424   5.573   3.290
 8151SOL    HW125352   6.454   5.478   3.277
 8151SOL    HW225353   6.417   5.592   3.388
 8152SOL     OW25354   5.132   1.360   2.714
 8152SOL    HW125355   5.143   1.437   2.652
 8152SOL    HW225356   5.204   1.363   2.784
 8153SOL     OW25357   0.445   1.751   2.516
 8153SOL    HW125358   0.447   1.700   2.430
 8153SOL    HW225359   0.385   1.831   2.507
 8154SOL     OW25360   1.901   0.469   3.152
 8154SOL    HW125361   1.899   0.510   3.061
 8154SOL    HW225362   1.898   0.370   3.145
 8155SOL     OW25363   1.652   4.760   4.077
 8155SOL    HW125364   1.702   4.735   3.994
 8155SOL    HW225365   1.573   4.700   4.087
 8156SOL     OW25366   1.261   4.083   0.490
 8156SOL    HW125367   1.315   4.163   0.516
 8156SOL    HW225368   1.250   4.081   0.391
 8157SOL     OW25369   6.696   4.065   5.240
 8157SOL    HW125370   6.715   4.117   5.157
 8157SOL    HW225371   6.714   3.968   5.224
 8158SOL     OW25372   5.920   5.494   6.300
 8158SOL    HW125373   5.950   5.579   6.343
 8158SOL    HW225374   5.821   5.497   6.286
 8159SOL     OW25375   2.601   0.226   5.141
 8159SOL    HW125376   2.647   0.236   5.230
 8159SOL    HW225377   2.505   0.250   5.151
 8160SOL     OW25378   5.908   1.601   2.282
 8160SOL    HW125379   5.894   1.699   2.298
 8160SOL    HW225380   5.834   1.566   2.224
 8161SOL     OW25381   6.218   2.601   2.168
 8161SOL    HW125382   6.163   2.624   2.088
 8161SOL    HW225383   6.274   2.520   2.148
 8162SOL     OW25384   0.929   5.532   4.809
 8162SOL    HW125385   1.012   5.587   4.812
 8162SOL    HW225386   0.901   5.508   4.902
 8163SOL     OW25387   4.205   4.895   5.426
 8163SOL    HW125388   4.251   4.818   5.469
 8163SOL    HW225389   4.111   4.901   5.460
 8164SOL     OW25390   5.597   1.572   0.646
 8164SOL    HW125391   5.611   1.582   0.548
 8164SOL    HW225392   5.572   1.661   0.685
 8165SOL     OW25393   0.734   1.814   6.229
 8165SOL    HW125394   0.771   1.883   6.291
 8165SOL    HW225395   0.722   1.855   6.138
 8166SOL     OW25396   2.046   1.704   5.094
 8166SOL    HW125397   2.116   1.650   5.047
 8166SOL    HW225398   2.028   1.663   5.183
 8167SOL     OW25399   1.803   3.092   3.538
 8167SOL    HW125400   1.833   3.117   3.630
 8167SOL    HW225401   1.881   3.059   3.485
 8168SOL     OW25402   2.040   0.159   2.513
 8168SOL    HW125403   2.114   0.132   2.575
 8168SOL    HW225404   2.009   0.251   2.538
 8169SOL     OW25405   4.915   3.684   1.032
 8169SOL    HW125406   4.974   3.661   0.954
 8169SOL    HW225407   4.869   3.601   1.063
 8170SOL     OW25408   6.631   4.797   2.605
 8170SOL    HW125409   6.589   4.801   2.696
 8170SOL    HW225410   6.689   4.877   2.592
 8171SOL     OW25411   2.259   1.744   1.384
 8171SOL    HW125412   2.356   1.764   1.367
 8171SOL    HW225413   2.209   1.749   1.298
 8172SOL     OW25414   1.218   2.843   0.818
 8172SOL    HW125415   1.250   2.781   0.890
 8172SOL    HW225416   1.179   2.789   0.744
 8173SOL     OW25417   5.756   0.598   1.648
 8173SOL    HW125418   5.815   0.642   1.581
 8173SOL    HW225419   5.671   0.651   1.658
 8174SOL     OW25420   2.546   6.456   3.713
 8174SOL    HW125421   2.452   6.489   3.710
 8174SOL    HW225422   2.606   6.521   3.665
 8175SOL     OW25423   1.014   2.509   5.903
 8175SOL    HW125424   1.017   2.588   5.964
 8175SOL    HW225425   0.926   2.506   5.855
 8176SOL     OW25426   2.774   4.624   0.271
 8176SOL    HW125427   2.703   4.653   0.336
 8176SOL    HW225428   2.795   4.528   0.284
 8177SOL     OW25429   2.688   1.144   3.526
 8177SOL    HW125430   2.738   1.207   3.467
 8177SOL    HW225431   2.660   1.192   3.610
 8178SOL     OW25432   2.806   6.555   1.352
 8178SOL    HW125433   2.820   6.638   1.405
 8178SOL    HW225434   2.776   6.481   1.413
 8179SOL     OW25435   5.615   0.486   3.363
 8179SOL    HW125436   5.653   0.558   3.421
 8179SOL    HW225437   5.682   0.461   3.293
 8180SOL     OW25438   5.122   6.169   0.320
 8180SOL    HW125439   5.123   6.176   0.420
 8180SOL    HW225440   5.037   6.124   0.291
 8181SOL     OW25441   0.244   0.441   6.278
 8181SOL    HW125442   0.148   0.413   6.274
 8181SOL    HW225443   0.285   0.432   6.187
 8182SOL     OW25444   3.143   3.613   3.708
 8182SOL    HW125445   3.214   3.613   3.778
 8182SOL    HW225446   3.179   3.649   3.622
 8183SOL     OW25447   6.724   0.595   5.720
 8183SOL    HW125448   6.735   0.516   5.781
 8183SOL    HW225449   6.798   0.596   5.653
 8184SOL     OW25450   0.068   5.692   6.299
 8184SOL    HW125451   0.108   5.728   6.384
 8184SOL    HW225452   0.032   5.600   6.316
 8185SOL     OW25453   0.181   6.048   6.028
 8185SOL    HW125454   0.085   6.023   6.023
 8185SOL    HW225455   0.191   6.147   6.016
 8186SOL     OW25456   1.771   5.506   0.452
 8186SOL    HW125457   1.711   5.427   0.446
 8186SOL    HW225458   1.856   5.480   0.498
 8187SOL     OW25459   1.345   0.101   5.335
 8187SOL    HW125460   1.299   0.171   5.390
 8187SOL    HW225461   1.443   0.103   5.354
 8188SOL     OW25462   1.919   2.965   2.528
 8188SOL    HW125463   1.843   3.023   2.556
 8188SOL    HW225464   1.908   2.874   2.566
 8189SOL     OW25465   5.786   5.018   3.326
 8189SOL    HW125466   5.711   4.974   3.276
 8189SOL    HW225467   5.817   4.957   3.399
 8190SOL     OW25468   6.560   4.303   2.918
 8190SOL    HW125469   6.597   4.342   3.002
 8190SOL    HW225470   6.610   4.221   2.894
 8191SOL     OW25471   4.311   5.317   1.128
 8191SOL    HW125472   4.236   5.251   1.122
 8191SOL    HW225473   4.305   5.366   1.216
 8192SOL     OW25474   0.256   5.770   3.180
 8192SOL    HW125475   0.338   5.815   3.216
 8192SOL    HW225476   0.218   5.826   3.106
 8193SOL     OW25477   0.771   4.533   3.841
 8193SOL    HW125478   0.831   4.613   3.841
 8193SOL    HW225479   0.678   4.560   3.867
 8194SOL     OW25480   4.354   0.377   1.706
 8194SOL    HW125481   4.268   0.365   1.657
 8194SOL    HW225482   4.404   0.290   1.709
 8195SOL     OW25483   6.418   0.115   4.082
 8195SOL    HW125484   6.389   0.189   4.021
 8195SOL    HW225485   6.365   0.119   4.167
 8196SOL     OW25486   4.681   1.311   1.867
 8196SOL    HW125487   4.709   1.405   1.888
 8196SOL    HW225488   4.727   1.279   1.785
 8197SOL     OW25489   3.760   1.989   3.153
 8197SOL    HW125490   3.826   2.039   3.210
 8197SOL    HW225491   3.747   1.897   3.192
 8198SOL     OW25492   1.398   5.898   1.579
 8198SOL    HW125493   1.346   5.976   1.615
 8198SOL    HW225494   1.345   5.854   1.507
 8199SOL     OW25495   5.903   2.652   0.166
 8199SOL    HW125496   5.940   2.642   0.258
 8199SOL    HW225497   5.943   2.733   0.123
 8200SOL     OW25498   4.829   3.460   0.790
 8200SOL    HW125499   4.731   3.476   0.779
 8200SOL    HW225500   4.880   3.543   0.767
 8201SOL     OW25501   6.048   6.851   5.423
 8201SOL    HW125502   6.025   6.794   5.502
 8201SOL    HW225503   6.147   6.859   5.415
 8202SOL     OW25504   1.180   6.514   1.603
 8202SOL    HW125505   1.248   6.541   1.673
 8202SOL    HW225506   1.181   6.581   1.529
 8203SOL     OW25507   1.772   3.531   1.269
 8203SOL    HW125508   1.817   3.579   1.345
 8203SOL    HW225509   1.778   3.432   1.285
 8204SOL     OW25510   2.908   3.601   0.894
 8204SOL    HW125511   2.935   3.676   0.834
 8204SOL    HW225512   2.819   3.565   0.865
 8205SOL     OW25513   1.073   4.466   6.965
 8205SOL    HW125514   0.976   4.485   6.980
 8205SOL    HW225515   1.127   4.500   0.013
 8206SOL     OW25516   3.027   1.105   1.233
 8206SOL    HW125517   3.112   1.105   1.180
 8206SOL    HW225518   3.031   1.178   1.302
 8207SOL     OW25519   3.721   4.122   4.239
 8207SOL    HW125520   3.799   4.153   4.184
 8207SOL    HW225521   3.721   4.170   4.326
 8208SOL     OW25522   2.011   0.534   0.458
 8208SOL    HW125523   1.915   0.557   0.475
 8208SOL    HW225524   2.066   0.617   0.462
 8209SOL     OW25525   6.206   1.547   4.719
 8209SOL    HW125526   6.209   1.635   4.673
 8209SOL    HW225527   6.216   1.474   4.652
 8210SOL     OW25528   2.302   2.806   6.951
 8210SOL    HW125529   2.380   2.774   7.006
 8210SOL    HW225530   2.301   2.756   6.864
 8211SOL     OW25531   3.930   4.735   1.190
 8211SOL    HW125532   3.864   4.661   1.208
 8211SOL    HW225533   4.011   4.697   1.146
 8212SOL     OW25534   1.863   2.599   2.898
 8212SOL    HW125535   1.954   2.632   2.923
 8212SOL    HW225536   1.809   2.675   2.863
 8213SOL     OW25537   6.674   4.997   1.398
 8213SOL    HW125538   6.647   5.093   1.395
 8213SOL    HW225539   6.690   4.969   1.493
 8214SOL     OW25540   5.524   3.549   3.326
 8214SOL    HW125541   5.482   3.577   3.240
 8214SOL    HW225542   5.453   3.523   3.391
 8215SOL     OW25543   3.328   4.874   3.125
 8215SOL    HW125544   3.235   4.852   3.097
 8215SOL    HW225545   3.342   4.973   3.121
 8216SOL     OW25546   5.868   3.891   3.516
 8216SOL    HW125547   5.816   3.975   3.530
 8216SOL    HW225548   5.806   3.818   3.487
 8217SOL     OW25549   2.074   6.060   0.788
 8217SOL    HW125550   2.119   6.063   0.698
 8217SOL    HW225551   2.074   6.151   0.828
 8218SOL     OW25552   6.316   2.645   6.796
 8218SOL    HW125553   6.306   2.700   6.879
 8218SOL    HW225554   6.300   2.549   6.817
 8219SOL     OW25555   5.582   1.572   6.871
 8219SOL    HW125556   5.520   1.648   6.889
 8219SOL    HW225557   5.585   1.511   6.951
 8220SOL     OW25558   4.204   3.786   1.586
 8220SOL    HW125559   4.122   3.742   1.621
 8220SOL    HW225560   4.220   3.872   1.635
 8221SOL     OW25561   5.054   5.453   2.739
 8221SOL    HW125562   4.989   5.384   2.771
 8221SOL    HW225563   5.146   5.430   2.771
 8222SOL     OW25564   6.682   2.181   2.415
 8222SOL    HW125565   6.698   2.105   2.352
 8222SOL    HW225566   6.686   2.147   2.509
 8223SOL     OW25567   0.259   5.228   5.784
 8223SOL    HW125568   0.182   5.168   5.803
 8223SOL    HW225569   0.339   5.174   5.759
 8224SOL     OW25570   1.333   3.023   3.200
 8224SOL    HW125571   1.269   3.024   3.277
 8224SOL    HW225572   1.373   3.113   3.188
 8225SOL     OW25573   4.950   1.436   0.501
 8225SOL    HW125574   4.964   1.345   0.541
 8225SOL    HW225575   4.927   1.500   0.574
 8226SOL     OW25576   4.041   0.279   0.485
 8226SOL    HW125577   3.949   0.295   0.519
 8226SOL    HW225578   4.075   0.192   0.521
 8227SOL     OW25579   6.196   3.333   2.698
 8227SOL    HW125580   6.244   3.416   2.669
 8227SOL    HW225581   6.166   3.282   2.618
 8228SOL     OW25582   0.120   2.206   4.905
 8228SOL    HW125583   0.084   2.120   4.869
 8228SOL    HW225584   0.207   2.227   4.860
 8229SOL     OW25585   3.732   5.389   0.839
 8229SOL    HW125586   3.639   5.421   0.858
 8229SOL    HW225587   3.743   5.296   0.874
 8230SOL     OW25588   5.113   0.203   4.298
 8230SOL    HW125589   5.043   0.144   4.257
 8230SOL    HW225590   5.180   0.228   4.228
 8231SOL     OW25591   4.481   6.057   1.639
 8231SOL    HW125592   4.420   6.101   1.574
 8231SOL    HW225593   4.441   6.060   1.730
 8232SOL     OW25594   3.123   1.864   6.777
 8232SOL    HW125595   3.086   1.846   6.686
 8232SOL    HW225596   3.093   1.793   6.840
 8233SOL     OW25597   0.203   4.932   6.370
 8233SOL    HW125598   0.292   4.971   6.393
 8233SOL    HW225599   0.133   5.003   6.374
 8234SOL     OW25600   3.441   2.856   7.026
 8234SOL    HW125601   3.403   2.871   0.088
 8234SOL    HW225602   3.397   2.918   6.960
 8235SOL     OW25603   4.564   2.385   0.039
 8235SOL    HW125604   4.631   2.362   0.110
 8235SOL    HW225605   4.473   2.357   0.069
 8236SOL     OW25606   5.766   2.315   0.935
 8236SOL    HW125607   5.803   2.241   0.991
 8236SOL    HW225608   5.687   2.355   0.980
 8237SOL     OW25609   3.954   6.112   5.242
 8237SOL    HW125610   3.897   6.088   5.320
 8237SOL    HW225611   3.947   6.211   5.225
 8238SOL     OW25612   2.103   1.084   6.548
 8238SOL    HW125613   2.028   1.140   6.514
 8238SOL    HW225614   2.119   1.008   6.484
 8239SOL     OW25615   6.955   1.277   6.528
 8239SOL    HW125616   7.016   1.348   6.495
 8239SOL    HW225617   6.887   1.317   6.589
 8240SOL     OW25618   3.771   4.010   3.491
 8240SOL    HW125619   3.759   3.911   3.497
 8240SOL    HW225620   3.809   4.033   3.401
 8241SOL     OW25621   4.413   6.806   1.457
 8241SOL    HW125622   4.467   6.738   1.507
 8241SOL    HW225623   4.475   6.864   1.404
 8242SOL     OW25624   1.086   3.897   5.325
 8242SOL    HW125625   1.050   3.838   5.253
 8242SOL    HW225626   1.045   3.988   5.317
 8243SOL     OW25627   0.877   3.430   4.905
 8243SOL    HW125628   0.793   3.379   4.920
 8243SOL    HW225629   0.862   3.527   4.924
 8244SOL     OW25630   1.316   5.944   4.619
 8244SOL    HW125631   1.317   5.964   4.718
 8244SOL    HW225632   1.404   5.970   4.579
 8245SOL     OW25633   3.858   3.734   0.733
 8245SOL    HW125634   3.917   3.664   0.693
 8245SOL    HW225635   3.781   3.751   0.672
 8246SOL     OW25636   5.216   4.317   5.727
 8246SOL    HW125637   5.117   4.330   5.731
 8246SOL    HW225638   5.236   4.229   5.685
 8247SOL     OW25639   1.088   0.077   1.904
 8247SOL    HW125640   1.091   0.175   1.882
 8247SOL    HW225641   1.019   0.061   1.974
 8248SOL     OW25642   0.340   4.349   3.505
 8248SOL    HW125643   0.279   4.296   3.563
 8248SOL    HW225644   0.428   4.361   3.552
 8249SOL     OW25645   1.836   5.658   3.316
 8249SOL    HW125646   1.903   5.706   3.260
 8249SOL    HW225647   1.784   5.724   3.370
 8250SOL     OW25648   3.972   3.936   2.174
 8250SOL    HW125649   4.023   3.851   2.179
 8250SOL    HW225650   4.029   4.008   2.134
 8251SOL     OW25651   6.055   1.496   5.237
 8251SOL    HW125652   6.038   1.501   5.138
 8251SOL    HW225653   5.970   1.469   5.283
 8252SOL     OW25654   1.218   3.161   4.756
 8252SOL    HW125655   1.278   3.178   4.678
 8252SOL    HW225656   1.141   3.104   4.727
 8253SOL     OW25657   2.658   2.655   5.778
 8253SOL    HW125658   2.686   2.702   5.862
 8253SOL    HW225659   2.704   2.696   5.699
 8254SOL     OW25660   4.169   6.168   3.630
 8254SOL    HW125661   4.115   6.107   3.571
 8254SOL    HW225662   4.125   6.258   3.634
 8255SOL     OW25663   4.443   5.221   3.804
 8255SOL    HW125664   4.514   5.203   3.872
 8255SOL    HW225665   4.355   5.234   3.851
 8256SOL     OW25666   6.379   2.116   4.324
 8256SOL    HW125667   6.422   2.128   4.413
 8256SOL    HW225668   6.426   2.043   4.273
 8257SOL     OW25669   6.487   4.219   4.545
 8257SOL    HW125670   6.388   4.226   4.561
 8257SOL    HW225671   6.533   4.190   4.629
 8258SOL     OW25672   4.754   1.816   7.002
 8258SOL    HW125673   4.746   1.799   6.904
 8258SOL    HW225674   4.779   1.912   7.017
 8259SOL     OW25675   3.681   1.256   1.728
 8259SOL    HW125676   3.770   1.228   1.690
 8259SOL    HW225677   3.622   1.288   1.654
 8260SOL     OW25678   2.724   6.116   0.189
 8260SOL    HW125679   2.789   6.042   0.174
 8260SOL    HW225680   2.636   6.078   0.218
 8261SOL     OW25681   5.578   1.247   1.497
 8261SOL    HW125682   5.485   1.284   1.495
 8261SOL    HW225683   5.587   1.177   1.427
 8262SOL     OW25684   1.126   1.988   0.484
 8262SOL    HW125685   1.181   2.039   0.419
 8262SOL    HW225686   1.155   2.011   0.577
 8263SOL     OW25687   5.957   0.856   0.418
 8263SOL    HW125688   6.034   0.880   0.360
 8263SOL    HW225689   5.986   0.859   0.514
 8264SOL     OW25690   1.969   4.214   2.521
 8264SOL    HW125691   2.068   4.227   2.532
 8264SOL    HW225692   1.922   4.301   2.535
 8265SOL     OW25693   1.876   1.173   1.774
 8265SOL    HW125694   1.835   1.265   1.775
 8265SOL    HW225695   1.941   1.167   1.698
 8266SOL     OW25696   3.234   0.243   3.104
 8266SOL    HW125697   3.247   0.157   3.054
 8266SOL    HW225698   3.255   0.320   3.043
 8267SOL     OW25699   0.414   3.393   0.692
 8267SOL    HW125700   0.416   3.333   0.773
 8267SOL    HW225701   0.448   3.484   0.717
 8268SOL     OW25702   3.454   5.908   5.922
 8268SOL    HW125703   3.498   5.829   5.965
 8268SOL    HW225704   3.356   5.891   5.915
 8269SOL     OW25705   6.019   1.850   0.956
 8269SOL    HW125706   6.041   1.940   0.995
 8269SOL    HW225707   5.940   1.811   1.005
 8270SOL     OW25708   3.385   6.237   4.032
 8270SOL    HW125709   3.394   6.143   4.001
 8270SOL    HW225710   3.399   6.299   3.955
 8271SOL     OW25711   6.800   2.185   2.064
 8271SOL    HW125712   6.773   2.120   2.135
 8271SOL    HW225713   6.769   2.152   1.975
 8272SOL     OW25714   3.498   1.358   3.972
 8272SOL    HW125715   3.536   1.437   4.020
 8272SOL    HW225716   3.466   1.386   3.881
 8273SOL     OW25717   2.017   6.816   1.417
 8273SOL    HW125718   2.101   6.793   1.467
 8273SOL    HW225719   1.949   6.745   1.434
 8274SOL     OW25720   5.162   4.572   3.279
 8274SOL    HW125721   5.078   4.574   3.334
 8274SOL    HW225722   5.241   4.589   3.338
 8275SOL     OW25723   4.865   2.447   6.522
 8275SOL    HW125724   4.791   2.383   6.544
 8275SOL    HW225725   4.940   2.434   6.586
 8276SOL     OW25726   0.739   2.073   3.026
 8276SOL    HW125727   0.791   2.033   2.951
 8276SOL    HW225728   0.752   2.018   3.108
 8277SOL     OW25729   6.358   0.622   6.874
 8277SOL    HW125730   6.447   0.595   6.910
 8277SOL    HW225731   6.363   0.714   6.837
 8278SOL     OW25732   1.721   2.781   6.719
 8278SOL    HW125733   1.772   2.843   6.658
 8278SOL    HW225734   1.730   2.812   6.813
 8279SOL     OW25735   6.829   5.958   4.033
 8279SOL    HW125736   6.897   6.007   3.978
 8279SOL    HW225737   6.747   5.942   3.978
 8280SOL     OW25738   2.858   2.292   6.174
 8280SOL    HW125739   2.835   2.388   6.191
 8280SOL    HW225740   2.936   2.266   6.231
 8281SOL     OW25741   6.267   5.507   2.160
 8281SOL    HW125742   6.315   5.443   2.099
 8281SOL    HW225743   6.203   5.457   2.217
 8282SOL     OW25744   5.641   2.521   5.629
 8282SOL    HW125745   5.732   2.557   5.650
 8282SOL    HW225746   5.602   2.572   5.553
 8283SOL     OW25747   1.784   3.580   5.688
 8283SOL    HW125748   1.839   3.662   5.670
 8283SOL    HW225749   1.738   3.590   5.776
 8284SOL     OW25750   6.179   4.396   1.467
 8284SOL    HW125751   6.105   4.330   1.457
 8284SOL    HW225752   6.146   4.473   1.522
 8285SOL     OW25753   3.849   3.725   4.413
 8285SOL    HW125754   3.916   3.778   4.360
 8285SOL    HW225755   3.759   3.767   4.403
 8286SOL     OW25756   7.007   1.792   6.642
 8286SOL    HW125757   6.908   1.779   6.649
 8286SOL    HW225758   0.011   1.752   6.557
 8287SOL     OW25759   0.967   5.687   4.444
 8287SOL    HW125760   1.062   5.707   4.466
 8287SOL    HW225761   0.941   5.735   4.360
 8288SOL     OW25762   2.888   2.247   3.033
 8288SOL    HW125763   2.984   2.233   3.008
 8288SOL    HW225764   2.838   2.283   2.954
 8289SOL     OW25765   0.004   6.245   6.966
 8289SOL    HW125766   7.008   6.234   0.033
 8289SOL    HW225767   7.011   6.338   6.936
 8290SOL     OW25768   6.620   2.494   0.783
 8290SOL    HW125769   6.653   2.426   0.848
 8290SOL    HW225770   6.698   2.541   0.741
 8291SOL     OW25771   4.083   6.756   1.048
 8291SOL    HW125772   4.031   6.712   0.975
 8291SOL    HW225773   4.031   6.834   1.083
 8292SOL     OW25774   3.053   6.774   6.481
 8292SOL    HW125775   2.954   6.783   6.492
 8292SOL    HW225776   3.074   6.682   6.447
 8293SOL     OW25777   5.401   5.298   4.944
 8293SOL    HW125778   5.372   5.302   4.848
 8293SOL    HW225779   5.327   5.331   5.002
 8294SOL     OW25780   5.634   2.611   0.198
 8294SOL    HW125781   5.595   2.650   0.114
 8294SOL    HW225782   5.734   2.623   0.196
 8295SOL     OW25783   4.897   4.035   0.368
 8295SOL    HW125784   4.903   4.120   0.420
 8295SOL    HW225785   4.951   4.043   0.284
 8296SOL     OW25786   1.154   5.513   6.887
 8296SOL    HW125787   1.170   5.572   6.966
 8296SOL    HW225788   1.230   5.521   6.823
 8297SOL     OW25789   0.728   2.416   3.257
 8297SOL    HW125790   0.658   2.487   3.258
 8297SOL    HW225791   0.747   2.389   3.163
 8298SOL     OW25792   4.695   1.543   1.674
 8298SOL    HW125793   4.776   1.592   1.705
 8298SOL    HW225794   4.617   1.567   1.733
 8299SOL     OW25795   6.676   2.316   1.556
 8299SOL    HW125796   6.665   2.408   1.592
 8299SOL    HW225797   6.764   2.278   1.587
 8300SOL     OW25798   0.608   4.725   3.679
 8300SOL    HW125799   0.669   4.801   3.700
 8300SOL    HW225800   0.659   4.653   3.631
 8301SOL     OW25801   3.405   3.122   6.874
 8301SOL    HW125802   3.316   3.147   6.913
 8301SOL    HW225803   3.391   3.079   6.784
 8302SOL     OW25804   5.649   5.954   6.026
 8302SOL    HW125805   5.727   5.894   6.045
 8302SOL    HW225806   5.574   5.900   5.987
 8303SOL     OW25807   0.146   0.456   5.486
 8303SOL    HW125808   0.171   0.441   5.581
 8303SOL    HW225809   0.206   0.525   5.446
 8304SOL     OW25810   0.392   3.365   6.585
 8304SOL    HW125811   0.394   3.453   6.633
 8304SOL    HW225812   0.344   3.375   6.498
 8305SOL     OW25813   3.360   6.092   3.739
 8305SOL    HW125814   3.328   6.012   3.687
 8305SOL    HW225815   3.287   6.161   3.740
 8306SOL     OW25816   0.719   3.263   3.975
 8306SOL    HW125817   0.733   3.344   4.032
 8306SOL    HW225818   0.742   3.181   4.028
 8307SOL     OW25819   2.899   5.907   1.193
 8307SOL    HW125820   2.956   5.988   1.206
 8307SOL    HW225821   2.903   5.851   1.276
 8308SOL     OW25822   3.738   6.444   2.926
 8308SOL    HW125823   3.646   6.414   2.952
 8308SOL    HW225824   3.731   6.514   2.855
 8309SOL     OW25825   5.130   6.038   2.197
 8309SOL    HW125826   5.158   6.130   2.222
 8309SOL    HW225827   5.194   5.972   2.238
 8310SOL     OW25828   6.875   4.375   0.336
 8310SOL    HW125829   6.891   4.374   0.435
 8310SOL    HW225830   6.957   4.410   0.290
 8311SOL     OW25831   6.395   0.018   0.548
 8311SOL    HW125832   6.404   7.011   0.456
 8311SOL    HW225833   6.302   0.002   0.581
 8312SOL     OW25834   5.243   6.540   1.655
 8312SOL    HW125835   5.297   6.468   1.699
 8312SOL    HW225836   5.151   6.542   1.694
 8313SOL     OW25837   3.322   1.232   3.010
 8313SOL    HW125838   3.255   1.160   3.027
 8313SOL    HW225839   3.326   1.250   2.911
 8314SOL     OW25840   6.568   6.716   3.572
 8314SOL    HW125841   6.572   6.617   3.588
 8314SOL    HW225842   6.660   6.751   3.553
 8315SOL     OW25843   4.877   4.504   6.423
 8315SOL    HW125844   4.791   4.502   6.473
 8315SOL    HW225845   4.928   4.586   6.448
 8316SOL     OW25846   2.087   5.430   6.896
 8316SOL    HW125847   2.174   5.474   6.913
 8316SOL    HW225848   2.013   5.485   6.936
 8317SOL     OW25849   2.140   4.553   2.097
 8317SOL    HW125850   2.100   4.564   2.188
 8317SOL    HW225851   2.095   4.478   2.050
 8318SOL     OW25852   3.344   1.237   5.621
 8318SOL    HW125853   3.378   1.236   5.527
 8318SOL    HW225854   3.338   1.331   5.653
 8319SOL     OW25855   3.484   0.655   4.730
 8319SOL    HW125856   3.486   0.726   4.801
 8319SOL    HW225857   3.523   0.570   4.767
 8320SOL     OW25858   3.612   4.444   1.650
 8320SOL    HW125859   3.629   4.362   1.705
 8320SOL    HW225860   3.581   4.518   1.709
 8321SOL     OW25861   0.660   0.706   1.467
 8321SOL    HW125862   0.630   0.799   1.451
 8321SOL    HW225863   0.581   0.647   1.485
 8322SOL     OW25864   6.273   6.746   0.100
 8322SOL    HW125865   6.345   6.678   0.113
 8322SOL    HW225866   6.191   6.702   0.063
 8323SOL     OW25867   1.574   1.964   1.596
 8323SOL    HW125868   1.601   1.878   1.554
 8323SOL    HW225869   1.641   1.989   1.666
 8324SOL     OW25870   6.848   1.290   1.859
 8324SOL    HW125871   6.926   1.261   1.915
 8324SOL    HW225872   6.880   1.351   1.787
 8325SOL     OW25873   3.355   2.889   3.709
 8325SOL    HW125874   3.284   2.959   3.715
 8325SOL    HW225875   3.369   2.846   3.798
 8326SOL     OW25876   3.792   3.506   5.919
 8326SOL    HW125877   3.862   3.571   5.890
 8326SOL    HW225878   3.708   3.523   5.869
 8327SOL     OW25879   4.869   1.916   6.018
 8327SOL    HW125880   4.832   1.837   5.970
 8327SOL    HW225881   4.796   1.957   6.074
 8328SOL     OW25882   2.563   2.554   5.239
 8328SOL    HW125883   2.583   2.583   5.333
 8328SOL    HW225884   2.568   2.454   5.233
 8329SOL     OW25885   7.014   2.874   5.203
 8329SOL    HW125886   6.978   2.907   5.116
 8329SOL    HW225887   7.019   2.775   5.201
 8330SOL     OW25888   3.214   6.676   0.149
 8330SOL    HW125889   3.122   6.690   0.185
 8330SOL    HW225890   3.282   6.705   0.217
 8331SOL     OW25891   2.577   0.159   0.832
 8331SOL    HW125892   2.524   0.240   0.858
 8331SOL    HW225893   2.531   0.111   0.758
 8332SOL     OW25894   5.057   6.099   2.957
 8332SOL    HW125895   5.002   6.179   2.980
 8332SOL    HW225896   5.123   6.081   3.031
 8333SOL     OW25897   0.574   5.658   6.267
 8333SOL    HW125898   0.556   5.754   6.244
 8333SOL    HW225899   0.670   5.648   6.294
 8334SOL     OW25900   5.883   1.094   3.597
 8334SOL    HW125901   5.936   1.078   3.680
 8334SOL    HW225902   5.801   1.147   3.619
 8335SOL     OW25903   5.778   6.948   5.750
 8335SOL    HW125904   5.877   6.944   5.741
 8335SOL    HW225905   5.739   6.997   5.671
 8336SOL     OW25906   0.260   2.150   2.202
 8336SOL    HW125907   0.160   2.155   2.206
 8336SOL    HW225908   0.299   2.231   2.245
 8337SOL     OW25909   0.465   6.257   2.700
 8337SOL    HW125910   0.436   6.177   2.646
 8337SOL    HW225911   0.439   6.340   2.652
 8338SOL     OW25912   1.569   4.703   0.338
 8338SOL    HW125913   1.598   4.698   0.434
 8338SOL    HW225914   1.645   4.737   0.282
 8339SOL     OW25915   5.459   1.285   2.716
 8339SOL    HW125916   5.397   1.207   2.720
 8339SOL    HW225917   5.497   1.293   2.624
 8340SOL     OW25918   4.830   3.381   0.304
 8340SOL    HW125919   4.838   3.290   0.343
 8340SOL    HW225920   4.876   3.383   0.215
 8341SOL     OW25921   2.149   6.847   1.180
 8341SOL    HW125922   2.118   6.762   1.138
 8341SOL    HW225923   2.099   6.861   1.266
 8342SOL     OW25924   4.259   0.983   0.918
 8342SOL    HW125925   4.294   1.076   0.933
 8342SOL    HW225926   4.326   0.917   0.953
 8343SOL     OW25927   1.738   5.319   5.905
 8343SOL    HW125928   1.679   5.260   5.961
 8343SOL    HW225929   1.825   5.273   5.888
 8344SOL     OW25930   3.818   6.844   5.335
 8344SOL    HW125931   3.918   6.856   5.336
 8344SOL    HW225932   3.779   6.886   5.417
 8345SOL     OW25933   6.347   1.146   2.488
 8345SOL    HW125934   6.384   1.066   2.535
 8345SOL    HW225935   6.384   1.229   2.529
 8346SOL     OW25936   3.425   5.312   1.859
 8346SOL    HW125937   3.356   5.331   1.789
 8346SOL    HW225938   3.405   5.223   1.901
 8347SOL     OW25939   3.852   5.385   4.144
 8347SOL    HW125940   3.778   5.335   4.189
 8347SOL    HW225941   3.820   5.421   4.057
 8348SOL     OW25942   1.564   0.420   0.253
 8348SOL    HW125943   1.634   0.359   0.289
 8348SOL    HW225944   1.550   0.401   0.156
 8349SOL     OW25945   5.981   5.364   1.947
 8349SOL    HW125946   5.966   5.462   1.935
 8349SOL    HW225947   6.010   5.324   1.860
 8350SOL     OW25948   6.475   0.763   4.839
 8350SOL    HW125949   6.498   0.826   4.914
 8350SOL    HW225950   6.521   0.676   4.854
 8351SOL     OW25951   3.054   6.252   2.520
 8351SOL    HW125952   3.032   6.262   2.423
 8351SOL    HW225953   3.001   6.177   2.558
 8352SOL     OW25954   6.652   6.476   1.569
 8352SOL    HW125955   6.648   6.377   1.562
 8352SOL    HW225956   6.703   6.502   1.651
 8353SOL     OW25957   0.393   3.962   2.381
 8353SOL    HW125958   0.480   3.947   2.335
 8353SOL    HW225959   0.340   3.877   2.379
 8354SOL     OW25960   2.458   1.027   0.495
 8354SOL    HW125961   2.537   1.089   0.489
 8354SOL    HW225962   2.382   1.064   0.442
 8355SOL     OW25963   3.211   1.038   0.281
 8355SOL    HW125964   3.221   1.030   0.182
 8355SOL    HW225965   3.134   0.983   0.311
 8356SOL     OW25966   2.126   5.144   6.905
 8356SOL    HW125967   2.145   5.242   6.900
 8356SOL    HW225968   2.203   5.093   6.867
 8357SOL     OW25969   5.001   5.400   4.485
 8357SOL    HW125970   5.077   5.464   4.488
 8357SOL    HW225971   5.036   5.307   4.476
 8358SOL     OW25972   2.163   2.462   5.800
 8358SOL    HW125973   2.194   2.488   5.892
 8358SOL    HW225974   2.243   2.439   5.744
 8359SOL     OW25975   4.444   4.892   3.938
 8359SOL    HW125976   4.394   4.919   3.856
 8359SOL    HW225977   4.430   4.795   3.955
 8360SOL     OW25978   4.647   0.607   3.507
 8360SOL    HW125979   4.680   0.550   3.431
 8360SOL    HW225980   4.586   0.553   3.565
 8361SOL     OW25981   2.023   0.311   2.883
 8361SOL    HW125982   1.995   0.340   2.791
 8361SOL    HW225983   1.942   0.291   2.937
 8362SOL     OW25984   2.614   2.771   0.280
 8362SOL    HW125985   2.637   2.689   0.228
 8362SOL    HW225986   2.600   2.848   0.218
 8363SOL     OW25987   0.005   3.224   0.770
 8363SOL    HW125988   7.008   3.320   0.774
 8363SOL    HW225989   0.009   3.186   0.863
 8364SOL     OW25990   6.523   4.170   3.641
 8364SOL    HW125991   6.560   4.120   3.563
 8364SOL    HW225992   6.544   4.267   3.632
 8365SOL     OW25993   1.988   3.326   5.900
 8365SOL    HW125994   1.897   3.299   5.867
 8365SOL    HW225995   1.991   3.425   5.911
 8366SOL     OW25996   2.929   6.493   3.019
 8366SOL    HW125997   2.930   6.479   2.920
 8366SOL    HW225998   3.016   6.533   3.048
 8367SOL     OW25999   5.499   5.673   3.584
 8367SOL    HW126000   5.519   5.581   3.550
 8367SOL    HW226001   5.445   5.723   3.517
 8368SOL     OW26002   3.006   5.131   6.766
 8368SOL    HW126003   2.943   5.054   6.756
 8368SOL    HW226004   3.092   5.099   6.806
 8369SOL     OW26005   2.513   1.370   1.335
 8369SOL    HW126006   2.433   1.395   1.390
 8369SOL    HW226007   2.497   1.282   1.291
 8370SOL     OW26008   1.300   1.430   6.583
 8370SOL    HW126009   1.315   1.391   6.673
 8370SOL    HW226010   1.220   1.387   6.541
 8371SOL     OW26011   2.057   3.255   0.854
 8371SOL    HW126012   2.094   3.312   0.927
 8371SOL    HW226013   2.008   3.178   0.893
 8372SOL     OW26014   0.122   0.504   1.986
 8372SOL    HW126015   0.078   0.417   1.964
 8372SOL    HW226016   0.210   0.510   1.939
 8373SOL     OW26017   1.421   6.734   5.211
 8373SOL    HW126018   1.408   6.827   5.177
 8373SOL    HW226019   1.498   6.733   5.276
 8374SOL     OW26020   6.648   7.009   6.541
 8374SOL    HW126021   6.689   6.933   6.490
 8374SOL    HW226022   6.566   6.977   6.589
 8375SOL     OW26023   3.500   0.565   6.645
 8375SOL    HW126024   3.589   0.598   6.679
 8375SOL    HW226025   3.450   0.520   6.719
 8376SOL     OW26026   3.715   0.290   4.779
 8376SOL    HW126027   3.670   0.359   4.835
 8376SOL    HW226028   3.668   0.202   4.790
 8377SOL     OW26029   5.640   4.520   0.869
 8377SOL    HW126030   5.731   4.479   0.860
 8377SOL    HW226031   5.570   4.448   0.862
 8378SOL     OW26032   4.862   2.915   3.734
 8378SOL    HW126033   4.858   2.946   3.639
 8378SOL    HW226034   4.913   2.829   3.739
 8379SOL     OW26035   5.755   2.536   1.936
 8379SOL    HW126036   5.669   2.489   1.955
 8379SOL    HW226037   5.819   2.519   2.011
 8380SOL     OW26038   4.744   1.815   3.213
 8380SOL    HW126039   4.765   1.911   3.232
 8380SOL    HW226040   4.784   1.757   3.285
 8381SOL     OW26041   1.757   5.245   4.559
 8381SOL    HW126042   1.852   5.263   4.587
 8381SOL    HW226043   1.717   5.329   4.523
 8382SOL     OW26044   1.153   3.040   2.191
 8382SOL    HW126045   1.094   3.119   2.209
 8382SOL    HW226046   1.106   2.956   2.218
 8383SOL     OW26047   3.384   2.089   6.489
 8383SOL    HW126048   3.429   2.003   6.513
 8383SOL    HW226049   3.297   2.096   6.538
 8384SOL     OW26050   0.734   6.371   1.730
 8384SOL    HW126051   0.811   6.311   1.748
 8384SOL    HW226052   0.767   6.458   1.693
 8385SOL     OW26053   4.672   2.265   0.953
 8385SOL    HW126054   4.726   2.322   0.892
 8385SOL    HW226055   4.629   2.322   1.023
 8386SOL     OW26056   1.401   4.877   2.863
 8386SOL    HW126057   1.482   4.895   2.919
 8386SOL    HW226058   1.402   4.781   2.835
 8387SOL     OW26059   0.353   2.034   1.249
 8387SOL    HW126060   0.290   2.058   1.175
 8387SOL    HW226061   0.343   2.100   1.323
 8388SOL     OW26062   1.029   0.023   2.371
 8388SOL    HW126063   0.974   6.975   2.340
 8388SOL    HW226064   1.041   0.088   2.296
 8389SOL     OW26065   5.092   2.620   2.383
 8389SOL    HW126066   5.048   2.613   2.473
 8389SOL    HW226067   5.127   2.531   2.356
 8390SOL     OW26068   5.105   1.614   5.827
 8390SOL    HW126069   5.197   1.632   5.792
 8390SOL    HW226070   5.038   1.669   5.777
 8391SOL     OW26071   6.563   7.011   1.589
 8391SOL    HW126072   6.528   6.998   1.496
 8391SOL    HW226073   6.651   0.031   1.585
 8392SOL     OW26074   5.104   2.966   5.147
 8392SOL    HW126075   5.109   3.062   5.122
 8392SOL    HW226076   5.191   2.937   5.188
 8393SOL     OW26077   5.241   0.252   1.617
 8393SOL    HW126078   5.145   0.277   1.630
 8393SOL    HW226079   5.268   0.187   1.688
 8394SOL     OW26080   5.724   3.139   2.100
 8394SOL    HW126081   5.791   3.204   2.136
 8394SOL    HW226082   5.633   3.160   2.136
 8395SOL     OW26083   2.097   1.247   4.759
 8395SOL    HW126084   2.026   1.191   4.801
 8395SOL    HW226085   2.143   1.301   4.830
 8396SOL     OW26086   4.530   5.563   4.263
 8396SOL    HW126087   4.445   5.520   4.292
 8396SOL    HW226088   4.541   5.651   4.311
 8397SOL     OW26089   5.835   1.173   2.984
 8397SOL    HW126090   5.770   1.243   2.954
 8397SOL    HW226091   5.840   1.173   3.083
 8398SOL     OW26092   4.757   2.238   6.237
 8398SOL    HW126093   4.856   2.235   6.222
 8398SOL    HW226094   4.724   2.330   6.214
 8399SOL     OW26095   0.412   4.815   1.360
 8399SOL    HW126096   0.400   4.719   1.382
 8399SOL    HW226097   0.451   4.824   1.268
 8400SOL     OW26098   1.659   1.682   4.861
 8400SOL    HW126099   1.753   1.716   4.870
 8400SOL    HW226100   1.623   1.659   4.951
 8401SOL     OW26101   2.594   6.818   5.778
 8401SOL    HW126102   2.581   6.871   5.862
 8401SOL    HW226103   2.676   6.761   5.787
 8402SOL     OW26104   3.508   0.482   6.169
 8402SOL    HW126105   3.590   0.426   6.177
 8402SOL    HW226106   3.484   0.520   6.258
 8403SOL     OW26107   5.830   4.263   4.398
 8403SOL    HW126108   5.795   4.304   4.314
 8403SOL    HW226109   5.885   4.330   4.448
 8404SOL     OW26110   1.007   1.664   6.560
 8404SOL    HW126111   1.093   1.644   6.606
 8404SOL    HW226112   1.003   1.614   6.474
 8405SOL     OW26113   4.150   0.336   6.051
 8405SOL    HW126114   4.195   0.420   6.022
 8405SOL    HW226115   4.083   0.308   5.982
 8406SOL     OW26116   5.415   0.315   6.091
 8406SOL    HW126117   5.464   0.309   6.178
 8406SOL    HW226118   5.428   0.406   6.052
 8407SOL     OW26119   3.424   6.860   4.198
 8407SOL    HW126120   3.464   6.775   4.234
 8407SOL    HW226121   3.457   6.937   4.252
 8408SOL     OW26122   3.641   1.423   1.473
 8408SOL    HW126123   3.658   1.348   1.409
 8408SOL    HW226124   3.725   1.474   1.489
 8409SOL     OW26125   4.349   2.386   2.002
 8409SOL    HW126126   4.381   2.421   2.090
 8409SOL    HW226127   4.287   2.309   2.018
 8410SOL     OW26128   6.728   1.773   1.938
 8410SOL    HW126129   6.689   1.865   1.936
 8410SOL    HW226130   6.700   1.727   2.023
 8411SOL     OW26131   1.477   6.026   0.693
 8411SOL    HW126132   1.485   6.098   0.624
 8411SOL    HW226133   1.383   5.991   0.694
 8412SOL     OW26134   2.864   2.223   6.712
 8412SOL    HW126135   2.782   2.172   6.739
 8412SOL    HW226136   2.838   2.317   6.689
 8413SOL     OW26137   4.260   5.503   4.370
 8413SOL    HW126138   4.249   5.500   4.469
 8413SOL    HW226139   4.200   5.575   4.332
 8414SOL     OW26140   0.838   0.476   1.787
 8414SOL    HW126141   0.753   0.432   1.758
 8414SOL    HW226142   0.816   0.566   1.825
 8415SOL     OW26143   2.514   1.678   5.672
 8415SOL    HW126144   2.415   1.666   5.671
 8415SOL    HW226145   2.558   1.593   5.642
 8416SOL     OW26146   6.528   1.782   5.706
 8416SOL    HW126147   6.592   1.817   5.638
 8416SOL    HW226148   6.434   1.798   5.674
 8417SOL     OW26149   1.378   3.484   5.657
 8417SOL    HW126150   1.313   3.521   5.723
 8417SOL    HW226151   1.440   3.556   5.626
 8418SOL     OW26152   0.423   6.167   2.309
 8418SOL    HW126153   0.363   6.186   2.386
 8418SOL    HW226154   0.446   6.252   2.262
 8419SOL     OW26155   4.471   2.006   4.178
 8419SOL    HW126156   4.476   1.906   4.171
 8419SOL    HW226157   4.456   2.046   4.088
 8420SOL     OW26158   3.276   0.160   1.961
 8420SOL    HW126159   3.207   0.145   2.033
 8420SOL    HW226160   3.240   0.224   1.894
 8421SOL     OW26161   4.666   6.619   6.454
 8421SOL    HW126162   4.755   6.602   6.498
 8421SOL    HW226163   4.660   6.715   6.427
 8422SOL     OW26164   5.119   2.580   3.251
 8422SOL    HW126165   5.062   2.661   3.234
 8422SOL    HW226166   5.079   2.528   3.326
 8423SOL     OW26167   6.778   4.838   6.495
 8423SOL    HW126168   6.745   4.868   6.585
 8423SOL    HW226169   6.718   4.766   6.460
 8424SOL     OW26170   3.094   0.539   4.752
 8424SOL    HW126171   3.097   0.600   4.832
 8424SOL    HW226172   3.181   0.491   4.744
 8425SOL     OW26173   3.491   4.110   2.029
 8425SOL    HW126174   3.456   4.063   2.109
 8425SOL    HW226175   3.580   4.150   2.049
 8426SOL     OW26176   3.948   3.085   2.091
 8426SOL    HW126177   3.864   3.051   2.048
 8426SOL    HW226178   3.942   3.072   2.190
 8427SOL     OW26179   3.486   3.842   3.836
 8427SOL    HW126180   3.414   3.777   3.861
 8427SOL    HW226181   3.446   3.924   3.795
 8428SOL     OW26182   5.957   6.677   1.337
 8428SOL    HW126183   5.902   6.742   1.391
 8428SOL    HW226184   6.007   6.617   1.399
 8429SOL     OW26185   2.849   5.677   5.190
 8429SOL    HW126186   2.750   5.691   5.176
 8429SOL    HW226187   2.887   5.629   5.111
 8430SOL     OW26188   4.663   0.186   5.065
 8430SOL    HW126189   4.566   0.181   5.042
 8430SOL    HW226190   4.695   0.280   5.054
 8431SOL     OW26191   2.318   3.536   5.960
 8431SOL    HW126192   2.313   3.631   5.991
 8431SOL    HW226193   2.225   3.501   5.947
 8432SOL     OW26194   6.271   4.948   5.972
 8432SOL    HW126195   6.347   4.887   5.952
 8432SOL    HW226196   6.184   4.898   5.964
 8433SOL     OW26197   5.304   2.202   0.996
 8433SOL    HW126198   5.330   2.111   1.028
 8433SOL    HW226199   5.269   2.255   1.074
 8434SOL     OW26200   2.795   5.801   4.926
 8434SOL    HW126201   2.715   5.743   4.937
 8434SOL    HW226202   2.878   5.745   4.928
 8435SOL     OW26203   5.364   1.762   2.540
 8435SOL    HW126204   5.353   1.836   2.607
 8435SOL    HW226205   5.393   1.801   2.453
 8436SOL     OW26206   1.935   5.717   2.387
 8436SOL    HW126207   2.005   5.771   2.434
 8436SOL    HW226208   1.973   5.629   2.359
 8437SOL     OW26209   1.122   5.170   2.511
 8437SOL    HW126210   1.103   5.170   2.413
 8437SOL    HW226211   1.141   5.263   2.541
 8438SOL     OW26212   0.953   3.853   2.636
 8438SOL    HW126213   0.880   3.921   2.632
 8438SOL    HW226214   0.927   3.780   2.700
 8439SOL     OW26215   5.748   4.636   2.717
 8439SOL    HW126216   5.662   4.676   2.685
 8439SOL    HW226217   5.814   4.637   2.642
 8440SOL     OW26218   1.898   2.031   2.786
 8440SOL    HW126219   1.864   2.098   2.720
 8440SOL    HW226220   1.833   2.022   2.861
 8441SOL     OW26221   6.863   1.546   5.578
 8441SOL    HW126222   6.853   1.537   5.478
 8441SOL    HW226223   6.863   1.643   5.602
 8442SOL     OW26224   3.568   1.559   6.357
 8442SOL    HW126225   3.519   1.609   6.286
 8442SOL    HW226226   3.627   1.623   6.408
 8443SOL     OW26227   1.394   3.817   3.169
 8443SOL    HW126228   1.434   3.820   3.077
 8443SOL    HW226229   1.393   3.723   3.202
 8444SOL     OW26230   5.500   5.104   5.130
 8444SOL    HW126231   5.597   5.130   5.132
 8444SOL    HW226232   5.447   5.175   5.084
 8445SOL     OW26233   4.513   6.191   6.216
 8445SOL    HW126234   4.453   6.269   6.238
 8445SOL    HW226235   4.484   6.111   6.269
 8446SOL     OW26236   6.820   5.290   5.007
 8446SOL    HW126237   6.807   5.295   5.106
 8446SOL    HW226238   6.764   5.360   4.962
 8447SOL     OW26239   4.328   2.066   3.564
 8447SOL    HW126240   4.308   1.972   3.535
 8447SOL    HW226241   4.250   2.101   3.615
 8448SOL     OW26242   3.039   6.133   3.319
 8448SOL    HW126243   3.086   6.191   3.385
 8448SOL    HW226244   2.996   6.189   3.249
 8449SOL     OW26245   1.763   2.265   3.271
 8449SOL    HW126246   1.712   2.184   3.241
 8449SOL    HW226247   1.714   2.347   3.243
 8450SOL     OW26248   0.036   1.472   6.788
 8450SOL    HW126249   0.059   1.550   6.729
 8450SOL    HW226250   6.975   1.488   6.830
 8451SOL     OW26251   4.288   2.701   0.673
 8451SOL    HW126252   4.339   2.764   0.615
 8451SOL    HW226253   4.349   2.662   0.742
 8452SOL     OW26254   5.099   1.807   5.497
 8452SOL    HW126255   5.067   1.876   5.431
 8452SOL    HW226256   5.029   1.794   5.567
 8453SOL     OW26257   6.846   6.227   0.525
 8453SOL    HW126258   6.918   6.270   0.470
 8453SOL    HW226259   6.766   6.209   0.467
 8454SOL     OW26260   6.422   3.870   6.951
 8454SOL    HW126261   6.425   3.891   0.019
 8454SOL    HW226262   6.484   3.794   6.931
 8455SOL     OW26263   6.819   1.580   2.557
 8455SOL    HW126264   6.909   1.548   2.530
 8455SOL    HW226265   6.818   1.598   2.656
 8456SOL     OW26266   6.663   0.299   3.383
 8456SOL    HW126267   6.613   0.243   3.316
 8456SOL    HW226268   6.704   0.240   3.452
 8457SOL     OW26269   6.690   6.864   5.368
 8457SOL    HW126270   6.679   6.891   5.464
 8457SOL    HW226271   6.659   6.770   5.357
 8458SOL     OW26272   0.704   6.990   6.570
 8458SOL    HW126273   0.666   6.951   6.654
 8458SOL    HW226274   0.640   0.029   6.533
 8459SOL     OW26275   1.667   6.439   3.576
 8459SOL    HW126276   1.713   6.367   3.628
 8459SOL    HW226277   1.590   6.473   3.629
 8460SOL     OW26278   3.127   4.063   3.265
 8460SOL    HW126279   3.131   3.966   3.290
 8460SOL    HW226280   3.124   4.119   3.348
 8461SOL     OW26281   6.654   3.421   4.117
 8461SOL    HW126282   6.681   3.385   4.028
 8461SOL    HW226283   6.612   3.511   4.105
 8462SOL     OW26284   2.391   3.053   1.555
 8462SOL    HW126285   2.422   3.139   1.596
 8462SOL    HW226286   2.317   3.015   1.611
 8463SOL     OW26287   5.246   1.037   2.201
 8463SOL    HW126288   5.169   1.059   2.140
 8463SOL    HW226289   5.257   0.937   2.204
 8464SOL     OW26290   6.259   1.719   5.162
 8464SOL    HW126291   6.166   1.683   5.175
 8464SOL    HW226292   6.314   1.700   5.243
 8465SOL     OW26293   1.889   1.970   6.681
 8465SOL    HW126294   1.926   2.055   6.718
 8465SOL    HW226295   1.830   1.927   6.750
 8466SOL     OW26296   0.307   0.133   4.106
 8466SOL    HW126297   0.323   0.183   4.021
 8466SOL    HW226298   0.214   0.097   4.107
 8467SOL     OW26299   3.475   5.406   1.055
 8467SOL    HW126300   3.457   5.450   0.967
 8467SOL    HW226301   3.518   5.471   1.117
 8468SOL     OW26302   4.547   2.538   0.394
 8468SOL    HW126303   4.488   2.474   0.442
 8468SOL    HW226304   4.495   2.587   0.325
 8469SOL     OW26305   4.032   2.640   6.943
 8469SOL    HW126306   4.011   2.561   6.886
 8469SOL    HW226307   4.122   2.676   6.918
 8470SOL     OW26308   1.448   3.114   6.693
 8470SOL    HW126309   1.371   3.178   6.695
 8470SOL    HW226310   1.439   3.049   6.768
 8471SOL     OW26311   4.849   1.099   4.238
 8471SOL    HW126312   4.917   1.049   4.184
 8471SOL    HW226313   4.769   1.119   4.181
 8472SOL     OW26314   1.685   0.011   2.826
 8472SOL    HW126315   1.682   0.100   2.779
 8472SOL    HW226316   1.617   6.979   2.786
 8473SOL     OW26317   6.230   5.433   6.481
 8473SOL    HW126318   6.323   5.421   6.517
 8473SOL    HW226319   6.193   5.345   6.454
 8474SOL     OW26320   4.009   5.237   0.713
 8474SOL    HW126321   3.952   5.233   0.631
 8474SOL    HW226322   3.973   5.173   0.781
 8475SOL     OW26323   4.532   1.485   3.122
 8475SOL    HW126324   4.568   1.397   3.092
 8475SOL    HW226325   4.562   1.503   3.216
 8476SOL     OW26326   4.370   0.620   2.858
 8476SOL    HW126327   4.380   0.530   2.817
 8476SOL    HW226328   4.461   0.657   2.880
 8477SOL     OW26329   2.427   0.737   2.222
 8477SOL    HW126330   2.423   0.641   2.248
 8477SOL    HW226331   2.345   0.784   2.254
 8478SOL     OW26332   1.631   0.356   5.718
 8478SOL    HW126333   1.625   0.371   5.816
 8478SOL    HW226334   1.542   0.373   5.675
 8479SOL     OW26335   4.701   1.392   2.211
 8479SOL    HW126336   4.718   1.438   2.124
 8479SOL    HW226337   4.781   1.338   2.237
 8480SOL     OW26338   1.191   1.518   1.216
 8480SOL    HW126339   1.169   1.464   1.135
 8480SOL    HW226340   1.106   1.554   1.256
 8481SOL     OW26341   4.391   0.140   5.010
 8481SOL    HW126342   4.345   0.118   4.924
 8481SOL    HW226343   4.355   0.081   5.082
 8482SOL     OW26344   0.317   0.197   2.057
 8482SOL    HW126345   0.289   0.221   1.964
 8482SOL    HW226346   0.378   0.269   2.092
 8483SOL     OW26347   4.796   6.152   2.256
 8483SOL    HW126348   4.859   6.229   2.243
 8483SOL    HW226349   4.846   6.074   2.294
 8484SOL     OW26350   0.714   4.196   4.467
 8484SOL    HW126351   0.744   4.103   4.445
 8484SOL    HW226352   0.748   4.222   4.557
 8485SOL     OW26353   2.451   3.618   5.717
 8485SOL    HW126354   2.421   3.573   5.802
 8485SOL    HW226355   2.430   3.559   5.640
 8486SOL     OW26356   3.985   0.315   2.515
 8486SOL    HW126357   4.067   0.364   2.542
 8486SOL    HW226358   3.968   0.239   2.578
 8487SOL     OW26359   4.657   0.182   1.346
 8487SOL    HW126360   4.595   0.202   1.270
 8487SOL    HW226361   4.662   0.261   1.407
 8488SOL     OW26362   5.440   3.328   4.872
 8488SOL    HW126363   5.453   3.410   4.927
 8488SOL    HW226364   5.498   3.254   4.909
 8489SOL     OW26365   4.223   5.174   2.867
 8489SOL    HW126366   4.302   5.224   2.903
 8489SOL    HW226367   4.155   5.238   2.832
 8490SOL     OW26368   3.503   5.416   2.371
 8490SOL    HW126369   3.477   5.354   2.444
 8490SOL    HW226370   3.535   5.363   2.292
 8491SOL     OW26371   1.659   1.005   1.820
 8491SOL    HW126372   1.579   1.051   1.781
 8491SOL    HW226373   1.740   1.061   1.803
 8492SOL     OW26374   5.471   3.721   4.260
 8492SOL    HW126375   5.402   3.664   4.304
 8492SOL    HW226376   5.490   3.801   4.317
 8493SOL     OW26377   3.291   2.279   0.810
 8493SOL    HW126378   3.206   2.299   0.859
 8493SOL    HW226379   3.282   2.304   0.714
 8494SOL     OW26380   3.759   5.703   0.098
 8494SOL    HW126381   3.684   5.691   0.033
 8494SOL    HW226382   3.800   5.793   0.085
 8495SOL     OW26383   0.578   2.613   0.161
 8495SOL    HW126384   0.629   2.529   0.183
 8495SOL    HW226385   0.584   2.631   0.063
 8496SOL     OW26386   6.491   2.252   2.933
 8496SOL    HW126387   6.519   2.337   2.888
 8496SOL    HW226388   6.439   2.274   3.016
 8497SOL     OW26389   6.088   4.936   3.591
 8497SOL    HW126390   6.160   4.884   3.547
 8497SOL    HW226391   6.089   5.030   3.557
 8498SOL     OW26392   6.615   1.039   0.679
 8498SOL    HW126393   6.673   0.962   0.704
 8498SOL    HW226394   6.645   1.121   0.727
 8499SOL     OW26395   3.059   4.169   6.176
 8499SOL    HW126396   3.008   4.097   6.129
 8499SOL    HW226397   3.065   4.250   6.117
 8500SOL     OW26398   3.273   0.333   6.219
 8500SOL    HW126399   3.363   0.362   6.187
 8500SOL    HW226400   3.280   0.302   6.314
 8501SOL     OW26401   2.576   4.606   6.056
 8501SOL    HW126402   2.547   4.686   6.108
 8501SOL    HW226403   2.497   4.548   6.037
 8502SOL     OW26404   0.342   6.965   1.996
 8502SOL    HW126405   0.357   0.035   2.005
 8502SOL    HW226406   0.405   6.916   2.056
 8503SOL     OW26407   3.165   6.215   2.796
 8503SOL    HW126408   3.066   6.211   2.787
 8503SOL    HW226409   3.193   6.308   2.820
 8504SOL     OW26410   1.086   5.796   3.599
 8504SOL    HW126411   1.019   5.840   3.540
 8504SOL    HW226412   1.139   5.866   3.648
 8505SOL     OW26413   4.793   2.970   3.980
 8505SOL    HW126414   4.809   3.067   3.995
 8505SOL    HW226415   4.756   2.956   3.888
 8506SOL     OW26416   0.835   6.519   0.758
 8506SOL    HW126417   0.751   6.465   0.765
 8506SOL    HW226418   0.904   6.467   0.707
 8507SOL     OW26419   1.673   0.620   4.648
 8507SOL    HW126420   1.772   0.629   4.648
 8507SOL    HW226421   1.642   0.590   4.739
 8508SOL     OW26422   1.007   2.932   6.292
 8508SOL    HW126423   0.959   3.019   6.303
 8508SOL    HW226424   1.090   2.947   6.239
 8509SOL     OW26425   6.084   2.245   4.690
 8509SOL    HW126426   6.052   2.199   4.607
 8509SOL    HW226427   6.008   2.254   4.754
 8510SOL     OW26428   4.701   0.235   2.649
 8510SOL    HW126429   4.795   0.204   2.633
 8510SOL    HW226430   4.671   0.290   2.571
 8511SOL     OW26431   0.023   4.644   2.110
 8511SOL    HW126432   6.988   4.640   2.187
 8511SOL    HW226433   0.089   4.570   2.118
 8512SOL     OW26434   4.206   2.909   0.226
 8512SOL    HW126435   4.156   2.943   0.305
 8512SOL    HW226436   4.142   2.890   0.152
 8513SOL     OW26437   0.480   4.610   1.664
 8513SOL    HW126438   0.409   4.560   1.614
 8513SOL    HW226439   0.447   4.702   1.685
 8514SOL     OW26440   2.532   2.322   5.909
 8514SOL    HW126441   2.515   2.224   5.900
 8514SOL    HW226442   2.629   2.340   5.894
 8515SOL     OW26443   1.750   0.706   0.865
 8515SOL    HW126444   1.800   0.792   0.870
 8515SOL    HW226445   1.746   0.675   0.770
 8516SOL     OW26446   5.211   2.466   4.196
 8516SOL    HW126447   5.133   2.410   4.169
 8516SOL    HW226448   5.269   2.483   4.117
 8517SOL     OW26449   2.110   1.729   6.254
 8517SOL    HW126450   2.060   1.771   6.330
 8517SOL    HW226451   2.199   1.697   6.287
 8518SOL     OW26452   5.457   4.889   6.678
 8518SOL    HW126453   5.529   4.884   6.747
 8518SOL    HW226454   5.381   4.831   6.704
 8519SOL     OW26455   0.996   3.131   0.757
 8519SOL    HW126456   0.901   3.163   0.756
 8519SOL    HW226457   1.057   3.208   0.771
 8520SOL     OW26458   3.958   4.112   6.133
 8520SOL    HW126459   3.979   4.156   6.045
 8520SOL    HW226460   3.937   4.015   6.117
 8521SOL     OW26461   2.025   6.608   5.209
 8521SOL    HW126462   2.075   6.606   5.122
 8521SOL    HW226463   2.066   6.543   5.273
 8522SOL     OW26464   0.558   6.976   0.318
 8522SOL    HW126465   0.571   6.887   0.275
 8522SOL    HW226466   0.588   0.019   0.256
 8523SOL     OW26467   3.561   1.523   0.355
 8523SOL    HW126468   3.542   1.594   0.287
 8523SOL    HW226469   3.475   1.480   0.382
 8524SOL     OW26470   2.235   5.331   4.878
 8524SOL    HW126471   2.276   5.392   4.810
 8524SOL    HW226472   2.137   5.321   4.860
 8525SOL     OW26473   6.153   4.282   1.824
 8525SOL    HW126474   6.120   4.351   1.759
 8525SOL    HW226475   6.114   4.193   1.802
 8526SOL     OW26476   0.540   4.746   1.074
 8526SOL    HW126477   0.606   4.709   1.139
 8526SOL    HW226478   0.587   4.807   1.010
 8527SOL     OW26479   2.878   0.594   5.487
 8527SOL    HW126480   2.875   0.554   5.578
 8527SOL    HW226481   2.837   0.685   5.490
 8528SOL     OW26482   5.278   0.800   0.588
 8528SOL    HW126483   5.370   0.837   0.585
 8528SOL    HW226484   5.217   0.855   0.530
 8529SOL     OW26485   0.867   6.254   6.753
 8529SOL    HW126486   0.776   6.221   6.780
 8529SOL    HW226487   0.897   6.204   6.672
 8530SOL     OW26488   3.205   4.010   3.560
 8530SOL    HW126489   3.244   4.046   3.645
 8530SOL    HW226490   3.276   4.003   3.491
 8531SOL     OW26491   6.976   5.149   4.539
 8531SOL    HW126492   7.028   5.234   4.530
 8531SOL    HW226493   0.009   5.071   4.540
 8532SOL     OW26494   2.843   4.704   6.339
 8532SOL    HW126495   2.875   4.610   6.338
 8532SOL    HW226496   2.743   4.706   6.346
 8533SOL     OW26497   2.440   6.596   5.424
 8533SOL    HW126498   2.445   6.501   5.394
 8533SOL    HW226499   2.452   6.600   5.524
 8534SOL     OW26500   2.380   2.276   3.242
 8534SOL    HW126501   2.404   2.324   3.327
 8534SOL    HW226502   2.284   2.249   3.246
 8535SOL     OW26503   6.352   0.203   2.623
 8535SOL    HW126504   6.259   0.180   2.651
 8535SOL    HW226505   6.371   0.299   2.643
 8536SOL     OW26506   0.649   1.499   4.615
 8536SOL    HW126507   0.720   1.538   4.556
 8536SOL    HW226508   0.692   1.451   4.691
 8537SOL     OW26509   6.722   1.060   2.716
 8537SOL    HW126510   6.732   1.159   2.708
 8537SOL    HW226511   6.625   1.038   2.731
 8538SOL     OW26512   0.925   2.435   0.008
 8538SOL    HW126513   0.938   2.336   0.016
 8538SOL    HW226514   0.851   2.463   0.069
 8539SOL     OW26515   5.488   2.762   2.592
 8539SOL    HW126516   5.420   2.702   2.633
 8539SOL    HW226517   5.449   2.852   2.578
 8540SOL     OW26518   3.582   0.288   0.359
 8540SOL    HW126519   3.485   0.311   0.358
 8540SOL    HW226520   3.599   0.212   0.295
 8541SOL     OW26521   2.042   2.631   4.577
 8541SOL    HW126522   1.964   2.669   4.628
 8541SOL    HW226523   2.127   2.662   4.619
 8542SOL     OW26524   3.345   4.919   0.595
 8542SOL    HW126525   3.303   4.990   0.651
 8542SOL    HW226526   3.290   4.835   0.601
 8543SOL     OW26527   2.426   2.283   6.651
 8543SOL    HW126528   2.352   2.224   6.618
 8543SOL    HW226529   2.504   2.277   6.589
 8544SOL     OW26530   6.125   2.677   3.476
 8544SOL    HW126531   6.206   2.736   3.483
 8544SOL    HW226532   6.066   2.692   3.555
 8545SOL     OW26533   4.144   6.641   5.001
 8545SOL    HW126534   4.138   6.549   4.964
 8545SOL    HW226535   4.077   6.700   4.956
 8546SOL     OW26536   4.619   2.242   6.667
 8546SOL    HW126537   4.626   2.321   6.729
 8546SOL    HW226538   4.529   2.241   6.625
 8547SOL     OW26539   1.096   4.239   2.918
 8547SOL    HW126540   0.999   4.233   2.895
 8547SOL    HW226541   1.147   4.269   2.837
 8548SOL     OW26542   6.255   1.620   5.427
 8548SOL    HW126543   6.348   1.583   5.422
 8548SOL    HW226544   6.196   1.567   5.366
 8549SOL     OW26545   5.382   2.933   4.964
 8549SOL    HW126546   5.450   2.986   4.913
 8549SOL    HW226547   5.381   2.962   5.059
 8550SOL     OW26548   0.794   4.442   5.997
 8550SOL    HW126549   0.888   4.430   6.027
 8550SOL    HW226550   0.738   4.368   6.035
 8551SOL     OW26551   3.185   4.362   1.305
 8551SOL    HW126552   3.211   4.426   1.377
 8551SOL    HW226553   3.244   4.281   1.310
 8552SOL     OW26554   3.117   6.956   4.156
 8552SOL    HW126555   3.057   6.962   4.076
 8552SOL    HW226556   3.212   6.957   4.126
 8553SOL     OW26557   5.964   4.687   6.937
 8553SOL    HW126558   6.018   4.767   6.910
 8553SOL    HW226559   5.878   4.687   6.886
 8554SOL     OW26560   6.241   3.893   6.578
 8554SOL    HW126561   6.203   3.803   6.556
 8554SOL    HW226562   6.215   3.919   6.671
 8555SOL     OW26563   1.507   6.466   4.193
 8555SOL    HW126564   1.510   6.542   4.257
 8555SOL    HW226565   1.599   6.445   4.160
 8556SOL     OW26566   6.044   0.322   4.052
 8556SOL    HW126567   6.000   0.271   3.978
 8556SOL    HW226568   6.032   0.273   4.138
 8557SOL     OW26569   0.055   0.865   6.951
 8557SOL    HW126570   0.083   0.937   6.886
 8557SOL    HW226571   0.120   0.862   7.027
 8558SOL     OW26572   1.054   5.798   2.060
 8558SOL    HW126573   1.072   5.701   2.074
 8558SOL    HW226574   1.136   5.842   2.024
 8559SOL     OW26575   0.609   1.433   5.655
 8559SOL    HW126576   0.682   1.450   5.722
 8559SOL    HW226577   0.607   1.507   5.588
 8560SOL     OW26578   6.593   2.646   6.279
 8560SOL    HW126579   6.595   2.703   6.197
 8560SOL    HW226580   6.652   2.686   6.349
 8561SOL     OW26581   5.039   6.826   5.503
 8561SOL    HW126582   4.953   6.813   5.454
 8561SOL    HW226583   5.086   6.906   5.466
 8562SOL     OW26584   3.687   0.062   4.180
 8562SOL    HW126585   3.661   0.089   4.273
 8562SOL    HW226586   3.756   7.019   4.184
 8563SOL     OW26587   2.999   2.899   6.394
 8563SOL    HW126588   2.995   2.951   6.308
 8563SOL    HW226589   2.907   2.876   6.423
 8564SOL     OW26590   6.938   6.386   3.981
 8564SOL    HW126591   6.966   6.290   3.978
 8564SOL    HW226592   6.845   6.394   3.944
 8565SOL     OW26593   3.966   0.665   1.874
 8565SOL    HW126594   4.000   0.612   1.952
 8565SOL    HW226595   3.870   0.688   1.889
 8566SOL     OW26596   2.114   3.672   3.240
 8566SOL    HW126597   2.112   3.724   3.155
 8566SOL    HW226598   2.169   3.721   3.308
 8567SOL     OW26599   5.329   6.206   0.730
 8567SOL    HW126600   5.360   6.238   0.640
 8567SOL    HW226601   5.308   6.284   0.788
 8568SOL     OW26602   5.374   1.289   7.018
 8568SOL    HW126603   5.304   1.320   6.953
 8568SOL    HW226604   5.341   1.303   0.082
 8569SOL     OW26605   4.032   1.537   5.643
 8569SOL    HW126606   4.064   1.613   5.587
 8569SOL    HW226607   4.106   1.471   5.655
 8570SOL     OW26608   0.584   4.270   6.694
 8570SOL    HW126609   0.560   4.241   6.602
 8570SOL    HW226610   0.677   4.308   6.695
 8571SOL     OW26611   6.766   4.477   4.649
 8571SOL    HW126612   6.853   4.508   4.611
 8571SOL    HW226613   6.776   4.386   4.687
 8572SOL     OW26614   3.110   5.072   5.524
 8572SOL    HW126615   3.116   4.983   5.569
 8572SOL    HW226616   3.172   5.074   5.446
 8573SOL     OW26617   4.220   5.941   4.488
 8573SOL    HW126618   4.188   6.007   4.420
 8573SOL    HW226619   4.143   5.884   4.517
 8574SOL     OW26620   0.471   3.560   4.539
 8574SOL    HW126621   0.561   3.533   4.504
 8574SOL    HW226622   0.461   3.659   4.532
 8575SOL     OW26623   2.572   3.476   6.358
 8575SOL    HW126624   2.656   3.511   6.400
 8575SOL    HW226625   2.583   3.475   6.259
 8576SOL     OW26626   1.534   0.224   1.395
 8576SOL    HW126627   1.569   0.240   1.487
 8576SOL    HW226628   1.554   0.303   1.337
 8577SOL     OW26629   6.832   5.315   3.383
 8577SOL    HW126630   6.804   5.219   3.382
 8577SOL    HW226631   6.903   5.330   3.315
 8578SOL     OW26632   4.659   6.637   3.671
 8578SOL    HW126633   4.699   6.722   3.705
 8578SOL    HW226634   4.610   6.655   3.586
 8579SOL     OW26635   0.787   5.170   3.336
 8579SOL    HW126636   0.843   5.111   3.394
 8579SOL    HW226637   0.846   5.235   3.288
 8580SOL     OW26638   3.266   4.559   5.707
 8580SOL    HW126639   3.331   4.635   5.708
 8580SOL    HW226640   3.183   4.585   5.754
 8581SOL     OW26641   3.418   3.037   0.436
 8581SOL    HW126642   3.514   3.062   0.423
 8581SOL    HW226643   3.411   2.968   0.508
 8582SOL     OW26644   4.315   4.278   1.100
 8582SOL    HW126645   4.226   4.323   1.094
 8582SOL    HW226646   4.310   4.202   1.164
 8583SOL     OW26647   5.350   0.441   5.279
 8583SOL    HW126648   5.326   0.474   5.188
 8583SOL    HW226649   5.419   0.502   5.319
 8584SOL     OW26650   0.499   5.315   6.596
 8584SOL    HW126651   0.568   5.285   6.662
 8584SOL    HW226652   0.543   5.332   6.508
 8585SOL     OW26653   1.003   1.053   0.831
 8585SOL    HW126654   0.933   1.101   0.778
 8585SOL    HW226655   1.056   1.119   0.884
 8586SOL     OW26656   4.190   5.227   4.250
 8586SOL    HW126657   4.248   5.170   4.192
 8586SOL    HW226658   4.247   5.281   4.312
 8587SOL     OW26659   6.918   2.213   1.599
 8587SOL    HW126660   6.968   2.149   1.541
 8587SOL    HW226661   6.950   2.306   1.582
 8588SOL     OW26662   3.952   2.126   0.497
 8588SOL    HW126663   3.942   2.141   0.398
 8588SOL    HW226664   3.861   2.120   0.538
 8589SOL     OW26665   2.836   1.528   4.822
 8589SOL    HW126666   2.923   1.521   4.872
 8589SOL    HW226667   2.810   1.624   4.814
 8590SOL     OW26668   6.293   5.127   5.499
 8590SOL    HW126669   6.329   5.044   5.541
 8590SOL    HW226670   6.204   5.109   5.459
 8591SOL     OW26671   0.798   2.813   0.185
 8591SOL    HW126672   0.750   2.885   0.235
 8591SOL    HW226673   0.733   2.744   0.155
 8592SOL     OW26674   6.380   5.880   6.351
 8592SOL    HW126675   6.324   5.804   6.384
 8592SOL    HW226676   6.337   5.967   6.376
 8593SOL     OW26677   0.402   6.565   3.243
 8593SOL    HW126678   0.349   6.547   3.159
 8593SOL    HW226679   0.442   6.657   3.237
 8594SOL     OW26680   2.997   3.215   3.391
 8594SOL    HW126681   2.970   3.244   3.483
 8594SOL    HW226682   2.946   3.268   3.323
 8595SOL     OW26683   2.072   2.851   1.439
 8595SOL    HW126684   2.118   2.885   1.357
 8595SOL    HW226685   2.118   2.886   1.520
 8596SOL     OW26686   6.702   4.213   2.368
 8596SOL    HW126687   6.759   4.177   2.441
 8596SOL    HW226688   6.609   4.226   2.401
 8597SOL     OW26689   2.418   1.868   0.644
 8597SOL    HW126690   2.420   1.894   0.547
 8597SOL    HW226691   2.479   1.928   0.696
 8598SOL     OW26692   4.913   3.995   1.387
 8598SOL    HW126693   4.997   4.011   1.439
 8598SOL    HW226694   4.843   4.062   1.415
 8599SOL     OW26695   0.961   3.357   1.665
 8599SOL    HW126696   1.032   3.372   1.597
 8599SOL    HW226697   0.991   3.287   1.730
 8600SOL     OW26698   6.428   3.423   5.840
 8600SOL    HW126699   6.425   3.358   5.916
 8600SOL    HW226700   6.513   3.475   5.845
 8601SOL     OW26701   0.286   0.789   5.116
 8601SOL    HW126702   0.350   0.718   5.089
 8601SOL    HW226703   0.205   0.748   5.157
 8602SOL     OW26704   1.827   5.772   2.146
 8602SOL    HW126705   1.895   5.838   2.115
 8602SOL    HW226706   1.850   5.741   2.238
 8603SOL     OW26707   4.341   3.578   1.252
 8603SOL    HW126708   4.440   3.562   1.250
 8603SOL    HW226709   4.323   3.672   1.279
 8604SOL     OW26710   5.708   1.992   2.470
 8604SOL    HW126711   5.657   1.963   2.551
 8604SOL    HW226712   5.713   2.092   2.468
 8605SOL     OW26713   2.849   6.077   2.165
 8605SOL    HW126714   2.926   6.075   2.229
 8605SOL    HW226715   2.841   5.988   2.121
 8606SOL     OW26716   4.334   5.488   5.675
 8606SOL    HW126717   4.256   5.549   5.657
 8606SOL    HW226718   4.375   5.513   5.762
 8607SOL     OW26719   2.824   5.861   1.678
 8607SOL    HW126720   2.831   5.767   1.645
 8607SOL    HW226721   2.866   5.867   1.769
 8608SOL     OW26722   5.784   6.346   2.386
 8608SOL    HW126723   5.700   6.296   2.405
 8608SOL    HW226724   5.856   6.281   2.361
 8609SOL     OW26725   4.359   0.968   6.538
 8609SOL    HW126726   4.440   0.995   6.589
 8609SOL    HW226727   4.366   0.872   6.510
 8610SOL     OW26728   0.025   6.833   4.522
 8610SOL    HW126729   0.112   6.878   4.542
 8610SOL    HW226730   6.995   6.894   4.470
 8611SOL     OW26731   1.433   1.851   3.262
 8611SOL    HW126732   1.432   1.951   3.276
 8611SOL    HW226733   1.339   1.817   3.259
 8612SOL     OW26734   4.703   2.789   4.695
 8612SOL    HW126735   4.664   2.817   4.782
 8612SOL    HW226736   4.791   2.743   4.710
 8613SOL     OW26737   1.357   1.562   6.910
 8613SOL    HW126738   1.324   1.483   6.961
 8613SOL    HW226739   1.385   1.634   6.973
 8614SOL     OW26740   1.347   1.146   3.411
 8614SOL    HW126741   1.270   1.200   3.377
 8614SOL    HW226742   1.422   1.208   3.436
 8615SOL     OW26743   4.402   2.213   5.344
 8615SOL    HW126744   4.314   2.233   5.302
 8615SOL    HW226745   4.445   2.136   5.296
 8616SOL     OW26746   1.399   3.024   0.082
 8616SOL    HW126747   1.385   2.964   0.161
 8616SOL    HW226748   1.425   3.115   0.113
 8617SOL     OW26749   6.209   3.177   1.091
 8617SOL    HW126750   6.244   3.267   1.063
 8617SOL    HW226751   6.140   3.146   1.026
 8618SOL     OW26752   4.420   0.864   3.070
 8618SOL    HW126753   4.503   0.818   3.038
 8618SOL    HW226754   4.371   0.903   2.992
 8619SOL     OW26755   4.435   5.681   0.927
 8619SOL    HW126756   4.376   5.601   0.915
 8619SOL    HW226757   4.382   5.764   0.914
 8620SOL     OW26758   6.720   6.550   3.124
 8620SOL    HW126759   6.794   6.484   3.108
 8620SOL    HW226760   6.727   6.625   3.059
 8621SOL     OW26761   5.531   0.687   3.078
 8621SOL    HW126762   5.596   0.612   3.093
 8621SOL    HW226763   5.575   0.774   3.097
 8622SOL     OW26764   5.557   5.305   7.021
 8622SOL    HW126765   5.637   5.244   7.024
 8622SOL    HW226766   5.557   5.364   0.073
 8623SOL     OW26767   5.874   2.519   2.888
 8623SOL    HW126768   5.827   2.566   2.963
 8623SOL    HW226769   5.819   2.527   2.805
 8624SOL     OW26770   0.410   4.317   4.037
 8624SOL    HW126771   0.331   4.256   4.037
 8624SOL    HW226772   0.487   4.273   4.081
 8625SOL     OW26773   3.434   0.624   6.389
 8625SOL    HW126774   3.453   0.718   6.358
 8625SOL    HW226775   3.458   0.615   6.485
 8626SOL     OW26776   3.360   2.963   1.959
 8626SOL    HW126777   3.449   2.958   1.915
 8626SOL    HW226778   3.326   3.057   1.955
 8627SOL     OW26779   2.711   0.034   6.519
 8627SOL    HW126780   2.624   0.047   6.567
 8627SOL    HW226781   2.773   0.109   6.542
 8628SOL     OW26782   5.746   0.946   6.965
 8628SOL    HW126783   5.743   0.855   7.007
 8628SOL    HW226784   5.716   1.015   0.003
 8629SOL     OW26785   1.750   5.266   4.059
 8629SOL    HW126786   1.729   5.176   4.096
 8629SOL    HW226787   1.687   5.334   4.096
 8630SOL     OW26788   5.406   4.436   3.911
 8630SOL    HW126789   5.453   4.413   3.996
 8630SOL    HW226790   5.392   4.535   3.907
 8631SOL     OW26791   4.473   6.136   3.634
 8631SOL    HW126792   4.377   6.163   3.622
 8631SOL    HW226793   4.477   6.039   3.659
 8632SOL     OW26794   4.333   0.647   3.230
 8632SOL    HW126795   4.402   0.583   3.263
 8632SOL    HW226796   4.376   0.716   3.171
 8633SOL     OW26797   5.971   0.400   3.589
 8633SOL    HW126798   5.930   0.480   3.632
 8633SOL    HW226799   6.070   0.400   3.605
 8634SOL     OW26800   6.415   5.730   1.795
 8634SOL    HW126801   6.464   5.648   1.822
 8634SOL    HW226802   6.317   5.717   1.811
 8635SOL     OW26803   5.948   3.518   5.380
 8635SOL    HW126804   5.982   3.600   5.334
 8635SOL    HW226805   5.964   3.525   5.478
 8636SOL     OW26806   5.495   5.788   0.218
 8636SOL    HW126807   5.577   5.733   0.234
 8636SOL    HW226808   5.417   5.727   0.204
 8637SOL     OW26809   1.556   0.598   1.746
 8637SOL    HW126810   1.551   0.500   1.766
 8637SOL    HW226811   1.610   0.613   1.663
 8638SOL     OW26812   4.960   5.355   1.027
 8638SOL    HW126813   5.032   5.423   1.016
 8638SOL    HW226814   4.875   5.399   1.055
 8639SOL     OW26815   6.395   3.214   1.749
 8639SOL    HW126816   6.337   3.260   1.681
 8639SOL    HW226817   6.344   3.206   1.835
 8640SOL     OW26818   5.254   6.276   1.365
 8640SOL    HW126819   5.256   6.269   1.265
 8640SOL    HW226820   5.348   6.278   1.399
 8641SOL     OW26821   5.187   4.925   3.354
 8641SOL    HW126822   5.107   4.984   3.351
 8641SOL    HW226823   5.173   4.853   3.422
 8642SOL     OW26824   4.778   1.767   1.417
 8642SOL    HW126825   4.844   1.843   1.415
 8642SOL    HW226826   4.717   1.778   1.495
 8643SOL     OW26827   4.588   0.996   6.688
 8643SOL    HW126828   4.560   1.023   6.780
 8643SOL    HW226829   4.687   1.011   6.678
 8644SOL     OW26830   6.443   3.535   5.394
 8644SOL    HW126831   6.425   3.490   5.306
 8644SOL    HW226832   6.401   3.626   5.393
 8645SOL     OW26833   6.016   4.497   1.694
 8645SOL    HW126834   6.010   4.556   1.775
 8645SOL    HW226835   5.940   4.517   1.633
 8646SOL     OW26836   5.342   0.150   0.973
 8646SOL    HW126837   5.393   0.224   0.926
 8646SOL    HW226838   5.311   0.183   1.062
 8647SOL     OW26839   4.760   4.701   2.071
 8647SOL    HW126840   4.806   4.789   2.083
 8647SOL    HW226841   4.750   4.682   1.973
 8648SOL     OW26842   5.563   1.608   4.343
 8648SOL    HW126843   5.599   1.545   4.412
 8648SOL    HW226844   5.620   1.691   4.341
 8649SOL     OW26845   0.535   4.607   5.592
 8649SOL    HW126846   0.454   4.611   5.650
 8649SOL    HW226847   0.579   4.518   5.604
 8650SOL     OW26848   0.893   4.784   2.347
 8650SOL    HW126849   0.978   4.827   2.317
 8650SOL    HW226850   0.874   4.810   2.442
 8651SOL     OW26851   3.310   2.711   1.208
 8651SOL    HW126852   3.382   2.748   1.266
 8651SOL    HW226853   3.299   2.613   1.225
 8652SOL     OW26854   1.404   2.996   4.262
 8652SOL    HW126855   1.444   2.905   4.245
 8652SOL    HW226856   1.344   2.992   4.341
 8653SOL     OW26857   5.973   3.243   6.275
 8653SOL    HW126858   6.041   3.183   6.233
 8653SOL    HW226859   5.995   3.257   6.371
 8654SOL     OW26860   0.110   6.166   2.715
 8654SOL    HW126861   0.182   6.228   2.747
 8654SOL    HW226862   0.022   6.196   2.752
 8655SOL     OW26863   6.180   6.235   3.660
 8655SOL    HW126864   6.116   6.210   3.587
 8655SOL    HW226865   6.255   6.289   3.622
 8656SOL     OW26866   6.656   1.947   1.584
 8656SOL    HW126867   6.681   1.851   1.573
 8656SOL    HW226868   6.716   1.990   1.652
 8657SOL     OW26869   3.066   4.193   0.760
 8657SOL    HW126870   2.982   4.232   0.798
 8657SOL    HW226871   3.139   4.196   0.828
 8658SOL     OW26872   0.524   5.194   0.108
 8658SOL    HW126873   0.438   5.192   0.160
 8658SOL    HW226874   0.550   5.289   0.091
 8659SOL     OW26875   4.617   0.552   4.039
 8659SOL    HW126876   4.571   0.541   3.951
 8659SOL    HW226877   4.551   0.538   4.113
 8660SOL     OW26878   5.227   5.045   0.583
 8660SOL    HW126879   5.280   5.106   0.524
 8660SOL    HW226880   5.223   5.083   0.676
 8661SOL     OW26881   6.333   3.688   1.388
 8661SOL    HW126882   6.273   3.620   1.345
 8661SOL    HW226883   6.336   3.672   1.486
 8662SOL     OW26884   6.977   0.762   0.850
 8662SOL    HW126885   6.946   0.686   0.908
 8662SOL    HW226886   0.026   0.732   0.795
 8663SOL     OW26887   2.343   6.096   0.672
 8663SOL    HW126888   2.385   6.176   0.715
 8663SOL    HW226889   2.411   6.050   0.614
 8664SOL     OW26890   4.386   5.189   1.551
 8664SOL    HW126891   4.296   5.227   1.570
 8664SOL    HW226892   4.414   5.215   1.458
 8665SOL     OW26893   4.697   5.137   4.957
 8665SOL    HW126894   4.741   5.132   4.868
 8665SOL    HW226895   4.727   5.220   5.004
 8666SOL     OW26896   5.805   3.569   4.382
 8666SOL    HW126897   5.820   3.599   4.288
 8666SOL    HW226898   5.713   3.531   4.391
 8667SOL     OW26899   5.078   2.166   3.083
 8667SOL    HW126900   5.155   2.197   3.139
 8667SOL    HW226901   5.111   2.127   2.998
 8668SOL     OW26902   3.371   1.567   4.430
 8668SOL    HW126903   3.412   1.658   4.421
 8668SOL    HW226904   3.349   1.532   4.339
 8669SOL     OW26905   4.342   6.924   5.556
 8669SOL    HW126906   4.382   6.940   5.466
 8669SOL    HW226907   4.415   6.901   5.621
 8670SOL     OW26908   4.274   4.814   3.416
 8670SOL    HW126909   4.351   4.751   3.423
 8670SOL    HW226910   4.206   4.778   3.352
 8671SOL     OW26911   5.808   6.089   2.818
 8671SOL    HW126912   5.901   6.082   2.780
 8671SOL    HW226913   5.759   6.163   2.773
 8672SOL     OW26914   3.377   4.834   5.206
 8672SOL    HW126915   3.283   4.801   5.206
 8672SOL    HW226916   3.434   4.773   5.262
 8673SOL     OW26917   5.575   1.925   0.604
 8673SOL    HW126918   5.523   2.003   0.640
 8673SOL    HW226919   5.623   1.953   0.521
 8674SOL     OW26920   0.578   0.397   2.428
 8674SOL    HW126921   0.541   0.466   2.490
 8674SOL    HW226922   0.678   0.399   2.431
 8675SOL     OW26923   1.718   2.068   2.459
 8675SOL    HW126924   1.795   2.067   2.395
 8675SOL    HW226925   1.699   1.974   2.489
 8676SOL     OW26926   4.640   6.991   3.343
 8676SOL    HW126927   4.703   7.013   3.417
 8676SOL    HW226928   4.594   0.045   3.312
 8677SOL     OW26929   2.105   4.355   4.962
 8677SOL    HW126930   2.018   4.312   4.986
 8677SOL    HW226931   2.175   4.327   5.028
 8678SOL     OW26932   1.326   0.866   6.003
 8678SOL    HW126933   1.271   0.947   5.982
 8678SOL    HW226934   1.421   0.894   6.021
 8679SOL     OW26935   6.468   2.538   5.234
 8679SOL    HW126936   6.453   2.456   5.179
 8679SOL    HW226937   6.487   2.616   5.173
 8680SOL     OW26938   1.072   3.671   0.420
 8680SOL    HW126939   1.069   3.574   0.395
 8680SOL    HW226940   1.160   3.710   0.393
 8681SOL     OW26941   4.357   3.518   0.992
 8681SOL    HW126942   4.300   3.578   0.936
 8681SOL    HW226943   4.318   3.510   1.084
 8682SOL     OW26944   2.198   5.899   2.766
 8682SOL    HW126945   2.194   5.980   2.824
 8682SOL    HW226946   2.247   5.826   2.814
 8683SOL     OW26947   5.975   3.315   6.533
 8683SOL    HW126948   6.017   3.275   6.615
 8683SOL    HW226949   5.993   3.414   6.532
 8684SOL     OW26950   6.379   2.823   4.421
 8684SOL    HW126951   6.475   2.812   4.396
 8684SOL    HW226952   6.370   2.900   4.486
 8685SOL     OW26953   0.459   2.200   5.252
 8685SOL    HW126954   0.378   2.215   5.308
 8685SOL    HW226955   0.531   2.264   5.278
 8686SOL     OW26956   6.425   2.049   3.549
 8686SOL    HW126957   6.343   2.096   3.582
 8686SOL    HW226958   6.443   2.076   3.454
 8687SOL     OW26959   4.122   0.734   2.893
 8687SOL    HW126960   4.213   0.695   2.887
 8687SOL    HW226961   4.090   0.730   2.988
 8688SOL     OW26962   1.979   6.827   2.319
 8688SOL    HW126963   2.044   6.900   2.339
 8688SOL    HW226964   1.999   6.748   2.375
 8689SOL     OW26965   4.567   5.623   0.542
 8689SOL    HW126966   4.592   5.583   0.454
 8689SOL    HW226967   4.531   5.715   0.528
 8690SOL     OW26968   1.286   1.069   2.394
 8690SOL    HW126969   1.287   0.970   2.378
 8690SOL    HW226970   1.320   1.116   2.312
 8691SOL     OW26971   6.219   1.587   0.663
 8691SOL    HW126972   6.179   1.678   0.672
 8691SOL    HW226973   6.155   1.527   0.615
 8692SOL     OW26974   1.581   1.710   4.236
 8692SOL    HW126975   1.677   1.687   4.227
 8692SOL    HW226976   1.567   1.806   4.212
 8693SOL     OW26977   5.638   2.021   6.887
 8693SOL    HW126978   5.686   2.109   6.881
 8693SOL    HW226979   5.539   2.037   6.881
 8694SOL     OW26980   3.918   6.199   6.187
 8694SOL    HW126981   3.828   6.242   6.184
 8694SOL    HW226982   3.909   6.103   6.211
 8695SOL     OW26983   4.408   4.062   5.406
 8695SOL    HW126984   4.334   4.001   5.378
 8695SOL    HW226985   4.491   4.042   5.353
 8696SOL     OW26986   1.501   5.531   1.096
 8696SOL    HW126987   1.583   5.558   1.045
 8696SOL    HW226988   1.509   5.436   1.126
 8697SOL     OW26989   5.457   4.628   7.020
 8697SOL    HW126990   5.498   4.551   0.039
 8697SOL    HW226991   5.358   4.621   7.022
 8698SOL     OW26992   6.027   5.951   4.316
 8698SOL    HW126993   6.113   5.910   4.344
 8698SOL    HW226994   6.025   5.960   4.216
 8699SOL     OW26995   1.456   1.493   5.262
 8699SOL    HW126996   1.386   1.549   5.219
 8699SOL    HW226997   1.509   1.549   5.326
 8700SOL     OW26998   2.527   1.894   6.539
 8700SOL    HW126999   2.518   1.799   6.570
 8700SOL    HW227000   2.606   1.901   6.478
 8701SOL     OW27001   1.168   2.013   4.151
 8701SOL    HW127002   1.091   1.977   4.204
 8701SOL    HW227003   1.254   1.994   4.199
 8702SOL     OW27004   5.396   5.837   6.632
 8702SOL    HW127005   5.382   5.794   6.721
 8702SOL    HW227006   5.492   5.864   6.623
 8703SOL     OW27007   1.918   5.923   1.200
 8703SOL    HW127008   1.878   5.867   1.273
 8703SOL    HW227009   1.925   5.868   1.116
 8704SOL     OW27010   0.594   4.220   1.846
 8704SOL    HW127011   0.574   4.150   1.914
 8704SOL    HW227012   0.517   4.229   1.783
 8705SOL     OW27013   5.244   6.771   4.712
 8705SOL    HW127014   5.150   6.747   4.737
 8705SOL    HW227015   5.276   6.845   4.771
 8706SOL     OW27016   5.028   2.257   6.163
 8706SOL    HW127017   5.108   2.234   6.219
 8706SOL    HW227018   5.022   2.356   6.152
 8707SOL     OW27019   4.701   2.493   5.846
 8707SOL    HW127020   4.786   2.485   5.794
 8707SOL    HW227021   4.628   2.442   5.802
 8708SOL     OW27022   3.872   1.410   0.886
 8708SOL    HW127023   3.962   1.369   0.877
 8708SOL    HW227024   3.824   1.369   0.963
 8709SOL     OW27025   6.324   3.772   1.130
 8709SOL    HW127026   6.304   3.868   1.111
 8709SOL    HW227027   6.339   3.760   1.228
 8710SOL     OW27028   0.474   3.173   3.377
 8710SOL    HW127029   0.543   3.124   3.324
 8710SOL    HW227030   0.393   3.188   3.320
 8711SOL     OW27031   0.927   1.553   4.077
 8711SOL    HW127032   0.853   1.508   4.027
 8711SOL    HW227033   0.969   1.623   4.019
 8712SOL     OW27034   3.667   1.098   6.028
 8712SOL    HW127035   3.633   1.095   5.934
 8712SOL    HW227036   3.747   1.039   6.037
 8713SOL     OW27037   6.228   4.818   2.537
 8713SOL    HW127038   6.197   4.823   2.633
 8713SOL    HW227039   6.304   4.882   2.524
 8714SOL     OW27040   1.596   1.144   4.822
 8714SOL    HW127041   1.609   1.226   4.878
 8714SOL    HW227042   1.586   1.171   4.726
 8715SOL     OW27043   6.266   1.362   1.774
 8715SOL    HW127044   6.192   1.391   1.714
 8715SOL    HW227045   6.245   1.389   1.868
 8716SOL     OW27046   1.222   1.654   1.599
 8716SOL    HW127047   1.231   1.618   1.691
 8716SOL    HW227048   1.292   1.612   1.540
 8717SOL     OW27049   3.938   2.976   0.933
 8717SOL    HW127050   3.902   3.032   0.858
 8717SOL    HW227051   3.885   2.993   1.016
 8718SOL     OW27052   6.744   3.086   6.186
 8718SOL    HW127053   6.660   3.087   6.241
 8718SOL    HW227054   6.721   3.100   6.090
 8719SOL     OW27055   6.792   0.732   5.963
 8719SOL    HW127056   6.764   0.828   5.968
 8719SOL    HW227057   6.786   0.701   5.868
 8720SOL     OW27058   4.929   3.955   5.794
 8720SOL    HW127059   4.906   3.870   5.746
 8720SOL    HW227060   4.845   3.999   5.827
 8721SOL     OW27061   0.135   1.772   4.427
 8721SOL    HW127062   0.107   1.712   4.353
 8721SOL    HW227063   0.228   1.747   4.457
 8722SOL     OW27064   3.621   2.689   0.619
 8722SOL    HW127065   3.640   2.606   0.670
 8722SOL    HW227066   3.570   2.666   0.536
 8723SOL     OW27067   6.939   4.736   0.244
 8723SOL    HW127068   6.873   4.676   0.200
 8723SOL    HW227069   6.999   4.777   0.174
 8724SOL     OW27070   5.474   6.236   6.663
 8724SOL    HW127071   5.436   6.238   6.756
 8724SOL    HW227072   5.400   6.246   6.596
 8725SOL     OW27073   2.242   5.942   0.976
 8725SOL    HW127074   2.238   5.850   0.939
 8725SOL    HW227075   2.174   5.999   0.929
 8726SOL     OW27076   4.950   0.616   1.411
 8726SOL    HW127077   4.937   0.697   1.468
 8726SOL    HW227078   4.900   0.628   1.325
 8727SOL     OW27079   6.178   5.655   0.676
 8727SOL    HW127080   6.204   5.663   0.580
 8727SOL    HW227081   6.083   5.623   0.682
 8728SOL     OW27082   2.384   6.978   5.696
 8728SOL    HW127083   2.458   6.915   5.721
 8728SOL    HW227084   2.299   6.946   5.738
 8729SOL     OW27085   5.641   6.376   4.665
 8729SOL    HW127086   5.547   6.344   4.668
 8729SOL    HW227087   5.668   6.412   4.754
 8730SOL     OW27088   0.105   0.194   1.448
 8730SOL    HW127089   0.086   0.163   1.355
 8730SOL    HW227090   0.181   0.141   1.486
 8731SOL     OW27091   1.254   1.890   2.513
 8731SOL    HW127092   1.218   1.916   2.424
 8731SOL    HW227093   1.179   1.876   2.578
 8732SOL     OW27094   5.544   4.682   1.685
 8732SOL    HW127095   5.588   4.746   1.748
 8732SOL    HW227096   5.527   4.728   1.597
 8733SOL     OW27097   0.166   6.250   1.357
 8733SOL    HW127098   0.147   6.228   1.453
 8733SOL    HW227099   0.249   6.202   1.328
 8734SOL     OW27100   6.852   4.981   0.293
 8734SOL    HW127101   6.883   5.034   0.372
 8734SOL    HW227102   6.892   4.890   0.297
 8735SOL     OW27103   6.663   2.379   0.068
 8735SOL    HW127104   6.755   2.378   0.030
 8735SOL    HW227105   6.644   2.292   0.114
 8736SOL     OW27106   0.705   4.869   6.456
 8736SOL    HW127107   0.733   4.809   6.380
 8736SOL    HW227108   0.728   4.825   6.543
 8737SOL     OW27109   3.958   5.807   6.556
 8737SOL    HW127110   3.879   5.851   6.600
 8737SOL    HW227111   4.009   5.755   6.624
 8738SOL     OW27112   1.613   3.549   4.894
 8738SOL    HW127113   1.538   3.611   4.869
 8738SOL    HW227114   1.685   3.601   4.940
 8739SOL     OW27115   1.517   2.957   5.310
 8739SOL    HW127116   1.472   3.016   5.243
 8739SOL    HW227117   1.612   2.941   5.282
 8740SOL     OW27118   1.728   6.372   1.532
 8740SOL    HW127119   1.731   6.282   1.487
 8740SOL    HW227120   1.751   6.362   1.629
 8741SOL     OW27121   1.158   3.516   2.358
 8741SOL    HW127122   1.164   3.455   2.279
 8741SOL    HW227123   1.179   3.466   2.441
 8742SOL     OW27124   4.657   6.829   2.088
 8742SOL    HW127125   4.698   6.902   2.034
 8742SOL    HW227126   4.705   6.743   2.071
 8743SOL     OW27127   2.435   4.415   3.321
 8743SOL    HW127128   2.347   4.459   3.306
 8743SOL    HW227129   2.469   4.437   3.412
 8744SOL     OW27130   2.968   3.361   5.908
 8744SOL    HW127131   2.922   3.445   5.881
 8744SOL    HW227132   3.055   3.383   5.953
 8745SOL     OW27133   6.618   1.894   7.027
 8745SOL    HW127134   6.570   1.972   6.988
 8745SOL    HW227135   6.565   1.810   7.012
 8746SOL     OW27136   5.244   4.143   5.189
 8746SOL    HW127137   5.187   4.222   5.170
 8746SOL    HW227138   5.215   4.101   5.276
 8747SOL     OW27139   1.822   2.908   3.818
 8747SOL    HW127140   1.722   2.907   3.823
 8747SOL    HW227141   1.859   2.945   3.903
 8748SOL     OW27142   2.891   0.429   0.007
 8748SOL    HW127143   2.982   0.403   7.006
 8748SOL    HW227144   2.825   0.408   6.964
 8749SOL     OW27145   4.051   1.392   3.885
 8749SOL    HW127146   3.958   1.429   3.886
 8749SOL    HW227147   4.061   1.324   3.957
 8750SOL     OW27148   2.280   0.832   5.182
 8750SOL    HW127149   2.215   0.795   5.248
 8750SOL    HW227150   2.359   0.771   5.175
 8751SOL     OW27151   2.199   0.086   2.933
 8751SOL    HW127152   2.232   0.003   2.977
 8751SOL    HW227153   2.130   0.130   2.991
 8752SOL     OW27154   2.031   2.761   6.528
 8752SOL    HW127155   1.942   2.803   6.513
 8752SOL    HW227156   2.041   2.682   6.468
 8753SOL     OW27157   5.744   1.242   5.234
 8753SOL    HW127158   5.837   1.203   5.233
 8753SOL    HW227159   5.680   1.174   5.199
 8754SOL     OW27160   1.915   0.960   5.262
 8754SOL    HW127161   1.982   1.029   5.234
 8754SOL    HW227162   1.933   0.874   5.214
 8755SOL     OW27163   2.372   2.070   0.399
 8755SOL    HW127164   2.427   2.147   0.369
 8755SOL    HW227165   2.316   2.097   0.477
 8756SOL     OW27166   2.156   3.204   3.972
 8756SOL    HW127167   2.155   3.206   3.872
 8756SOL    HW227168   2.166   3.110   4.004
 8757SOL     OW27169   4.876   5.887   4.362
 8757SOL    HW127170   4.785   5.876   4.323
 8757SOL    HW227171   4.926   5.959   4.313
 8758SOL     OW27172   5.005   6.402   2.146
 8758SOL    HW127173   5.098   6.387   2.178
 8758SOL    HW227174   5.000   6.388   2.047
 8759SOL     OW27175   5.198   1.250   5.760
 8759SOL    HW127176   5.114   1.282   5.805
 8759SOL    HW227177   5.256   1.204   5.827
 8760SOL     OW27178   2.120   2.984   3.369
 8760SOL    HW127179   2.175   2.949   3.294
 8760SOL    HW227180   2.135   3.082   3.380
 8761SOL     OW27181   4.901   6.707   0.973
 8761SOL    HW127182   4.840   6.699   1.052
 8761SOL    HW227183   4.928   6.802   0.961
 8762SOL     OW27184   1.113   4.192   0.044
 8762SOL    HW127185   1.118   4.285   0.005
 8762SOL    HW227186   1.040   4.141   7.028
 8763SOL     OW27187   0.091   6.293   5.580
 8763SOL    HW127188   0.113   6.196   5.581
 8763SOL    HW227189   0.112   6.333   5.669
 8764SOL     OW27190   3.261   2.194   5.396
 8764SOL    HW127191   3.239   2.223   5.303
 8764SOL    HW227192   3.233   2.265   5.461
 8765SOL     OW27193   0.238   0.254   5.303
 8765SOL    HW127194   0.196   0.248   5.213
 8765SOL    HW227195   0.187   0.318   5.360
 8766SOL     OW27196   2.473   4.496   2.511
 8766SOL    HW127197   2.380   4.475   2.483
 8766SOL    HW227198   2.526   4.524   2.431
 8767SOL     OW27199   5.245   1.622   4.857
 8767SOL    HW127200   5.160   1.675   4.865
 8767SOL    HW227201   5.310   1.673   4.801
 8768SOL     OW27202   1.652   4.181   6.974
 8768SOL    HW127203   1.608   4.095   6.951
 8768SOL    HW227204   1.698   4.218   6.892
 8769SOL     OW27205   2.362   0.699   5.546
 8769SOL    HW127206   2.416   0.621   5.578
 8769SOL    HW227207   2.296   0.667   5.478
 8770SOL     OW27208   5.333   2.018   2.109
 8770SOL    HW127209   5.296   2.102   2.148
 8770SOL    HW227210   5.430   2.030   2.089
 8771SOL     OW27211   2.001   2.523   6.398
 8771SOL    HW127212   1.986   2.474   6.484
 8771SOL    HW227213   2.049   2.464   6.333
 8772SOL     OW27214   6.011   6.182   6.642
 8772SOL    HW127215   5.965   6.227   6.718
 8772SOL    HW227216   5.985   6.226   6.556
 8773SOL     OW27217   3.180   2.136   3.444
 8773SOL    HW127218   3.097   2.170   3.399
 8773SOL    HW227219   3.238   2.213   3.470
 8774SOL     OW27220   1.127   0.988   0.030
 8774SOL    HW127221   1.039   0.950   0.000
 8774SOL    HW227222   1.202   0.931   7.024
 8775SOL     OW27223   6.515   6.928   4.209
 8775SOL    HW127224   6.496   6.937   4.306
 8775SOL    HW227225   6.480   7.008   4.161
 8776SOL     OW27226   2.963   3.619   4.614
 8776SOL    HW127227   2.965   3.687   4.688
 8776SOL    HW227228   2.995   3.661   4.529
 8777SOL     OW27229   6.686   5.495   2.383
 8777SOL    HW127230   6.690   5.395   2.389
 8777SOL    HW227231   6.599   5.523   2.343
 8778SOL     OW27232   0.875   2.014   3.264
 8778SOL    HW127233   0.857   1.937   3.326
 8778SOL    HW227234   0.952   1.991   3.205
 8779SOL     OW27235   1.702   4.659   0.889
 8779SOL    HW127236   1.751   4.583   0.847
 8779SOL    HW227237   1.649   4.626   0.968
 8780SOL     OW27238   2.250   5.645   4.373
 8780SOL    HW127239   2.344   5.670   4.349
 8780SOL    HW227240   2.195   5.641   4.289
 8781SOL     OW27241   0.710   2.326   2.603
 8781SOL    HW127242   0.776   2.367   2.539
 8781SOL    HW227243   0.708   2.227   2.590
 8782SOL     OW27244   4.900   1.551   2.902
 8782SOL    HW127245   4.908   1.639   2.950
 8782SOL    HW227246   4.825   1.555   2.837
 8783SOL     OW27247   5.158   2.253   5.459
 8783SOL    HW127248   5.124   2.347   5.471
 8783SOL    HW227249   5.081   2.191   5.444
 8784SOL     OW27250   5.399   4.209   5.927
 8784SOL    HW127251   5.357   4.276   5.866
 8784SOL    HW227252   5.335   4.134   5.943
 8785SOL     OW27253   5.235   4.936   6.321
 8785SOL    HW127254   5.257   4.847   6.362
 8785SOL    HW227255   5.166   4.982   6.377
 8786SOL     OW27256   1.349   6.164   0.441
 8786SOL    HW127257   1.347   6.217   0.356
 8786SOL    HW227258   1.323   6.222   0.517
 8787SOL     OW27259   1.379   2.791   0.234
 8787SOL    HW127260   1.351   2.703   0.272
 8787SOL    HW227261   1.466   2.781   0.187
 8788SOL     OW27262   1.218   1.640   5.188
 8788SOL    HW127263   1.145   1.572   5.200
 8788SOL    HW227264   1.185   1.716   5.132
 8789SOL     OW27265   0.536   0.137   6.429
 8789SOL    HW127266   0.568   0.178   6.343
 8789SOL    HW227267   0.464   0.194   6.468
 8790SOL     OW27268   5.041   1.346   0.134
 8790SOL    HW127269   4.953   1.326   0.093
 8790SOL    HW227270   5.074   1.266   0.183
 8791SOL     OW27271   4.726   6.566   5.051
 8791SOL    HW127272   4.778   6.648   5.078
 8791SOL    HW227273   4.628   6.583   5.066
 8792SOL     OW27274   5.107   0.059   2.841
 8792SOL    HW127275   5.111   0.060   2.941
 8792SOL    HW227276   5.054   0.138   2.809
 8793SOL     OW27277   1.185   4.174   4.105
 8793SOL    HW127278   1.173   4.192   4.202
 8793SOL    HW227279   1.187   4.075   4.090
 8794SOL     OW27280   2.095   6.353   2.811
 8794SOL    HW127281   2.159   6.361   2.734
 8794SOL    HW227282   2.009   6.398   2.787
 8795SOL     OW27283   1.883   6.318   5.237
 8795SOL    HW127284   1.923   6.232   5.204
 8795SOL    HW227285   1.899   6.327   5.335
 8796SOL     OW27286   5.820   2.653   5.379
 8796SOL    HW127287   5.850   2.572   5.329
 8796SOL    HW227288   5.899   2.695   5.424
 8797SOL     OW27289   0.437   6.844   6.704
 8797SOL    HW127290   0.477   6.860   6.794
 8797SOL    HW227291   0.337   6.845   6.710
 8798SOL     OW27292   3.964   3.696   5.838
 8798SOL    HW127293   3.951   3.769   5.771
 8798SOL    HW227294   4.044   3.642   5.814
 8799SOL     OW27295   3.717   6.479   2.340
 8799SOL    HW127296   3.644   6.412   2.350
 8799SOL    HW227297   3.805   6.433   2.338
 8800SOL     OW27298   4.678   5.103   0.429
 8800SOL    HW127299   4.690   5.150   0.342
 8800SOL    HW227300   4.764   5.060   0.456
 8801SOL     OW27301   3.136   6.497   4.983
 8801SOL    HW127302   3.154   6.595   4.977
 8801SOL    HW227303   3.127   6.470   5.079
 8802SOL     OW27304   2.333   6.863   2.081
 8802SOL    HW127305   2.392   6.852   2.000
 8802SOL    HW227306   2.299   6.773   2.109
 8803SOL     OW27307   3.606   6.146   0.645
 8803SOL    HW127308   3.662   6.229   0.640
 8803SOL    HW227309   3.520   6.161   0.596
 8804SOL     OW27310   3.558   0.312   0.755
 8804SOL    HW127311   3.535   0.407   0.778
 8804SOL    HW227312   3.553   0.255   0.837
 8805SOL     OW27313   0.317   0.282   3.220
 8805SOL    HW127314   0.256   0.352   3.256
 8805SOL    HW227315   0.405   0.323   3.197
 8806SOL     OW27316   2.147   4.801   0.054
 8806SOL    HW127317   2.171   4.801   6.985
 8806SOL    HW227318   2.054   4.835   0.066
 8807SOL     OW27319   1.743   6.167   6.404
 8807SOL    HW127320   1.760   6.248   6.460
 8807SOL    HW227321   1.803   6.168   6.325
 8808SOL     OW27322   6.154   1.455   1.151
 8808SOL    HW127323   6.072   1.511   1.149
 8808SOL    HW227324   6.181   1.431   1.058
 8809SOL     OW27325   5.925   4.432   0.828
 8809SOL    HW127326   5.960   4.371   0.899
 8809SOL    HW227327   5.940   4.527   0.854
 8810SOL     OW27328   5.343   1.599   3.669
 8810SOL    HW127329   5.395   1.638   3.594
 8810SOL    HW227330   5.248   1.587   3.641
 8811SOL     OW27331   1.364   1.409   4.152
 8811SOL    HW127332   1.422   1.337   4.189
 8811SOL    HW227333   1.268   1.386   4.167
 8812SOL     OW27334   1.948   0.925   0.439
 8812SOL    HW127335   1.863   0.875   0.453
 8812SOL    HW227336   2.022   0.880   0.490
 8813SOL     OW27337   1.328   5.690   0.825
 8813SOL    HW127338   1.423   5.696   0.855
 8813SOL    HW227339   1.279   5.773   0.854
 8814SOL     OW27340   5.437   6.727   7.019
 8814SOL    HW127341   5.519   6.675   6.996
 8814SOL    HW227342   5.392   6.686   0.069
 8815SOL     OW27343   6.985   5.669   2.718
 8815SOL    HW127344   6.897   5.649   2.675
 8815SOL    HW227345   6.973   5.740   2.788
 8816SOL     OW27346   0.943   6.188   1.744
 8816SOL    HW127347   1.003   6.165   1.667
 8816SOL    HW227348   0.997   6.201   1.827
 8817SOL     OW27349   2.535   4.389   5.228
 8817SOL    HW127350   2.624   4.433   5.221
 8817SOL    HW227351   2.512   4.374   5.324
 8818SOL     OW27352   0.036   5.331   4.879
 8818SOL    HW127353   6.974   5.337   4.919
 8818SOL    HW227354   0.088   5.258   4.924
 8819SOL     OW27355   5.234   0.201   3.694
 8819SOL    HW127356   5.244   0.190   3.595
 8819SOL    HW227357   5.234   0.298   3.718
 8820SOL     OW27358   1.473   2.586   3.914
 8820SOL    HW127359   1.394   2.538   3.875
 8820SOL    HW227360   1.467   2.683   3.892
 8821SOL     OW27361   1.785   0.128   6.643
 8821SOL    HW127362   1.806   0.202   6.580
 8821SOL    HW227363   1.823   0.149   6.733
 8822SOL     OW27364   0.361   1.609   4.085
 8822SOL    HW127365   0.352   1.519   4.128
 8822SOL    HW227366   0.286   1.623   4.020
 8823SOL     OW27367   2.624   4.891   2.071
 8823SOL    HW127368   2.714   4.882   2.114
 8823SOL    HW227369   2.560   4.828   2.115
 8824SOL     OW27370   4.635   4.048   0.624
 8824SOL    HW127371   4.602   4.035   0.530
 8824SOL    HW227372   4.629   3.961   0.673
 8825SOL     OW27373   1.915   2.466   1.323
 8825SOL    HW127374   1.942   2.370   1.323
 8825SOL    HW227375   1.815   2.472   1.324
 8826SOL     OW27376   5.806   0.633   0.303
 8826SOL    HW127377   5.717   0.602   0.338
 8826SOL    HW227378   5.836   0.713   0.356
 8827SOL     OW27379   0.551   1.395   3.400
 8827SOL    HW127380   0.585   1.301   3.400
 8827SOL    HW227381   0.537   1.424   3.305
 8828SOL     OW27382   1.276   6.144   2.614
 8828SOL    HW127383   1.186   6.130   2.574
 8828SOL    HW227384   1.315   6.230   2.579
 8829SOL     OW27385   0.751   1.740   7.014
 8829SOL    HW127386   0.652   1.735   7.021
 8829SOL    HW227387   0.780   1.701   6.926
 8830SOL     OW27388   1.190   1.736   0.487
 8830SOL    HW127389   1.190   1.836   0.484
 8830SOL    HW227390   1.217   1.701   0.398
 8831SOL     OW27391   0.150   0.980   2.427
 8831SOL    HW127392   0.087   1.039   2.376
 8831SOL    HW227393   0.104   0.945   2.509
 8832SOL     OW27394   7.005   0.979   2.643
 8832SOL    HW127395   0.024   0.891   2.637
 8832SOL    HW227396   6.912   0.964   2.675
 8833SOL     OW27397   1.706   4.612   3.343
 8833SOL    HW127398   1.676   4.525   3.306
 8833SOL    HW227399   1.658   4.630   3.429
 8834SOL     OW27400   6.035   3.642   4.143
 8834SOL    HW127401   5.936   3.632   4.129
 8834SOL    HW227402   6.081   3.559   4.112
 8835SOL     OW27403   0.586   0.256   6.199
 8835SOL    HW127404   0.494   0.265   6.161
 8835SOL    HW227405   0.610   0.341   6.248
 8836SOL     OW27406   5.090   1.620   1.151
 8836SOL    HW127407   5.010   1.573   1.188
 8836SOL    HW227408   5.088   1.618   1.051
 8837SOL     OW27409   0.907   1.799   2.364
 8837SOL    HW127410   0.830   1.778   2.304
 8837SOL    HW227411   0.910   1.734   2.440
 8838SOL     OW27412   2.297   6.142   3.609
 8838SOL    HW127413   2.375   6.099   3.655
 8838SOL    HW227414   2.277   6.093   3.524
 8839SOL     OW27415   5.585   6.864   4.141
 8839SOL    HW127416   5.564   6.846   4.045
 8839SOL    HW227417   5.499   6.871   4.193
 8840SOL     OW27418   4.875   1.293   2.666
 8840SOL    HW127419   4.815   1.373   2.662
 8840SOL    HW227420   4.969   1.323   2.684
 8841SOL     OW27421   2.016   6.995   4.270
 8841SOL    HW127422   1.999   6.899   4.292
 8841SOL    HW227423   1.986   0.023   4.346
 8842SOL     OW27424   1.615   2.524   1.881
 8842SOL    HW127425   1.653   2.450   1.826
 8842SOL    HW227426   1.683   2.596   1.892
 8843SOL     OW27427   0.423   3.410   4.767
 8843SOL    HW127428   0.371   3.344   4.714
 8843SOL    HW227429   0.446   3.489   4.710
 8844SOL     OW27430   5.937   1.204   6.164
 8844SOL    HW127431   6.036   1.196   6.177
 8844SOL    HW227432   5.892   1.194   6.252
 8845SOL     OW27433   5.612   3.543   0.108
 8845SOL    HW127434   5.606   3.542   0.008
 8845SOL    HW227435   5.651   3.630   0.138
 8846SOL     OW27436   2.733   4.700   3.346
 8846SOL    HW127437   2.689   4.654   3.270
 8846SOL    HW227438   2.723   4.645   3.429
 8847SOL     OW27439   1.678   0.518   2.557
 8847SOL    HW127440   1.684   0.616   2.542
 8847SOL    HW227441   1.612   0.478   2.494
 8848SOL     OW27442   1.243   0.180   2.844
 8848SOL    HW127443   1.214   0.098   2.795
 8848SOL    HW227444   1.290   0.153   2.928
 8849SOL     OW27445   2.573   6.968   1.374
 8849SOL    HW127446   2.485   6.942   1.412
 8849SOL    HW227447   2.588   0.037   1.388
 8850SOL     OW27448   2.531   2.670   0.013
 8850SOL    HW127449   2.515   2.592   6.982
 8850SOL    HW227450   2.627   2.698   0.006
 8851SOL     OW27451   1.834   3.590   2.308
 8851SOL    HW127452   1.930   3.606   2.283
 8851SOL    HW227453   1.793   3.527   2.242
 8852SOL     OW27454   1.084   2.067   5.475
 8852SOL    HW127455   1.056   1.973   5.496
 8852SOL    HW227456   1.145   2.068   5.396
 8853SOL     OW27457   5.316   0.510   1.656
 8853SOL    HW127458   5.276   0.420   1.640
 8853SOL    HW227459   5.356   0.544   1.571
 8854SOL     OW27460   1.087   2.648   5.148
 8854SOL    HW127461   1.169   2.682   5.102
 8854SOL    HW227462   1.112   2.580   5.216
 8855SOL     OW27463   5.478   4.893   1.401
 8855SOL    HW127464   5.427   4.940   1.329
 8855SOL    HW227465   5.496   4.956   1.477
 8856SOL     OW27466   6.590   0.948   5.788
 8856SOL    HW127467   6.652   0.940   5.710
 8856SOL    HW227468   6.639   0.989   5.865
 8857SOL     OW27469   6.496   1.911   6.352
 8857SOL    HW127470   6.487   1.812   6.364
 8857SOL    HW227471   6.562   1.931   6.280
 8858SOL     OW27472   0.006   6.158   4.922
 8858SOL    HW127473   7.002   6.198   5.007
 8858SOL    HW227474   6.987   6.072   4.904
 8859SOL     OW27475   1.149   6.054   3.306
 8859SOL    HW127476   1.070   6.006   3.267
 8859SOL    HW227477   1.202   6.097   3.232
 8860SOL     OW27478   0.072   3.915   2.713
 8860SOL    HW127479   7.013   3.897   2.756
 8860SOL    HW227480   0.103   3.833   2.665
 8861SOL     OW27481   3.536   2.776   1.353
 8861SOL    HW127482   3.554   2.873   1.333
 8861SOL    HW227483   3.623   2.729   1.369
 8862SOL     OW27484   4.567   4.549   4.778
 8862SOL    HW127485   4.497   4.546   4.849
 8862SOL    HW227486   4.628   4.471   4.788
 8863SOL     OW27487   1.902   3.852   3.259
 8863SOL    HW127488   1.928   3.946   3.283
 8863SOL    HW227489   1.974   3.789   3.287
 8864SOL     OW27490   6.396   2.136   5.609
 8864SOL    HW127491   6.344   2.152   5.693
 8864SOL    HW227492   6.398   2.039   5.588
 8865SOL     OW27493   2.991   1.764   0.226
 8865SOL    HW127494   3.039   1.821   0.159
 8865SOL    HW227495   2.944   1.822   0.292
 8866SOL     OW27496   5.796   6.756   1.932
 8866SOL    HW127497   5.827   6.664   1.906
 8866SOL    HW227498   5.842   6.824   1.876
 8867SOL     OW27499   6.545   2.952   2.677
 8867SOL    HW127500   6.450   2.977   2.696
 8867SOL    HW227501   6.566   2.865   2.724
 8868SOL     OW27502   7.022   3.802   3.821
 8868SOL    HW127503   6.963   3.833   3.896
 8868SOL    HW227504   7.000   3.854   3.738
 8869SOL     OW27505   4.957   0.599   3.414
 8869SOL    HW127506   4.866   0.638   3.408
 8869SOL    HW227507   5.017   0.662   3.463
 8870SOL     OW27508   1.423   0.827   2.130
 8870SOL    HW127509   1.383   0.902   2.078
 8870SOL    HW227510   1.488   0.777   2.073
 8871SOL     OW27511   7.026   0.732   1.845
 8871SOL    HW127512   6.948   0.790   1.869
 8871SOL    HW227513   7.016   0.643   1.889
 8872SOL     OW27514   6.757   3.807   3.319
 8872SOL    HW127515   6.682   3.756   3.361
 8872SOL    HW227516   6.790   3.876   3.383
 8873SOL     OW27517   2.453   2.208   2.588
 8873SOL    HW127518   2.505   2.161   2.517
 8873SOL    HW227519   2.437   2.145   2.664
 8874SOL     OW27520   2.894   6.382   0.186
 8874SOL    HW127521   2.837   6.305   0.213
 8874SOL    HW227522   2.941   6.418   0.266
 8875SOL     OW27523   6.576   3.077   4.368
 8875SOL    HW127524   6.547   2.982   4.353
 8875SOL    HW227525   6.661   3.077   4.420
 8876SOL     OW27526   4.520   0.238   0.047
 8876SOL    HW127527   4.426   0.250   0.014
 8876SOL    HW227528   4.558   0.327   0.072
 8877SOL     OW27529   1.259   4.921   1.269
 8877SOL    HW127530   1.304   4.941   1.183
 8877SOL    HW227531   1.166   4.889   1.251
 8878SOL     OW27532   4.727   4.164   1.484
 8878SOL    HW127533   4.639   4.138   1.523
 8878SOL    HW227534   4.791   4.188   1.557
 8879SOL     OW27535   6.826   4.101   2.621
 8879SOL    HW127536   6.772   4.058   2.693
 8879SOL    HW227537   6.890   4.166   2.662
 8880SOL     OW27538   4.172   2.004   3.066
 8880SOL    HW127539   4.120   2.086   3.042
 8880SOL    HW227540   4.113   1.924   3.061
 8881SOL     OW27541   3.942   4.914   3.452
 8881SOL    HW127542   4.017   4.927   3.516
 8881SOL    HW227543   3.979   4.904   3.359
 8882SOL     OW27544   4.063   0.566   0.445
 8882SOL    HW127545   4.156   0.595   0.425
 8882SOL    HW227546   4.064   0.472   0.480
 8883SOL     OW27547   0.099   6.570   3.830
 8883SOL    HW127548   0.159   6.562   3.751
 8883SOL    HW227549   0.096   6.483   3.880
 8884SOL     OW27550   4.947   3.150   5.466
 8884SOL    HW127551   4.888   3.223   5.431
 8884SOL    HW227552   4.940   3.070   5.405
 8885SOL     OW27553   5.849   5.878   0.514
 8885SOL    HW127554   5.754   5.869   0.546
 8885SOL    HW227555   5.894   5.953   0.562
 8886SOL     OW27556   4.205   5.886   6.899
 8886SOL    HW127557   4.203   5.847   6.807
 8886SOL    HW227558   4.181   5.983   6.894
 8887SOL     OW27559   3.966   0.556   1.616
 8887SOL    HW127560   4.012   0.467   1.618
 8887SOL    HW227561   3.982   0.604   1.702
 8888SOL     OW27562   3.353   1.877   2.480
 8888SOL    HW127563   3.320   1.971   2.470
 8888SOL    HW227564   3.331   1.825   2.398
 8889SOL     OW27565   1.465   5.059   0.260
 8889SOL    HW127566   1.415   5.088   0.178
 8889SOL    HW227567   1.558   5.032   0.234
 8890SOL     OW27568   0.955   6.807   0.157
 8890SOL    HW127569   0.885   6.790   0.088
 8890SOL    HW227570   0.972   6.724   0.209
 8891SOL     OW27571   5.969   4.059   5.673
 8891SOL    HW127572   5.895   4.115   5.709
 8891SOL    HW227573   6.036   4.042   5.746
 8892SOL     OW27574   2.972   5.600   4.963
 8892SOL    HW127575   2.989   5.509   5.001
 8892SOL    HW227576   3.053   5.629   4.911
 8893SOL     OW27577   1.080   5.098   5.610
 8893SOL    HW127578   1.093   5.021   5.548
 8893SOL    HW227579   0.986   5.098   5.644
 8894SOL     OW27580   4.882   1.757   1.726
 8894SOL    HW127581   4.793   1.790   1.693
 8894SOL    HW227582   4.939   1.834   1.753
 8895SOL     OW27583   6.555   3.587   1.080
 8895SOL    HW127584   6.469   3.628   1.110
 8895SOL    HW227585   6.586   3.520   1.148
 8896SOL     OW27586   1.201   1.721   3.687
 8896SOL    HW127587   1.278   1.784   3.682
 8896SOL    HW227588   1.173   1.710   3.783
 8897SOL     OW27589   1.737   5.615   4.121
 8897SOL    HW127590   1.766   5.683   4.053
 8897SOL    HW227591   1.654   5.570   4.088
 8898SOL     OW27592   4.984   3.783   2.604
 8898SOL    HW127593   4.963   3.689   2.578
 8898SOL    HW227594   5.037   3.826   2.531
 8899SOL     OW27595   1.879   3.997   2.988
 8899SOL    HW127596   1.868   3.924   3.055
 8899SOL    HW227597   1.975   4.004   2.962
 8900SOL     OW27598   4.365   1.616   4.302
 8900SOL    HW127599   4.455   1.577   4.318
 8900SOL    HW227600   4.363   1.659   4.211
 8901SOL     OW27601   1.200   5.119   4.830
 8901SOL    HW127602   1.244   5.031   4.845
 8901SOL    HW227603   1.132   5.136   4.901
 8902SOL     OW27604   0.236   4.757   0.276
 8902SOL    HW127605   0.195   4.787   0.190
 8902SOL    HW227606   0.204   4.665   0.298
 8903SOL     OW27607   1.331   6.917   5.705
 8903SOL    HW127608   1.411   6.950   5.655
 8903SOL    HW227609   1.251   6.920   5.646
 8904SOL     OW27610   0.857   1.062   3.700
 8904SOL    HW127611   0.759   1.039   3.693
 8904SOL    HW227612   0.908   1.007   3.634
 8905SOL     OW27613   1.319   3.827   2.802
 8905SOL    HW127614   1.287   3.745   2.755
 8905SOL    HW227615   1.240   3.877   2.838
 8906SOL     OW27616   5.879   6.986   0.104
 8906SOL    HW127617   5.888   6.984   0.005
 8906SOL    HW227618   5.964   7.018   0.145
 8907SOL     OW27619   2.980   3.094   5.219
 8907SOL    HW127620   2.914   3.150   5.169
 8907SOL    HW227621   3.045   3.153   5.267
 8908SOL     OW27622   1.257   4.312   6.295
 8908SOL    HW127623   1.260   4.375   6.373
 8908SOL    HW227624   1.331   4.334   6.232
 8909SOL     OW27625   1.799   5.747   1.414
 8909SOL    HW127626   1.754   5.686   1.349
 8909SOL    HW227627   1.772   5.723   1.507
 8910SOL     OW27628   0.912   0.425   3.829
 8910SOL    HW127629   0.835   0.397   3.770
 8910SOL    HW227630   0.882   0.496   3.892
 8911SOL     OW27631   4.455   2.446   4.341
 8911SOL    HW127632   4.434   2.488   4.429
 8911SOL    HW227633   4.439   2.347   4.346
 8912SOL     OW27634   3.507   3.637   4.202
 8912SOL    HW127635   3.548   3.576   4.136
 8912SOL    HW227636   3.578   3.695   4.243
 8913SOL     OW27637   5.223   5.969   0.735
 8913SOL    HW127638   5.129   5.980   0.767
 8913SOL    HW227639   5.275   6.052   0.754
 8914SOL     OW27640   4.758   6.079   5.341
 8914SOL    HW127641   4.856   6.069   5.357
 8914SOL    HW227642   4.731   6.023   5.263
 8915SOL     OW27643   1.792   0.788   3.126
 8915SOL    HW127644   1.843   0.864   3.167
 8915SOL    HW227645   1.832   0.767   3.036
 8916SOL     OW27646   5.150   1.239   1.068
 8916SOL    HW127647   5.214   1.316   1.080
 8916SOL    HW227648   5.091   1.233   1.149
 8917SOL     OW27649   5.868   1.701   0.508
 8917SOL    HW127650   5.769   1.697   0.493
 8917SOL    HW227651   5.907   1.609   0.502
 8918SOL     OW27652   0.742   3.260   3.037
 8918SOL    HW127653   0.799   3.342   3.026
 8918SOL    HW227654   0.662   3.283   3.091
 8919SOL     OW27655   6.093   2.848   1.517
 8919SOL    HW127656   6.160   2.776   1.502
 8919SOL    HW227657   6.099   2.882   1.611
 8920SOL     OW27658   0.262   0.864   0.112
 8920SOL    HW127659   0.305   0.795   0.171
 8920SOL    HW227660   0.327   0.892   0.041
 8921SOL     OW27661   1.014   2.742   1.993
 8921SOL    HW127662   0.977   2.792   2.071
 8921SOL    HW227663   0.943   2.683   1.955
 8922SOL     OW27664   4.442   5.497   3.769
 8922SOL    HW127665   4.401   5.515   3.858
 8922SOL    HW227666   4.436   5.400   3.748
 8923SOL     OW27667   2.270   1.543   4.502
 8923SOL    HW127668   2.358   1.529   4.548
 8923SOL    HW227669   2.259   1.473   4.431
 8924SOL     OW27670   6.220   4.691   5.036
 8924SOL    HW127671   6.228   4.622   5.107
 8924SOL    HW227672   6.308   4.704   4.991
 8925SOL     OW27673   0.760   6.640   2.793
 8925SOL    HW127674   0.782   6.606   2.884
 8925SOL    HW227675   0.844   6.658   2.742
 8926SOL     OW27676   6.063   0.994   0.033
 8926SOL    HW127677   5.963   0.989   0.041
 8926SOL    HW227678   6.099   0.903   0.011
 8927SOL     OW27679   1.776   0.696   6.373
 8927SOL    HW127680   1.677   0.708   6.366
 8927SOL    HW227681   1.816   0.693   6.281
 8928SOL     OW27682   1.322   6.459   5.640
 8928SOL    HW127683   1.330   6.370   5.596
 8928SOL    HW227684   1.412   6.491   5.669
 8929SOL     OW27685   6.725   1.446   3.987
 8929SOL    HW127686   6.785   1.409   4.057
 8929SOL    HW227687   6.723   1.384   3.909
 8930SOL     OW27688   2.183   4.467   3.925
 8930SOL    HW127689   2.220   4.531   3.992
 8930SOL    HW227690   2.213   4.374   3.948
 8931SOL     OW27691   4.227   3.579   0.500
 8931SOL    HW127692   4.194   3.630   0.421
 8931SOL    HW227693   4.315   3.618   0.530
 8932SOL     OW27694   0.725   3.455   3.744
 8932SOL    HW127695   0.735   3.399   3.827
 8932SOL    HW227696   0.669   3.406   3.678
 8933SOL     OW27697   4.117   1.824   5.802
 8933SOL    HW127698   4.042   1.889   5.793
 8933SOL    HW227699   4.139   1.785   5.712
 8934SOL     OW27700   2.523   6.084   2.832
 8934SOL    HW127701   2.507   6.053   2.738
 8934SOL    HW227702   2.590   6.025   2.876
 8935SOL     OW27703   6.719   4.742   0.684
 8935SOL    HW127704   6.659   4.717   0.607
 8935SOL    HW227705   6.673   4.809   0.742
 8936SOL     OW27706   3.975   2.456   0.179
 8936SOL    HW127707   4.043   2.474   0.108
 8936SOL    HW227708   3.904   2.525   0.176
 8937SOL     OW27709   0.508   7.002   6.019
 8937SOL    HW127710   0.586   6.941   6.007
 8937SOL    HW227711   0.528   0.038   6.093
 8938SOL     OW27712   5.005   6.309   1.472
 8938SOL    HW127713   4.963   6.222   1.498
 8938SOL    HW227714   5.094   6.292   1.430
 8939SOL     OW27715   4.681   1.615   5.042
 8939SOL    HW127716   4.685   1.601   4.943
 8939SOL    HW227717   4.683   1.527   5.088
 8940SOL     OW27718   5.557   0.125   2.405
 8940SOL    HW127719   5.540   0.222   2.419
 8940SOL    HW227720   5.655   0.109   2.395
 8941SOL     OW27721   4.488   1.435   6.542
 8941SOL    HW127722   4.551   1.359   6.524
 8941SOL    HW227723   4.519   1.487   6.621
 8942SOL     OW27724   1.525   2.687   5.416
 8942SOL    HW127725   1.450   2.654   5.474
 8942SOL    HW227726   1.508   2.783   5.392
 8943SOL     OW27727   5.055   3.644   0.792
 8943SOL    HW127728   5.067   3.704   0.713
 8943SOL    HW227729   5.141   3.637   0.841
 8944SOL     OW27730   4.720   5.687   1.651
 8944SOL    HW127731   4.646   5.741   1.611
 8944SOL    HW227732   4.701   5.590   1.639
 8945SOL     OW27733   1.598   0.887   4.768
 8945SOL    HW127734   1.638   0.878   4.677
 8945SOL    HW227735   1.577   0.983   4.786
 8946SOL     OW27736   4.008   1.455   4.646
 8946SOL    HW127737   4.075   1.470   4.574
 8946SOL    HW227738   3.966   1.542   4.672
 8947SOL     OW27739   3.595   3.834   5.194
 8947SOL    HW127740   3.620   3.813   5.100
 8947SOL    HW227741   3.677   3.839   5.251
 8948SOL     OW27742   5.882   4.948   2.715
 8948SOL    HW127743   5.886   4.957   2.616
 8948SOL    HW227744   5.801   4.896   2.741
 8949SOL     OW27745   2.301   5.695   6.159
 8949SOL    HW127746   2.319   5.654   6.248
 8949SOL    HW227747   2.334   5.790   6.159
 8950SOL     OW27748   4.870   2.273   4.748
 8950SOL    HW127749   4.810   2.333   4.801
 8950SOL    HW227750   4.958   2.266   4.794
 8951SOL     OW27751   2.046   1.861   5.527
 8951SOL    HW127752   2.050   1.865   5.427
 8951SOL    HW227753   1.953   1.884   5.557
 8952SOL     OW27754   6.335   0.061   3.387
 8952SOL    HW127755   6.334   6.999   3.428
 8952SOL    HW227756   6.330   0.130   3.460
 8953SOL     OW27757   1.615   5.207   6.643
 8953SOL    HW127758   1.690   5.227   6.580
 8953SOL    HW227759   1.598   5.108   6.643
 8954SOL     OW27760   1.875   6.700   6.012
 8954SOL    HW127761   1.848   6.637   5.939
 8954SOL    HW227762   1.975   6.712   6.010
 8955SOL     OW27763   6.411   3.645   4.074
 8955SOL    HW127764   6.413   3.625   4.172
 8955SOL    HW227765   6.338   3.592   4.031
 8956SOL     OW27766   1.082   0.927   4.956
 8956SOL    HW127767   1.166   0.981   4.944
 8956SOL    HW227768   1.062   0.878   4.872
 8957SOL     OW27769   2.565   5.368   2.184
 8957SOL    HW127770   2.528   5.275   2.190
 8957SOL    HW227771   2.614   5.390   2.268
 8958SOL     OW27772   2.684   0.717   4.293
 8958SOL    HW127773   2.619   0.783   4.255
 8958SOL    HW227774   2.754   0.765   4.345
 8959SOL     OW27775   2.874   4.852   0.456
 8959SOL    HW127776   2.775   4.866   0.453
 8959SOL    HW227777   2.898   4.767   0.409
 8960SOL     OW27778   3.594   5.884   1.366
 8960SOL    HW127779   3.612   5.963   1.425
 8960SOL    HW227780   3.681   5.843   1.339
 8961SOL     OW27781   1.817   2.304   4.016
 8961SOL    HW127782   1.810   2.240   4.091
 8961SOL    HW227783   1.735   2.298   3.959
 8962SOL     OW27784   5.013   0.343   3.261
 8962SOL    HW127785   4.930   0.308   3.304
 8962SOL    HW227786   5.027   0.438   3.289
 8963SOL     OW27787   7.024   0.806   3.649
 8963SOL    HW127788   7.015   0.858   3.565
 8963SOL    HW227789   6.934   0.789   3.688
 8964SOL     OW27790   6.727   4.085   2.932
 8964SOL    HW127791   6.787   4.009   2.904
 8964SOL    HW227792   6.768   4.131   3.011
 8965SOL     OW27793   1.416   5.495   1.762
 8965SOL    HW127794   1.324   5.505   1.723
 8965SOL    HW227795   1.451   5.585   1.788
 8966SOL     OW27796   3.294   2.613   5.618
 8966SOL    HW127797   3.208   2.660   5.635
 8966SOL    HW227798   3.298   2.583   5.523
 8967SOL     OW27799   4.381   6.897   0.531
 8967SOL    HW127800   4.340   6.849   0.454
 8967SOL    HW227801   4.440   6.834   0.582
 8968SOL     OW27802   4.966   4.799   3.034
 8968SOL    HW127803   5.049   4.745   3.025
 8968SOL    HW227804   4.936   4.799   3.130
 8969SOL     OW27805   6.657   1.047   4.460
 8969SOL    HW127806   6.679   1.142   4.440
 8969SOL    HW227807   6.572   1.023   4.412
 8970SOL     OW27808   3.370   2.155   1.219
 8970SOL    HW127809   3.421   2.145   1.134
 8970SOL    HW227810   3.421   2.111   1.293
 8971SOL     OW27811   4.457   6.131   3.154
 8971SOL    HW127812   4.450   6.230   3.166
 8971SOL    HW227813   4.405   6.103   3.074
 8972SOL     OW27814   5.576   0.768   4.892
 8972SOL    HW127815   5.657   0.816   4.927
 8972SOL    HW227816   5.564   0.789   4.795
 8973SOL     OW27817   1.917   4.556   0.058
 8973SOL    HW127818   1.873   4.471   0.085
 8973SOL    HW227819   2.010   4.537   0.026
 8974SOL     OW27820   0.446   2.877   3.945
 8974SOL    HW127821   0.529   2.917   3.983
 8974SOL    HW227822   0.429   2.788   3.988
 8975SOL     OW27823   3.145   0.350   6.941
 8975SOL    HW127824   3.179   0.348   6.847
 8975SOL    HW227825   3.127   0.256   6.972
 8976SOL     OW27826   0.524   4.773   4.593
 8976SOL    HW127827   0.619   4.764   4.621
 8976SOL    HW227828   0.491   4.864   4.615
 8977SOL     OW27829   5.521   1.192   6.395
 8977SOL    HW127830   5.579   1.224   6.470
 8977SOL    HW227831   5.537   1.094   6.380
 8978SOL     OW27832   5.691   5.636   1.145
 8978SOL    HW127833   5.763   5.586   1.192
 8978SOL    HW227834   5.602   5.597   1.170
 8979SOL     OW27835   1.873   5.352   4.909
 8979SOL    HW127836   1.899   5.346   4.812
 8979SOL    HW227837   1.774   5.339   4.918
 8980SOL     OW27838   3.931   3.099   4.493
 8980SOL    HW127839   3.949   3.184   4.542
 8980SOL    HW227840   3.923   3.023   4.559
 8981SOL     OW27841   3.078   1.308   5.322
 8981SOL    HW127842   3.047   1.220   5.285
 8981SOL    HW227843   3.051   1.314   5.418
 8982SOL     OW27844   4.349   4.313   0.426
 8982SOL    HW127845   4.376   4.274   0.514
 8982SOL    HW227846   4.429   4.352   0.380
 8983SOL     OW27847   5.342   5.331   0.559
 8983SOL    HW127848   5.251   5.365   0.584
 8983SOL    HW227849   5.366   5.366   0.468
 8984SOL     OW27850   1.530   6.762   2.948
 8984SOL    HW127851   1.503   6.814   3.029
 8984SOL    HW227852   1.497   6.809   2.866
 8985SOL     OW27853   3.252   3.331   5.995
 8985SOL    HW127854   3.333   3.390   5.989
 8985SOL    HW227855   3.242   3.298   6.089
 8986SOL     OW27856   3.652   6.060   2.570
 8986SOL    HW127857   3.592   6.118   2.626
 8986SOL    HW227858   3.682   6.112   2.490
 8987SOL     OW27859   4.985   5.944   1.991
 8987SOL    HW127860   5.056   5.975   2.054
 8987SOL    HW227861   5.022   5.940   1.898
 8988SOL     OW27862   0.729   5.866   5.096
 8988SOL    HW127863   0.785   5.836   5.173
 8988SOL    HW227864   0.640   5.819   5.099
 8989SOL     OW27865   2.921   3.110   6.941
 8989SOL    HW127866   2.910   3.062   7.028
 8989SOL    HW227867   3.017   3.137   6.931
 8990SOL     OW27868   0.092   6.335   3.402
 8990SOL    HW127869   0.008   6.387   3.416
 8990SOL    HW227870   0.171   6.393   3.422
 8991SOL     OW27871   1.234   1.895   5.289
 8991SOL    HW127872   1.163   1.913   5.221
 8991SOL    HW227873   1.267   1.801   5.279
 8992SOL     OW27874   6.325   2.196   0.566
 8992SOL    HW127875   6.238   2.199   0.615
 8992SOL    HW227876   6.353   2.101   0.554
 8993SOL     OW27877   4.691   2.626   0.597
 8993SOL    HW127878   4.645   2.581   0.520
 8993SOL    HW227879   4.686   2.725   0.586
 8994SOL     OW27880   2.191   6.086   4.143
 8994SOL    HW127881   2.214   6.181   4.163
 8994SOL    HW227882   2.137   6.080   4.059
 8995SOL     OW27883   0.175   0.754   0.705
 8995SOL    HW127884   0.169   0.826   0.635
 8995SOL    HW227885   0.244   0.779   0.773
 8996SOL     OW27886   4.412   6.296   5.462
 8996SOL    HW127887   4.499   6.247   5.457
 8996SOL    HW227888   4.418   6.366   5.533
 8997SOL     OW27889   6.144   0.707   4.934
 8997SOL    HW127890   6.159   0.737   4.840
 8997SOL    HW227891   6.230   0.673   4.972
 8998SOL     OW27892   6.361   3.310   4.814
 8998SOL    HW127893   6.417   3.299   4.731
 8998SOL    HW227894   6.407   3.373   4.877
 8999SOL     OW27895   3.455   6.686   5.606
 8999SOL    HW127896   3.520   6.622   5.647
 8999SOL    HW227897   3.471   6.777   5.642
 9000SOL     OW27898   1.548   4.374   1.226
 9000SOL    HW127899   1.471   4.425   1.186
 9000SOL    HW227900   1.526   4.277   1.226
 9001SOL     OW27901   0.738   5.790   2.397
 9001SOL    HW127902   0.800   5.820   2.469
 9001SOL    HW227903   0.710   5.869   2.342
 9002SOL     OW27904   0.919   4.496   0.293
 9002SOL    HW127905   0.868   4.460   0.215
 9002SOL    HW227906   0.967   4.580   0.265
 9003SOL     OW27907   5.614   0.223   1.216
 9003SOL    HW127908   5.668   0.252   1.294
 9003SOL    HW227909   5.590   0.126   1.227
 9004SOL     OW27910   4.373   4.945   7.016
 9004SOL    HW127911   4.464   4.927   0.024
 9004SOL    HW227912   4.364   4.903   6.926
 9005SOL     OW27913   5.194   1.548   5.490
 9005SOL    HW127914   5.151   1.632   5.523
 9005SOL    HW227915   5.123   1.483   5.464
 9006SOL     OW27916   3.664   5.963   0.441
 9006SOL    HW127917   3.659   6.012   0.528
 9006SOL    HW227918   3.728   6.010   0.380
 9007SOL     OW27919   2.005   0.609   2.931
 9007SOL    HW127920   2.061   0.656   3.000
 9007SOL    HW227921   2.061   0.542   2.883
 9008SOL     OW27922   0.690   6.057   2.336
 9008SOL    HW127923   0.713   6.112   2.415
 9008SOL    HW227924   0.599   6.082   2.302
 9009SOL     OW27925   3.387   6.238   1.188
 9009SOL    HW127926   3.352   6.315   1.134
 9009SOL    HW227927   3.415   6.271   1.278
 9010SOL     OW27928   1.358   5.941   4.126
 9010SOL    HW127929   1.333   6.037   4.133
 9010SOL    HW227930   1.284   5.884   4.162
 9011SOL     OW27931   2.824   2.049   1.944
 9011SOL    HW127932   2.861   2.142   1.945
 9011SOL    HW227933   2.853   2.002   1.861
 9012SOL     OW27934   2.223   6.356   6.854
 9012SOL    HW127935   2.181   6.276   6.813
 9012SOL    HW227936   2.189   6.439   6.809
 9013SOL     OW27937   1.973   6.718   4.316
 9013SOL    HW127938   1.972   6.695   4.413
 9013SOL    HW227939   1.880   6.715   4.280
 9014SOL     OW27940   5.381   3.016   3.492
 9014SOL    HW127941   5.342   3.094   3.443
 9014SOL    HW227942   5.472   3.041   3.527
 9015SOL     OW27943   4.991   1.140   6.412
 9015SOL    HW127944   5.073   1.089   6.383
 9015SOL    HW227945   4.975   1.214   6.348
 9016SOL     OW27946   4.978   5.696   6.274
 9016SOL    HW127947   5.038   5.735   6.204
 9016SOL    HW227948   4.884   5.695   6.240
 9017SOL     OW27949   4.055   6.989   4.315
 9017SOL    HW127950   3.993   6.976   4.392
 9017SOL    HW227951   4.149   6.971   4.345
 9018SOL     OW27952   4.336   4.629   6.337
 9018SOL    HW127953   4.321   4.726   6.356
 9018SOL    HW227954   4.427   4.616   6.297
 9019SOL     OW27955   0.458   3.480   4.115
 9019SOL    HW127956   0.421   3.427   4.038
 9019SOL    HW227957   0.383   3.527   4.162
 9020SOL     OW27958   5.344   5.625   2.666
 9020SOL    HW127959   5.322   5.527   2.663
 9020SOL    HW227960   5.415   5.645   2.598
 9021SOL     OW27961   0.576   1.208   4.434
 9021SOL    HW127962   0.616   1.226   4.524
 9021SOL    HW227963   0.634   1.142   4.385
 9022SOL     OW27964   4.678   4.053   5.843
 9022SOL    HW127965   4.601   4.075   5.784
 9022SOL    HW227966   4.662   4.090   5.934
 9023SOL     OW27967   5.775   4.568   0.501
 9023SOL    HW127968   5.683   4.555   0.537
 9023SOL    HW227969   5.783   4.660   0.461
 9024SOL     OW27970   2.191   6.090   6.088
 9024SOL    HW127971   2.103   6.052   6.115
 9024SOL    HW227972   2.210   6.173   6.141
 9025SOL     OW27973   0.996   5.942   1.163
 9025SOL    HW127974   1.001   5.922   1.066
 9025SOL    HW227975   0.900   5.956   1.189
 9026SOL     OW27976   5.216   1.515   0.436
 9026SOL    HW127977   5.243   1.581   0.506
 9026SOL    HW227978   5.117   1.500   0.441
 9027SOL     OW27979   1.026   3.675   3.366
 9027SOL    HW127980   1.063   3.750   3.421
 9027SOL    HW227981   1.101   3.629   3.318
 9028SOL     OW27982   3.140   5.403   5.875
 9028SOL    HW127983   3.204   5.398   5.951
 9028SOL    HW227984   3.054   5.443   5.906
 9029SOL     OW27985   4.481   0.097   4.605
 9029SOL    HW127986   4.491   0.187   4.647
 9029SOL    HW227987   4.396   0.094   4.552
 9030SOL     OW27988   2.928   1.375   2.337
 9030SOL    HW127989   2.968   1.453   2.290
 9030SOL    HW227990   2.887   1.405   2.423
 9031SOL     OW27991   4.803   6.819   4.490
 9031SOL    HW127992   4.740   6.855   4.421
 9031SOL    HW227993   4.785   6.721   4.503
 9032SOL     OW27994   4.918   3.356   2.250
 9032SOL    HW127995   4.932   3.294   2.173
 9032SOL    HW227996   4.941   3.309   2.336
 9033SOL     OW27997   0.700   0.015   3.043
 9033SOL    HW127998   0.614   0.061   3.023
 9033SOL    HW227999   0.699   7.009   3.136
 9034SOL     OW28000   4.725   0.276   4.472
 9034SOL    HW128001   4.703   0.202   4.409
 9034SOL    HW228002   4.646   0.293   4.531
 9035SOL     OW28003   2.198   4.790   6.493
 9035SOL    HW128004   2.285   4.750   6.464
 9035SOL    HW228005   2.159   4.736   6.567
 9036SOL     OW28006   1.627   4.285   5.517
 9036SOL    HW128007   1.593   4.197   5.483
 9036SOL    HW228008   1.567   4.358   5.487
 9037SOL     OW28009   1.397   1.423   3.152
 9037SOL    HW128010   1.316   1.390   3.200
 9037SOL    HW228011   1.417   1.362   3.075
 9038SOL     OW28012   4.488   2.974   5.656
 9038SOL    HW128013   4.458   3.020   5.573
 9038SOL    HW228014   4.535   2.889   5.633
 9039SOL     OW28015   4.237   5.830   6.623
 9039SOL    HW128016   4.218   5.894   6.548
 9039SOL    HW228017   4.264   5.742   6.585
 9040SOL     OW28018   2.186   1.901   1.638
 9040SOL    HW128019   2.175   1.871   1.543
 9040SOL    HW228020   2.272   1.865   1.674
 9041SOL     OW28021   6.980   2.248   2.403
 9041SOL    HW128022   7.022   2.291   2.323
 9041SOL    HW228023   6.889   2.286   2.418
 9042SOL     OW28024   3.650   6.397   0.200
 9042SOL    HW128025   3.689   6.433   0.285
 9042SOL    HW228026   3.721   6.350   0.148
 9043SOL     OW28027   3.479   2.084   0.423
 9043SOL    HW128028   3.547   2.086   0.497
 9043SOL    HW228029   3.403   2.025   0.449
 9044SOL     OW28030   0.854   1.195   0.051
 9044SOL    HW128031   0.903   1.268   0.004
 9044SOL    HW228032   0.896   1.178   0.140
 9045SOL     OW28033   3.965   1.832   3.015
 9045SOL    HW128034   3.896   1.904   3.009
 9045SOL    HW228035   3.941   1.758   2.952
 9046SOL     OW28036   3.411   3.490   2.343
 9046SOL    HW128037   3.329   3.545   2.351
 9046SOL    HW228038   3.392   3.408   2.290
 9047SOL     OW28039   1.446   4.088   6.443
 9047SOL    HW128040   1.413   4.145   6.368
 9047SOL    HW228041   1.391   4.105   6.525
 9048SOL     OW28042   6.700   1.597   6.547
 9048SOL    HW128043   6.658   1.648   6.622
 9048SOL    HW228044   6.728   1.507   6.579
 9049SOL     OW28045   2.721   6.768   6.131
 9049SOL    HW128046   2.723   6.794   6.228
 9049SOL    HW228047   2.810   6.730   6.105
 9050SOL     OW28048   0.963   4.825   0.970
 9050SOL    HW128049   0.912   4.795   0.889
 9050SOL    HW228050   0.902   4.875   1.031
 9051SOL     OW28051   2.568   1.044   1.716
 9051SOL    HW128052   2.631   1.004   1.782
 9051SOL    HW228053   2.614   1.053   1.627
 9052SOL     OW28054   1.252   2.501   5.330
 9052SOL    HW128055   1.224   2.438   5.402
 9052SOL    HW228056   1.323   2.459   5.274
 9053SOL     OW28057   1.684   1.195   0.238
 9053SOL    HW128058   1.610   1.134   0.267
 9053SOL    HW228059   1.735   1.225   0.318
 9054SOL     OW28060   2.119   5.522   2.418
 9054SOL    HW128061   2.138   5.496   2.323
 9054SOL    HW228062   2.199   5.567   2.457
 9055SOL     OW28063   0.153   3.126   4.942
 9055SOL    HW128064   0.080   3.060   4.926
 9055SOL    HW228065   0.159   3.146   5.040
 9056SOL     OW28066   6.366   3.011   2.935
 9056SOL    HW128067   6.452   2.961   2.945
 9056SOL    HW228068   6.289   2.947   2.938
 9057SOL     OW28069   4.123   1.822   3.870
 9057SOL    HW128070   4.087   1.877   3.795
 9057SOL    HW228071   4.222   1.834   3.875
 9058SOL     OW28072   2.770   0.355   5.656
 9058SOL    HW128073   2.765   0.351   5.755
 9058SOL    HW228074   2.845   0.297   5.624
 9059SOL     OW28075   1.346   2.123   2.616
 9059SOL    HW128076   1.275   2.126   2.545
 9059SOL    HW228077   1.424   2.070   2.583
 9060SOL     OW28078   5.162   2.925   5.602
 9060SOL    HW128079   5.209   2.838   5.588
 9060SOL    HW228080   5.065   2.914   5.582
 9061SOL     OW28081   3.174   5.472   3.017
 9061SOL    HW128082   3.148   5.566   2.995
 9061SOL    HW228083   3.155   5.453   3.113
 9062SOL     OW28084   1.556   6.061   0.980
 9062SOL    HW128085   1.544   6.038   0.883
 9062SOL    HW228086   1.642   6.109   0.993
 9063SOL     OW28087   2.908   1.896   2.150
 9063SOL    HW128088   2.970   1.962   2.192
 9063SOL    HW228089   2.871   1.935   2.066
 9064SOL     OW28090   5.434   3.518   0.556
 9064SOL    HW128091   5.357   3.455   0.562
 9064SOL    HW228092   5.402   3.611   0.577
 9065SOL     OW28093   2.438   0.400   6.845
 9065SOL    HW128094   2.440   0.446   6.933
 9065SOL    HW228095   2.362   0.436   6.790
 9066SOL     OW28096   4.954   6.618   0.205
 9066SOL    HW128097   4.928   6.673   0.125
 9066SOL    HW228098   4.925   6.665   0.288
 9067SOL     OW28099   1.424   6.728   1.950
 9067SOL    HW128100   1.382   6.818   1.936
 9067SOL    HW228101   1.506   6.737   2.007
 9068SOL     OW28102   1.114   6.338   6.578
 9068SOL    HW128103   1.194   6.365   6.632
 9068SOL    HW228104   1.049   6.414   6.575
 9069SOL     OW28105   1.265   2.324   6.171
 9069SOL    HW128106   1.240   2.417   6.197
 9069SOL    HW228107   1.186   2.263   6.180
 9070SOL     OW28108   1.342   4.039   3.782
 9070SOL    HW128109   1.388   4.124   3.755
 9070SOL    HW228110   1.261   4.026   3.726
 9071SOL     OW28111   4.858   6.092   0.247
 9071SOL    HW128112   4.790   6.137   0.306
 9071SOL    HW228113   4.815   6.018   0.196
 9072SOL     OW28114   5.670   4.766   0.154
 9072SOL    HW128115   5.759   4.720   0.153
 9072SOL    HW228116   5.602   4.709   0.109
 9073SOL     OW28117   1.779   0.700   1.544
 9073SOL    HW128118   1.868   0.737   1.568
 9073SOL    HW228119   1.788   0.641   1.464
 9074SOL     OW28120   0.580   0.441   3.411
 9074SOL    HW128121   0.537   0.501   3.478
 9074SOL    HW228122   0.598   0.493   3.327
 9075SOL     OW28123   0.382   0.476   1.918
 9075SOL    HW128124   0.439   0.415   1.862
 9075SOL    HW228125   0.437   0.554   1.948
 9076SOL     OW28126   0.022   1.882   5.533
 9076SOL    HW128127   0.033   1.958   5.596
 9076SOL    HW228128   6.967   1.893   5.481
 9077SOL     OW28129   6.369   6.079   1.574
 9077SOL    HW128130   6.438   6.007   1.574
 9077SOL    HW228131   6.349   6.107   1.668
 9078SOL     OW28132   3.875   2.986   5.097
 9078SOL    HW128133   3.923   3.058   5.048
 9078SOL    HW228134   3.777   3.006   5.100
 9079SOL     OW28135   3.832   0.993   5.581
 9079SOL    HW128136   3.809   1.084   5.546
 9079SOL    HW228137   3.878   0.940   5.509
 9080SOL     OW28138   5.339   1.347   0.234
 9080SOL    HW128139   5.375   1.270   0.287
 9080SOL    HW228140   5.334   1.427   0.293
 9081SOL     OW28141   5.475   0.358   2.666
 9081SOL    HW128142   5.527   0.395   2.589
 9081SOL    HW228143   5.412   0.288   2.633
 9082SOL     OW28144   3.156   0.652   2.718
 9082SOL    HW128145   3.136   0.635   2.621
 9082SOL    HW228146   3.238   0.708   2.726
 9083SOL     OW28147   4.637   4.598   4.056
 9083SOL    HW128148   4.701   4.559   4.122
 9083SOL    HW228149   4.545   4.563   4.073
 9084SOL     OW28150   3.312   3.968   2.815
 9084SOL    HW128151   3.408   3.994   2.822
 9084SOL    HW228152   3.260   4.014   2.888
 9085SOL     OW28153   0.726   2.061   0.519
 9085SOL    HW128154   0.710   2.160   0.512
 9085SOL    HW228155   0.801   2.035   0.457
 9086SOL     OW28156   6.895   3.850   0.346
 9086SOL    HW128157   6.878   3.759   0.309
 9086SOL    HW228158   6.959   3.898   0.285
 9087SOL     OW28159   5.168   3.580   2.042
 9087SOL    HW128160   5.159   3.487   2.007
 9087SOL    HW228161   5.083   3.608   2.086
 9088SOL     OW28162   5.038   6.481   0.990
 9088SOL    HW128163   4.989   6.567   1.004
 9088SOL    HW228164   4.973   6.406   0.978
 9089SOL     OW28165   4.100   0.360   6.360
 9089SOL    HW128166   4.113   0.371   6.261
 9089SOL    HW228167   4.052   0.275   6.378
 9090SOL     OW28168   5.647   1.775   3.407
 9090SOL    HW128169   5.663   1.859   3.459
 9090SOL    HW228170   5.558   1.736   3.433
 9091SOL     OW28171   3.916   2.554   6.539
 9091SOL    HW128172   3.895   2.533   6.443
 9091SOL    HW228173   4.005   2.599   6.544
 9092SOL     OW28174   0.146   3.045   6.710
 9092SOL    HW128175   0.201   2.973   6.752
 9092SOL    HW228176   0.183   3.135   6.735
 9093SOL     OW28177   1.883   6.189   4.688
 9093SOL    HW128178   1.927   6.238   4.763
 9093SOL    HW228179   1.790   6.164   4.714
 9094SOL     OW28180   1.338   4.002   1.483
 9094SOL    HW128181   1.400   3.935   1.441
 9094SOL    HW228182   1.345   3.997   1.582
 9095SOL     OW28183   7.029   6.594   5.994
 9095SOL    HW128184   6.947   6.561   5.947
 9095SOL    HW228185   0.012   6.692   5.974
 9096SOL     OW28186   6.296   5.263   4.189
 9096SOL    HW128187   6.217   5.319   4.212
 9096SOL    HW228188   6.380   5.312   4.210
 9097SOL     OW28189   1.209   2.702   5.786
 9097SOL    HW128190   1.156   2.665   5.709
 9097SOL    HW228191   1.149   2.757   5.844
 9098SOL     OW28192   2.252   4.178   3.527
 9098SOL    HW128193   2.212   4.266   3.551
 9098SOL    HW228194   2.248   4.116   3.605
 9099SOL     OW28195   2.251   1.526   6.647
 9099SOL    HW128196   2.235   1.505   6.550
 9099SOL    HW228197   2.171   1.573   6.684
 9100SOL     OW28198   1.696   4.344   3.999
 9100SOL    HW128199   1.783   4.392   4.009
 9100SOL    HW228200   1.628   4.383   4.062
 9101SOL     OW28201   0.459   2.358   0.783
 9101SOL    HW128202   0.433   2.368   0.687
 9101SOL    HW228203   0.404   2.286   0.825
 9102SOL     OW28204   3.904   6.771   2.825
 9102SOL    HW128205   3.903   6.820   2.738
 9102SOL    HW228206   3.869   6.831   2.897
 9103SOL     OW28207   6.268   1.175   1.201
 9103SOL    HW128208   6.317   1.262   1.198
 9103SOL    HW228209   6.170   1.190   1.191
 9104SOL     OW28210   5.926   1.864   6.202
 9104SOL    HW128211   5.877   1.798   6.146
 9104SOL    HW228212   6.011   1.891   6.157
 9105SOL     OW28213   2.827   1.257   5.694
 9105SOL    HW128214   2.786   1.217   5.612
 9105SOL    HW228215   2.918   1.291   5.673
 9106SOL     OW28216   1.912   3.957   7.019
 9106SOL    HW128217   1.972   3.879   0.007
 9106SOL    HW228218   1.924   4.025   0.061
 9107SOL     OW28219   3.319   1.244   0.445
 9107SOL    HW128220   3.410   1.229   0.406
 9107SOL    HW228221   3.254   1.182   0.400
 9108SOL     OW28222   0.096   5.640   5.920
 9108SOL    HW128223   0.005   5.650   5.959
 9108SOL    HW228224   0.161   5.618   5.992
 9109SOL     OW28225   5.777   3.782   2.778
 9109SOL    HW128226   5.692   3.729   2.774
 9109SOL    HW228227   5.757   3.875   2.810
 9110SOL     OW28228   1.520   6.050   3.315
 9110SOL    HW128229   1.445   5.984   3.309
 9110SOL    HW228230   1.604   6.009   3.279
 9111SOL     OW28231   3.884   2.488   6.273
 9111SOL    HW128232   3.863   2.583   6.250
 9111SOL    HW228233   3.834   2.427   6.212
 9112SOL     OW28234   0.689   5.105   2.078
 9112SOL    HW128235   0.630   5.156   2.014
 9112SOL    HW228236   0.659   5.010   2.082
 9113SOL     OW28237   5.634   0.555   4.085
 9113SOL    HW128238   5.591   0.484   4.141
 9113SOL    HW228239   5.733   0.552   4.099
 9114SOL     OW28240   0.908   6.872   5.778
 9114SOL    HW128241   0.890   6.904   5.871
 9114SOL    HW228242   0.939   6.948   5.722
 9115SOL     OW28243   4.831   4.461   4.979
 9115SOL    HW128244   4.742   4.423   5.006
 9115SOL    HW228245   4.859   4.420   4.892
 9116SOL     OW28246   1.916   0.196   4.018
 9116SOL    HW128247   1.993   0.200   4.082
 9116SOL    HW228248   1.894   0.100   3.999
 9117SOL     OW28249   2.121   6.711   6.960
 9117SOL    HW128250   2.065   6.740   0.008
 9117SOL    HW228251   2.200   6.660   6.994
 9118SOL     OW28252   6.601   4.013   2.127
 9118SOL    HW128253   6.607   4.113   2.125
 9118SOL    HW228254   6.648   3.979   2.209
 9119SOL     OW28255   3.177   1.001   0.696
 9119SOL    HW128256   3.258   1.039   0.742
 9119SOL    HW228257   3.131   1.073   0.645
 9120SOL     OW28258   6.307   3.921   4.371
 9120SOL    HW128259   6.371   3.927   4.294
 9120SOL    HW228260   6.292   3.825   4.394
 9121SOL     OW28261   3.946   0.926   4.221
 9121SOL    HW128262   3.910   0.993   4.285
 9121SOL    HW228263   3.919   0.834   4.250
 9122SOL     OW28264   0.428   2.784   1.643
 9122SOL    HW128265   0.520   2.746   1.630
 9122SOL    HW228266   0.424   2.832   1.730
 9123SOL     OW28267   0.653   5.785   4.247
 9123SOL    HW128268   0.597   5.817   4.323
 9123SOL    HW228269   0.675   5.688   4.260
 9124SOL     OW28270   3.239   5.643   0.926
 9124SOL    HW128271   3.276   5.656   1.019
 9124SOL    HW228272   3.235   5.731   0.880
 9125SOL     OW28273   5.363   6.338   1.833
 9125SOL    HW128274   5.279   6.285   1.825
 9125SOL    HW228275   5.407   6.319   1.921
 9126SOL     OW28276   4.439   4.998   1.045
 9126SOL    HW128277   4.357   4.975   0.993
 9126SOL    HW228278   4.494   5.063   0.993
 9127SOL     OW28279   6.360   4.441   5.146
 9127SOL    HW128280   6.395   4.422   5.238
 9127SOL    HW228281   6.435   4.475   5.089
 9128SOL     OW28282   5.620   4.108   5.804
 9128SOL    HW128283   5.671   4.173   5.747
 9128SOL    HW228284   5.540   4.153   5.843
 9129SOL     OW28285   0.436   2.830   0.572
 9129SOL    HW128286   0.403   2.738   0.595
 9129SOL    HW228287   0.414   2.850   0.477
 9130SOL     OW28288   2.946   3.352   5.083
 9130SOL    HW128289   2.978   3.376   4.991
 9130SOL    HW228290   2.884   3.423   5.117
 9131SOL     OW28291   5.392   2.679   0.550
 9131SOL    HW128292   5.321   2.609   0.544
 9131SOL    HW228293   5.349   2.769   0.560
 9132SOL     OW28294   0.911   3.680   4.048
 9132SOL    HW128295   0.967   3.633   3.980
 9132SOL    HW228296   0.875   3.765   4.009
 9133SOL     OW28297   5.847   0.016   1.119
 9133SOL    HW128298   5.868   6.949   1.096
 9133SOL    HW228299   5.872   0.074   1.042
 9134SOL     OW28300   4.913   4.722   0.017
 9134SOL    HW128301   4.906   4.754   0.112
 9134SOL    HW228302   4.827   4.678   7.019
 9135SOL     OW28303   6.455   5.706   2.767
 9135SOL    HW128304   6.524   5.778   2.755
 9135SOL    HW228305   6.498   5.626   2.808
 9136SOL     OW28306   0.431   5.023   0.700
 9136SOL    HW128307   0.359   5.087   0.725
 9136SOL    HW228308   0.423   4.940   0.755
 9137SOL     OW28309   5.617   6.046   5.115
 9137SOL    HW128310   5.715   6.031   5.125
 9137SOL    HW228311   5.586   6.113   5.183
 9138SOL     OW28312   2.249   3.951   5.956
 9138SOL    HW128313   2.157   3.921   5.982
 9138SOL    HW228314   2.299   3.873   5.918
 9139SOL     OW28315   6.954   0.091   1.815
 9139SOL    HW128316   6.981   0.029   1.888
 9139SOL    HW228317   6.855   0.105   1.818
 9140SOL     OW28318   2.049   3.924   2.422
 9140SOL    HW128319   1.955   3.891   2.415
 9140SOL    HW228320   2.057   4.012   2.376
 9141SOL     OW28321   0.453   5.918   4.863
 9141SOL    HW128322   0.386   5.879   4.801
 9141SOL    HW228323   0.534   5.947   4.811
 9142SOL     OW28324   1.214   4.135   3.512
 9142SOL    HW128325   1.252   4.105   3.424
 9142SOL    HW228326   1.164   4.060   3.554
 9143SOL     OW28327   6.478   3.673   3.023
 9143SOL    HW128328   6.522   3.644   2.938
 9143SOL    HW228329   6.486   3.772   3.033
 9144SOL     OW28330   3.131   4.329   5.426
 9144SOL    HW128331   3.112   4.269   5.348
 9144SOL    HW228332   3.183   4.408   5.395
 9145SOL     OW28333   1.352   6.204   5.539
 9145SOL    HW128334   1.270   6.148   5.549
 9145SOL    HW228335   1.414   6.161   5.473
 9146SOL     OW28336   6.195   2.166   3.548
 9146SOL    HW128337   6.200   2.145   3.450
 9146SOL    HW228338   6.129   2.239   3.563
 9147SOL     OW28339   3.954   0.557   5.908
 9147SOL    HW128340   4.026   0.550   5.839
 9147SOL    HW228341   3.865   0.542   5.865
 9148SOL     OW28342   5.026   5.581   1.720
 9148SOL    HW128343   5.102   5.547   1.664
 9148SOL    HW228344   4.947   5.519   1.709
 9149SOL     OW28345   1.222   3.629   1.334
 9149SOL    HW128346   1.321   3.620   1.320
 9149SOL    HW228347   1.178   3.646   1.246
 9150SOL     OW28348   2.918   3.807   6.693
 9150SOL    HW128349   2.910   3.891   6.640
 9150SOL    HW228350   3.013   3.794   6.722
 9151SOL     OW28351   2.077   2.873   3.766
 9151SOL    HW128352   1.992   2.921   3.785
 9151SOL    HW228353   2.142   2.889   3.841
 9152SOL     OW28354   1.992   4.466   2.328
 9152SOL    HW128355   1.899   4.457   2.365
 9152SOL    HW228356   2.049   4.517   2.393
 9153SOL     OW28357   0.047   3.289   0.018
 9153SOL    HW128358   0.027   3.277   0.115
 9153SOL    HW228359   0.121   3.356   0.007
 9154SOL     OW28360   4.858   4.794   3.287
 9154SOL    HW128361   4.882   4.724   3.355
 9154SOL    HW228362   4.759   4.803   3.282
 9155SOL     OW28363   0.874   6.318   2.768
 9155SOL    HW128364   0.810   6.289   2.696
 9155SOL    HW228365   0.930   6.393   2.733
 9156SOL     OW28366   0.120   4.053   5.840
 9156SOL    HW128367   0.096   4.045   5.936
 9156SOL    HW228368   0.134   3.962   5.801
 9157SOL     OW28369   1.846   4.708   5.339
 9157SOL    HW128370   1.905   4.700   5.258
 9157SOL    HW228371   1.891   4.765   5.407
 9158SOL     OW28372   6.906   3.557   4.764
 9158SOL    HW128373   6.931   3.558   4.667
 9158SOL    HW228374   6.967   3.495   4.813
 9159SOL     OW28375   2.456   1.244   4.109
 9159SOL    HW128376   2.423   1.247   4.015
 9159SOL    HW228377   2.512   1.162   4.122
 9160SOL     OW28378   0.912   2.813   6.543
 9160SOL    HW128379   0.951   2.865   6.467
 9160SOL    HW228380   0.825   2.773   6.515
 9161SOL     OW28381   6.114   2.890   3.072
 9161SOL    HW128382   6.098   2.898   2.974
 9161SOL    HW228383   6.030   2.865   3.119
 9162SOL     OW28384   3.861   2.348   1.651
 9162SOL    HW128385   3.940   2.400   1.686
 9162SOL    HW228386   3.790   2.344   1.721
 9163SOL     OW28387   1.865   2.558   4.067
 9163SOL    HW128388   1.832   2.474   4.023
 9163SOL    HW228389   1.965   2.562   4.062
 9164SOL     OW28390   2.658   6.450   6.661
 9164SOL    HW128391   2.573   6.458   6.608
 9164SOL    HW228392   2.652   6.508   6.743
 9165SOL     OW28393   5.533   1.643   6.188
 9165SOL    HW128394   5.510   1.736   6.157
 9165SOL    HW228395   5.517   1.637   6.286
 9166SOL     OW28396   4.450   6.384   2.064
 9166SOL    HW128397   4.350   6.379   2.056
 9166SOL    HW228398   4.483   6.306   2.118
 9167SOL     OW28399   1.487   1.632   4.494
 9167SOL    HW128400   1.484   1.654   4.397
 9167SOL    HW228401   1.579   1.598   4.518
 9168SOL     OW28402   5.992   5.770   5.263
 9168SOL    HW128403   5.967   5.791   5.358
 9168SOL    HW228404   6.091   5.763   5.255
 9169SOL     OW28405   6.457   5.581   0.136
 9169SOL    HW128406   6.455   5.672   0.176
 9169SOL    HW228407   6.365   5.553   0.110
 9170SOL     OW28408   2.121   0.601   5.693
 9170SOL    HW128409   2.095   0.679   5.635
 9170SOL    HW228410   2.220   0.590   5.691
 9171SOL     OW28411   3.527   5.714   6.982
 9171SOL    HW128412   3.506   5.793   6.924
 9171SOL    HW228413   3.468   5.715   0.033
 9172SOL     OW28414   4.490   1.421   5.569
 9172SOL    HW128415   4.525   1.327   5.568
 9172SOL    HW228416   4.435   1.434   5.652
 9173SOL     OW28417   5.982   3.775   5.263
 9173SOL    HW128418   6.011   3.842   5.331
 9173SOL    HW228419   6.062   3.732   5.222
 9174SOL     OW28420   5.926   4.542   1.160
 9174SOL    HW128421   6.001   4.602   1.133
 9174SOL    HW228422   5.897   4.565   1.252
 9175SOL     OW28423   2.011   0.606   1.346
 9175SOL    HW128424   2.069   0.566   1.275
 9175SOL    HW228425   1.915   0.584   1.327
 9176SOL     OW28426   1.989   1.062   1.994
 9176SOL    HW128427   1.955   1.073   1.900
 9176SOL    HW228428   2.080   1.022   1.992
 9177SOL     OW28429   0.917   6.176   3.616
 9177SOL    HW128430   1.015   6.156   3.607
 9177SOL    HW228431   0.890   6.241   3.545
 9178SOL     OW28432   1.268   4.288   1.012
 9178SOL    HW128433   1.340   4.246   0.958
 9178SOL    HW228434   1.197   4.221   1.033
 9179SOL     OW28435   4.160   4.953   3.602
 9179SOL    HW128436   4.174   4.942   3.700
 9179SOL    HW228437   4.213   4.885   3.552
 9180SOL     OW28438   0.347   0.641   5.564
 9180SOL    HW128439   0.427   0.632   5.505
 9180SOL    HW228440   0.363   0.592   5.649
 9181SOL     OW28441   2.674   1.781   4.124
 9181SOL    HW128442   2.765   1.801   4.159
 9181SOL    HW228443   2.642   1.694   4.162
 9182SOL     OW28444   0.286   2.051   2.672
 9182SOL    HW128445   0.277   1.984   2.599
 9182SOL    HW228446   0.381   2.054   2.703
 9183SOL     OW28447   1.903   1.223   5.836
 9183SOL    HW128448   1.805   1.240   5.826
 9183SOL    HW228449   1.947   1.306   5.870
 9184SOL     OW28450   2.739   4.716   1.135
 9184SOL    HW128451   2.673   4.789   1.118
 9184SOL    HW228452   2.782   4.731   1.224
 9185SOL     OW28453   1.615   0.339   5.994
 9185SOL    HW128454   1.709   0.338   6.029
 9185SOL    HW228455   1.558   0.281   6.052
 9186SOL     OW28456   5.709   6.364   6.703
 9186SOL    HW128457   5.758   6.365   6.616
 9186SOL    HW228458   5.625   6.309   6.692
 9187SOL     OW28459   4.991   2.816   0.845
 9187SOL    HW128460   5.064   2.751   0.864
 9187SOL    HW228461   4.903   2.777   0.872
 9188SOL     OW28462   1.074   0.326   1.810
 9188SOL    HW128463   1.007   0.374   1.754
 9188SOL    HW228464   1.125   0.391   1.865
 9189SOL     OW28465   3.315   0.580   5.386
 9189SOL    HW128466   3.242   0.513   5.398
 9189SOL    HW228467   3.288   0.666   5.430
 9190SOL     OW28468   4.336   1.027   5.684
 9190SOL    HW128469   4.248   1.016   5.640
 9190SOL    HW228470   4.346   0.958   5.757
 9191SOL     OW28471   5.430   6.713   1.884
 9191SOL    HW128472   5.347   6.696   1.938
 9191SOL    HW228473   5.492   6.771   1.937
 9192SOL     OW28474   4.954   4.063   4.751
 9192SOL    HW128475   4.918   3.974   4.780
 9192SOL    HW228476   5.028   4.048   4.686
 9193SOL     OW28477   3.630   4.064   3.197
 9193SOL    HW128478   3.724   4.048   3.165
 9193SOL    HW228479   3.596   4.150   3.159
 9194SOL     OW28480   4.016   4.900   2.952
 9194SOL    HW128481   4.013   4.980   3.013
 9194SOL    HW228482   3.923   4.876   2.924
 9195SOL     OW28483   0.628   2.586   2.954
 9195SOL    HW128484   0.575   2.610   3.035
 9195SOL    HW228485   0.691   2.511   2.976
 9196SOL     OW28486   4.801   6.189   3.951
 9196SOL    HW128487   4.746   6.231   3.878
 9196SOL    HW228488   4.865   6.124   3.910
 9197SOL     OW28489   4.560   1.584   6.773
 9197SOL    HW128490   4.572   1.506   6.834
 9197SOL    HW228491   4.633   1.650   6.787
 9198SOL     OW28492   5.645   2.858   5.291
 9198SOL    HW128493   5.725   2.811   5.330
 9198SOL    HW228494   5.633   2.946   5.337
 9199SOL     OW28495   1.086   3.374   6.360
 9199SOL    HW128496   0.999   3.329   6.380
 9199SOL    HW228497   1.070   3.472   6.347
 9200SOL     OW28498   5.291   5.796   1.432
 9200SOL    HW128499   5.196   5.826   1.443
 9200SOL    HW228500   5.343   5.868   1.387
 9201SOL     OW28501   6.959   3.574   1.820
 9201SOL    HW128502   6.937   3.479   1.795
 9201SOL    HW228503   6.876   3.621   1.847
 9202SOL     OW28504   2.821   6.130   4.319
 9202SOL    HW128505   2.880   6.180   4.257
 9202SOL    HW228506   2.745   6.089   4.268
 9203SOL     OW28507   4.887   0.973   6.996
 9203SOL    HW128508   4.855   0.933   0.053
 9203SOL    HW228509   4.938   0.904   6.945
 9204SOL     OW28510   5.015   4.544   2.666
 9204SOL    HW128511   4.979   4.485   2.739
 9204SOL    HW228512   5.077   4.612   2.706
 9205SOL     OW28513   4.295   2.338   1.472
 9205SOL    HW128514   4.338   2.412   1.418
 9205SOL    HW228515   4.315   2.250   1.428
 9206SOL     OW28516   6.314   6.330   5.013
 9206SOL    HW128517   6.367   6.253   4.977
 9206SOL    HW228518   6.233   6.344   4.957
 9207SOL     OW28519   4.395   6.475   0.198
 9207SOL    HW128520   4.454   6.432   0.129
 9207SOL    HW228521   4.448   6.489   0.282
 9208SOL     OW28522   4.629   4.501   1.540
 9208SOL    HW128523   4.553   4.450   1.580
 9208SOL    HW228524   4.713   4.479   1.590
 9209SOL     OW28525   4.352   0.258   3.775
 9209SOL    HW128526   4.332   0.305   3.862
 9209SOL    HW228527   4.266   0.229   3.733
 9210SOL     OW28528   0.725   6.714   7.028
 9210SOL    HW128529   0.702   6.631   6.977
 9210SOL    HW228530   0.694   6.705   0.093
 9211SOL     OW28531   4.665   1.184   6.392
 9211SOL    HW128532   4.707   1.274   6.396
 9211SOL    HW228533   4.716   1.120   6.449
 9212SOL     OW28534   5.981   3.499   5.638
 9212SOL    HW128535   6.024   3.412   5.613
 9212SOL    HW228536   5.997   3.517   5.735
 9213SOL     OW28537   6.490   6.013   1.887
 9213SOL    HW128538   6.564   6.073   1.856
 9213SOL    HW228539   6.517   5.917   1.874
 9214SOL     OW28540   1.841   1.548   6.298
 9214SOL    HW128541   1.821   1.646   6.295
 9214SOL    HW228542   1.851   1.519   6.393
 9215SOL     OW28543   0.176   3.957   3.555
 9215SOL    HW128544   0.273   3.965   3.535
 9215SOL    HW228545   0.139   3.877   3.507
 9216SOL     OW28546   2.272   6.467   3.658
 9216SOL    HW128547   2.278   6.396   3.588
 9216SOL    HW228548   2.191   6.523   3.642
 9217SOL     OW28549   3.948   2.180   0.235
 9217SOL    HW128550   3.850   2.166   0.250
 9217SOL    HW228551   3.967   2.278   0.227
 9218SOL     OW28552   5.319   6.075   5.859
 9218SOL    HW128553   5.256   6.153   5.861
 9218SOL    HW228554   5.332   6.042   5.953
 9219SOL     OW28555   3.511   2.259   6.006
 9219SOL    HW128556   3.490   2.312   6.089
 9219SOL    HW228557   3.445   2.282   5.935
 9220SOL     OW28558   0.535   6.209   3.241
 9220SOL    HW128559   0.471   6.277   3.276
 9220SOL    HW228560   0.579   6.244   3.158
 9221SOL     OW28561   2.863   1.960   1.493
 9221SOL    HW128562   2.951   1.996   1.524
 9221SOL    HW228563   2.874   1.923   1.400
 9222SOL     OW28564   1.679   5.307   3.804
 9222SOL    HW128565   1.705   5.263   3.890
 9222SOL    HW228566   1.623   5.388   3.824
 9223SOL     OW28567   6.699   3.410   4.894
 9223SOL    HW128568   6.767   3.459   4.840
 9223SOL    HW228569   6.619   3.469   4.908
 9224SOL     OW28570   1.829   4.395   2.092
 9224SOL    HW128571   1.825   4.495   2.093
 9224SOL    HW228572   1.881   4.363   2.172
 9225SOL     OW28573   0.354   5.554   6.067
 9225SOL    HW128574   0.371   5.551   5.968
 9225SOL    HW228575   0.429   5.507   6.115
 9226SOL     OW28576   0.977   0.426   5.288
 9226SOL    HW128577   1.020   0.381   5.209
 9226SOL    HW228578   0.989   0.525   5.281
 9227SOL     OW28579   3.698   4.263   1.121
 9227SOL    HW128580   3.624   4.278   1.187
 9227SOL    HW228581   3.705   4.166   1.101
 9228SOL     OW28582   3.925   3.539   4.934
 9228SOL    HW128583   3.853   3.523   5.002
 9228SOL    HW228584   4.008   3.491   4.961
 9229SOL     OW28585   0.262   5.247   0.259
 9229SOL    HW128586   0.296   5.220   0.349
 9229SOL    HW228587   0.301   5.335   0.233
 9230SOL     OW28588   4.473   0.352   5.615
 9230SOL    HW128589   4.514   0.301   5.540
 9230SOL    HW228590   4.511   0.320   5.702
 9231SOL     OW28591   6.197   6.278   1.877
 9231SOL    HW128592   6.173   6.197   1.930
 9231SOL    HW228593   6.279   6.320   1.916
 9232SOL     OW28594   1.255   5.883   2.335
 9232SOL    HW128595   1.187   5.939   2.382
 9232SOL    HW228596   1.237   5.786   2.352
 9233SOL     OW28597   0.938   0.167   5.683
 9233SOL    HW128598   0.842   0.153   5.707
 9233SOL    HW228599   0.945   0.238   5.613
 9234SOL     OW28600   3.404   4.580   6.116
 9234SOL    HW128601   3.427   4.627   6.031
 9234SOL    HW228602   3.459   4.496   6.123
 9235SOL     OW28603   2.335   2.169   2.851
 9235SOL    HW128604   2.422   2.178   2.900
 9235SOL    HW228605   2.260   2.191   2.913
 9236SOL     OW28606   1.231   3.144   5.976
 9236SOL    HW128607   1.305   3.212   5.978
 9236SOL    HW228608   1.252   3.070   6.039
 9237SOL     OW28609   6.070   5.023   3.072
 9237SOL    HW128610   6.153   5.057   3.117
 9237SOL    HW228611   6.041   4.937   3.114
 9238SOL     OW28612   1.497   2.763   4.641
 9238SOL    HW128613   1.463   2.745   4.549
 9238SOL    HW228614   1.449   2.842   4.680
 9239SOL     OW28615   1.598   5.971   6.251
 9239SOL    HW128616   1.656   6.039   6.296
 9239SOL    HW228617   1.617   5.971   6.153
 9240SOL     OW28618   3.786   1.783   3.828
 9240SOL    HW128619   3.813   1.690   3.855
 9240SOL    HW228620   3.797   1.793   3.729
 9241SOL     OW28621   5.942   6.358   0.259
 9241SOL    HW128622   5.850   6.327   0.232
 9241SOL    HW228623   6.003   6.279   0.266
 9242SOL     OW28624   1.773   2.753   1.017
 9242SOL    HW128625   1.783   2.720   0.923
 9242SOL    HW228626   1.856   2.732   1.069
 9243SOL     OW28627   2.136   0.142   0.787
 9243SOL    HW128628   2.177   0.056   0.755
 9243SOL    HW228629   2.121   0.202   0.709
 9244SOL     OW28630   2.455   6.066   6.696
 9244SOL    HW128631   2.400   6.069   6.780
 9244SOL    HW228632   2.543   6.023   6.717
 9245SOL     OW28633   0.795   4.860   3.162
 9245SOL    HW128634   0.698   4.839   3.150
 9245SOL    HW228635   0.804   4.941   3.220
 9246SOL     OW28636   5.271   6.093   0.056
 9246SOL    HW128637   5.229   6.003   0.041
 9246SOL    HW228638   5.293   6.103   0.153
 9247SOL     OW28639   3.487   6.705   2.734
 9247SOL    HW128640   3.491   6.759   2.649
 9247SOL    HW228641   3.405   6.647   2.732
 9248SOL     OW28642   2.756   0.361   6.818
 9248SOL    HW128643   2.789   0.276   6.858
 9248SOL    HW228644   2.667   0.346   6.776
 9249SOL     OW28645   3.180   6.961   0.233
 9249SOL    HW128646   3.094   6.983   0.278
 9249SOL    HW228647   3.219   6.879   0.275
 9250SOL     OW28648   0.214   3.761   3.269
 9250SOL    HW128649   0.302   3.807   3.260
 9250SOL    HW228650   0.211   3.712   3.357
 9251SOL     OW28651   3.420   1.853   0.997
 9251SOL    HW128652   3.461   1.943   0.976
 9251SOL    HW228653   3.427   1.835   1.095
 9252SOL     OW28654   5.599   1.425   4.531
 9252SOL    HW128655   5.668   1.480   4.578
 9252SOL    HW228656   5.532   1.392   4.598
 9253SOL     OW28657   2.389   4.934   4.029
 9253SOL    HW128658   2.482   4.965   4.048
 9253SOL    HW228659   2.323   4.998   4.069
 9254SOL     OW28660   0.158   5.351   2.028
 9254SOL    HW128661   0.061   5.325   2.028
 9254SOL    HW228662   0.192   5.354   1.934
 9255SOL     OW28663   6.023   3.393   0.954
 9255SOL    HW128664   6.012   3.434   0.864
 9255SOL    HW228665   5.946   3.331   0.972
 9256SOL     OW28666   2.714   6.565   1.106
 9256SOL    HW128667   2.649   6.640   1.090
 9256SOL    HW228668   2.754   6.573   1.197
 9257SOL     OW28669   6.465   6.114   4.920
 9257SOL    HW128670   6.463   6.043   4.991
 9257SOL    HW228671   6.547   6.169   4.930
 9258SOL     OW28672   4.937   4.933   2.147
 9258SOL    HW128673   4.990   5.017   2.139
 9258SOL    HW228674   4.984   4.868   2.206
 9259SOL     OW28675   0.404   2.307   6.898
 9259SOL    HW128676   0.375   2.218   6.933
 9259SOL    HW228677   0.331   2.374   6.914
 9260SOL     OW28678   4.887   3.822   4.851
 9260SOL    HW128679   4.824   3.753   4.886
 9260SOL    HW228680   4.950   3.781   4.786
 9261SOL     OW28681   1.437   3.207   1.966
 9261SOL    HW128682   1.394   3.117   1.965
 9261SOL    HW228683   1.523   3.203   1.914
 9262SOL     OW28684   6.901   6.238   5.968
 9262SOL    HW128685   6.997   6.267   5.977
 9262SOL    HW228686   6.898   6.141   5.942
 9263SOL     OW28687   2.577   4.575   2.854
 9263SOL    HW128688   2.521   4.497   2.827
 9263SOL    HW228689   2.578   4.643   2.780
 9264SOL     OW28690   5.066   3.678   5.494
 9264SOL    HW128691   5.059   3.579   5.510
 9264SOL    HW228692   5.162   3.704   5.483
 9265SOL     OW28693   4.703   0.791   1.836
 9265SOL    HW128694   4.771   0.745   1.892
 9265SOL    HW228695   4.644   0.847   1.894
 9266SOL     OW28696   1.612   4.952   0.907
 9266SOL    HW128697   1.654   4.867   0.873
 9266SOL    HW228698   1.624   5.024   0.839
 9267SOL     OW28699   6.899   1.695   3.970
 9267SOL    HW128700   6.866   1.601   3.968
 9267SOL    HW228701   6.940   1.718   3.881
 9268SOL     OW28702   0.737   0.983   1.950
 9268SOL    HW128703   0.657   0.965   1.892
 9268SOL    HW228704   0.775   1.072   1.926
 9269SOL     OW28705   4.387   0.998   0.626
 9269SOL    HW128706   4.299   1.008   0.672
 9269SOL    HW228707   4.413   1.085   0.584
 9270SOL     OW28708   2.712   1.180   5.462
 9270SOL    HW128709   2.616   1.159   5.480
 9270SOL    HW228710   2.718   1.257   5.399
 9271SOL     OW28711   1.454   4.694   5.995
 9271SOL    HW128712   1.535   4.644   6.026
 9271SOL    HW228713   1.466   4.720   5.899
 9272SOL     OW28714   6.194   6.001   5.530
 9272SOL    HW128715   6.259   5.987   5.455
 9272SOL    HW228716   6.133   5.922   5.536
 9273SOL     OW28717   5.564   3.395   4.101
 9273SOL    HW128718   5.503   3.446   4.040
 9273SOL    HW228719   5.511   3.327   4.152
 9274SOL     OW28720   0.313   3.690   0.343
 9274SOL    HW128721   0.413   3.678   0.342
 9274SOL    HW228722   0.285   3.737   0.259
 9275SOL     OW28723   5.752   1.161   0.818
 9275SOL    HW128724   5.802   1.123   0.895
 9275SOL    HW228725   5.655   1.136   0.825
 9276SOL     OW28726   2.071   4.236   6.983
 9276SOL    HW128727   2.077   4.143   6.948
 9276SOL    HW228728   2.002   4.240   0.026
 9277SOL     OW28729   4.408   5.864   2.273
 9277SOL    HW128730   4.446   5.938   2.217
 9277SOL    HW228731   4.396   5.897   2.367
 9278SOL     OW28732   0.696   0.119   5.817
 9278SOL    HW128733   0.604   0.147   5.787
 9278SOL    HW228734   0.725   0.176   5.894
 9279SOL     OW28735   2.525   6.090   1.855
 9279SOL    HW128736   2.472   6.063   1.935
 9279SOL    HW228737   2.520   6.018   1.785
 9280SOL     OW28738   1.192   5.583   2.371
 9280SOL    HW128739   1.163   5.504   2.318
 9280SOL    HW228740   1.281   5.565   2.413
 9281SOL     OW28741   1.608   5.422   0.723
 9281SOL    HW128742   1.611   5.501   0.663
 9281SOL    HW228743   1.624   5.450   0.817
 9282SOL     OW28744   2.662   0.240   4.875
 9282SOL    HW128745   2.694   0.335   4.881
 9282SOL    HW228746   2.653   0.202   4.967
 9283SOL     OW28747   4.848   6.228   0.013
 9283SOL    HW128748   4.911   6.167   6.994
 9283SOL    HW228749   4.840   6.199   0.108
 9284SOL     OW28750   4.195   6.331   0.553
 9284SOL    HW128751   4.167   6.322   0.648
 9284SOL    HW228752   4.295   6.341   0.548
 9285SOL     OW28753   6.991   6.164   3.592
 9285SOL    HW128754   0.017   6.223   3.532
 9285SOL    HW228755   0.011   6.078   3.608
 9286SOL     OW28756   5.006   6.691   1.742
 9286SOL    HW128757   4.923   6.735   1.776
 9286SOL    HW228758   4.981   6.622   1.674
 9287SOL     OW28759   4.167   4.176   6.329
 9287SOL    HW128760   4.091   4.176   6.264
 9287SOL    HW228761   4.219   4.260   6.318
 9288SOL     OW28762   3.731   1.809   2.436
 9288SOL    HW128763   3.713   1.822   2.338
 9288SOL    HW228764   3.668   1.741   2.473
 9289SOL     OW28765   4.347   6.469   1.420
 9289SOL    HW128766   4.313   6.559   1.394
 9289SOL    HW228767   4.390   6.474   1.510
 9290SOL     OW28768   5.728   0.913   3.474
 9290SOL    HW128769   5.794   0.973   3.519
 9290SOL    HW228770   5.652   0.967   3.440
 9291SOL     OW28771   0.498   4.136   5.547
 9291SOL    HW128772   0.438   4.181   5.480
 9291SOL    HW228773   0.578   4.100   5.499
 9292SOL     OW28774   0.487   1.782   6.569
 9292SOL    HW128775   0.471   1.789   6.668
 9292SOL    HW228776   0.515   1.872   6.534
 9293SOL     OW28777   4.762   1.832   5.356
 9293SOL    HW128778   4.857   1.850   5.332
 9293SOL    HW228779   4.742   1.872   5.445
 9294SOL     OW28780   5.063   6.436   6.789
 9294SOL    HW128781   5.055   6.440   6.888
 9294SOL    HW228782   5.009   6.509   6.747
 9295SOL     OW28783   6.230   0.493   3.589
 9295SOL    HW128784   6.225   0.571   3.527
 9295SOL    HW228785   6.325   0.465   3.601
 9296SOL     OW28786   2.246   4.162   5.742
 9296SOL    HW128787   2.306   4.146   5.663
 9296SOL    HW228788   2.240   4.078   5.796
 9297SOL     OW28789   0.075   4.957   2.143
 9297SOL    HW128790   0.080   4.979   2.240
 9297SOL    HW228791   0.016   4.877   2.130
 9298SOL     OW28792   0.043   4.249   6.516
 9298SOL    HW128793   0.028   4.307   6.597
 9298SOL    HW228794   0.135   4.210   6.519
 9299SOL     OW28795   2.913   1.827   4.650
 9299SOL    HW128796   2.867   1.815   4.738
 9299SOL    HW228797   2.853   1.876   4.587
 9300SOL     OW28798   2.415   5.840   4.963
 9300SOL    HW128799   2.446   5.858   4.869
 9300SOL    HW228800   2.315   5.829   4.963
 9301SOL     OW28801   0.834   3.955   3.986
 9301SOL    HW128802   0.880   4.030   4.033
 9301SOL    HW228803   0.823   3.978   3.890
 9302SOL     OW28804   3.098   5.531   4.381
 9302SOL    HW128805   3.027   5.488   4.437
 9302SOL    HW228806   3.068   5.622   4.353
 9303SOL     OW28807   2.815   4.820   0.073
 9303SOL    HW128808   2.780   4.759   0.145
 9303SOL    HW228809   2.814   4.914   0.106
 9304SOL     OW28810   5.370   5.974   6.177
 9304SOL    HW128811   5.373   6.059   6.230
 9304SOL    HW228812   5.377   5.896   6.239
 9305SOL     OW28813   1.559   1.741   1.204
 9305SOL    HW128814   1.465   1.746   1.170
 9305SOL    HW228815   1.618   1.698   1.136
 9306SOL     OW28816   6.772   6.122   4.535
 9306SOL    HW128817   6.708   6.186   4.577
 9306SOL    HW228818   6.751   6.112   4.438
 9307SOL     OW28819   1.886   3.896   1.651
 9307SOL    HW128820   1.970   3.945   1.672
 9307SOL    HW228821   1.883   3.811   1.703
 9308SOL     OW28822   2.320   3.679   1.636
 9308SOL    HW128823   2.387   3.607   1.648
 9308SOL    HW228824   2.350   3.740   1.562
 9309SOL     OW28825   4.787   5.258   6.019
 9309SOL    HW128826   4.861   5.222   5.962
 9309SOL    HW228827   4.775   5.356   6.001
 9310SOL     OW28828   5.972   6.128   5.647
 9310SOL    HW128829   6.060   6.086   5.625
 9310SOL    HW228830   5.913   6.061   5.691
 9311SOL     OW28831   5.522   3.873   0.842
 9311SOL    HW128832   5.596   3.831   0.895
 9311SOL    HW228833   5.522   3.972   0.858
 9312SOL     OW28834   6.680   2.582   3.574
 9312SOL    HW128835   6.735   2.519   3.629
 9312SOL    HW228836   6.587   2.584   3.611
 9313SOL     OW28837   0.479   0.642   2.575
 9313SOL    HW128838   0.440   0.733   2.589
 9313SOL    HW228839   0.558   0.649   2.515
 9314SOL     OW28840   5.161   5.248   1.620
 9314SOL    HW128841   5.151   5.278   1.715
 9314SOL    HW228842   5.074   5.259   1.571
 9315SOL     OW28843   5.752   5.671   5.547
 9315SOL    HW128844   5.679   5.708   5.603
 9315SOL    HW228845   5.723   5.670   5.451
 9316SOL     OW28846   5.190   6.948   1.074
 9316SOL    HW128847   5.165   7.024   1.134
 9316SOL    HW228848   5.246   6.982   0.998
 9317SOL     OW28849   1.866   5.806   3.959
 9317SOL    HW128850   1.831   5.785   3.867
 9317SOL    HW228851   1.905   5.899   3.959
 9318SOL     OW28852   3.200   6.622   2.732
 9318SOL    HW128853   3.159   6.712   2.717
 9318SOL    HW228854   3.128   6.552   2.726
 9319SOL     OW28855   4.265   2.162   0.259
 9319SOL    HW128856   4.184   2.176   0.317
 9319SOL    HW228857   4.347   2.185   0.310
 9320SOL     OW28858   6.761   6.773   6.430
 9320SOL    HW128859   6.684   6.718   6.400
 9320SOL    HW228860   6.840   6.714   6.447
 9321SOL     OW28861   1.094   2.864   4.177
 9321SOL    HW128862   1.094   2.796   4.104
 9321SOL    HW228863   1.058   2.822   4.261
 9322SOL     OW28864   5.167   2.419   7.000
 9322SOL    HW128865   5.122   2.479   6.934
 9322SOL    HW228866   5.220   2.474   0.035
 9323SOL     OW28867   0.546   2.309   5.910
 9323SOL    HW128868   0.469   2.305   5.974
 9323SOL    HW228869   0.522   2.368   5.833
 9324SOL     OW28870   0.393   5.334   1.086
 9324SOL    HW128871   0.466   5.267   1.073
 9324SOL    HW228872   0.398   5.404   1.014
 9325SOL     OW28873   1.037   4.830   3.346
 9325SOL    HW128874   1.032   4.864   3.253
 9325SOL    HW228875   1.022   4.731   3.347
 9326SOL     OW28876   4.718   4.654   0.481
 9326SOL    HW128877   4.626   4.686   0.503
 9326SOL    HW228878   4.775   4.658   0.563
 9327SOL     OW28879   2.991   1.286   3.522
 9327SOL    HW128880   2.946   1.325   3.442
 9327SOL    HW228881   2.988   1.186   3.516
 9328SOL     OW28882   2.027   0.635   3.400
 9328SOL    HW128883   2.021   0.583   3.485
 9328SOL    HW228884   1.970   0.591   3.330
 9329SOL     OW28885   1.009   5.336   6.401
 9329SOL    HW128886   1.020   5.248   6.355
 9329SOL    HW228887   1.078   5.344   6.473
 9330SOL     OW28888   0.935   6.902   0.573
 9330SOL    HW128889   1.007   6.953   0.525
 9330SOL    HW228890   0.923   6.939   0.665
 9331SOL     OW28891   2.024   4.525   4.332
 9331SOL    HW128892   2.057   4.619   4.333
 9331SOL    HW228893   2.015   4.491   4.425
 9332SOL     OW28894   6.760   5.039   0.018
 9332SOL    HW128895   6.668   5.004   0.030
 9332SOL    HW228896   6.816   5.012   0.096
 9333SOL     OW28897   2.605   4.999   1.381
 9333SOL    HW128898   2.607   4.984   1.282
 9333SOL    HW228899   2.568   4.917   1.426
 9334SOL     OW28900   6.886   5.382   6.404
 9334SOL    HW128901   6.834   5.321   6.463
 9334SOL    HW228902   6.947   5.438   6.460
 9335SOL     OW28903   0.280   3.645   1.077
 9335SOL    HW128904   0.201   3.706   1.079
 9335SOL    HW228905   0.261   3.563   1.131
 9336SOL     OW28906   4.816   6.796   5.917
 9336SOL    HW128907   4.886   6.825   5.853
 9336SOL    HW228908   4.847   6.813   6.011
 9337SOL     OW28909   2.682   1.520   5.496
 9337SOL    HW128910   2.726   1.602   5.532
 9337SOL    HW228911   2.726   1.494   5.410
 9338SOL     OW28912   5.302   6.726   0.802
 9338SOL    HW128913   5.373   6.793   0.823
 9338SOL    HW228914   5.318   6.643   0.856
 9339SOL     OW28915   6.764   3.765   5.128
 9339SOL    HW128916   6.824   3.686   5.120
 9339SOL    HW228917   6.697   3.763   5.054
 9340SOL     OW28918   2.485   4.962   2.383
 9340SOL    HW128919   2.536   5.043   2.411
 9340SOL    HW228920   2.505   4.941   2.287
 9341SOL     OW28921   5.705   5.065   6.791
 9341SOL    HW128922   5.754   4.990   6.746
 9341SOL    HW228923   5.694   5.043   6.888
 9342SOL     OW28924   2.989   6.899   5.223
 9342SOL    HW128925   2.910   6.959   5.230
 9342SOL    HW228926   3.060   6.930   5.287
 9343SOL     OW28927   4.786   3.926   1.005
 9343SOL    HW128928   4.697   3.932   0.959
 9343SOL    HW228929   4.809   3.829   1.020
 9344SOL     OW28930   5.936   0.017   5.020
 9344SOL    HW128931   5.955   0.085   5.092
 9344SOL    HW228932   5.995   0.034   4.942
 9345SOL     OW28933   0.238   4.555   0.052
 9345SOL    HW128934   0.222   4.573   6.984
 9345SOL    HW228935   0.337   4.551   0.070
 9346SOL     OW28936   5.079   0.635   2.271
 9346SOL    HW128937   5.124   0.682   2.347
 9346SOL    HW228938   5.012   0.696   2.229
 9347SOL     OW28939   4.714   6.386   1.887
 9347SOL    HW128940   4.717   6.331   1.804
 9347SOL    HW228941   4.737   6.329   1.966
 9348SOL     OW28942   2.449   5.126   2.145
 9348SOL    HW128943   2.380   5.130   2.072
 9348SOL    HW228944   2.526   5.070   2.116
 9349SOL     OW28945   6.529   6.281   1.147
 9349SOL    HW128946   6.488   6.212   1.207
 9349SOL    HW228947   6.475   6.365   1.152
 9350SOL     OW28948   6.531   0.448   0.359
 9350SOL    HW128949   6.460   0.391   0.319
 9350SOL    HW228950   6.522   0.542   0.325
 9351SOL     OW28951   4.080   3.635   6.350
 9351SOL    HW128952   4.169   3.597   6.325
 9351SOL    HW228953   4.089   3.733   6.367
 9352SOL     OW28954   2.994   2.628   6.791
 9352SOL    HW128955   3.028   2.722   6.798
 9352SOL    HW228956   3.070   2.564   6.807
 9353SOL     OW28957   1.211   2.954   1.409
 9353SOL    HW128958   1.153   3.036   1.411
 9353SOL    HW228959   1.153   2.873   1.406
 9354SOL     OW28960   5.436   1.723   1.989
 9354SOL    HW128961   5.534   1.725   2.010
 9354SOL    HW228962   5.388   1.785   2.050
 9355SOL     OW28963   7.024   1.170   2.316
 9355SOL    HW128964   6.927   1.174   2.292
 9355SOL    HW228965   0.037   1.259   2.302
 9356SOL     OW28966   5.576   3.399   2.904
 9356SOL    HW128967   5.609   3.326   2.843
 9356SOL    HW228968   5.531   3.469   2.849
 9357SOL     OW28969   2.663   4.578   0.500
 9357SOL    HW128970   2.677   4.665   0.546
 9357SOL    HW228971   2.703   4.504   0.556
 9358SOL     OW28972   5.152   3.852   2.356
 9358SOL    HW128973   5.064   3.861   2.309
 9358SOL    HW228974   5.226   3.859   2.289
 9359SOL     OW28975   5.230   5.465   5.881
 9359SOL    HW128976   5.327   5.460   5.858
 9359SOL    HW228977   5.216   5.533   5.952
 9360SOL     OW28978   1.205   1.222   5.125
 9360SOL    HW128979   1.245   1.216   5.033
 9360SOL    HW228980   1.276   1.209   5.193
 9361SOL     OW28981   2.546   1.016   2.010
 9361SOL    HW128982   2.564   0.979   2.101
 9361SOL    HW228983   2.522   1.113   2.019
 9362SOL     OW28984   2.165   1.666   3.067
 9362SOL    HW128985   2.121   1.755   3.066
 9362SOL    HW228986   2.107   1.600   3.019
 9363SOL     OW28987   1.571   6.331   2.177
 9363SOL    HW128988   1.619   6.419   2.180
 9363SOL    HW228989   1.636   6.257   2.194
 9364SOL     OW28990   5.453   4.570   1.169
 9364SOL    HW128991   5.363   4.614   1.163
 9364SOL    HW228992   5.500   4.580   1.081
 9365SOL     OW28993   2.500   0.816   4.593
 9365SOL    HW128994   2.567   0.888   4.576
 9365SOL    HW228995   2.545   0.739   4.640
 9366SOL     OW28996   3.316   0.822   1.996
 9366SOL    HW128997   3.389   0.875   2.040
 9366SOL    HW228998   3.338   0.808   1.900
 9367SOL     OW28999   6.496   5.905   4.399
 9367SOL    HW129000   6.522   5.905   4.496
 9367SOL    HW229001   6.561   5.961   4.347
 9368SOL     OW29002   4.477   3.204   0.789
 9368SOL    HW129003   4.491   3.232   0.694
 9368SOL    HW229004   4.385   3.230   0.818
 9369SOL     OW29005   0.032   2.559   6.009
 9369SOL    HW129006   6.963   2.570   5.997
 9369SOL    HW229007   0.081   2.630   5.959
 9370SOL     OW29008   6.213   5.794   3.257
 9370SOL    HW129009   6.199   5.730   3.332
 9370SOL    HW229010   6.233   5.885   3.294
 9371SOL     OW29011   1.031   6.587   0.328
 9371SOL    HW129012   1.002   6.596   0.423
 9371SOL    HW229013   1.018   6.493   0.298
 9372SOL     OW29014   5.886   6.598   0.410
 9372SOL    HW129015   5.813   6.567   0.471
 9372SOL    HW229016   5.928   6.520   0.364
 9373SOL     OW29017   4.755   2.468   4.299
 9373SOL    HW129018   4.655   2.463   4.302
 9373SOL    HW229019   4.793   2.391   4.351
 9374SOL     OW29020   4.906   4.319   0.468
 9374SOL    HW129021   4.861   4.292   0.553
 9374SOL    HW229022   4.949   4.408   0.480
 9375SOL     OW29023   0.195   1.663   3.877
 9375SOL    HW129024   0.177   1.569   3.849
 9375SOL    HW229025   0.122   1.723   3.843
 9376SOL     OW29026   1.827   2.802   1.614
 9376SOL    HW129027   1.835   2.864   1.692
 9376SOL    HW229028   1.905   2.815   1.553
 9377SOL     OW29029   5.939   5.374   2.584
 9377SOL    HW129030   5.849   5.344   2.551
 9377SOL    HW229031   5.940   5.372   2.684
 9378SOL     OW29032   3.247   6.054   1.499
 9378SOL    HW129033   3.292   5.967   1.519
 9378SOL    HW229034   3.239   6.108   1.582
 9379SOL     OW29035   6.086   4.425   5.182
 9379SOL    HW129036   6.074   4.505   5.241
 9379SOL    HW229037   6.181   4.421   5.152
 9380SOL     OW29038   5.840   5.747   6.045
 9380SOL    HW129039   5.908   5.681   6.015
 9380SOL    HW229040   5.872   5.793   6.127
 9381SOL     OW29041   1.695   0.804   0.525
 9381SOL    HW129042   1.642   0.858   0.590
 9381SOL    HW229043   1.724   0.719   0.569
 9382SOL     OW29044   5.588   2.091   1.805
 9382SOL    HW129045   5.569   2.118   1.900
 9382SOL    HW229046   5.670   2.138   1.773
 9383SOL     OW29047   5.950   5.268   5.813
 9383SOL    HW129048   6.033   5.217   5.791
 9383SOL    HW229049   5.970   5.337   5.881
 9384SOL     OW29050   3.708   6.471   2.627
 9384SOL    HW129051   3.704   6.538   2.553
 9384SOL    HW229052   3.800   6.469   2.665
 9385SOL     OW29053   3.853   0.663   4.260
 9385SOL    HW129054   3.844   0.666   4.160
 9385SOL    HW229055   3.790   0.595   4.297
 9386SOL     OW29056   4.179   0.286   5.481
 9386SOL    HW129057   4.167   0.348   5.404
 9386SOL    HW229058   4.249   0.324   5.543
 9387SOL     OW29059   3.882   6.339   1.043
 9387SOL    HW129060   3.898   6.418   0.985
 9387SOL    HW229061   3.819   6.276   0.997
 9388SOL     OW29062   6.077   6.729   2.264
 9388SOL    HW129063   6.130   6.686   2.191
 9388SOL    HW229064   5.980   6.728   2.239
 9389SOL     OW29065   3.553   1.349   6.922
 9389SOL    HW129066   3.457   1.367   6.946
 9389SOL    HW229067   3.605   1.435   6.927
 9390SOL     OW29068   2.558   5.929   1.618
 9390SOL    HW129069   2.656   5.910   1.625
 9390SOL    HW229070   2.508   5.844   1.601
 9391SOL     OW29071   6.977   1.093   5.484
 9391SOL    HW129072   0.027   1.062   5.431
 9391SOL    HW229073   6.997   1.183   5.524
 9392SOL     OW29074   1.224   6.640   4.312
 9392SOL    HW129075   1.207   6.544   4.337
 9392SOL    HW229076   1.141   6.693   4.330
 9393SOL     OW29077   4.001   2.047   5.296
 9393SOL    HW129078   3.917   2.101   5.305
 9393SOL    HW229079   3.990   1.961   5.345
 9394SOL     OW29080   5.498   2.992   1.628
 9394SOL    HW129081   5.493   2.932   1.708
 9394SOL    HW229082   5.509   2.936   1.545
 9395SOL     OW29083   2.128   3.125   6.309
 9395SOL    HW129084   2.074   3.041   6.305
 9395SOL    HW229085   2.167   3.145   6.219
 9396SOL     OW29086   6.271   0.350   6.858
 9396SOL    HW129087   6.309   0.441   6.843
 9396SOL    HW229088   6.216   0.349   6.941
 9397SOL     OW29089   2.922   1.445   1.305
 9397SOL    HW129090   2.968   1.419   1.390
 9397SOL    HW229091   2.944   1.540   1.283
 9398SOL     OW29092   2.162   1.360   0.903
 9398SOL    HW129093   2.187   1.290   0.836
 9398SOL    HW229094   2.193   1.449   0.870
 9399SOL     OW29095   6.674   0.680   5.338
 9399SOL    HW129096   6.639   0.599   5.290
 9399SOL    HW229097   6.752   0.654   5.394
 9400SOL     OW29098   3.986   2.073   3.285
 9400SOL    HW129099   4.012   2.117   3.198
 9400SOL    HW229100   4.058   2.009   3.312
 9401SOL     OW29101   4.039   0.284   3.367
 9401SOL    HW129102   4.084   0.373   3.369
 9401SOL    HW229103   3.947   0.294   3.329
 9402SOL     OW29104   2.073   5.030   0.580
 9402SOL    HW129105   2.109   4.938   0.591
 9402SOL    HW229106   2.024   5.058   0.663
 9403SOL     OW29107   5.874   0.683   5.197
 9403SOL    HW129108   5.795   0.735   5.232
 9403SOL    HW229109   5.842   0.611   5.136
 9404SOL     OW29110   1.278   4.219   5.477
 9404SOL    HW129111   1.334   4.138   5.459
 9404SOL    HW229112   1.325   4.300   5.441
 9405SOL     OW29113   6.932   0.418   0.746
 9405SOL    HW129114   6.908   0.458   0.835
 9405SOL    HW229115   6.882   0.465   0.674
 9406SOL     OW29116   6.639   1.165   5.590
 9406SOL    HW129117   6.547   1.140   5.561
 9406SOL    HW229118   6.696   1.083   5.593
 9407SOL     OW29119   3.458   6.101   3.012
 9407SOL    HW129120   3.378   6.079   2.955
 9407SOL    HW229121   3.539   6.058   2.973
 9408SOL     OW29122   4.020   2.164   6.807
 9408SOL    HW129123   4.076   2.106   6.749
 9408SOL    HW229124   3.995   2.114   6.890
 9409SOL     OW29125   6.208   3.311   3.341
 9409SOL    HW129126   6.236   3.322   3.436
 9409SOL    HW229127   6.218   3.215   3.314
 9410SOL     OW29128   4.739   6.475   2.324
 9410SOL    HW129129   4.678   6.511   2.254
 9410SOL    HW229130   4.814   6.539   2.339
 9411SOL     OW29131   4.794   5.887   1.395
 9411SOL    HW129132   4.805   5.848   1.304
 9411SOL    HW229133   4.704   5.862   1.431
 9412SOL     OW29134   6.270   3.120   1.987
 9412SOL    HW129135   6.335   3.069   2.044
 9412SOL    HW229136   6.267   3.215   2.019
 9413SOL     OW29137   3.633   5.254   4.247
 9413SOL    HW129138   3.662   5.166   4.210
 9413SOL    HW229139   3.536   5.251   4.269
 9414SOL     OW29140   2.636   0.950   2.269
 9414SOL    HW129141   2.657   1.021   2.336
 9414SOL    HW229142   2.548   0.907   2.291
 9415SOL     OW29143   2.825   0.748   2.282
 9415SOL    HW129144   2.860   0.764   2.374
 9415SOL    HW229145   2.750   0.811   2.263
 9416SOL     OW29146   1.560   2.006   1.166
 9416SOL    HW129147   1.616   2.064   1.225
 9416SOL    HW229148   1.574   1.910   1.189
 9417SOL     OW29149   2.182   0.495   4.474
 9417SOL    HW129150   2.253   0.533   4.415
 9417SOL    HW229151   2.214   0.491   4.568
 9418SOL     OW29152   4.007   4.284   1.322
 9418SOL    HW129153   3.910   4.281   1.344
 9418SOL    HW229154   4.018   4.279   1.222
 9419SOL     OW29155   3.587   5.526   4.526
 9419SOL    HW129156   3.626   5.441   4.490
 9419SOL    HW229157   3.509   5.553   4.469
 9420SOL     OW29158   1.287   1.474   4.478
 9420SOL    HW129159   1.247   1.507   4.393
 9420SOL    HW229160   1.365   1.532   4.503
 9421SOL     OW29161   1.564   5.057   4.634
 9421SOL    HW129162   1.611   4.969   4.633
 9421SOL    HW229163   1.627   5.128   4.601
 9422SOL     OW29164   3.998   1.049   2.692
 9422SOL    HW129165   3.962   1.042   2.599
 9422SOL    HW229166   4.066   1.122   2.695
 9423SOL     OW29167   4.878   0.235   4.733
 9423SOL    HW129168   4.919   0.276   4.651
 9423SOL    HW229169   4.861   0.307   4.801
 9424SOL     OW29170   3.195   6.093   4.369
 9424SOL    HW129171   3.117   6.131   4.420
 9424SOL    HW229172   3.170   6.082   4.273
 9425SOL     OW29173   1.325   4.713   3.440
 9425SOL    HW129174   1.337   4.726   3.342
 9425SOL    HW229175   1.337   4.616   3.463
 9426SOL     OW29176   3.750   6.374   0.633
 9426SOL    HW129177   3.785   6.387   0.541
 9426SOL    HW229178   3.805   6.428   0.697
 9427SOL     OW29179   3.148   4.946   4.141
 9427SOL    HW129180   3.119   4.882   4.213
 9427SOL    HW229181   3.090   4.934   4.061
 9428SOL     OW29182   4.680   5.951   2.114
 9428SOL    HW129183   4.766   5.916   2.078
 9428SOL    HW229184   4.699   6.027   2.177
 9429SOL     OW29185   6.845   3.303   2.506
 9429SOL    HW129186   6.883   3.313   2.414
 9429SOL    HW229187   6.877   3.217   2.546
 9430SOL     OW29188   5.764   0.136   1.972
 9430SOL    HW129189   5.694   0.139   2.043
 9430SOL    HW229190   5.834   0.205   1.993
 9431SOL     OW29191   6.290   4.045   1.085
 9431SOL    HW129192   6.306   4.139   1.116
 9431SOL    HW229193   6.192   4.024   1.092
 9432SOL     OW29194   6.727   6.988   4.522
 9432SOL    HW129195   6.757   6.921   4.589
 9432SOL    HW229196   6.796   6.996   4.450
 9433SOL     OW29197   3.200   4.861   4.837
 9433SOL    HW129198   3.168   4.952   4.867
 9433SOL    HW229199   3.288   4.841   4.880
 9434SOL     OW29200   5.249   4.671   3.008
 9434SOL    HW129201   5.243   4.603   3.081
 9434SOL    HW229202   5.269   4.761   3.047
 9435SOL     OW29203   1.903   1.790   4.885
 9435SOL    HW129204   1.944   1.737   4.811
 9435SOL    HW229205   1.970   1.801   4.959
 9436SOL     OW29206   2.108   2.287   6.175
 9436SOL    HW129207   2.091   2.211   6.112
 9436SOL    HW229208   2.146   2.364   6.124
 9437SOL     OW29209   0.639   5.177   4.128
 9437SOL    HW129210   0.584   5.240   4.074
 9437SOL    HW229211   0.585   5.095   4.148
 9438SOL     OW29212   0.483   6.810   2.152
 9438SOL    HW129213   0.396   6.762   2.164
 9438SOL    HW229214   0.555   6.744   2.132
 9439SOL     OW29215   1.412   3.058   1.616
 9439SOL    HW129216   1.334   3.051   1.554
 9439SOL    HW229217   1.423   2.972   1.667
 9440SOL     OW29218   4.612   6.101   5.021
 9440SOL    HW129219   4.698   6.131   4.980
 9440SOL    HW229220   4.595   6.005   4.996
 9441SOL     OW29221   1.907   5.762   5.117
 9441SOL    HW129222   1.951   5.690   5.063
 9441SOL    HW229223   1.862   5.722   5.197
 9442SOL     OW29224   0.707   3.782   1.366
 9442SOL    HW129225   0.644   3.855   1.341
 9442SOL    HW229226   0.801   3.811   1.349
 9443SOL     OW29227   2.186   3.385   1.399
 9443SOL    HW129228   2.187   3.317   1.326
 9443SOL    HW229229   2.127   3.353   1.473
 9444SOL     OW29230   0.487   3.962   5.767
 9444SOL    HW129231   0.472   4.027   5.693
 9444SOL    HW229232   0.585   3.948   5.780
 9445SOL     OW29233   6.212   3.449   1.312
 9445SOL    HW129234   6.116   3.422   1.305
 9445SOL    HW229235   6.257   3.437   1.223
 9446SOL     OW29236   6.104   4.845   0.897
 9446SOL    HW129237   6.107   4.786   0.978
 9446SOL    HW229238   6.063   4.933   0.922
 9447SOL     OW29239   6.122   2.439   1.676
 9447SOL    HW129240   6.163   2.351   1.698
 9447SOL    HW229241   6.175   2.484   1.605
 9448SOL     OW29242   6.589   6.162   0.459
 9448SOL    HW129243   6.533   6.146   0.378
 9448SOL    HW229244   6.537   6.218   0.524
 9449SOL     OW29245   6.576   5.130   5.266
 9449SOL    HW129246   6.633   5.212   5.269
 9449SOL    HW229247   6.616   5.060   5.326
 9450SOL     OW29248   2.843   5.602   4.200
 9450SOL    HW129249   2.770   5.623   4.265
 9450SOL    HW229250   2.922   5.661   4.217
 9451SOL     OW29251   4.160   4.196   5.558
 9451SOL    HW129252   4.178   4.196   5.459
 9451SOL    HW229253   4.214   4.124   5.601
 9452SOL     OW29254   2.735   4.438   1.394
 9452SOL    HW129255   2.777   4.412   1.307
 9452SOL    HW229256   2.636   4.428   1.388
 9453SOL     OW29257   2.793   5.332   1.771
 9453SOL    HW129258   2.753   5.257   1.717
 9453SOL    HW229259   2.890   5.341   1.748
 9454SOL     OW29260   2.018   1.915   5.247
 9454SOL    HW129261   1.937   1.969   5.270
 9454SOL    HW229262   1.995   1.851   5.174
 9455SOL     OW29263   2.494   2.160   2.278
 9455SOL    HW129264   2.547   2.198   2.202
 9455SOL    HW229265   2.409   2.211   2.288
 9456SOL     OW29266   1.232   3.602   0.792
 9456SOL    HW129267   1.227   3.669   0.718
 9456SOL    HW229268   1.301   3.631   0.859
 9457SOL     OW29269   6.723   3.491   0.698
 9457SOL    HW129270   6.820   3.501   0.716
 9457SOL    HW229271   6.681   3.434   0.769
 9458SOL     OW29272   0.682   5.513   4.258
 9458SOL    HW129273   0.588   5.480   4.272
 9458SOL    HW229274   0.735   5.498   4.341
 9459SOL     OW29275   4.309   6.211   1.476
 9459SOL    HW129276   4.312   6.311   1.476
 9459SOL    HW229277   4.214   6.180   1.463
 9460SOL     OW29278   1.063   2.767   5.465
 9460SOL    HW129279   0.991   2.707   5.500
 9460SOL    HW229280   1.077   2.748   5.368
 9461SOL     OW29281   1.639   0.800   2.696
 9461SOL    HW129282   1.586   0.746   2.761
 9461SOL    HW229283   1.582   0.874   2.660
 9462SOL     OW29284   0.196   3.601   3.039
 9462SOL    HW129285   0.169   3.641   3.127
 9462SOL    HW229286   0.141   3.520   3.021
 9463SOL     OW29287   5.370   2.017   6.709
 9463SOL    HW129288   5.350   2.111   6.736
 9463SOL    HW229289   5.352   2.006   6.611
 9464SOL     OW29290   4.505   6.921   6.130
 9464SOL    HW129291   4.574   6.893   6.196
 9464SOL    HW229292   4.522   7.016   6.102
 9465SOL     OW29293   5.867   0.160   4.290
 9465SOL    HW129294   5.908   0.090   4.232
 9465SOL    HW229295   5.822   0.116   4.368
 9466SOL     OW29296   2.372   2.057   6.962
 9466SOL    HW129297   2.451   2.105   6.999
 9466SOL    HW229298   2.400   1.967   6.928
 9467SOL     OW29299   2.085   3.229   1.940
 9467SOL    HW129300   2.110   3.324   1.953
 9467SOL    HW229301   2.167   3.172   1.942
 9468SOL     OW29302   0.375   2.615   6.167
 9468SOL    HW129303   0.362   2.682   6.093
 9468SOL    HW229304   0.292   2.560   6.176
 9469SOL     OW29305   6.483   4.115   2.677
 9469SOL    HW129306   6.452   4.149   2.589
 9469SOL    HW229307   6.447   4.173   2.750
 9470SOL     OW29308   5.804   3.438   1.610
 9470SOL    HW129309   5.870   3.511   1.590
 9470SOL    HW229310   5.758   3.457   1.696
 9471SOL     OW29311   0.741   2.495   5.780
 9471SOL    HW129312   0.766   2.404   5.812
 9471SOL    HW229313   0.711   2.550   5.858
 9472SOL     OW29314   6.785   2.722   4.996
 9472SOL    HW129315   6.792   2.638   5.050
 9472SOL    HW229316   6.695   2.762   5.008
 9473SOL     OW29317   4.033   5.280   4.619
 9473SOL    HW129318   3.935   5.300   4.624
 9473SOL    HW229319   4.083   5.364   4.597
 9474SOL     OW29320   3.770   5.277   3.651
 9474SOL    HW129321   3.813   5.207   3.708
 9474SOL    HW229322   3.796   5.263   3.556
 9475SOL     OW29323   1.486   3.272   1.312
 9475SOL    HW129324   1.397   3.255   1.354
 9475SOL    HW229325   1.544   3.191   1.322
 9476SOL     OW29326   3.893   3.663   5.466
 9476SOL    HW129327   3.974   3.646   5.410
 9476SOL    HW229328   3.872   3.580   5.519
 9477SOL     OW29329   0.492   2.464   1.108
 9477SOL    HW129330   0.513   2.561   1.108
 9477SOL    HW229331   0.394   2.451   1.098
 9478SOL     OW29332   5.326   4.585   5.145
 9478SOL    HW129333   5.416   4.593   5.188
 9478SOL    HW229334   5.334   4.528   5.063
 9479SOL     OW29335   6.327   5.741   5.291
 9479SOL    HW129336   6.329   5.719   5.389
 9479SOL    HW229337   6.369   5.830   5.276
 9480SOL     OW29338   5.927   4.053   6.438
 9480SOL    HW129339   5.927   3.953   6.441
 9480SOL    HW229340   6.018   4.086   6.413
 9481SOL     OW29341   6.261   3.516   2.446
 9481SOL    HW129342   6.358   3.518   2.471
 9481SOL    HW229343   6.211   3.585   2.498
 9482SOL     OW29344   4.321   0.106   2.595
 9482SOL    HW129345   4.369   0.029   2.553
 9482SOL    HW229346   4.295   0.171   2.524
 9483SOL     OW29347   1.832   1.696   0.594
 9483SOL    HW129348   1.788   1.747   0.519
 9483SOL    HW229349   1.922   1.734   0.612
 9484SOL     OW29350   6.229   1.372   2.758
 9484SOL    HW129351   6.311   1.353   2.703
 9484SOL    HW229352   6.195   1.288   2.798
 9485SOL     OW29353   1.408   0.728   3.043
 9485SOL    HW129354   1.423   0.827   3.040
 9485SOL    HW229355   1.424   0.690   2.952
 9486SOL     OW29356   2.595   5.675   2.331
 9486SOL    HW129357   2.606   5.670   2.232
 9486SOL    HW229358   2.574   5.768   2.359
 9487SOL     OW29359   3.335   2.911   3.413
 9487SOL    HW129360   3.360   2.927   3.508
 9487SOL    HW229361   3.247   2.955   3.394
 9488SOL     OW29362   0.878   1.096   1.645
 9488SOL    HW129363   0.944   1.129   1.713
 9488SOL    HW229364   0.871   0.996   1.652
 9489SOL     OW29365   3.377   4.513   0.831
 9489SOL    HW129366   3.465   4.553   0.858
 9489SOL    HW229367   3.349   4.446   0.899
 9490SOL     OW29368   5.825   1.351   0.073
 9490SOL    HW129369   5.865   1.411   0.143
 9490SOL    HW229370   5.834   1.394   7.013
 9491SOL     OW29371   6.668   5.016   5.590
 9491SOL    HW129372   6.650   4.918   5.584
 9491SOL    HW229373   6.755   5.032   5.635
 9492SOL     OW29374   2.734   4.129   1.716
 9492SOL    HW129375   2.829   4.148   1.689
 9492SOL    HW229376   2.729   4.127   1.816
 9493SOL     OW29377   5.694   6.318   2.697
 9493SOL    HW129378   5.769   6.355   2.642
 9493SOL    HW229379   5.613   6.376   2.685
 9494SOL     OW29380   3.503   3.324   6.241
 9494SOL    HW129381   3.412   3.293   6.266
 9494SOL    HW229382   3.498   3.373   6.153
 9495SOL     OW29383   5.618   2.531   4.940
 9495SOL    HW129384   5.673   2.603   4.984
 9495SOL    HW229385   5.533   2.571   4.907
 9496SOL     OW29386   5.695   3.829   0.127
 9496SOL    HW129387   5.711   3.925   0.149
 9496SOL    HW229388   5.738   3.807   0.039
 9497SOL     OW29389   0.150   6.550   5.722
 9497SOL    HW129390   0.061   6.556   5.768
 9497SOL    HW229391   0.221   6.584   5.783
 9498SOL     OW29392   4.012   6.901   5.781
 9498SOL    HW129393   4.032   6.995   5.751
 9498SOL    HW229394   4.043   6.889   5.875
 9499SOL     OW29395   4.794   4.216   6.287
 9499SOL    HW129396   4.736   4.225   6.206
 9499SOL    HW229397   4.859   4.293   6.289
 9500SOL     OW29398   5.135   5.592   2.014
 9500SOL    HW129399   5.156   5.560   2.106
 9500SOL    HW229400   5.035   5.595   2.002
 9501SOL     OW29401   3.398   1.419   4.896
 9501SOL    HW129402   3.363   1.455   4.810
 9501SOL    HW229403   3.366   1.325   4.909
 9502SOL     OW29404   5.023   3.413   5.578
 9502SOL    HW129405   5.040   3.403   5.676
 9502SOL    HW229406   5.019   3.323   5.536
 9503SOL     OW29407   1.081   0.026   1.040
 9503SOL    HW129408   1.126   0.021   1.129
 9503SOL    HW229409   1.007   0.094   1.043
 9504SOL     OW29410   0.743   3.393   6.904
 9504SOL    HW129411   0.716   3.472   6.849
 9504SOL    HW229412   0.803   3.334   6.850
 9505SOL     OW29413   4.897   3.658   3.015
 9505SOL    HW129414   4.902   3.569   3.059
 9505SOL    HW229415   4.903   3.730   3.085
 9506SOL     OW29416   6.112   2.830   0.488
 9506SOL    HW129417   6.153   2.740   0.496
 9506SOL    HW229418   6.138   2.872   0.401
 9507SOL     OW29419   0.874   1.944   3.992
 9507SOL    HW129420   0.917   1.992   3.916
 9507SOL    HW229421   0.784   1.912   3.965
 9508SOL     OW29422   5.069   2.100   6.689
 9508SOL    HW129423   5.086   2.017   6.743
 9508SOL    HW229424   5.150   2.159   6.692
 9509SOL     OW29425   2.617   6.404   5.212
 9509SOL    HW129426   2.657   6.347   5.284
 9509SOL    HW229427   2.687   6.464   5.174
 9510SOL     OW29428   6.635   4.395   3.160
 9510SOL    HW129429   6.719   4.445   3.139
 9510SOL    HW229430   6.579   4.448   3.223
 9511SOL     OW29431   1.672   1.008   1.034
 9511SOL    HW129432   1.652   1.095   0.989
 9511SOL    HW229433   1.604   0.990   1.105
 9512SOL     OW29434   1.494   2.462   4.482
 9512SOL    HW129435   1.547   2.450   4.397
 9512SOL    HW229436   1.446   2.549   4.479
 9513SOL     OW29437   2.290   4.213   3.973
 9513SOL    HW129438   2.321   4.153   3.899
 9513SOL    HW229439   2.272   4.158   4.055
 9514SOL     OW29440   2.569   2.851   6.317
 9514SOL    HW129441   2.513   2.773   6.346
 9514SOL    HW229442   2.644   2.863   6.382
 9515SOL     OW29443   2.535   5.633   5.494
 9515SOL    HW129444   2.466   5.641   5.421
 9515SOL    HW229445   2.626   5.623   5.452
 9516SOL     OW29446   5.317   3.835   4.727
 9516SOL    HW129447   5.320   3.929   4.761
 9516SOL    HW229448   5.386   3.781   4.774
 9517SOL     OW29449   0.787   5.782   1.645
 9517SOL    HW129450   0.812   5.755   1.738
 9517SOL    HW229451   0.728   5.863   1.648
 9518SOL     OW29452   0.934   3.168   5.492
 9518SOL    HW129453   1.020   3.215   5.510
 9518SOL    HW229454   0.897   3.132   5.578
 9519SOL     OW29455   3.856   3.174   3.322
 9519SOL    HW129456   3.942   3.224   3.311
 9519SOL    HW229457   3.868   3.101   3.389
 9520SOL     OW29458   5.386   0.562   6.392
 9520SOL    HW129459   5.447   0.536   6.466
 9520SOL    HW229460   5.292   0.539   6.416
 9521SOL     OW29461   3.423   0.972   0.971
 9521SOL    HW129462   3.486   1.006   0.901
 9521SOL    HW229463   3.356   1.043   0.992
 9522SOL     OW29464   3.220   6.142   1.941
 9522SOL    HW129465   3.309   6.096   1.946
 9522SOL    HW229466   3.149   6.075   1.917
 9523SOL     OW29467   2.651   4.604   4.034
 9523SOL    HW129468   2.660   4.693   4.079
 9523SOL    HW229469   2.607   4.540   4.097
 9524SOL     OW29470   2.301   4.145   1.046
 9524SOL    HW129471   2.322   4.127   1.143
 9524SOL    HW229472   2.360   4.219   1.013
 9525SOL     OW29473   2.461   3.266   5.343
 9525SOL    HW129474   2.458   3.173   5.306
 9525SOL    HW229475   2.398   3.324   5.292
 9526SOL     OW29476   5.352   4.864   0.068
 9526SOL    HW129477   5.411   4.784   0.051
 9526SOL    HW229478   5.361   4.928   7.021
 9527SOL     OW29479   4.153   6.750   3.963
 9527SOL    HW129480   4.178   6.845   3.946
 9527SOL    HW229481   4.213   6.690   3.911
 9528SOL     OW29482   5.293   2.294   0.307
 9528SOL    HW129483   5.304   2.318   0.211
 9528SOL    HW229484   5.379   2.258   0.343
 9529SOL     OW29485   6.063   1.402   1.560
 9529SOL    HW129486   6.085   1.306   1.542
 9529SOL    HW229487   5.983   1.407   1.621
 9530SOL     OW29488   1.678   5.789   3.745
 9530SOL    HW129489   1.626   5.830   3.820
 9530SOL    HW229490   1.690   5.691   3.762
 9531SOL     OW29491   3.622   5.659   2.367
 9531SOL    HW129492   3.597   5.719   2.443
 9531SOL    HW229493   3.588   5.567   2.385
 9532SOL     OW29494   6.515   5.222   3.316
 9532SOL    HW129495   6.554   5.267   3.235
 9532SOL    HW229496   6.588   5.191   3.376
 9533SOL     OW29497   1.637   3.434   3.740
 9533SOL    HW129498   1.665   3.530   3.742
 9533SOL    HW229499   1.579   3.417   3.661
 9534SOL     OW29500   5.527   4.928   4.543
 9534SOL    HW129501   5.531   5.015   4.495
 9534SOL    HW229502   5.603   4.922   4.608
 9535SOL     OW29503   0.358   1.668   4.983
 9535SOL    HW129504   0.398   1.667   4.891
 9535SOL    HW229505   0.259   1.655   4.976
 9536SOL     OW29506   3.316   3.933   5.123
 9536SOL    HW129507   3.248   3.860   5.116
 9536SOL    HW229508   3.405   3.893   5.143
 9537SOL     OW29509   0.078   1.940   4.084
 9537SOL    HW129510   0.128   2.001   4.146
 9537SOL    HW229511   0.075   1.849   4.123
 9538SOL     OW29512   5.073   0.370   5.168
 9538SOL    HW129513   5.044   0.459   5.203
 9538SOL    HW229514   5.164   0.349   5.203
 9539SOL     OW29515   3.173   3.619   2.323
 9539SOL    HW129516   3.103   3.690   2.335
 9539SOL    HW229517   3.202   3.616   2.227
 9540SOL     OW29518   4.598   5.126   3.147
 9540SOL    HW129519   4.660   5.074   3.087
 9540SOL    HW229520   4.532   5.063   3.189
 9541SOL     OW29521   2.280   5.618   5.290
 9541SOL    HW129522   2.258   5.583   5.199
 9541SOL    HW229523   2.257   5.548   5.358
 9542SOL     OW29524   6.294   4.135   3.976
 9542SOL    HW129525   6.324   4.226   3.948
 9542SOL    HW229526   6.198   4.122   3.954
 9543SOL     OW29527   2.550   6.969   6.015
 9543SOL    HW129528   2.593   6.926   6.094
 9543SOL    HW229529   2.470   7.021   6.044
 9544SOL     OW29530   5.900   3.188   4.594
 9544SOL    HW129531   5.925   3.115   4.657
 9544SOL    HW229532   5.983   3.240   4.569
 9545SOL     OW29533   0.074   4.396   1.930
 9545SOL    HW129534   0.142   4.410   2.002
 9545SOL    HW229535   0.120   4.370   1.845
 9546SOL     OW29536   2.723   2.939   0.483
 9546SOL    HW129537   2.663   2.880   0.430
 9546SOL    HW229538   2.803   2.888   0.514
 9547SOL     OW29539   3.993   6.946   3.707
 9547SOL    HW129540   3.924   6.987   3.648
 9547SOL    HW229541   3.984   6.846   3.706
 9548SOL     OW29542   1.326   5.133   7.000
 9548SOL    HW129543   1.329   5.043   6.955
 9548SOL    HW229544   1.233   5.169   6.997
 9549SOL     OW29545   4.786   1.879   0.785
 9549SOL    HW129546   4.693   1.885   0.748
 9549SOL    HW229547   4.851   1.907   0.715
 9550SOL     OW29548   5.357   3.507   1.654
 9550SOL    HW129549   5.258   3.523   1.653
 9550SOL    HW229550   5.375   3.411   1.679
 9551SOL     OW29551   6.283   3.446   6.330
 9551SOL    HW129552   6.310   3.406   6.417
 9551SOL    HW229553   6.326   3.396   6.255
 9552SOL     OW29554   3.271   1.484   6.929
 9552SOL    HW129555   3.314   1.573   6.916
 9552SOL    HW229556   3.188   1.478   6.873
 9553SOL     OW29557   5.320   1.371   6.468
 9553SOL    HW129558   5.385   1.298   6.447
 9553SOL    HW229559   5.356   1.429   6.540
 9554SOL     OW29560   3.419   1.122   4.080
 9554SOL    HW129561   3.460   1.208   4.048
 9554SOL    HW229562   3.490   1.053   4.092
 9555SOL     OW29563   6.904   0.157   3.807
 9555SOL    HW129564   6.848   0.075   3.816
 9555SOL    HW229565   6.992   0.143   3.852
 9556SOL     OW29566   1.931   4.978   6.448
 9556SOL    HW129567   2.011   4.992   6.390
 9556SOL    HW229568   1.945   4.899   6.508
 9557SOL     OW29569   5.321   0.779   2.208
 9557SOL    HW129570   5.252   0.707   2.214
 9557SOL    HW229571   5.397   0.747   2.151
 9558SOL     OW29572   4.952   6.664   6.716
 9558SOL    HW129573   4.928   6.726   6.641
 9558SOL    HW229574   4.950   6.714   6.802
 9559SOL     OW29575   1.849   4.277   0.122
 9559SOL    HW129576   1.825   4.273   0.219
 9559SOL    HW229577   1.767   4.261   0.067
 9560SOL     OW29578   3.141   6.862   2.570
 9560SOL    HW129579   3.114   6.794   2.502
 9560SOL    HW229580   3.193   6.935   2.526
 9561SOL     OW29581   0.576   0.783   0.490
 9561SOL    HW129582   0.646   0.771   0.560
 9561SOL    HW229583   0.529   0.696   0.475
 9562SOL     OW29584   2.683   6.378   2.742
 9562SOL    HW129585   2.631   6.306   2.788
 9562SOL    HW229586   2.644   6.467   2.766
 9563SOL     OW29587   0.256   6.162   6.937
 9563SOL    HW129588   0.263   6.152   6.838
 9563SOL    HW229589   0.161   6.179   6.963
 9564SOL     OW29590   1.705   0.883   0.020
 9564SOL    HW129591   1.751   0.943   6.983
 9564SOL    HW229592   1.768   0.812   0.050
 9565SOL     OW29593   2.947   1.882   4.146
 9565SOL    HW129594   2.887   1.955   4.113
 9565SOL    HW229595   3.035   1.886   4.097
 9566SOL     OW29596   3.359   0.809   6.873
 9566SOL    HW129597   3.300   0.846   6.945
 9566SOL    HW229598   3.321   0.721   6.842
 9567SOL     OW29599   6.821   3.668   1.071
 9567SOL    HW129600   6.725   3.640   1.076
 9567SOL    HW229601   6.879   3.592   1.103
 9568SOL     OW29602   4.822   1.391   6.812
 9568SOL    HW129603   4.896   1.328   6.834
 9568SOL    HW229604   4.763   1.404   6.892
 9569SOL     OW29605   5.518   1.123   2.106
 9569SOL    HW129606   5.564   1.041   2.139
 9569SOL    HW229607   5.424   1.124   2.139
 9570SOL     OW29608   0.527   3.182   1.727
 9570SOL    HW129609   0.448   3.150   1.676
 9570SOL    HW229610   0.513   3.164   1.824
 9571SOL     OW29611   1.900   2.378   6.594
 9571SOL    HW129612   1.906   2.322   6.511
 9571SOL    HW229613   1.805   2.405   6.610
 9572SOL     OW29614   2.237   4.022   3.753
 9572SOL    HW129615   2.233   3.925   3.727
 9572SOL    HW229616   2.149   4.049   3.792
 9573SOL     OW29617   6.749   0.880   4.692
 9573SOL    HW129618   6.780   0.963   4.739
 9573SOL    HW229619   6.684   0.904   4.620
 9574SOL     OW29620   3.366   3.383   1.123
 9574SOL    HW129621   3.352   3.289   1.154
 9574SOL    HW229622   3.277   3.430   1.120
 9575SOL     OW29623   5.991   6.303   1.699
 9575SOL    HW129624   5.915   6.237   1.699
 9575SOL    HW229625   6.056   6.279   1.771
 9576SOL     OW29626   1.115   6.935   6.880
 9576SOL    HW129627   1.136   7.026   6.844
 9576SOL    HW229628   1.140   6.865   6.813
 9577SOL     OW29629   6.375   5.398   2.463
 9577SOL    HW129630   6.376   5.498   2.454
 9577SOL    HW229631   6.350   5.373   2.556
 9578SOL     OW29632   2.139   3.310   2.680
 9578SOL    HW129633   2.121   3.312   2.778
 9578SOL    HW229634   2.180   3.222   2.655
 9579SOL     OW29635   6.440   5.639   2.303
 9579SOL    HW129636   6.376   5.590   2.245
 9579SOL    HW229637   6.403   5.729   2.325
 9580SOL     OW29638   5.341   4.297   3.076
 9580SOL    HW129639   5.433   4.334   3.086
 9580SOL    HW229640   5.297   4.291   3.165
 9581SOL     OW29641   6.151   0.996   0.285
 9581SOL    HW129642   6.124   1.027   0.193
 9581SOL    HW229643   6.244   1.028   0.305
 9582SOL     OW29644   5.197   6.274   4.723
 9582SOL    HW129645   5.176   6.344   4.655
 9582SOL    HW229646   5.163   6.186   4.691
 9583SOL     OW29647   3.667   4.818   1.625
 9583SOL    HW129648   3.654   4.749   1.696
 9583SOL    HW229649   3.692   4.905   1.668
 9584SOL     OW29650   2.592   5.260   4.367
 9584SOL    HW129651   2.572   5.184   4.427
 9584SOL    HW229652   2.590   5.346   4.419
 9585SOL     OW29653   4.414   5.776   1.240
 9585SOL    HW129654   4.321   5.766   1.205
 9585SOL    HW229655   4.467   5.833   1.178
 9586SOL     OW29656   4.271   4.683   2.917
 9586SOL    HW129657   4.199   4.661   2.852
 9586SOL    HW229658   4.360   4.658   2.878
 9587SOL     OW29659   2.792   5.568   1.617
 9587SOL    HW129660   2.732   5.565   1.537
 9587SOL    HW229661   2.761   5.502   1.685
 9588SOL     OW29662   6.625   5.111   0.626
 9588SOL    HW129663   6.715   5.101   0.584
 9588SOL    HW229664   6.626   5.073   0.718
 9589SOL     OW29665   1.551   3.725   6.385
 9589SOL    HW129666   1.581   3.795   6.449
 9589SOL    HW229667   1.629   3.669   6.357
 9590SOL     OW29668   6.239   0.854   1.493
 9590SOL    HW129669   6.289   0.832   1.577
 9590SOL    HW229670   6.304   0.868   1.418
 9591SOL     OW29671   4.156   0.794   0.062
 9591SOL    HW129672   4.127   0.844   7.009
 9591SOL    HW229673   4.106   0.828   0.142
 9592SOL     OW29674   2.052   6.450   5.454
 9592SOL    HW129675   2.093   6.525   5.506
 9592SOL    HW229676   2.124   6.399   5.407
 9593SOL     OW29677   1.987   1.262   4.355
 9593SOL    HW129678   1.991   1.171   4.396
 9593SOL    HW229679   2.078   1.288   4.323
 9594SOL     OW29680   0.210   6.617   4.133
 9594SOL    HW129681   0.232   6.524   4.161
 9594SOL    HW229682   0.212   6.624   4.033
 9595SOL     OW29683   7.002   3.347   3.268
 9595SOL    HW129684   6.961   3.436   3.289
 9595SOL    HW229685   0.022   3.313   3.348
 9596SOL     OW29686   0.363   6.834   0.782
 9596SOL    HW129687   0.350   6.736   0.801
 9596SOL    HW229688   0.283   6.884   0.814
 9597SOL     OW29689   1.007   2.948   2.512
 9597SOL    HW129690   1.006   3.036   2.465
 9597SOL    HW229691   1.079   2.890   2.473
 9598SOL     OW29692   1.742   3.682   3.847
 9598SOL    HW129693   1.824   3.726   3.810
 9598SOL    HW229694   1.661   3.738   3.825
 9599SOL     OW29695   4.437   6.665   3.476
 9599SOL    HW129696   4.384   6.582   3.494
 9599SOL    HW229697   4.375   6.740   3.455
 9600SOL     OW29698   3.290   0.812   1.703
 9600SOL    HW129699   3.269   0.773   1.613
 9600SOL    HW229700   3.343   0.896   1.691
 9601SOL     OW29701   0.773   3.915   1.050
 9601SOL    HW129702   0.679   3.883   1.038
 9601SOL    HW229703   0.831   3.838   1.074
 9602SOL     OW29704   4.450   5.154   5.273
 9602SOL    HW129705   4.396   5.224   5.320
 9602SOL    HW229706   4.404   5.129   5.188
 9603SOL     OW29707   4.941   5.820   5.121
 9603SOL    HW129708   4.846   5.797   5.141
 9603SOL    HW229709   4.991   5.832   5.206
 9604SOL     OW29710   5.207   6.717   0.195
 9604SOL    HW129711   5.222   6.730   0.293
 9604SOL    HW229712   5.117   6.675   0.181
 9605SOL     OW29713   6.395   6.018   2.586
 9605SOL    HW129714   6.344   6.089   2.635
 9605SOL    HW229715   6.472   5.988   2.642
 9606SOL     OW29716   1.476   1.548   6.410
 9606SOL    HW129717   1.435   1.628   6.367
 9606SOL    HW229718   1.418   1.518   6.486
 9607SOL     OW29719   3.006   2.902   5.874
 9607SOL    HW129720   2.951   2.984   5.889
 9607SOL    HW229721   3.081   2.900   5.939
 9608SOL     OW29722   6.691   3.402   3.851
 9608SOL    HW129723   6.769   3.460   3.826
 9608SOL    HW229724   6.652   3.361   3.769
 9609SOL     OW29725   4.499   2.981   6.336
 9609SOL    HW129726   4.502   3.052   6.406
 9609SOL    HW229727   4.459   2.898   6.374
 9610SOL     OW29728   1.412   4.339   3.326
 9610SOL    HW129729   1.504   4.353   3.289
 9610SOL    HW229730   1.396   4.403   3.400
 9611SOL     OW29731   1.885   0.288   0.617
 9611SOL    HW129732   1.850   0.252   0.704
 9611SOL    HW229733   1.982   0.311   0.628
 9612SOL     OW29734   6.633   2.820   3.409
 9612SOL    HW129735   6.669   2.754   3.475
 9612SOL    HW229736   6.645   2.784   3.316
 9613SOL     OW29737   5.912   5.526   3.583
 9613SOL    HW129738   5.861   5.524   3.497
 9613SOL    HW229739   5.848   5.534   3.659
 9614SOL     OW29740   4.475   2.401   3.613
 9614SOL    HW129741   4.459   2.438   3.522
 9614SOL    HW229742   4.548   2.454   3.657
 9615SOL     OW29743   2.583   3.876   1.030
 9615SOL    HW129744   2.505   3.896   0.970
 9615SOL    HW229745   2.664   3.922   0.996
 9616SOL     OW29746   4.363   3.473   0.126
 9616SOL    HW129747   4.427   3.474   0.203
 9616SOL    HW229748   4.356   3.380   0.091
 9617SOL     OW29749   2.144   2.029   3.300
 9617SOL    HW129750   2.162   2.036   3.202
 9617SOL    HW229751   2.228   2.003   3.347
 9618SOL     OW29752   2.684   1.470   1.004
 9618SOL    HW129753   2.603   1.427   1.042
 9618SOL    HW229754   2.762   1.407   1.011
 9619SOL     OW29755   3.068   0.959   4.995
 9619SOL    HW129756   3.148   1.008   5.030
 9619SOL    HW229757   3.038   1.001   4.909
 9620SOL     OW29758   6.065   0.757   5.984
 9620SOL    HW129759   6.020   0.704   5.912
 9620SOL    HW229760   6.077   0.851   5.953
 9621SOL     OW29761   1.844   2.632   3.403
 9621SOL    HW129762   1.818   2.729   3.414
 9621SOL    HW229763   1.847   2.589   3.493
 9622SOL     OW29764   5.591   6.889   1.656
 9622SOL    HW129765   5.563   6.976   1.616
 9622SOL    HW229766   5.684   6.897   1.691
 9623SOL     OW29767   2.638   3.693   6.555
 9623SOL    HW129768   2.608   3.608   6.599
 9623SOL    HW229769   2.734   3.711   6.579
 9624SOL     OW29770   6.596   3.263   3.618
 9624SOL    HW129771   6.635   3.312   3.540
 9624SOL    HW229772   6.640   3.174   3.628
 9625SOL     OW29773   6.235   6.041   0.472
 9625SOL    HW129774   6.328   6.004   0.462
 9625SOL    HW229775   6.222   6.072   0.566
 9626SOL     OW29776   3.350   6.705   6.821
 9626SOL    HW129777   3.295   6.770   6.770
 9626SOL    HW229778   3.293   6.658   6.888
 9627SOL     OW29779   1.174   6.786   6.659
 9627SOL    HW129780   1.274   6.774   6.659
 9627SOL    HW229781   1.140   6.787   6.566
 9628SOL     OW29782   4.148   6.121   2.273
 9628SOL    HW129783   4.175   6.173   2.354
 9628SOL    HW229784   4.226   6.111   2.212
 9629SOL     OW29785   2.471   6.855   1.060
 9629SOL    HW129786   2.380   6.844   1.100
 9629SOL    HW229787   2.530   6.905   1.123
 9630SOL     OW29788   6.672   0.531   6.276
 9630SOL    HW129789   6.718   0.445   6.256
 9630SOL    HW229790   6.585   0.535   6.226
 9631SOL     OW29791   6.359   6.021   0.089
 9631SOL    HW129792   6.260   6.005   0.094
 9631SOL    HW229793   6.381   6.063   0.001
 9632SOL     OW29794   1.606   6.042   1.731
 9632SOL    HW129795   1.549   6.099   1.789
 9632SOL    HW229796   1.549   6.000   1.660
 9633SOL     OW29797   7.014   5.182   6.221
 9633SOL    HW129798   0.064   5.222   6.266
 9633SOL    HW229799   6.930   5.214   6.265
 9634SOL     OW29800   1.111   6.187   5.049
 9634SOL    HW129801   1.191   6.141   5.087
 9634SOL    HW229802   1.139   6.251   4.978
 9635SOL     OW29803   1.416   5.314   5.745
 9635SOL    HW129804   1.398   5.390   5.808
 9635SOL    HW229805   1.454   5.350   5.660
 9636SOL     OW29806   4.083   1.622   6.841
 9636SOL    HW129807   4.170   1.661   6.810
 9636SOL    HW229808   4.029   1.693   6.886
 9637SOL     OW29809   2.326   1.097   0.273
 9637SOL    HW129810   2.240   1.149   0.272
 9637SOL    HW229811   2.376   1.114   0.188
 9638SOL     OW29812   6.655   1.900   6.098
 9638SOL    HW129813   6.747   1.861   6.103
 9638SOL    HW229814   6.591   1.831   6.066
 9639SOL     OW29815   3.945   0.986   2.971
 9639SOL    HW129816   4.037   0.953   2.994
 9639SOL    HW229817   3.937   0.998   2.872
 9640SOL     OW29818   1.951   2.706   2.315
 9640SOL    HW129819   2.013   2.670   2.245
 9640SOL    HW229820   1.934   2.803   2.297
 9641SOL     OW29821   6.203   5.509   0.058
 9641SOL    HW129822   6.168   5.437   0.119
 9641SOL    HW229823   6.211   5.472   6.995
 9642SOL     OW29824   3.919   0.282   3.830
 9642SOL    HW129825   3.863   0.206   3.863
 9642SOL    HW229826   3.988   0.248   3.766
 9643SOL     OW29827   4.122   4.743   3.207
 9643SOL    HW129828   4.174   4.668   3.166
 9643SOL    HW229829   4.059   4.780   3.138
 9644SOL     OW29830   2.705   2.152   7.018
 9644SOL    HW129831   2.670   2.136   6.926
 9644SOL    HW229832   2.803   2.173   7.013
 9645SOL     OW29833   3.016   5.388   5.125
 9645SOL    HW129834   3.100   5.343   5.094
 9645SOL    HW229835   2.964   5.325   5.183
 9646SOL     OW29836   4.192   5.577   3.315
 9646SOL    HW129837   4.281   5.581   3.361
 9646SOL    HW229838   4.161   5.670   3.295
 9647SOL     OW29839   6.723   2.852   0.213
 9647SOL    HW129840   6.749   2.933   0.161
 9647SOL    HW229841   6.738   2.770   0.156
 9648SOL     OW29842   4.215   3.679   0.818
 9648SOL    HW129843   4.203   3.701   0.721
 9648SOL    HW229844   4.136   3.628   0.851
 9649SOL     OW29845   2.162   5.705   0.849
 9649SOL    HW129846   2.174   5.673   0.944
 9649SOL    HW229847   2.067   5.731   0.835
 9650SOL     OW29848   0.161   6.803   1.912
 9650SOL    HW129849   0.211   6.736   1.857
 9650SOL    HW229850   0.224   6.875   1.943
 9651SOL     OW29851   0.292   1.953   5.236
 9651SOL    HW129852   0.261   2.021   5.170
 9651SOL    HW229853   0.383   1.920   5.211
 9652SOL     OW29854   0.325   5.268   2.753
 9652SOL    HW129855   0.255   5.332   2.784
 9652SOL    HW229856   0.415   5.300   2.782
 9653SOL     OW29857   6.062   5.327   4.325
 9653SOL    HW129858   6.021   5.238   4.301
 9653SOL    HW229859   6.069   5.335   4.424
 9654SOL     OW29860   2.095   2.995   2.232
 9654SOL    HW129861   2.014   3.041   2.196
 9654SOL    HW229862   2.144   2.949   2.157
 9655SOL     OW29863   5.761   2.335   6.785
 9655SOL    HW129864   5.799   2.278   6.858
 9655SOL    HW229865   5.832   2.398   6.752
 9656SOL     OW29866   3.641   0.518   2.853
 9656SOL    HW129867   3.591   0.452   2.796
 9656SOL    HW229868   3.739   0.511   2.834
 9657SOL     OW29869   0.336   0.319   4.902
 9657SOL    HW129870   0.258   0.295   4.960
 9657SOL    HW229871   0.413   0.259   4.924
 9658SOL     OW29872   5.807   2.096   2.793
 9658SOL    HW129873   5.813   2.007   2.748
 9658SOL    HW229874   5.898   2.133   2.807
 9659SOL     OW29875   0.842   5.079   0.078
 9659SOL    HW129876   0.772   5.044   0.140
 9659SOL    HW229877   0.841   5.179   0.080
 9660SOL     OW29878   0.165   5.148   0.741
 9660SOL    HW129879   0.163   5.200   0.827
 9660SOL    HW229880   0.101   5.071   0.748
 9661SOL     OW29881   4.625   6.477   0.963
 9661SOL    HW129882   4.538   6.436   0.992
 9661SOL    HW229883   4.669   6.520   1.042
 9662SOL     OW29884   5.096   0.850   4.552
 9662SOL    HW129885   5.174   0.820   4.607
 9662SOL    HW229886   5.034   0.905   4.609
 9663SOL     OW29887   2.329   6.002   3.375
 9663SOL    HW129888   2.250   5.941   3.388
 9663SOL    HW229889   2.402   5.952   3.329
 9664SOL     OW29890   2.472   5.653   1.582
 9664SOL    HW129891   2.420   5.592   1.522
 9664SOL    HW229892   2.452   5.632   1.677
 9665SOL     OW29893   5.379   4.098   3.910
 9665SOL    HW129894   5.325   4.171   3.951
 9665SOL    HW229895   5.317   4.032   3.866
 9666SOL     OW29896   5.661   4.550   4.579
 9666SOL    HW129897   5.626   4.458   4.561
 9666SOL    HW229898   5.603   4.595   4.648
 9667SOL     OW29899   3.994   3.838   3.343
 9667SOL    HW129900   4.030   3.837   3.437
 9667SOL    HW229901   4.017   3.751   3.298
 9668SOL     OW29902   0.616   1.457   4.985
 9668SOL    HW129903   0.572   1.367   4.994
 9668SOL    HW229904   0.546   1.529   4.990
 9669SOL     OW29905   1.955   6.315   0.274
 9669SOL    HW129906   1.898   6.283   0.350
 9669SOL    HW229907   1.930   6.408   0.250
 9670SOL     OW29908   6.071   4.506   6.602
 9670SOL    HW129909   6.146   4.507   6.668
 9670SOL    HW229910   6.102   4.463   6.517
 9671SOL     OW29911   0.560   0.505   0.028
 9671SOL    HW129912   0.464   0.485   0.008
 9671SOL    HW229913   0.600   0.555   6.981
 9672SOL     OW29914   0.988   6.396   4.587
 9672SOL    HW129915   1.040   6.421   4.504
 9672SOL    HW229916   0.909   6.341   4.561
 9673SOL     OW29917   2.485   2.574   6.363
 9673SOL    HW129918   2.403   2.623   6.393
 9673SOL    HW229919   2.461   2.516   6.285
 9674SOL     OW29920   2.716   6.884   2.253
 9674SOL    HW129921   2.784   6.925   2.314
 9674SOL    HW229922   2.678   6.802   2.296
 9675SOL     OW29923   0.064   2.723   1.669
 9675SOL    HW129924   6.997   2.708   1.692
 9675SOL    HW229925   0.083   2.686   1.578
 9676SOL     OW29926   0.341   3.511   5.004
 9676SOL    HW129927   0.346   3.463   5.092
 9676SOL    HW229928   0.380   3.452   4.933
 9677SOL     OW29929   1.971   3.231   4.806
 9677SOL    HW129930   1.928   3.218   4.717
 9677SOL    HW229931   1.983   3.329   4.823
 9678SOL     OW29932   4.019   3.285   2.921
 9678SOL    HW129933   3.933   3.322   2.885
 9678SOL    HW229934   4.002   3.193   2.957
 9679SOL     OW29935   0.941   3.470   0.852
 9679SOL    HW129936   0.911   3.502   0.762
 9679SOL    HW229937   1.035   3.437   0.846
 9680SOL     OW29938   5.333   5.248   3.331
 9680SOL    HW129939   5.348   5.177   3.400
 9680SOL    HW229940   5.242   5.287   3.343
 9681SOL     OW29941   1.075   1.316   4.188
 9681SOL    HW129942   1.002   1.267   4.235
 9681SOL    HW229943   1.035   1.390   4.133
 9682SOL     OW29944   0.251   4.885   3.143
 9682SOL    HW129945   0.248   4.811   3.075
 9682SOL    HW229946   0.321   4.864   3.211
 9683SOL     OW29947   4.394   6.453   6.172
 9683SOL    HW129948   4.334   6.532   6.159
 9683SOL    HW229949   4.487   6.477   6.144
 9684SOL     OW29950   1.078   4.374   3.563
 9684SOL    HW129951   1.131   4.296   3.530
 9684SOL    HW229952   1.014   4.344   3.634
 9685SOL     OW29953   1.764   2.342   0.291
 9685SOL    HW129954   1.843   2.349   0.231
 9685SOL    HW229955   1.795   2.322   0.384
 9686SOL     OW29956   5.521   0.702   1.735
 9686SOL    HW129957   5.448   0.643   1.702
 9686SOL    HW229958   5.483   0.790   1.764
 9687SOL     OW29959   3.630   0.902   4.078
 9687SOL    HW129960   3.579   0.818   4.061
 9687SOL    HW229961   3.708   0.906   4.016
 9688SOL     OW29962   6.721   2.007   3.995
 9688SOL    HW129963   6.744   2.099   4.025
 9688SOL    HW229964   6.799   1.946   4.011
 9689SOL     OW29965   1.862   5.676   6.106
 9689SOL    HW129966   1.920   5.644   6.031
 9689SOL    HW229967   1.889   5.769   6.131
 9690SOL     OW29968   5.960   4.361   0.549
 9690SOL    HW129969   5.963   4.370   0.649
 9690SOL    HW229970   5.887   4.419   0.513
 9691SOL     OW29971   1.517   4.218   1.752
 9691SOL    HW129972   1.423   4.251   1.759
 9691SOL    HW229973   1.542   4.211   1.655
 9692SOL     OW29974   2.638   5.882   1.120
 9692SOL    HW129975   2.617   5.914   1.027
 9692SOL    HW229976   2.733   5.904   1.142
 9693SOL     OW29977   6.032   5.244   1.691
 9693SOL    HW129978   5.975   5.171   1.654
 9693SOL    HW229979   6.055   5.309   1.618
 9694SOL     OW29980   1.852   2.040   0.190
 9694SOL    HW129981   1.950   2.016   0.191
 9694SOL    HW229982   1.840   2.129   0.234
 9695SOL     OW29983   6.021   3.994   1.104
 9695SOL    HW129984   5.944   3.936   1.130
 9695SOL    HW229985   5.988   4.086   1.083
 9696SOL     OW29986   3.742   4.017   1.022
 9696SOL    HW129987   3.664   3.956   1.009
 9696SOL    HW229988   3.826   3.964   1.017
 9697SOL     OW29989   0.645   6.049   6.758
 9697SOL    HW129990   0.665   5.953   6.739
 9697SOL    HW229991   0.610   6.094   6.676
 9698SOL     OW29992   5.576   1.685   5.233
 9698SOL    HW129993   5.537   1.696   5.324
 9698SOL    HW229994   5.549   1.597   5.195
 9699SOL     OW29995   1.893   3.064   0.415
 9699SOL    HW129996   1.899   3.086   0.318
 9699SOL    HW229997   1.983   3.040   0.450
 9700SOL     OW29998   3.096   3.867   3.920
 9700SOL    HW129999   3.164   3.803   3.955
 9700SOL    HW230000   3.105   3.954   3.967
 9701SOL     OW30001   5.033   4.304   5.134
 9701SOL    HW130002   4.962   4.298   5.204
 9701SOL    HW230003   4.993   4.338   5.049
 9702SOL     OW30004   4.327   0.371   0.986
 9702SOL    HW130005   4.300   0.323   0.903
 9702SOL    HW230006   4.386   0.448   0.963
 9703SOL     OW30007   3.242   6.422   4.174
 9703SOL    HW130008   3.275   6.501   4.122
 9703SOL    HW230009   3.288   6.339   4.142
 9704SOL     OW30010   2.715   0.617   3.707
 9704SOL    HW130011   2.734   0.715   3.708
 9704SOL    HW230012   2.716   0.581   3.800
 9705SOL     OW30013   3.697   4.058   0.472
 9705SOL    HW130014   3.751   4.129   0.427
 9705SOL    HW230015   3.659   4.094   0.557
 9706SOL     OW30016   5.592   2.493   2.772
 9706SOL    HW130017   5.595   2.501   2.672
 9706SOL    HW230018   5.565   2.400   2.797
 9707SOL     OW30019   2.876   5.313   3.042
 9707SOL    HW130020   2.793   5.265   3.069
 9707SOL    HW230021   2.935   5.325   3.121
 9708SOL     OW30022   2.171   2.094   2.425
 9708SOL    HW130023   2.156   2.100   2.524
 9708SOL    HW230024   2.084   2.082   2.378
 9709SOL     OW30025   2.013   4.985   2.925
 9709SOL    HW130026   2.102   5.006   2.965
 9709SOL    HW230027   1.942   5.033   2.976
 9710SOL     OW30028   0.214   0.610   3.678
 9710SOL    HW130029   0.211   0.587   3.776
 9710SOL    HW230030   0.134   0.664   3.654
 9711SOL     OW30031   1.424   3.718   6.054
 9711SOL    HW130032   1.429   3.796   5.993
 9711SOL    HW230033   1.397   3.749   6.146
 9712SOL     OW30034   4.481   2.543   4.612
 9712SOL    HW130035   4.549   2.616   4.614
 9712SOL    HW230036   4.509   2.469   4.673
 9713SOL     OW30037   6.734   5.112   2.178
 9713SOL    HW130038   6.736   5.142   2.273
 9713SOL    HW230039   6.745   5.013   2.175
 9714SOL     OW30040   1.424   2.553   2.082
 9714SOL    HW130041   1.502   2.521   2.028
 9714SOL    HW230042   1.352   2.586   2.020
 9715SOL     OW30043   5.650   5.286   4.849
 9715SOL    HW130044   5.554   5.281   4.877
 9715SOL    HW230045   5.683   5.194   4.828
 9716SOL     OW30046   4.217   2.423   6.520
 9716SOL    HW130047   4.142   2.367   6.483
 9716SOL    HW230048   4.247   2.488   6.451
 9717SOL     OW30049   5.893   4.729   2.946
 9717SOL    HW130050   5.837   4.681   3.014
 9717SOL    HW230051   5.841   4.737   2.861
 9718SOL     OW30052   4.451   3.436   1.713
 9718SOL    HW130053   4.543   3.474   1.701
 9718SOL    HW230054   4.395   3.460   1.634
 9719SOL     OW30055   0.904   1.679   0.537
 9719SOL    HW130056   0.997   1.712   0.553
 9719SOL    HW230057   0.887   1.670   0.439
 9720SOL     OW30058   0.736   0.427   1.063
 9720SOL    HW130059   0.709   0.434   0.967
 9720SOL    HW230060   0.708   0.509   1.112
 9721SOL     OW30061   6.605   3.237   2.808
 9721SOL    HW130062   6.581   3.141   2.796
 9721SOL    HW230063   6.530   3.286   2.851
 9722SOL     OW30064   6.640   0.461   4.605
 9722SOL    HW130065   6.692   0.376   4.613
 9722SOL    HW230066   6.556   0.444   4.554
 9723SOL     OW30067   6.577   1.354   3.578
 9723SOL    HW130068   6.487   1.311   3.584
 9723SOL    HW230069   6.567   1.451   3.555
 9724SOL     OW30070   3.863   2.895   1.343
 9724SOL    HW130071   3.845   2.802   1.309
 9724SOL    HW230072   3.829   2.961   1.276
 9725SOL     OW30073   4.193   3.575   5.743
 9725SOL    HW130074   4.228   3.492   5.785
 9725SOL    HW230075   4.249   3.600   5.664
 9726SOL     OW30076   5.645   5.495   5.025
 9726SOL    HW130077   5.576   5.478   5.096
 9726SOL    HW230078   5.654   5.414   4.967
 9727SOL     OW30079   1.423   1.834   6.393
 9727SOL    HW130080   1.440   1.845   6.491
 9727SOL    HW230081   1.421   1.923   6.349
 9728SOL     OW30082   3.175   5.672   0.118
 9728SOL    HW130083   3.165   5.618   0.035
 9728SOL    HW230084   3.087   5.678   0.165
 9729SOL     OW30085   2.637   5.382   2.691
 9729SOL    HW130086   2.648   5.428   2.603
 9729SOL    HW230087   2.702   5.306   2.697
 9730SOL     OW30088   5.991   3.696   2.963
 9730SOL    HW130089   5.913   3.701   2.901
 9730SOL    HW230090   5.971   3.748   3.047
 9731SOL     OW30091   4.919   5.600   1.435
 9731SOL    HW130092   4.863   5.641   1.507
 9731SOL    HW230093   4.972   5.672   1.389
 9732SOL     OW30094   6.478   5.334   3.704
 9732SOL    HW130095   6.419   5.395   3.757
 9732SOL    HW230096   6.436   5.243   3.700
 9733SOL     OW30097   5.511   4.388   6.564
 9733SOL    HW130098   5.425   4.404   6.613
 9733SOL    HW230099   5.588   4.420   6.619
 9734SOL     OW30100   5.188   2.341   4.775
 9734SOL    HW130101   5.235   2.254   4.795
 9734SOL    HW230102   5.222   2.377   4.688
 9735SOL     OW30103   2.431   3.805   0.182
 9735SOL    HW130104   2.402   3.752   0.102
 9735SOL    HW230105   2.509   3.863   0.157
 9736SOL     OW30106   3.386   1.328   1.588
 9736SOL    HW130107   3.457   1.391   1.558
 9736SOL    HW230108   3.403   1.237   1.551
 9737SOL     OW30109   4.302   2.001   4.949
 9737SOL    HW130110   4.229   1.954   4.998
 9737SOL    HW230111   4.374   1.935   4.925
 9738SOL     OW30112   1.843   0.553   2.015
 9738SOL    HW130113   1.758   0.606   2.012
 9738SOL    HW230114   1.912   0.603   2.066
 9739SOL     OW30115   5.330   5.035   1.866
 9739SOL    HW130116   5.294   5.049   1.774
 9739SOL    HW230117   5.418   5.082   1.875
 9740SOL     OW30118   6.697   3.389   3.410
 9740SOL    HW130119   6.628   3.418   3.343
 9740SOL    HW230120   6.763   3.463   3.424
 9741SOL     OW30121   3.829   1.886   1.569
 9741SOL    HW130122   3.736   1.860   1.594
 9741SOL    HW230123   3.894   1.828   1.618
 9742SOL     OW30124   4.473   1.651   4.023
 9742SOL    HW130125   4.540   1.577   4.012
 9742SOL    HW230126   4.380   1.613   4.013
 9743SOL     OW30127   1.777   2.060   5.322
 9743SOL    HW130128   1.796   2.109   5.236
 9743SOL    HW230129   1.759   2.127   5.394
 9744SOL     OW30130   2.104   0.569   1.738
 9744SOL    HW130131   2.176   0.516   1.693
 9744SOL    HW230132   2.074   0.642   1.677
 9745SOL     OW30133   6.692   1.896   4.940
 9745SOL    HW130134   6.750   1.836   4.885
 9745SOL    HW230135   6.601   1.901   4.899
 9746SOL     OW30136   6.007   1.005   3.832
 9746SOL    HW130137   6.080   1.034   3.892
 9746SOL    HW230138   6.020   0.909   3.806
 9747SOL     OW30139   0.455   0.163   6.739
 9747SOL    HW130140   0.387   0.162   6.812
 9747SOL    HW230141   0.416   0.207   6.658
 9748SOL     OW30142   0.788   5.110   4.358
 9748SOL    HW130143   0.737   5.132   4.275
 9748SOL    HW230144   0.885   5.100   4.335
 9749SOL     OW30145   0.611   4.161   4.097
 9749SOL    HW130146   0.708   4.183   4.090
 9749SOL    HW230147   0.599   4.080   4.154
 9750SOL     OW30148   3.659   5.131   3.193
 9750SOL    HW130149   3.599   5.206   3.166
 9750SOL    HW230150   3.712   5.158   3.274
 9751SOL     OW30151   1.997   2.610   0.503
 9751SOL    HW130152   1.925   2.655   0.450
 9751SOL    HW230153   2.059   2.562   0.441
 9752SOL     OW30154   3.555   1.981   6.083
 9752SOL    HW130155   3.530   2.070   6.046
 9752SOL    HW230156   3.616   1.934   6.019
 9753SOL     OW30157   6.828   6.166   5.440
 9753SOL    HW130158   6.781   6.242   5.395
 9753SOL    HW230159   6.892   6.201   5.508
 9754SOL     OW30160   6.926   2.181   6.746
 9754SOL    HW130161   6.926   2.100   6.805
 9754SOL    HW230162   6.834   2.220   6.741
 9755SOL     OW30163   3.923   4.941   5.396
 9755SOL    HW130164   3.882   5.032   5.407
 9755SOL    HW230165   3.914   4.912   5.300
 9756SOL     OW30166   5.140   2.348   5.849
 9756SOL    HW130167   5.080   2.320   5.924
 9756SOL    HW230168   5.232   2.312   5.866
 9757SOL     OW30169   5.990   1.792   3.525
 9757SOL    HW130170   6.008   1.844   3.608
 9757SOL    HW230171   5.966   1.855   3.451
 9758SOL     OW30172   3.188   0.841   0.073
 9758SOL    HW130173   3.091   0.863   0.062
 9758SOL    HW230174   3.199   0.742   0.086
 9759SOL     OW30175   3.128   6.070   1.264
 9759SOL    HW130176   3.210   6.081   1.320
 9759SOL    HW230177   3.091   6.161   1.241
 9760SOL     OW30178   5.621   4.754   5.950
 9760SOL    HW130179   5.632   4.678   6.015
 9760SOL    HW230180   5.582   4.832   5.997
 9761SOL     OW30181   5.223   5.996   2.762
 9761SOL    HW130182   5.161   6.063   2.803
 9761SOL    HW230183   5.248   5.927   2.830
 9762SOL     OW30184   2.784   1.296   3.347
 9762SOL    HW130185   2.775   1.394   3.328
 9762SOL    HW230186   2.772   1.244   3.262
 9763SOL     OW30187   1.584   1.610   1.787
 9763SOL    HW130188   1.531   1.672   1.845
 9763SOL    HW230189   1.552   1.617   1.692
 9764SOL     OW30190   1.261   2.673   1.907
 9764SOL    HW130191   1.234   2.611   1.834
 9764SOL    HW230192   1.181   2.724   1.939
 9765SOL     OW30193   0.095   1.535   5.148
 9765SOL    HW130194   0.153   1.593   5.205
 9765SOL    HW230195   0.122   1.439   5.159
 9766SOL     OW30196   2.653   6.974   2.542
 9766SOL    HW130197   2.654   6.876   2.560
 9766SOL    HW230198   2.587   6.995   2.470
 9767SOL     OW30199   5.068   0.479   5.592
 9767SOL    HW130200   5.002   0.416   5.633
 9767SOL    HW230201   5.146   0.427   5.556
 9768SOL     OW30202   5.049   2.349   3.771
 9768SOL    HW130203   5.149   2.347   3.770
 9768SOL    HW230204   5.014   2.283   3.838
 9769SOL     OW30205   0.538   1.514   1.690
 9769SOL    HW130206   0.543   1.434   1.750
 9769SOL    HW230207   0.498   1.489   1.602
 9770SOL     OW30208   6.520   4.309   6.367
 9770SOL    HW130209   6.474   4.342   6.285
 9770SOL    HW230210   6.582   4.234   6.343
 9771SOL     OW30211   3.188   5.174   4.292
 9771SOL    HW130212   3.184   5.104   4.220
 9771SOL    HW230213   3.095   5.206   4.312
 9772SOL     OW30214   6.809   0.150   1.587
 9772SOL    HW130215   6.879   0.141   1.657
 9772SOL    HW230216   6.829   0.231   1.531
 9773SOL     OW30217   5.059   5.311   3.431
 9773SOL    HW130218   5.023   5.219   3.418
 9773SOL    HW230219   4.996   5.377   3.391
 9774SOL     OW30220   6.858   4.679   3.459
 9774SOL    HW130221   6.863   4.682   3.359
 9774SOL    HW230222   6.929   4.737   3.498
 9775SOL     OW30223   2.854   2.283   4.897
 9775SOL    HW130224   2.803   2.243   4.973
 9775SOL    HW230225   2.950   2.296   4.924
 9776SOL     OW30226   0.408   4.543   4.503
 9776SOL    HW130227   0.312   4.564   4.484
 9776SOL    HW230228   0.454   4.625   4.536
 9777SOL     OW30229   5.869   5.203   6.193
 9777SOL    HW130230   5.872   5.302   6.201
 9777SOL    HW230231   5.959   5.165   6.215
 9778SOL     OW30232   4.074   0.669   3.614
 9778SOL    HW130233   4.066   0.639   3.709
 9778SOL    HW230234   4.149   0.735   3.607
 9779SOL     OW30235   2.760   1.864   6.396
 9779SOL    HW130236   2.824   1.940   6.413
 9779SOL    HW230237   2.733   1.864   6.300
 9780SOL     OW30238   3.372   3.980   0.458
 9780SOL    HW130239   3.381   4.019   0.366
 9780SOL    HW230240   3.420   4.037   0.524
 9781SOL     OW30241   1.811   6.486   4.419
 9781SOL    HW130242   1.894   6.490   4.475
 9781SOL    HW230243   1.749   6.418   4.458
 9782SOL     OW30244   6.074   0.712   1.237
 9782SOL    HW130245   6.160   0.763   1.234
 9782SOL    HW230246   6.054   0.674   1.147
 9783SOL     OW30247   5.616   1.377   2.958
 9783SOL    HW130248   5.563   1.369   2.874
 9783SOL    HW230249   5.573   1.444   3.019
 9784SOL     OW30250   5.525   0.879   4.622
 9784SOL    HW130251   5.603   0.868   4.560
 9784SOL    HW230252   5.483   0.969   4.607
 9785SOL     OW30253   0.564   3.022   0.770
 9785SOL    HW130254   0.491   3.072   0.816
 9785SOL    HW230255   0.528   2.977   0.688
 9786SOL     OW30256   2.079   0.378   5.153
 9786SOL    HW130257   2.023   0.339   5.227
 9786SOL    HW230258   2.050   0.338   5.066
 9787SOL     OW30259   5.890   4.261   1.502
 9787SOL    HW130260   5.840   4.272   1.587
 9787SOL    HW230261   5.894   4.165   1.477
 9788SOL     OW30262   0.214   1.049   5.126
 9788SOL    HW130263   0.213   1.083   5.032
 9788SOL    HW230264   0.240   0.953   5.126
 9789SOL     OW30265   1.158   5.836   4.263
 9789SOL    HW130266   1.156   5.871   4.357
 9789SOL    HW230267   1.193   5.743   4.262
 9790SOL     OW30268   6.894   1.333   4.184
 9790SOL    HW130269   6.992   1.351   4.177
 9790SOL    HW230270   6.877   1.236   4.164
 9791SOL     OW30271   1.133   2.647   1.345
 9791SOL    HW130272   1.232   2.645   1.338
 9791SOL    HW230273   1.094   2.573   1.290
 9792SOL     OW30274   4.062   5.786   1.813
 9792SOL    HW130275   3.979   5.839   1.792
 9792SOL    HW230276   4.113   5.833   1.884
 9793SOL     OW30277   5.569   6.191   2.440
 9793SOL    HW130278   5.539   6.098   2.462
 9793SOL    HW230279   5.493   6.255   2.454
 9794SOL     OW30280   2.902   3.464   6.754
 9794SOL    HW130281   2.857   3.415   6.828
 9794SOL    HW230282   2.905   3.562   6.776
 9795SOL     OW30283   2.439   4.465   4.185
 9795SOL    HW130284   2.394   4.377   4.172
 9795SOL    HW230285   2.421   4.498   4.278
 9796SOL     OW30286   3.838   4.610   0.492
 9796SOL    HW130287   3.784   4.611   0.576
 9796SOL    HW230288   3.780   4.582   0.416
 9797SOL     OW30289   4.902   3.148   4.800
 9797SOL    HW130290   4.974   3.160   4.731
 9797SOL    HW230291   4.938   3.172   4.890
 9798SOL     OW30292   2.248   1.814   2.121
 9798SOL    HW130293   2.346   1.807   2.105
 9798SOL    HW230294   2.206   1.868   2.048
 9799SOL     OW30295   2.994   3.766   1.940
 9799SOL    HW130296   2.986   3.759   1.841
 9799SOL    HW230297   2.958   3.854   1.971
 9800SOL     OW30298   3.240   5.238   0.386
 9800SOL    HW130299   3.264   5.291   0.305
 9800SOL    HW230300   3.172   5.170   0.362
 9801SOL     OW30301   4.815   5.295   0.253
 9801SOL    HW130302   4.889   5.309   0.318
 9801SOL    HW230303   4.845   5.234   0.180
 9802SOL     OW30304   1.096   5.090   1.588
 9802SOL    HW130305   1.076   5.029   1.512
 9802SOL    HW230306   1.147   5.040   1.658
 9803SOL     OW30307   5.052   0.477   6.507
 9803SOL    HW130308   4.975   0.454   6.566
 9803SOL    HW230309   5.128   0.511   6.563
 9804SOL     OW30310   5.559   5.339   4.141
 9804SOL    HW130311   5.577   5.270   4.212
 9804SOL    HW230312   5.592   5.428   4.173
 9805SOL     OW30313   3.429   4.541   1.460
 9805SOL    HW130314   3.512   4.493   1.488
 9805SOL    HW230315   3.413   4.617   1.522
 9806SOL     OW30316   6.764   1.825   2.481
 9806SOL    HW130317   6.853   1.865   2.462
 9806SOL    HW230318   6.776   1.729   2.509
 9807SOL     OW30319   3.099   3.005   0.797
 9807SOL    HW130320   3.179   2.971   0.847
 9807SOL    HW230321   3.079   3.099   0.827
 9808SOL     OW30322   2.174   2.135   4.993
 9808SOL    HW130323   2.128   2.151   4.906
 9808SOL    HW230324   2.249   2.199   5.003
 9809SOL     OW30325   0.606   0.542   4.580
 9809SOL    HW130326   0.577   0.535   4.675
 9809SOL    HW230327   0.706   0.537   4.575
 9810SOL     OW30328   4.397   1.682   2.995
 9810SOL    HW130329   4.351   1.642   2.916
 9810SOL    HW230330   4.461   1.615   3.034
 9811SOL     OW30331   0.911   0.207   2.529
 9811SOL    HW130332   0.961   0.128   2.494
 9811SOL    HW230333   0.878   0.262   2.451
 9812SOL     OW30334   5.363   2.847   5.249
 9812SOL    HW130335   5.336   2.803   5.335
 9812SOL    HW230336   5.453   2.814   5.221
 9813SOL     OW30337   6.507   4.349   0.868
 9813SOL    HW130338   6.474   4.323   0.959
 9813SOL    HW230339   6.603   4.321   0.859
 9814SOL     OW30340   6.798   0.936   5.627
 9814SOL    HW130341   6.870   0.994   5.589
 9814SOL    HW230342   6.839   0.862   5.681
 9815SOL     OW30343   0.300   4.049   2.639
 9815SOL    HW130344   0.229   3.985   2.667
 9815SOL    HW230345   0.322   4.034   2.543
 9816SOL     OW30346   5.924   0.867   6.200
 9816SOL    HW130347   6.000   0.932   6.202
 9816SOL    HW230348   5.933   0.807   6.121
 9817SOL     OW30349   2.367   0.822   0.674
 9817SOL    HW130350   2.416   0.903   0.640
 9817SOL    HW230351   2.313   0.847   0.754
 9818SOL     OW30352   0.346   0.023   3.332
 9818SOL    HW130353   0.339   0.103   3.273
 9818SOL    HW230354   0.286   6.980   3.297
 9819SOL     OW30355   6.921   2.433   4.608
 9819SOL    HW130356   6.965   2.521   4.628
 9819SOL    HW230357   6.916   2.379   4.692
 9820SOL     OW30358   3.394   2.357   6.257
 9820SOL    HW130359   3.332   2.315   6.324
 9820SOL    HW230360   3.486   2.364   6.296
 9821SOL     OW30361   3.867   2.690   0.905
 9821SOL    HW130362   3.939   2.633   0.945
 9821SOL    HW230363   3.895   2.786   0.910
 9822SOL     OW30364   3.340   5.577   4.505
 9822SOL    HW130365   3.255   5.577   4.453
 9822SOL    HW230366   3.380   5.669   4.503
 9823SOL     OW30367   3.827   6.447   3.418
 9823SOL    HW130368   3.764   6.370   3.429
 9823SOL    HW230369   3.889   6.429   3.342
 9824SOL     OW30370   1.160   5.736   5.705
 9824SOL    HW130371   1.075   5.766   5.748
 9824SOL    HW230372   1.237   5.750   5.768
 9825SOL     OW30373   0.338   6.157   5.284
 9825SOL    HW130374   0.343   6.148   5.185
 9825SOL    HW230375   0.357   6.069   5.327
 9826SOL     OW30376   1.651   5.702   5.590
 9826SOL    HW130377   1.690   5.659   5.671
 9826SOL    HW230378   1.626   5.797   5.611
 9827SOL     OW30379   2.384   4.531   1.771
 9827SOL    HW130380   2.448   4.599   1.736
 9827SOL    HW230381   2.428   4.441   1.772
 9828SOL     OW30382   4.485   1.837   4.848
 9828SOL    HW130383   4.576   1.877   4.843
 9828SOL    HW230384   4.490   1.740   4.823
 9829SOL     OW30385   5.181   5.098   5.405
 9829SOL    HW130386   5.090   5.106   5.365
 9829SOL    HW230387   5.235   5.031   5.354
 9830SOL     OW30388   5.642   1.764   3.710
 9830SOL    HW130389   5.593   1.776   3.796
 9830SOL    HW230390   5.604   1.825   3.641
 9831SOL     OW30391   0.581   4.407   2.063
 9831SOL    HW130392   0.603   4.343   1.989
 9831SOL    HW230393   0.642   4.390   2.141
 9832SOL     OW30394   4.814   5.487   4.700
 9832SOL    HW130395   4.745   5.421   4.671
 9832SOL    HW230396   4.879   5.503   4.626
 9833SOL     OW30397   3.900   3.347   4.657
 9833SOL    HW130398   3.805   3.328   4.633
 9833SOL    HW230399   3.937   3.416   4.595
 9834SOL     OW30400   3.295   5.909   5.656
 9834SOL    HW130401   3.206   5.866   5.638
 9834SOL    HW230402   3.324   5.889   5.749
 9835SOL     OW30403   3.861   4.025   3.767
 9835SOL    HW130404   3.801   3.953   3.800
 9835SOL    HW230405   3.849   4.035   3.668
 9836SOL     OW30406   6.640   3.367   5.414
 9836SOL    HW130407   6.589   3.281   5.421
 9836SOL    HW230408   6.576   3.443   5.421
 9837SOL     OW30409   5.784   1.538   3.457
 9837SOL    HW130410   5.877   1.500   3.451
 9837SOL    HW230411   5.787   1.637   3.443
 9838SOL     OW30412   0.608   6.325   0.754
 9838SOL    HW130413   0.566   6.236   0.772
 9838SOL    HW230414   0.557   6.372   0.682
 9839SOL     OW30415   4.764   6.412   3.525
 9839SOL    HW130416   4.777   6.357   3.608
 9839SOL    HW230417   4.759   6.508   3.550
 9840SOL     OW30418   6.478   1.647   6.371
 9840SOL    HW130419   6.562   1.600   6.396
 9840SOL    HW230420   6.433   1.598   6.296
 9841SOL     OW30421   6.802   5.952   2.536
 9841SOL    HW130422   6.778   5.991   2.447
 9841SOL    HW230423   6.901   5.948   2.545
 9842SOL     OW30424   3.439   0.236   0.086
 9842SOL    HW130425   3.371   0.262   0.155
 9842SOL    HW230426   3.436   0.137   0.072
 9843SOL     OW30427   0.331   0.633   1.561
 9843SOL    HW130428   0.318   0.732   1.557
 9843SOL    HW230429   0.249   0.590   1.600
 9844SOL     OW30430   5.011   0.638   5.329
 9844SOL    HW130431   5.044   0.612   5.420
 9844SOL    HW230432   5.030   0.735   5.313
 9845SOL     OW30433   0.986   3.866   2.182
 9845SOL    HW130434   0.976   3.956   2.139
 9845SOL    HW230435   1.021   3.877   2.275
 9846SOL     OW30436   6.193   2.212   1.852
 9846SOL    HW130437   6.292   2.203   1.861
 9846SOL    HW230438   6.152   2.122   1.840
 9847SOL     OW30439   4.101   4.424   6.683
 9847SOL    HW130440   4.053   4.348   6.727
 9847SOL    HW230441   4.129   4.490   6.753
 9848SOL     OW30442   3.294   4.168   5.570
 9848SOL    HW130443   3.237   4.101   5.619
 9848SOL    HW230444   3.235   4.235   5.524
 9849SOL     OW30445   1.886   2.096   4.206
 9849SOL    HW130446   1.973   2.109   4.255
 9849SOL    HW230447   1.824   2.042   4.262
 9850SOL     OW30448   1.338   6.920   4.548
 9850SOL    HW130449   1.409   6.988   4.569
 9850SOL    HW230450   1.366   6.866   4.468
 9851SOL     OW30451   3.814   5.814   3.508
 9851SOL    HW130452   3.849   5.725   3.479
 9851SOL    HW230453   3.730   5.834   3.458
 9852SOL     OW30454   1.920   6.536   0.123
 9852SOL    HW130455   1.884   6.630   0.123
 9852SOL    HW230456   1.916   6.500   0.030
 9853SOL     OW30457   0.529   4.416   3.688
 9853SOL    HW130458   0.624   4.411   3.717
 9853SOL    HW230459   0.490   4.504   3.716
 9854SOL     OW30460   6.710   3.526   7.028
 9854SOL    HW130461   6.638   3.583   0.040
 9854SOL    HW230462   6.797   3.576   0.001
 9855SOL     OW30463   0.440   6.155   0.359
 9855SOL    HW130464   0.383   6.202   0.425
 9855SOL    HW230465   0.531   6.139   0.398
 9856SOL     OW30466   5.191   3.585   2.852
 9856SOL    HW130467   5.238   3.566   2.766
 9856SOL    HW230468   5.098   3.548   2.849
 9857SOL     OW30469   4.559   0.217   5.841
 9857SOL    HW130470   4.511   0.209   5.928
 9857SOL    HW230471   4.545   0.134   5.788
 9858SOL     OW30472   6.267   6.207   2.730
 9858SOL    HW130473   6.283   6.179   2.825
 9858SOL    HW230474   6.221   6.296   2.729
 9859SOL     OW30475   0.591   5.378   2.763
 9859SOL    HW130476   0.586   5.454   2.828
 9859SOL    HW230477   0.580   5.413   2.670
 9860SOL     OW30478   1.626   3.160   3.978
 9860SOL    HW130479   1.720   3.128   3.984
 9860SOL    HW230480   1.616   3.220   3.898
 9861SOL     OW30481   3.911   2.084   3.545
 9861SOL    HW130482   3.933   2.107   3.450
 9861SOL    HW230483   3.990   2.103   3.603
 9862SOL     OW30484   1.523   3.423   6.499
 9862SOL    HW130485   1.430   3.451   6.525
 9862SOL    HW230486   1.555   3.479   6.423
 9863SOL     OW30487   4.249   7.010   2.270
 9863SOL    HW130488   4.278   6.987   2.177
 9863SOL    HW230489   4.163   6.965   2.291
 9864SOL     OW30490   2.250   6.307   5.300
 9864SOL    HW130491   2.298   6.256   5.372
 9864SOL    HW230492   2.238   6.247   5.220
 9865SOL     OW30493   1.954   5.877   5.617
 9865SOL    HW130494   2.045   5.917   5.627
 9865SOL    HW230495   1.962   5.777   5.614
 9866SOL     OW30496   6.450   5.308   5.870
 9866SOL    HW130497   6.478   5.315   5.774
 9866SOL    HW230498   6.362   5.261   5.876
 9867SOL     OW30499   4.457   1.545   1.819
 9867SOL    HW130500   4.440   1.552   1.917
 9867SOL    HW230501   4.394   1.606   1.770
 9868SOL     OW30502   2.294   4.664   4.074
 9868SOL    HW130503   2.345   4.608   4.139
 9868SOL    HW230504   2.325   4.759   4.080
 9869SOL     OW30505   0.132   2.279   1.806
 9869SOL    HW130506   0.092   2.197   1.847
 9869SOL    HW230507   0.140   2.266   1.707
 9870SOL     OW30508   2.191   2.528   2.993
 9870SOL    HW130509   2.140   2.564   3.071
 9870SOL    HW230510   2.254   2.598   2.959
 9871SOL     OW30511   5.668   5.829   3.359
 9871SOL    HW130512   5.737   5.832   3.286
 9871SOL    HW230513   5.713   5.808   3.446
 9872SOL     OW30514   0.645   5.251   5.327
 9872SOL    HW130515   0.568   5.250   5.392
 9872SOL    HW230516   0.703   5.329   5.346
 9873SOL     OW30517   1.122   1.349   5.562
 9873SOL    HW130518   1.208   1.319   5.603
 9873SOL    HW230519   1.117   1.317   5.467
 9874SOL     OW30520   0.474   2.333   3.536
 9874SOL    HW130521   0.554   2.280   3.509
 9874SOL    HW230522   0.448   2.309   3.629
 9875SOL     OW30523   6.515   5.900   0.565
 9875SOL    HW130524   6.504   5.850   0.478
 9875SOL    HW230525   6.532   5.997   0.545
 9876SOL     OW30526   6.966   6.762   3.728
 9876SOL    HW130527   6.888   6.793   3.784
 9876SOL    HW230528   7.020   6.697   3.781
 9877SOL     OW30529   0.785   6.221   4.498
 9877SOL    HW130530   0.718   6.234   4.571
 9877SOL    HW230531   0.779   6.128   4.462
 9878SOL     OW30532   3.545   2.685   6.722
 9878SOL    HW130533   3.585   2.772   6.693
 9878SOL    HW230534   3.446   2.694   6.727
 9879SOL     OW30535   6.312   5.787   4.912
 9879SOL    HW130536   6.225   5.835   4.898
 9879SOL    HW230537   6.303   5.724   4.989
 9880SOL     OW30538   3.263   1.172   1.075
 9880SOL    HW130539   3.328   1.197   1.147
 9880SOL    HW230540   3.259   1.244   1.006
 9881SOL     OW30541   6.101   0.680   3.178
 9881SOL    HW130542   6.130   0.606   3.118
 9881SOL    HW230543   6.003   0.672   3.196
 9882SOL     OW30544   3.397   3.215   4.706
 9882SOL    HW130545   3.466   3.143   4.696
 9882SOL    HW230546   3.312   3.185   4.663
 9883SOL     OW30547   1.778   6.378   2.395
 9883SOL    HW130548   1.771   6.422   2.305
 9883SOL    HW230549   1.701   6.316   2.408
 9884SOL     OW30550   3.285   2.555   5.344
 9884SOL    HW130551   3.296   2.469   5.295
 9884SOL    HW230552   3.285   2.630   5.277
 9885SOL     OW30553   4.421   2.407   5.759
 9885SOL    HW130554   4.335   2.357   5.772
 9885SOL    HW230555   4.475   2.361   5.689
 9886SOL     OW30556   3.088   5.802   1.443
 9886SOL    HW130557   3.128   5.859   1.371
 9886SOL    HW230558   3.047   5.720   1.402
 9887SOL     OW30559   3.395   0.819   0.360
 9887SOL    HW130560   3.418   0.744   0.298
 9887SOL    HW230561   3.332   0.882   0.314
 9888SOL     OW30562   6.357   6.738   4.069
 9888SOL    HW130563   6.283   6.798   4.040
 9888SOL    HW230564   6.418   6.788   4.131
 9889SOL     OW30565   6.865   5.149   3.007
 9889SOL    HW130566   6.852   5.179   2.913
 9889SOL    HW230567   6.959   5.168   3.035
 9890SOL     OW30568   1.052   3.270   3.040
 9890SOL    HW130569   1.145   3.239   3.022
 9890SOL    HW230570   0.999   3.195   3.081
 9891SOL     OW30571   4.815   6.606   2.048
 9891SOL    HW130572   4.869   6.570   2.124
 9891SOL    HW230573   4.773   6.531   1.998
 9892SOL     OW30574   1.543   5.904   3.931
 9892SOL    HW130575   1.532   5.998   3.901
 9892SOL    HW230576   1.488   5.889   4.013
 9893SOL     OW30577   5.684   4.624   5.299
 9893SOL    HW130578   5.724   4.584   5.216
 9893SOL    HW230579   5.756   4.666   5.354
 9894SOL     OW30580   4.211   3.899   5.379
 9894SOL    HW130581   4.188   3.820   5.322
 9894SOL    HW230582   4.157   3.978   5.349
 9895SOL     OW30583   5.295   2.233   6.262
 9895SOL    HW130584   5.346   2.150   6.284
 9895SOL    HW230585   5.349   2.290   6.201
 9896SOL     OW30586   3.872   3.712   6.681
 9896SOL    HW130587   3.852   3.725   6.778
 9896SOL    HW230588   3.955   3.762   6.657
 9897SOL     OW30589   0.470   1.155   3.051
 9897SOL    HW130590   0.495   1.251   3.067
 9897SOL    HW230591   0.491   1.101   3.132
 9898SOL     OW30592   1.072   5.177   0.350
 9898SOL    HW130593   1.063   5.112   0.275
 9898SOL    HW230594   1.011   5.150   0.424
 9899SOL     OW30595   4.426   5.074   2.494
 9899SOL    HW130596   4.397   5.097   2.587
 9899SOL    HW230597   4.358   5.013   2.453
 9900SOL     OW30598   1.937   4.447   4.058
 9900SOL    HW130599   2.015   4.421   4.001
 9900SOL    HW230600   1.969   4.492   4.141
 9901SOL     OW30601   2.126   2.020   6.070
 9901SOL    HW130602   2.223   2.032   6.049
 9901SOL    HW230603   2.098   1.928   6.046
 9902SOL     OW30604   4.388   3.896   6.576
 9902SOL    HW130605   4.420   3.853   6.660
 9902SOL    HW230606   4.453   3.966   6.548
 9903SOL     OW30607   3.299   1.637   1.421
 9903SOL    HW130608   3.346   1.627   1.509
 9903SOL    HW230609   3.205   1.605   1.430
 9904SOL     OW30610   0.018   6.856   2.385
 9904SOL    HW130611   6.957   6.896   2.404
 9904SOL    HW230612   0.084   6.930   2.370
 9905SOL     OW30613   1.639   6.552   5.597
 9905SOL    HW130614   1.664   6.458   5.575
 9905SOL    HW230615   1.722   6.605   5.613
 9906SOL     OW30616   3.591   3.778   6.037
 9906SOL    HW130617   3.644   3.813   5.960
 9906SOL    HW230618   3.651   3.763   6.115
 9907SOL     OW30619   1.431   6.901   2.738
 9907SOL    HW130620   1.425   6.882   2.640
 9907SOL    HW230621   1.344   6.938   2.770
 9908SOL     OW30622   6.235   3.131   5.517
 9908SOL    HW130623   6.263   3.222   5.545
 9908SOL    HW230624   6.141   3.133   5.483
 9909SOL     OW30625   3.363   6.637   2.231
 9909SOL    HW130626   3.458   6.641   2.265
 9909SOL    HW230627   3.350   6.708   2.162
 9910SOL     OW30628   1.030   5.089   0.989
 9910SOL    HW130629   1.123   5.121   0.971
 9910SOL    HW230630   1.017   4.999   0.949
 9911SOL     OW30631   3.760   4.891   3.028
 9911SOL    HW130632   3.754   4.815   3.094
 9911SOL    HW230633   3.734   4.976   3.073
 9912SOL     OW30634   4.450   6.905   0.978
 9912SOL    HW130635   4.514   6.872   0.909
 9912SOL    HW230636   4.386   6.832   1.003
 9913SOL     OW30637   5.010   2.411   2.817
 9913SOL    HW130638   4.944   2.399   2.890
 9913SOL    HW230639   5.097   2.444   2.855
 9914SOL     OW30640   2.272   5.281   4.529
 9914SOL    HW130641   2.285   5.311   4.434
 9914SOL    HW230642   2.334   5.204   4.547
 9915SOL     OW30643   6.438   3.967   4.150
 9915SOL    HW130644   6.363   4.004   4.095
 9915SOL    HW230645   6.512   3.938   4.090
 9916SOL     OW30646   3.132   4.056   0.515
 9916SOL    HW130647   3.223   4.039   0.478
 9916SOL    HW230648   3.140   4.103   0.603
 9917SOL     OW30649   2.204   3.042   4.790
 9917SOL    HW130650   2.282   3.041   4.852
 9917SOL    HW230651   2.145   3.120   4.811
 9918SOL     OW30652   2.606   0.585   4.710
 9918SOL    HW130653   2.682   0.649   4.699
 9918SOL    HW230654   2.615   0.511   4.644
 9919SOL     OW30655   0.739   5.183   2.565
 9919SOL    HW130656   0.793   5.219   2.489
 9919SOL    HW230657   0.788   5.199   2.651
 9920SOL     OW30658   4.104   6.946   2.632
 9920SOL    HW130659   4.037   7.016   2.652
 9920SOL    HW230660   4.196   6.983   2.646
 9921SOL     OW30661   4.877   0.607   2.596
 9921SOL    HW130662   4.933   0.533   2.559
 9921SOL    HW230663   4.936   0.683   2.623
 9922SOL     OW30664   5.328   2.747   1.784
 9922SOL    HW130665   5.298   2.729   1.878
 9922SOL    HW230666   5.254   2.791   1.734
 9923SOL     OW30667   6.029   0.670   6.710
 9923SOL    HW130668   5.978   0.713   6.636
 9923SOL    HW230669   6.005   0.573   6.715
 9924SOL     OW30670   5.297   0.889   4.012
 9924SOL    HW130671   5.266   0.875   4.105
 9924SOL    HW230672   5.265   0.814   3.954
 9925SOL     OW30673   4.036   2.026   4.768
 9925SOL    HW130674   4.127   2.065   4.750
 9925SOL    HW230675   4.028   1.938   4.720
 9926SOL     OW30676   1.792   0.988   5.523
 9926SOL    HW130677   1.815   0.956   5.431
 9926SOL    HW230678   1.745   0.915   5.573
 9927SOL     OW30679   0.848   2.860   3.003
 9927SOL    HW130680   0.904   2.778   3.002
 9927SOL    HW230681   0.825   2.885   2.909
 9928SOL     OW30682   0.236   3.279   2.124
 9928SOL    HW130683   0.158   3.253   2.181
 9928SOL    HW230684   0.235   3.378   2.109
 9929SOL     OW30685   0.435   4.871   5.432
 9929SOL    HW130686   0.527   4.910   5.440
 9929SOL    HW230687   0.442   4.772   5.421
 9930SOL     OW30688   6.792   5.506   6.186
 9930SOL    HW130689   6.844   5.581   6.146
 9930SOL    HW230690   6.848   5.460   6.256
 9931SOL     OW30691   2.598   4.999   6.674
 9931SOL    HW130692   2.676   4.949   6.712
 9931SOL    HW230693   2.578   4.965   6.582
 9932SOL     OW30694   2.553   2.875   0.959
 9932SOL    HW130695   2.538   2.776   0.965
 9932SOL    HW230696   2.646   2.893   0.927
 9933SOL     OW30697   1.114   1.247   2.533
 9933SOL    HW130698   1.160   1.173   2.483
 9933SOL    HW230699   1.017   1.247   2.509
 9934SOL     OW30700   5.240   0.533   6.028
 9934SOL    HW130701   5.300   0.551   5.950
 9934SOL    HW230702   5.145   0.530   5.997
 9935SOL     OW30703   2.530   3.120   0.579
 9935SOL    HW130704   2.483   3.077   0.657
 9935SOL    HW230705   2.601   3.059   0.546
 9936SOL     OW30706   5.331   6.756   6.672
 9936SOL    HW130707   5.373   6.680   6.722
 9936SOL    HW230708   5.275   6.810   6.734
 9937SOL     OW30709   1.535   6.878   3.479
 9937SOL    HW130710   1.477   6.799   3.501
 9937SOL    HW230711   1.625   6.867   3.520
 9938SOL     OW30712   0.142   1.400   3.329
 9938SOL    HW130713   0.183   1.470   3.271
 9938SOL    HW230714   0.126   1.437   3.421
 9939SOL     OW30715   2.468   4.046   1.580
 9939SOL    HW130716   2.564   4.042   1.606
 9939SOL    HW230717   2.416   4.094   1.651
 9940SOL     OW30718   6.845   0.762   3.238
 9940SOL    HW130719   6.889   0.713   3.313
 9940SOL    HW230720   6.759   0.801   3.271
 9941SOL     OW30721   5.691   3.364   1.207
 9941SOL    HW130722   5.665   3.460   1.219
 9941SOL    HW230723   5.683   3.316   1.294
 9942SOL     OW30724   6.611   5.918   2.713
 9942SOL    HW130725   6.682   5.931   2.643
 9942SOL    HW230726   6.642   5.958   2.799
 9943SOL     OW30727   1.892   4.239   5.553
 9943SOL    HW130728   1.922   4.330   5.580
 9943SOL    HW230729   1.792   4.235   5.557
 9944SOL     OW30730   2.025   5.340   6.623
 9944SOL    HW130731   2.046   5.360   6.718
 9944SOL    HW230732   2.022   5.425   6.570
 9945SOL     OW30733   6.363   3.332   6.854
 9945SOL    HW130734   6.359   3.235   6.832
 9945SOL    HW230735   6.448   3.352   6.903
 9946SOL     OW30736   5.183   2.523   1.552
 9946SOL    HW130737   5.129   2.590   1.603
 9946SOL    HW230738   5.161   2.431   1.584
 9947SOL     OW30739   1.399   1.611   2.725
 9947SOL    HW130740   1.311   1.569   2.744
 9947SOL    HW230741   1.444   1.636   2.811
 9948SOL     OW30742   5.929   0.600   5.803
 9948SOL    HW130743   5.831   0.583   5.791
 9948SOL    HW230744   5.979   0.567   5.723
 9949SOL     OW30745   6.815   3.525   3.031
 9949SOL    HW130746   6.752   3.507   2.955
 9949SOL    HW230747   6.894   3.464   3.025
 9950SOL     OW30748   4.810   5.096   5.689
 9950SOL    HW130749   4.784   5.117   5.595
 9950SOL    HW230750   4.887   5.154   5.716
 9951SOL     OW30751   0.154   2.321   2.919
 9951SOL    HW130752   0.120   2.310   2.826
 9951SOL    HW230753   0.203   2.408   2.927
 9952SOL     OW30754   1.929   4.569   1.276
 9952SOL    HW130755   1.884   4.489   1.315
 9952SOL    HW230756   1.863   4.644   1.270
 9953SOL     OW30757   6.535   4.442   4.198
 9953SOL    HW130758   6.630   4.474   4.199
 9953SOL    HW230759   6.525   4.370   4.267
 9954SOL     OW30760   3.799   1.378   1.149
 9954SOL    HW130761   3.880   1.434   1.167
 9954SOL    HW230762   3.779   1.322   1.229
 9955SOL     OW30763   6.032   5.278   1.416
 9955SOL    HW130764   6.102   5.234   1.360
 9955SOL    HW230765   6.065   5.367   1.448
 9956SOL     OW30766   1.456   3.261   3.177
 9956SOL    HW130767   1.503   3.289   3.094
 9956SOL    HW230768   1.451   3.337   3.241
 9957SOL     OW30769   5.181   0.014   0.445
 9957SOL    HW130770   5.225   6.957   0.470
 9957SOL    HW230771   5.186   0.078   0.522
 9958SOL     OW30772   6.045   6.206   6.143
 9958SOL    HW130773   6.099   6.182   6.062
 9958SOL    HW230774   5.987   6.285   6.122
 9959SOL     OW30775   5.674   4.445   0.025
 9959SOL    HW130776   5.744   4.466   6.986
 9959SOL    HW230777   5.719   4.428   0.114
 9960SOL     OW30778   6.570   0.268   6.938
 9960SOL    HW130779   6.472   0.270   6.915
 9960SOL    HW230780   6.593   0.177   6.974
 9961SOL     OW30781   3.034   6.084   0.781
 9961SOL    HW130782   2.944   6.094   0.825
 9961SOL    HW230783   3.088   6.166   0.798
 9962SOL     OW30784   3.292   0.666   1.478
 9962SOL    HW130785   3.382   0.644   1.439
 9962SOL    HW230786   3.244   0.582   1.500
 9963SOL     OW30787   1.218   0.225   6.323
 9963SOL    HW130788   1.248   0.249   6.415
 9963SOL    HW230789   1.178   0.133   6.323
 9964SOL     OW30790   4.435   5.076   5.001
 9964SOL    HW130791   4.531   5.100   5.011
 9964SOL    HW230792   4.408   5.085   4.906
 9965SOL     OW30793   2.943   4.825   4.317
 9965SOL    HW130794   2.992   4.883   4.382
 9965SOL    HW230795   2.865   4.783   4.364
 9966SOL     OW30796   3.562   5.803   2.589
 9966SOL    HW130797   3.579   5.897   2.560
 9966SOL    HW230798   3.468   5.795   2.621
 9967SOL     OW30799   0.286   0.620   3.079
 9967SOL    HW130800   0.374   0.623   3.127
 9967SOL    HW230801   0.213   0.605   3.146
 9968SOL     OW30802   4.423   6.640   6.925
 9968SOL    HW130803   4.348   6.586   6.887
 9968SOL    HW230804   4.457   6.596   7.008
 9969SOL     OW30805   0.059   5.649   3.340
 9969SOL    HW130806   7.007   5.623   3.393
 9969SOL    HW230807   0.062   5.749   3.330
 9970SOL     OW30808   6.592   3.384   2.115
 9970SOL    HW130809   6.536   3.448   2.062
 9970SOL    HW230810   6.686   3.419   2.120
 9971SOL     OW30811   0.414   5.040   4.603
 9971SOL    HW130812   0.358   5.081   4.531
 9971SOL    HW230813   0.489   5.101   4.627
 9972SOL     OW30814   2.825   4.724   6.015
 9972SOL    HW130815   2.758   4.650   6.008
 9972SOL    HW230816   2.822   4.763   6.107
 9973SOL     OW30817   3.161   1.653   2.802
 9973SOL    HW130818   3.086   1.712   2.771
 9973SOL    HW230819   3.248   1.700   2.787
 9974SOL     OW30820   1.399   2.274   3.478
 9974SOL    HW130821   1.454   2.356   3.462
 9974SOL    HW230822   1.416   2.207   3.405
 9975SOL     OW30823   2.548   4.265   6.204
 9975SOL    HW130824   2.516   4.358   6.223
 9975SOL    HW230825   2.541   4.247   6.106
 9976SOL     OW30826   3.937   6.401   5.218
 9976SOL    HW130827   3.982   6.383   5.130
 9976SOL    HW230828   3.946   6.498   5.241
 9977SOL     OW30829   4.146   0.468   5.290
 9977SOL    HW130830   4.168   0.431   5.200
 9977SOL    HW230831   4.162   0.567   5.290
 9978SOL     OW30832   0.374   2.608   0.344
 9978SOL    HW130833   0.456   2.613   0.288
 9978SOL    HW230834   0.321   2.692   0.333
 9979SOL     OW30835   3.629   3.804   4.780
 9979SOL    HW130836   3.724   3.789   4.755
 9979SOL    HW230837   3.608   3.752   4.863
 9980SOL     OW30838   0.770   0.857   0.272
 9980SOL    HW130839   0.730   0.836   0.361
 9980SOL    HW230840   0.864   0.888   0.284
 9981SOL     OW30841   5.555   0.819   0.424
 9981SOL    HW130842   5.506   0.864   0.350
 9981SOL    HW230843   5.521   0.725   0.434
 9982SOL     OW30844   2.699   2.414   4.483
 9982SOL    HW130845   2.747   2.482   4.427
 9982SOL    HW230846   2.716   2.433   4.580
 9983SOL     OW30847   0.707   3.417   2.029
 9983SOL    HW130848   0.725   3.396   2.125
 9983SOL    HW230849   0.790   3.451   1.985
 9984SOL     OW30850   0.733   4.890   1.383
 9984SOL    HW130851   0.681   4.806   1.398
 9984SOL    HW230852   0.715   4.954   1.457
 9985SOL     OW30853   5.039   4.390   6.955
 9985SOL    HW130854   4.997   4.353   0.010
 9985SOL    HW230855   5.045   4.317   6.887
 9986SOL     OW30856   5.609   5.063   0.453
 9986SOL    HW130857   5.578   5.129   0.521
 9986SOL    HW230858   5.539   5.051   0.383
 9987SOL     OW30859   5.117   1.915   1.124
 9987SOL    HW130860   5.040   1.951   1.071
 9987SOL    HW230861   5.104   1.816   1.139
 9988SOL     OW30862   6.204   6.855   3.747
 9988SOL    HW130863   6.164   6.766   3.726
 9988SOL    HW230864   6.198   6.872   3.846
 9989SOL     OW30865   6.939   5.590   2.039
 9989SOL    HW130866   6.987   5.571   2.125
 9989SOL    HW230867   6.910   5.505   1.997
 9990SOL     OW30868   6.978   6.903   2.872
 9990SOL    HW130869   7.001   6.824   2.815
 9990SOL    HW230870   7.026   6.984   2.837
 9991SOL     OW30871   2.280   4.322   2.350
 9991SOL    HW130872   2.186   4.356   2.344
 9991SOL    HW230873   2.316   4.309   2.257
 9992SOL     OW30874   2.700   5.219   0.424
 9992SOL    HW130875   2.633   5.170   0.368
 9992SOL    HW230876   2.651   5.275   0.492
 9993SOL     OW30877   4.226   0.355   4.708
 9993SOL    HW130878   4.164   0.338   4.784
 9993SOL    HW230879   4.237   0.271   4.654
 9994SOL     OW30880   6.127   5.022   5.101
 9994SOL    HW130881   6.194   5.049   5.032
 9994SOL    HW230882   6.050   4.977   5.056
 9995SOL     OW30883   4.048   1.887   6.160
 9995SOL    HW130884   4.047   1.839   6.072
 9995SOL    HW230885   4.040   1.821   6.234
 9996SOL     OW30886   3.010   4.323   1.117
 9996SOL    HW130887   3.060   4.348   1.200
 9996SOL    HW230888   2.932   4.266   1.141
 9997SOL     OW30889   6.811   1.523   2.873
 9997SOL    HW130890   6.828   1.442   2.930
 9997SOL    HW230891   6.712   1.538   2.865
 9998SOL     OW30892   5.339   3.809   2.620
 9998SOL    HW130893   5.316   3.832   2.525
 9998SOL    HW230894   5.259   3.825   2.678
 9999SOL     OW30895   0.790   7.003   4.599
 9999SOL    HW130896   0.800   0.073   4.611
 9999SOL    HW230897   0.811   6.957   4.685
10000SOL     OW30898   4.532   2.264   1.287
10000SOL    HW130899   4.617   2.214   1.272
10000SOL    HW230900   4.459   2.223   1.233
10001SOL     OW30901   4.026   6.170   1.524
10001SOL    HW130902   4.019   6.228   1.606
10001SOL    HW230903   3.996   6.077   1.547
10002SOL     OW30904   2.247   6.637   2.194
10002SOL    HW130905   2.286   6.546   2.180
10002SOL    HW230906   2.258   6.663   2.290
10003SOL     OW30907   1.746   1.111   2.503
10003SOL    HW130908   1.798   1.029   2.526
10003SOL    HW230909   1.783   1.153   2.420
10004SOL     OW30910   0.507   4.114   3.769
10004SOL    HW130911   0.470   4.207   3.767
10004SOL    HW230912   0.474   4.066   3.850
10005SOL     OW30913   2.578   5.879   3.320
10005SOL    HW130914   2.562   5.782   3.305
10005SOL    HW230915   2.652   5.890   3.387
10006SOL     OW30916   5.186   1.214   5.225
10006SOL    HW130917   5.165   1.243   5.318
10006SOL    HW230918   5.211   1.293   5.170
10007SOL     OW30919   1.216   4.977   3.949
10007SOL    HW130920   1.227   4.910   4.022
10007SOL    HW230921   1.278   4.955   3.874
10008SOL     OW30922   4.218   1.210   6.186
10008SOL    HW130923   4.165   1.180   6.266
10008SOL    HW230924   4.163   1.199   6.104
10009SOL     OW30925   0.885   4.934   2.590
10009SOL    HW130926   0.843   5.020   2.564
10009SOL    HW230927   0.976   4.951   2.627
10010SOL     OW30928   2.124   4.063   1.644
10010SOL    HW130929   2.117   4.163   1.646
10010SOL    HW230930   2.209   4.035   1.690
10011SOL     OW30931   2.873   3.088   0.216
10011SOL    HW130932   2.788   3.110   0.264
10011SOL    HW230933   2.942   3.157   0.239
10012SOL     OW30934   5.604   1.803   2.961
10012SOL    HW130935   5.628   1.790   2.864
10012SOL    HW230936   5.537   1.876   2.969
10013SOL     OW30937   0.608   6.596   4.384
10013SOL    HW130938   0.612   6.574   4.287
10013SOL    HW230939   0.651   6.685   4.400
10014SOL     OW30940   1.585   0.799   3.289
10014SOL    HW130941   1.524   0.874   3.263
10014SOL    HW230942   1.652   0.784   3.217
10015SOL     OW30943   3.847   6.752   6.282
10015SOL    HW130944   3.785   6.728   6.356
10015SOL    HW230945   3.853   6.852   6.274
10016SOL     OW30946   2.019   0.676   4.623
10016SOL    HW130947   2.073   0.661   4.706
10016SOL    HW230948   2.055   0.619   4.550
10017SOL     OW30949   3.321   1.508   2.398
10017SOL    HW130950   3.323   1.592   2.344
10017SOL    HW230951   3.227   1.479   2.411
10018SOL     OW30952   0.016   3.827   5.301
10018SOL    HW130953   7.014   3.919   5.278
10018SOL    HW230954   6.968   3.771   5.331
10019SOL     OW30955   0.241   2.033   1.953
10019SOL    HW130956   0.236   2.074   2.044
10019SOL    HW230957   0.308   1.959   1.953
10020SOL     OW30958   6.749   1.219   2.351
10020SOL    HW130959   6.747   1.225   2.451
10020SOL    HW230960   6.688   1.147   2.321
10021SOL     OW30961   0.877   3.093   2.012
10021SOL    HW130962   0.891   3.191   2.023
10021SOL    HW230963   0.810   3.061   2.078
10022SOL     OW30964   1.292   6.122   6.024
10022SOL    HW130965   1.242   6.201   6.059
10022SOL    HW230966   1.341   6.148   5.941
10023SOL     OW30967   0.299   1.948   6.012
10023SOL    HW130968   0.365   1.906   6.074
10023SOL    HW230969   0.230   1.881   5.986
10024SOL     OW30970   2.304   4.491   2.944
10024SOL    HW130971   2.288   4.578   2.897
10024SOL    HW230972   2.349   4.427   2.882
10025SOL     OW30973   1.192   3.810   1.096
10025SOL    HW130974   1.110   3.764   1.064
10025SOL    HW230975   1.269   3.788   1.035
10026SOL     OW30976   6.046   0.774   5.397
10026SOL    HW130977   6.046   0.872   5.375
10026SOL    HW230978   6.011   0.723   5.319
10027SOL     OW30979   3.309   1.574   5.325
10027SOL    HW130980   3.277   1.505   5.260
10027SOL    HW230981   3.328   1.659   5.277
10028SOL     OW30982   4.381   0.068   1.737
10028SOL    HW130983   4.469   0.038   1.699
10028SOL    HW230984   4.307   0.030   1.681
10029SOL     OW30985   0.263   4.034   4.658
10029SOL    HW130986   0.312   3.964   4.606
10029SOL    HW230987   0.317   4.118   4.660
10030SOL     OW30988   2.756   0.216   4.606
10030SOL    HW130989   2.802   0.298   4.573
10030SOL    HW230990   2.731   0.227   4.702
10031SOL     OW30991   2.186   6.118   2.945
10031SOL    HW130992   2.156   6.207   2.912
10031SOL    HW230993   2.209   6.125   3.042
10032SOL     OW30994   3.137   6.124   4.677
10032SOL    HW130995   3.202   6.114   4.752
10032SOL    HW230996   3.051   6.161   4.711
10033SOL     OW30997   3.587   1.110   4.827
10033SOL    HW130998   3.577   1.150   4.736
10033SOL    HW230999   3.665   1.153   4.874
10034SOL     OW31000   2.626   0.960   2.613
10034SOL    HW131001   2.614   1.022   2.535
10034SOL    HW231002   2.608   1.010   2.698
10035SOL     OW31003   6.477   3.030   2.366
10035SOL    HW131004   6.485   3.116   2.317
10035SOL    HW231005   6.482   3.047   2.465
10036SOL     OW31006   1.181   1.266   0.020
10036SOL    HW131007   1.142   1.174   0.026
10036SOL    HW231008   1.268   1.268   0.070
10037SOL     OW31009   5.804   6.648   6.294
10037SOL    HW131010   5.787   6.555   6.260
10037SOL    HW231011   5.724   6.680   6.344
10038SOL     OW31012   4.457   6.453   6.465
10038SOL    HW131013   4.534   6.515   6.477
10038SOL    HW231014   4.441   6.439   6.368
10039SOL     OW31015   0.478   5.786   2.471
10039SOL    HW131016   0.441   5.698   2.441
10039SOL    HW231017   0.576   5.789   2.452
10040SOL     OW31018   2.706   0.421   0.610
10040SOL    HW131019   2.734   0.480   0.534
10040SOL    HW231020   2.606   0.423   0.618
10041SOL     OW31021   5.838   5.707   4.862
10041SOL    HW131022   5.840   5.645   4.941
10041SOL    HW231023   5.774   5.672   4.794
10042SOL     OW31024   6.826   0.411   5.133
10042SOL    HW131025   6.859   0.340   5.071
10042SOL    HW231026   6.835   0.501   5.090
10043SOL     OW31027   0.761   0.730   3.561
10043SOL    HW131028   0.770   0.630   3.554
10043SOL    HW231029   0.851   0.771   3.567
10044SOL     OW31030   3.177   1.598   0.323
10044SOL    HW131031   3.172   1.502   0.295
10044SOL    HW231032   3.093   1.645   0.295
10045SOL     OW31033   4.321   6.911   4.388
10045SOL    HW131034   4.305   6.872   4.479
10045SOL    HW231035   4.419   6.908   4.368
10046SOL     OW31036   6.383   2.667   1.242
10046SOL    HW131037   6.459   2.611   1.209
10046SOL    HW231038   6.306   2.659   1.178
10047SOL     OW31039   0.632   1.752   3.180
10047SOL    HW131040   0.708   1.782   3.238
10047SOL    HW231041   0.554   1.813   3.194
10048SOL     OW31042   3.812   2.627   1.599
10048SOL    HW131043   3.821   2.556   1.668
10048SOL    HW231044   3.901   2.672   1.585
10049SOL     OW31045   1.738   6.748   4.624
10049SOL    HW131046   1.647   6.719   4.652
10049SOL    HW231047   1.745   6.744   4.524
10050SOL     OW31048   5.629   1.299   4.281
10050SOL    HW131049   5.628   1.350   4.367
10050SOL    HW231050   5.578   1.349   4.212
10051SOL     OW31051   6.236   2.206   6.840
10051SOL    HW131052   6.244   2.257   6.925
10051SOL    HW231053   6.259   2.266   6.763
10052SOL     OW31054   1.036   4.105   2.077
10052SOL    HW131055   1.018   4.173   2.006
10052SOL    HW231056   1.106   4.040   2.045
10053SOL     OW31057   2.609   6.574   3.096
10053SOL    HW131058   2.706   6.557   3.112
10053SOL    HW231059   2.555   6.496   3.128
10054SOL     OW31060   4.323   5.925   4.180
10054SOL    HW131061   4.352   6.019   4.160
10054SOL    HW231062   4.397   5.862   4.157
10055SOL     OW31063   6.593   3.230   6.611
10055SOL    HW131064   6.661   3.294   6.649
10055SOL    HW231065   6.599   3.143   6.659
10056SOL     OW31066   6.593   4.836   1.996
10056SOL    HW131067   6.560   4.742   1.988
10056SOL    HW231068   6.538   4.885   2.064
10057SOL     OW31069   2.729   2.329   3.476
10057SOL    HW131070   2.748   2.384   3.558
10057SOL    HW231071   2.631   2.321   3.463
10058SOL     OW31072   0.947   4.326   3.810
10058SOL    HW131073   1.027   4.336   3.870
10058SOL    HW231074   0.880   4.396   3.832
10059SOL     OW31075   5.503   6.934   1.203
10059SOL    HW131076   5.405   6.952   1.197
10059SOL    HW231077   5.520   6.870   1.277
10060SOL     OW31078   2.209   2.870   2.002
10060SOL    HW131079   2.296   2.820   2.002
10060SOL    HW231080   2.134   2.807   1.983
10061SOL     OW31081   6.336   2.307   4.755
10061SOL    HW131082   6.242   2.276   4.742
10061SOL    HW231083   6.387   2.296   4.670
10062SOL     OW31084   6.070   5.380   3.342
10062SOL    HW131085   6.117   5.394   3.254
10062SOL    HW231086   5.986   5.434   3.344
10063SOL     OW31087   1.123   2.495   2.653
10063SOL    HW131088   1.194   2.556   2.617
10063SOL    HW231089   1.072   2.542   2.725
10064SOL     OW31090   5.545   5.815   4.288
10064SOL    HW131091   5.460   5.862   4.262
10064SOL    HW231092   5.615   5.883   4.310
10065SOL     OW31093   0.974   6.748   3.400
10065SOL    HW131094   0.889   6.716   3.358
10065SOL    HW231095   0.962   6.842   3.432
10066SOL     OW31096   0.548   0.491   3.957
10066SOL    HW131097   0.491   0.522   4.033
10066SOL    HW231098   0.644   0.509   3.977
10067SOL     OW31099   4.409   6.411   3.202
10067SOL    HW131100   4.473   6.438   3.131
10067SOL    HW231101   4.458   6.393   3.287
10068SOL     OW31102   5.141   4.049   5.636
10068SOL    HW131103   5.056   4.030   5.686
10068SOL    HW231104   5.127   4.028   5.539
10069SOL     OW31105   4.204   1.098   3.698
10069SOL    HW131106   4.114   1.054   3.705
10069SOL    HW231107   4.194   1.187   3.653
10070SOL     OW31108   0.995   6.742   4.386
10070SOL    HW131109   0.907   6.720   4.343
10070SOL    HW231110   0.993   6.713   4.481
10071SOL     OW31111   5.002   5.178   5.007
10071SOL    HW131112   5.007   5.266   4.960
10071SOL    HW231113   5.075   5.118   4.972
10072SOL     OW31114   0.964   6.848   3.830
10072SOL    HW131115   0.989   6.813   3.920
10072SOL    HW231116   0.972   6.947   3.829
10073SOL     OW31117   0.675   5.148   6.720
10073SOL    HW131118   0.648   5.087   6.794
10073SOL    HW231119   0.773   5.139   6.703
10074SOL     OW31120   2.118   6.592   5.708
10074SOL    HW131121   2.108   6.522   5.779
10074SOL    HW231122   2.145   6.678   5.750
10075SOL     OW31123   1.979   2.214   3.788
10075SOL    HW131124   1.929   2.177   3.710
10075SOL    HW231125   1.915   2.253   3.854
10076SOL     OW31126   5.710   0.251   4.625
10076SOL    HW131127   5.708   0.203   4.713
10076SOL    HW231128   5.646   0.207   4.562
10077SOL     OW31129   3.559   1.181   6.673
10077SOL    HW131130   3.624   1.231   6.617
10077SOL    HW231131   3.565   1.212   6.768
10078SOL     OW31132   5.908   6.377   5.704
10078SOL    HW131133   5.824   6.383   5.758
10078SOL    HW231134   5.938   6.282   5.698
10079SOL     OW31135   6.974   3.739   6.479
10079SOL    HW131136   6.928   3.700   6.558
10079SOL    HW231137   6.906   3.777   6.416
10080SOL     OW31138   1.663   3.117   6.150
10080SOL    HW131139   1.743   3.057   6.144
10080SOL    HW231140   1.689   3.211   6.129
10081SOL     OW31141   0.313   1.150   6.643
10081SOL    HW131142   0.317   1.110   6.735
10081SOL    HW231143   0.399   1.198   6.624
10082SOL     OW31144   6.697   1.127   0.961
10082SOL    HW131145   6.654   1.216   0.975
10082SOL    HW231146   6.795   1.140   0.948
10083SOL     OW31147   5.159   1.126   4.431
10083SOL    HW131148   5.128   1.032   4.413
10083SOL    HW231149   5.255   1.134   4.405
10084SOL     OW31150   2.539   0.892   6.018
10084SOL    HW131151   2.551   0.981   5.974
10084SOL    HW231152   2.567   0.898   6.114
10085SOL     OW31153   0.671   5.683   3.180
10085SOL    HW131154   0.697   5.661   3.086
10085SOL    HW231155   0.681   5.781   3.195
10086SOL     OW31156   6.345   3.681   2.713
10086SOL    HW131157   6.352   3.618   2.791
10086SOL    HW231158   6.271   3.746   2.729
10087SOL     OW31159   1.219   0.534   3.921
10087SOL    HW131160   1.155   0.488   3.982
10087SOL    HW231161   1.171   0.565   3.839
10088SOL     OW31162   6.989   0.748   4.714
10088SOL    HW131163   6.978   0.655   4.748
10088SOL    HW231164   6.901   0.796   4.717
10089SOL     OW31165   1.401   3.120   2.577
10089SOL    HW131166   1.386   3.083   2.485
10089SOL    HW231167   1.416   3.045   2.641
10090SOL     OW31168   1.026   4.785   1.278
10090SOL    HW131169   0.955   4.854   1.291
10090SOL    HW231170   0.987   4.703   1.236
10091SOL     OW31171   0.514   2.209   4.023
10091SOL    HW131172   0.571   2.206   3.940
10091SOL    HW231173   0.562   2.261   4.093
10092SOL     OW31174   1.860   3.641   4.678
10092SOL    HW131175   1.835   3.583   4.600
10092SOL    HW231176   1.940   3.696   4.654
10093SOL     OW31177   6.777   4.982   6.170
10093SOL    HW131178   6.851   5.047   6.188
10093SOL    HW231179   6.694   5.013   6.218
10094SOL     OW31180   1.529   1.313   1.593
10094SOL    HW131181   1.451   1.363   1.556
10094SOL    HW231182   1.510   1.215   1.592
10095SOL     OW31183   0.592   0.888   5.608
10095SOL    HW131184   0.623   0.980   5.631
10095SOL    HW231185   0.611   0.826   5.684
10096SOL     OW31186   0.661   4.839   2.103
10096SOL    HW131187   0.626   4.773   2.037
10096SOL    HW231188   0.695   4.791   2.184
10097SOL     OW31189   1.037   2.163   6.653
10097SOL    HW131190   0.943   2.149   6.685
10097SOL    HW231191   1.065   2.256   6.673
10098SOL     OW31192   3.428   4.865   6.280
10098SOL    HW131193   3.369   4.800   6.234
10098SOL    HW231194   3.523   4.832   6.277
10099SOL     OW31195   6.407   4.807   4.678
10099SOL    HW131196   6.419   4.711   4.651
10099SOL    HW231197   6.442   4.866   4.606
10100SOL     OW31198   5.912   1.156   5.763
10100SOL    HW131199   5.851   1.200   5.828
10100SOL    HW231200   6.003   1.148   5.802
10101SOL     OW31201   0.288   4.463   2.082
10101SOL    HW131202   0.353   4.430   2.151
10101SOL    HW231203   0.324   4.547   2.041
10102SOL     OW31204   3.785   1.093   3.148
10102SOL    HW131205   3.846   1.043   3.086
10102SOL    HW231206   3.792   1.191   3.131
10103SOL     OW31207   2.810   1.593   0.020
10103SOL    HW131208   2.840   1.605   0.115
10103SOL    HW231209   2.749   1.667   7.024
10104SOL     OW31210   1.423   5.686   4.993
10104SOL    HW131211   1.502   5.748   4.991
10104SOL    HW231212   1.391   5.677   5.087
10105SOL     OW31213   2.893   0.214   6.275
10105SOL    HW131214   2.922   0.307   6.255
10105SOL    HW231215   2.796   0.204   6.254
10106SOL     OW31216   5.709   5.415   0.225
10106SOL    HW131217   5.795   5.388   0.269
10106SOL    HW231218   5.711   5.513   0.207
10107SOL     OW31219   5.730   1.268   5.966
10107SOL    HW131220   5.815   1.269   6.019
10107SOL    HW231221   5.669   1.197   6.002
10108SOL     OW31222   6.128   6.520   0.006
10108SOL    HW131223   6.104   6.425   0.025
10108SOL    HW231224   6.046   6.570   7.005
10109SOL     OW31225   4.632   5.341   3.317
10109SOL    HW131226   4.607   5.299   3.405
10109SOL    HW231227   4.653   5.269   3.251
10110SOL     OW31228   3.299   1.518   5.601
10110SOL    HW131229   3.309   1.532   5.503
10110SOL    HW231230   3.263   1.602   5.643
10111SOL     OW31231   0.501   2.578   2.510
10111SOL    HW131232   0.578   2.640   2.525
10111SOL    HW231233   0.526   2.486   2.540
10112SOL     OW31234   3.959   4.278   5.915
10112SOL    HW131235   3.900   4.263   5.836
10112SOL    HW231236   3.976   4.376   5.926
10113SOL     OW31237   3.631   6.375   6.582
10113SOL    HW131238   3.707   6.439   6.570
10113SOL    HW231239   3.554   6.403   6.525
10114SOL     OW31240   4.088   1.332   1.360
10114SOL    HW131241   4.176   1.376   1.341
10114SOL    HW231242   4.016   1.402   1.367
10115SOL     OW31243   1.391   2.217   3.768
10115SOL    HW131244   1.308   2.206   3.824
10115SOL    HW231245   1.367   2.258   3.680
10116SOL     OW31246   1.184   0.862   1.252
10116SOL    HW131247   1.107   0.877   1.190
10116SOL    HW231248   1.229   0.777   1.229
10117SOL     OW31249   5.358   0.855   5.847
10117SOL    HW131250   5.259   0.864   5.837
10117SOL    HW231251   5.404   0.891   5.766
10118SOL     OW31252   6.229   5.343   2.690
10118SOL    HW131253   6.153   5.355   2.625
10118SOL    HW231254   6.204   5.275   2.759
10119SOL     OW31255   2.780   0.082   5.833
10119SOL    HW131256   2.684   0.066   5.858
10119SOL    HW231257   2.837   0.074   5.915
10120SOL     OW31258   6.347   2.562   3.318
10120SOL    HW131259   6.304   2.649   3.343
10120SOL    HW231260   6.391   2.522   3.398
10121SOL     OW31261   6.737   5.079   4.395
10121SOL    HW131262   6.817   5.096   4.452
10121SOL    HW231263   6.716   5.160   4.341
10122SOL     OW31264   5.297   3.202   0.288
10122SOL    HW131265   5.288   3.155   0.376
10122SOL    HW231266   5.300   3.301   0.304
10123SOL     OW31267   6.591   7.014   7.012
10123SOL    HW131268   6.660   7.019   6.940
10123SOL    HW231269   6.625   6.958   0.058
10124SOL     OW31270   3.306   4.344   1.029
10124SOL    HW131271   3.220   4.344   1.080
10124SOL    HW231272   3.367   4.413   1.066
10125SOL     OW31273   1.270   6.907   1.588
10125SOL    HW131274   1.357   6.914   1.637
10125SOL    HW231275   1.261   6.984   1.525
10126SOL     OW31276   6.034   4.859   0.438
10126SOL    HW131277   5.944   4.903   0.433
10126SOL    HW231278   6.038   4.785   0.370
10127SOL     OW31279   3.628   4.654   5.415
10127SOL    HW131280   3.716   4.646   5.370
10127SOL    HW231281   3.613   4.574   5.475
10128SOL     OW31282   0.407   1.808   1.652
10128SOL    HW131283   0.451   1.892   1.621
10128SOL    HW231284   0.436   1.732   1.593
10129SOL     OW31285   5.300   2.181   3.271
10129SOL    HW131286   5.279   2.117   3.345
10129SOL    HW231287   5.336   2.266   3.310
10130SOL     OW31288   6.694   5.074   1.887
10130SOL    HW131289   6.643   5.000   1.930
10130SOL    HW231290   6.686   5.157   1.942
10131SOL     OW31291   6.721   0.793   0.728
10131SOL    HW131292   6.766   0.750   0.806
10131SOL    HW231293   6.777   0.779   0.646
10132SOL     OW31294   2.911   6.748   2.707
10132SOL    HW131295   2.883   6.678   2.642
10132SOL    HW231296   2.993   6.794   2.673
10133SOL     OW31297   4.893   5.821   2.957
10133SOL    HW131298   4.971   5.880   2.939
10133SOL    HW231299   4.887   5.751   2.886
10134SOL     OW31300   0.045   1.445   2.550
10134SOL    HW131301   0.134   1.477   2.582
10134SOL    HW231302   0.005   1.384   2.618
10135SOL     OW31303   3.492   5.695   3.035
10135SOL    HW131304   3.584   5.661   3.012
10135SOL    HW231305   3.444   5.718   2.951
10136SOL     OW31306   6.081   0.003   2.138
10136SOL    HW131307   6.062   0.070   2.066
10136SOL    HW231308   6.134   6.956   2.100
10137SOL     OW31309   5.598   4.777   4.249
10137SOL    HW131310   5.516   4.819   4.209
10137SOL    HW231311   5.616   4.817   4.339
10138SOL     OW31312   5.343   2.663   6.401
10138SOL    HW131313   5.438   2.634   6.387
10138SOL    HW231314   5.281   2.594   6.364
10139SOL     OW31315   4.127   3.350   3.447
10139SOL    HW131316   4.130   3.275   3.512
10139SOL    HW231317   4.113   3.313   3.355
10140SOL     OW31318   0.254   5.075   5.378
10140SOL    HW131319   0.324   5.002   5.382
10140SOL    HW231320   0.300   5.164   5.378
10141SOL     OW31321   2.468   0.445   4.247
10141SOL    HW131322   2.514   0.425   4.334
10141SOL    HW231323   2.532   0.431   4.171
10142SOL     OW31324   5.225   5.829   4.459
10142SOL    HW131325   5.227   5.825   4.359
10142SOL    HW231326   5.245   5.923   4.489
10143SOL     OW31327   5.205   6.215   1.096
10143SOL    HW131328   5.262   6.156   1.039
10143SOL    HW231329   5.116   6.171   1.110
10144SOL     OW31330   3.143   5.537   3.613
10144SOL    HW131331   3.054   5.550   3.570
10144SOL    HW231332   3.132   5.500   3.705
10145SOL     OW31333   3.210   5.946   6.199
10145SOL    HW131334   3.279   6.015   6.176
10145SOL    HW231335   3.248   5.855   6.182
10146SOL     OW31336   4.813   4.799   4.317
10146SOL    HW131337   4.799   4.888   4.273
10146SOL    HW231338   4.892   4.804   4.378
10147SOL     OW31339   4.984   5.436   4.881
10147SOL    HW131340   4.897   5.439   4.832
10147SOL    HW231341   4.971   5.474   4.973
10148SOL     OW31342   5.598   5.240   1.266
10148SOL    HW131343   5.526   5.234   1.335
10148SOL    HW231344   5.617   5.148   1.230
10149SOL     OW31345   3.998   3.516   0.629
10149SOL    HW131346   4.088   3.538   0.592
10149SOL    HW231347   4.000   3.426   0.672
10150SOL     OW31348   5.018   4.643   1.328
10150SOL    HW131349   4.946   4.574   1.335
10150SOL    HW231350   5.029   4.689   1.417
10151SOL     OW31351   1.201   6.673   5.509
10151SOL    HW131352   1.253   6.594   5.542
10151SOL    HW231353   1.104   6.661   5.533
10152SOL     OW31354   0.555   5.214   3.700
10152SOL    HW131355   0.577   5.127   3.745
10152SOL    HW231356   0.559   5.288   3.767
10153SOL     OW31357   5.469   6.608   4.011
10153SOL    HW131358   5.418   6.524   3.994
10153SOL    HW231359   5.564   6.587   4.033
10154SOL     OW31360   6.565   5.531   5.615
10154SOL    HW131361   6.552   5.432   5.612
10154SOL    HW231362   6.658   5.553   5.585
10155SOL     OW31363   3.865   1.702   6.327
10155SOL    HW131364   3.899   1.649   6.250
10155SOL    HW231365   3.920   1.680   6.409
10156SOL     OW31366   6.048   0.503   2.108
10156SOL    HW131367   6.002   0.489   2.021
10156SOL    HW231368   6.003   0.575   2.160
10157SOL     OW31369   5.698   0.869   6.009
10157SOL    HW131370   5.770   0.891   6.075
10157SOL    HW231371   5.629   0.813   6.053
10158SOL     OW31372   4.115   3.847   6.631
10158SOL    HW131373   4.211   3.859   6.609
10158SOL    HW231374   4.064   3.929   6.606
10159SOL     OW31375   1.318   1.154   6.315
10159SOL    HW131376   1.230   1.139   6.269
10159SOL    HW231377   1.301   1.195   6.405
10160SOL     OW31378   0.627   5.856   3.499
10160SOL    HW131379   0.608   5.759   3.489
10160SOL    HW231380   0.541   5.907   3.494
10161SOL     OW31381   2.543   5.795   5.749
10161SOL    HW131382   2.501   5.874   5.793
10161SOL    HW231383   2.524   5.798   5.650
10162SOL     OW31384   3.580   1.597   6.695
10162SOL    HW131385   3.493   1.611   6.743
10162SOL    HW231386   3.653   1.583   6.762
10163SOL     OW31387   6.329   2.848   5.408
10163SOL    HW131388   6.251   2.902   5.377
10163SOL    HW231389   6.299   2.787   5.483
10164SOL     OW31390   0.585   2.743   5.455
10164SOL    HW131391   0.576   2.744   5.356
10164SOL    HW231392   0.526   2.813   5.496
10165SOL     OW31393   7.010   2.088   3.424
10165SOL    HW131394   7.004   1.996   3.463
10165SOL    HW231395   6.919   2.130   3.425
10166SOL     OW31396   1.812   1.281   2.053
10166SOL    HW131397   1.879   1.212   2.025
10166SOL    HW231398   1.737   1.283   1.987
10167SOL     OW31399   4.842   0.621   0.031
10167SOL    HW131400   4.853   0.658   6.968
10167SOL    HW231401   4.915   0.555   0.049
10168SOL     OW31402   6.505   4.529   4.567
10168SOL    HW131403   6.602   4.512   4.589
10168SOL    HW231404   6.468   4.449   4.520
10169SOL     OW31405   6.429   4.481   3.935
10169SOL    HW131406   6.445   4.568   3.887
10169SOL    HW231407   6.470   4.486   4.027
10170SOL     OW31408   1.827   4.287   4.709
10170SOL    HW131409   1.766   4.254   4.637
10170SOL    HW231410   1.883   4.211   4.743
10171SOL     OW31411   5.864   3.765   5.608
10171SOL    HW131412   5.890   3.674   5.639
10171SOL    HW231413   5.764   3.772   5.605
10172SOL     OW31414   4.926   1.374   3.202
10172SOL    HW131415   4.913   1.347   3.106
10172SOL    HW231416   5.022   1.362   3.227
10173SOL     OW31417   2.169   1.777   2.396
10173SOL    HW131418   2.169   1.789   2.297
10173SOL    HW231419   2.246   1.827   2.436
10174SOL     OW31420   6.800   4.633   1.592
10174SOL    HW131421   6.801   4.686   1.508
10174SOL    HW231422   6.863   4.556   1.584
10175SOL     OW31423   6.199   2.534   6.090
10175SOL    HW131424   6.265   2.593   6.044
10175SOL    HW231425   6.244   2.485   6.164
10176SOL     OW31426   2.326   3.998   0.336
10176SOL    HW131427   2.358   3.922   0.280
10176SOL    HW231428   2.349   3.982   0.432
10177SOL     OW31429   1.754   6.734   6.527
10177SOL    HW131430   1.713   6.820   6.557
10177SOL    HW231431   1.846   6.726   6.564
10178SOL     OW31432   5.487   2.274   4.277
10178SOL    HW131433   5.577   2.286   4.235
10178SOL    HW231434   5.457   2.361   4.316
10179SOL     OW31435   1.194   3.205   6.776
10179SOL    HW131436   1.163   3.110   6.772
10179SOL    HW231437   1.185   3.240   6.869
10180SOL     OW31438   2.541   6.320   5.645
10180SOL    HW131439   2.639   6.327   5.627
10180SOL    HW231440   2.506   6.410   5.670
10181SOL     OW31441   5.093   3.142   1.231
10181SOL    HW131442   5.108   3.089   1.148
10181SOL    HW231443   5.044   3.085   1.298
10182SOL     OW31444   5.293   1.236   0.681
10182SOL    HW131445   5.287   1.152   0.735
10182SOL    HW231446   5.368   1.227   0.615
10183SOL     OW31447   1.675   1.764   6.576
10183SOL    HW131448   1.628   1.805   6.654
10183SOL    HW231449   1.656   1.666   6.574
10184SOL     OW31450   4.126   0.768   5.987
10184SOL    HW131451   4.088   0.827   5.916
10184SOL    HW231452   4.068   0.688   5.999
10185SOL     OW31453   5.049   0.039   0.030
10185SOL    HW131454   4.985   0.109   0.061
10185SOL    HW231455   5.122   0.028   0.097
10186SOL     OW31456   4.262   2.361   3.077
10186SOL    HW131457   4.324   2.434   3.047
10186SOL    HW231458   4.274   2.281   3.017
10187SOL     OW31459   0.902   2.033   1.539
10187SOL    HW131460   0.998   2.004   1.534
10187SOL    HW231461   0.865   2.008   1.628
10188SOL     OW31462   3.513   5.997   1.133
10188SOL    HW131463   3.483   6.091   1.153
10188SOL    HW231464   3.527   5.948   1.219
10189SOL     OW31465   1.369   6.498   5.097
10189SOL    HW131466   1.414   6.578   5.137
10189SOL    HW231467   1.301   6.463   5.161
10190SOL     OW31468   5.632   2.717   0.473
10190SOL    HW131469   5.632   2.686   0.378
10190SOL    HW231470   5.541   2.703   0.512
10191SOL     OW31471   6.248   4.491   0.015
10191SOL    HW131472   6.270   4.394   0.026
10191SOL    HW231473   6.156   4.509   0.051
10192SOL     OW31474   3.058   1.498   5.938
10192SOL    HW131475   3.151   1.536   5.935
10192SOL    HW231476   3.010   1.524   5.854
10193SOL     OW31477   4.674   3.918   0.194
10193SOL    HW131478   4.605   3.942   0.261
10193SOL    HW231479   4.752   3.980   0.203
10194SOL     OW31480   5.330   3.621   5.386
10194SOL    HW131481   5.328   3.522   5.383
10194SOL    HW231482   5.424   3.653   5.398
10195SOL     OW31483   6.938   4.231   2.250
10195SOL    HW131484   6.947   4.241   2.151
10195SOL    HW231485   6.842   4.220   2.274
10196SOL     OW31486   0.419   1.611   4.712
10196SOL    HW131487   0.504   1.565   4.683
10196SOL    HW231488   0.376   1.654   4.632
10197SOL     OW31489   5.819   1.179   6.402
10197SOL    HW131490   5.882   1.111   6.438
10197SOL    HW231491   5.768   1.221   6.477
10198SOL     OW31492   3.797   6.714   3.483
10198SOL    HW131493   3.800   6.615   3.470
10198SOL    HW231494   3.703   6.747   3.469
10199SOL     OW31495   1.243   2.278   5.121
10199SOL    HW131496   1.179   2.340   5.167
10199SOL    HW231497   1.331   2.280   5.169
10200SOL     OW31498   5.739   2.652   1.468
10200SOL    HW131499   5.649   2.675   1.504
10200SOL    HW231500   5.777   2.575   1.519
10201SOL     OW31501   1.178   3.337   0.763
10201SOL    HW131502   1.228   3.253   0.785
10201SOL    HW231503   1.241   3.415   0.767
10202SOL     OW31504   3.633   0.479   4.933
10202SOL    HW131505   3.719   0.525   4.912
10202SOL    HW231506   3.610   0.491   5.029
10203SOL     OW31507   6.378   2.559   4.541
10203SOL    HW131508   6.468   2.537   4.503
10203SOL    HW231509   6.347   2.647   4.504
10204SOL     OW31510   5.606   5.600   6.352
10204SOL    HW131511   5.596   5.526   6.286
10204SOL    HW231512   5.521   5.652   6.357
10205SOL     OW31513   1.254   0.749   5.760
10205SOL    HW131514   1.217   0.826   5.709
10205SOL    HW231515   1.289   0.781   5.848
10206SOL     OW31516   1.348   0.797   5.086
10206SOL    HW131517   1.416   0.866   5.110
10206SOL    HW231518   1.322   0.808   4.990
10207SOL     OW31519   1.978   2.429   5.283
10207SOL    HW131520   1.917   2.504   5.310
10207SOL    HW231521   2.034   2.403   5.362
10208SOL     OW31522   6.341   4.916   5.636
10208SOL    HW131523   6.359   4.839   5.574
10208SOL    HW231524   6.420   4.928   5.697
10209SOL     OW31525   6.848   0.226   5.378
10209SOL    HW131526   6.836   0.322   5.353
10209SOL    HW231527   6.765   0.194   5.425
10210SOL     OW31528   3.257   6.824   2.034
10210SOL    HW131529   3.297   6.865   1.953
10210SOL    HW231530   3.208   6.893   2.087
10211SOL     OW31531   5.460   6.096   5.613
10211SOL    HW131532   5.366   6.075   5.587
10211SOL    HW231533   5.461   6.182   5.665
10212SOL     OW31534   0.581   0.648   6.802
10212SOL    HW131535   0.651   0.663   6.733
10212SOL    HW231536   0.495   0.623   6.758
10213SOL     OW31537   6.311   1.686   0.912
10213SOL    HW131538   6.254   1.767   0.924
10213SOL    HW231539   6.273   1.628   0.841
10214SOL     OW31540   0.897   2.181   0.172
10214SOL    HW131541   0.996   2.198   0.176
10214SOL    HW231542   0.879   2.113   0.101
10215SOL     OW31543   3.330   2.845   2.232
10215SOL    HW131544   3.296   2.907   2.161
10215SOL    HW231545   3.336   2.752   2.195
10216SOL     OW31546   0.176   6.259   2.450
10216SOL    HW131547   0.128   6.331   2.501
10216SOL    HW231548   0.185   6.178   2.508
10217SOL     OW31549   3.611   1.451   4.302
10217SOL    HW131550   3.651   1.360   4.295
10217SOL    HW231551   3.513   1.443   4.320
10218SOL     OW31552   1.469   2.899   2.699
10218SOL    HW131553   1.463   2.821   2.637
10218SOL    HW231554   1.550   2.890   2.756
10219SOL     OW31555   6.700   6.932   3.126
10219SOL    HW131556   6.762   6.880   3.185
10219SOL    HW231557   6.678   6.879   3.045
10220SOL     OW31558   3.734   2.477   0.781
10220SOL    HW131559   3.642   2.456   0.814
10220SOL    HW231560   3.775   2.546   0.841
10221SOL     OW31561   0.914   5.215   4.038
10221SOL    HW131562   0.816   5.225   4.055
10221SOL    HW231563   0.931   5.216   3.939
10222SOL     OW31564   3.010   3.820   4.373
10222SOL    HW131565   3.096   3.782   4.341
10222SOL    HW231566   2.934   3.774   4.327
10223SOL     OW31567   0.782   6.315   1.273
10223SOL    HW131568   0.821   6.254   1.343
10223SOL    HW231569   0.786   6.270   1.184
10224SOL     OW31570   6.013   4.073   2.834
10224SOL    HW131571   5.937   4.133   2.860
10224SOL    HW231572   6.093   4.094   2.889
10225SOL     OW31573   2.126   3.697   5.758
10225SOL    HW131574   2.148   3.766   5.690
10225SOL    HW231575   2.034   3.712   5.793
10226SOL     OW31576   5.225   2.717   6.805
10226SOL    HW131577   5.300   2.747   6.745
10226SOL    HW231578   5.154   2.787   6.807
10227SOL     OW31579   5.193   3.522   1.248
10227SOL    HW131580   5.115   3.474   1.290
10227SOL    HW231581   5.277   3.497   1.296
10228SOL     OW31582   5.260   0.969   0.818
10228SOL    HW131583   5.251   0.893   0.754
10228SOL    HW231584   5.181   0.971   0.879
10229SOL     OW31585   0.075   3.429   4.911
10229SOL    HW131586   0.085   3.331   4.894
10229SOL    HW231587   0.163   3.474   4.896
10230SOL     OW31588   0.205   6.406   2.046
10230SOL    HW131589   0.256   6.340   1.990
10230SOL    HW231590   0.142   6.457   1.988
10231SOL     OW31591   1.096   5.512   3.199
10231SOL    HW131592   1.100   5.612   3.206
10231SOL    HW231593   1.154   5.482   3.123
10232SOL     OW31594   4.916   4.357   3.786
10232SOL    HW131595   4.824   4.346   3.750
10232SOL    HW231596   4.924   4.446   3.831
10233SOL     OW31597   3.306   3.531   5.565
10233SOL    HW131598   3.209   3.538   5.589
10233SOL    HW231599   3.328   3.601   5.497
10234SOL     OW31600   0.547   1.138   2.575
10234SOL    HW131601   0.477   1.209   2.578
10234SOL    HW231602   0.524   1.072   2.504
10235SOL     OW31603   1.569   0.502   3.109
10235SOL    HW131604   1.514   0.585   3.118
10235SOL    HW231605   1.663   0.521   3.138
10236SOL     OW31606   2.357   6.603   2.619
10236SOL    HW131607   2.385   6.509   2.601
10236SOL    HW231608   2.439   6.662   2.621
10237SOL     OW31609   0.537   3.285   5.148
10237SOL    HW131610   0.581   3.255   5.063
10237SOL    HW231611   0.607   3.309   5.215
10238SOL     OW31612   3.326   6.993   1.798
10238SOL    HW131613   3.268   6.984   1.717
10238SOL    HW231614   3.294   0.040   1.854
10239SOL     OW31615   0.890   2.477   3.966
10239SOL    HW131616   0.809   2.533   3.979
10239SOL    HW231617   0.875   2.387   4.008
10240SOL     OW31618   2.289   6.493   0.784
10240SOL    HW131619   2.191   6.514   0.785
10240SOL    HW231620   2.341   6.578   0.792
10241SOL     OW31621   4.065   2.726   1.581
10241SOL    HW131622   4.095   2.761   1.493
10241SOL    HW231623   4.064   2.800   1.648
10242SOL     OW31624   0.018   2.671   6.551
10242SOL    HW131625   0.037   2.584   6.597
10242SOL    HW231626   7.019   2.739   6.618
10243SOL     OW31627   2.652   5.545   1.347
10243SOL    HW131628   2.640   5.627   1.292
10243SOL    HW231629   2.708   5.479   1.297
10244SOL     OW31630   2.864   4.748   1.379
10244SOL    HW131631   2.953   4.758   1.335
10244SOL    HW231632   2.872   4.684   1.456
10245SOL     OW31633   4.703   4.314   0.934
10245SOL    HW131634   4.751   4.340   1.017
10245SOL    HW231635   4.630   4.249   0.956
10246SOL     OW31636   3.568   2.896   4.103
10246SOL    HW131637   3.490   2.910   4.163
10246SOL    HW231638   3.650   2.878   4.158
10247SOL     OW31639   0.700   2.603   4.311
10247SOL    HW131640   0.709   2.645   4.221
10247SOL    HW231641   0.776   2.541   4.327
10248SOL     OW31642   1.250   1.109   4.211
10248SOL    HW131643   1.189   1.179   4.174
10248SOL    HW231644   1.294   1.060   4.136
10249SOL     OW31645   2.807   5.099   5.919
10249SOL    HW131646   2.771   5.034   5.851
10249SOL    HW231647   2.875   5.158   5.874
10250SOL     OW31648   4.114   2.502   1.043
10250SOL    HW131649   4.208   2.515   1.014
10250SOL    HW231650   4.096   2.558   1.124
10251SOL     OW31651   1.613   0.638   4.376
10251SOL    HW131652   1.622   0.635   4.476
10251SOL    HW231653   1.565   0.556   4.345
10252SOL     OW31654   5.287   4.636   6.452
10252SOL    HW131655   5.285   4.536   6.450
10252SOL    HW231656   5.357   4.669   6.390
10253SOL     OW31657   3.637   5.855   6.356
10253SOL    HW131658   3.571   5.926   6.380
10253SOL    HW231659   3.688   5.829   6.438
10254SOL     OW31660   5.888   1.641   6.018
10254SOL    HW131661   5.928   1.593   5.939
10254SOL    HW231662   5.789   1.643   6.008
10255SOL     OW31663   4.172   4.440   1.470
10255SOL    HW131664   4.124   4.380   1.406
10255SOL    HW231665   4.247   4.486   1.422
10256SOL     OW31666   3.889   1.345   3.495
10256SOL    HW131667   3.988   1.352   3.494
10256SOL    HW231668   3.862   1.254   3.463
10257SOL     OW31669   3.984   5.808   3.035
10257SOL    HW131670   4.055   5.751   2.995
10257SOL    HW231671   3.977   5.894   2.984
10258SOL     OW31672   1.804   1.449   1.819
10258SOL    HW131673   1.731   1.511   1.790
10258SOL    HW231674   1.831   1.469   1.913
10259SOL     OW31675   2.235   4.099   4.209
10259SOL    HW131676   2.238   4.179   4.269
10259SOL    HW231677   2.221   4.017   4.263
10260SOL     OW31678   0.999   0.676   3.358
10260SOL    HW131679   1.073   0.691   3.293
10260SOL    HW231680   1.002   0.582   3.392
10261SOL     OW31681   0.040   3.770   1.009
10261SOL    HW131682   6.981   3.769   1.057
10261SOL    HW231683   0.026   3.755   0.912
10262SOL     OW31684   4.368   1.529   0.756
10262SOL    HW131685   4.328   1.568   0.839
10262SOL    HW231686   4.301   1.534   0.681
10263SOL     OW31687   5.823   1.211   2.373
10263SOL    HW131688   5.902   1.164   2.412
10263SOL    HW231689   5.834   1.310   2.384
10264SOL     OW31690   6.711   6.428   6.593
10264SOL    HW131691   6.645   6.488   6.637
10264SOL    HW231692   6.702   6.335   6.630
10265SOL     OW31693   2.049   2.098   0.748
10265SOL    HW131694   1.954   2.114   0.778
10265SOL    HW231695   2.111   2.120   0.823
10266SOL     OW31696   2.593   3.561   1.714
10266SOL    HW131697   2.504   3.535   1.752
10266SOL    HW231698   2.664   3.506   1.757
10267SOL     OW31699   5.641   0.824   1.486
10267SOL    HW131700   5.736   0.795   1.472
10267SOL    HW231701   5.639   0.922   1.506
10268SOL     OW31702   3.678   6.395   1.778
10268SOL    HW131703   3.604   6.444   1.732
10268SOL    HW231704   3.766   6.435   1.752
10269SOL     OW31705   3.110   2.479   0.620
10269SOL    HW131706   3.016   2.453   0.643
10269SOL    HW231707   3.153   2.406   0.567
10270SOL     OW31708   2.998   0.497   3.244
10270SOL    HW131709   2.924   0.491   3.177
10270SOL    HW231710   3.086   0.499   3.196
10271SOL     OW31711   1.746   1.805   6.313
10271SOL    HW131712   1.744   1.905   6.314
10271SOL    HW231713   1.705   1.770   6.397
10272SOL     OW31714   6.223   0.093   4.275
10272SOL    HW131715   6.224   0.151   4.357
10272SOL    HW231716   6.186   0.003   4.299
10273SOL     OW31717   2.231   5.231   3.643
10273SOL    HW131718   2.197   5.325   3.641
10273SOL    HW231719   2.187   5.181   3.717
10274SOL     OW31720   0.880   4.815   5.356
10274SOL    HW131721   0.802   4.856   5.404
10274SOL    HW231722   0.848   4.742   5.295
10275SOL     OW31723   6.753   0.663   2.353
10275SOL    HW131724   6.818   0.691   2.282
10275SOL    HW231725   6.747   0.735   2.422
10276SOL     OW31726   3.644   5.541   5.113
10276SOL    HW131727   3.671   5.607   5.044
10276SOL    HW231728   3.683   5.451   5.091
10277SOL     OW31729   0.623   5.891   3.962
10277SOL    HW131730   0.645   5.835   4.041
10277SOL    HW231731   0.701   5.894   3.900
10278SOL     OW31732   6.908   6.856   4.922
10278SOL    HW131733   6.977   6.790   4.894
10278SOL    HW231734   6.951   6.929   4.976
10279SOL     OW31735   2.228   6.606   4.275
10279SOL    HW131736   2.138   6.649   4.280
10279SOL    HW231737   2.279   6.644   4.198
10280SOL     OW31738   6.131   4.503   0.313
10280SOL    HW131739   6.184   4.519   0.397
10280SOL    HW231740   6.147   4.410   0.280
10281SOL     OW31741   6.313   1.300   3.563
10281SOL    HW131742   6.297   1.212   3.607
10281SOL    HW231743   6.225   1.342   3.540
10282SOL     OW31744   5.254   3.441   3.471
10282SOL    HW131745   5.198   3.428   3.553
10282SOL    HW231746   5.219   3.519   3.419
10283SOL     OW31747   0.853   2.696   0.831
10283SOL    HW131748   0.916   2.752   0.777
10283SOL    HW231749   0.837   2.610   0.784
10284SOL     OW31750   0.270   3.718   3.910
10284SOL    HW131751   0.209   3.691   3.985
10284SOL    HW231752   0.284   3.817   3.912
10285SOL     OW31753   6.050   5.757   5.556
10285SOL    HW131754   5.960   5.725   5.583
10285SOL    HW231755   6.113   5.679   5.550
10286SOL     OW31756   3.127   1.080   3.121
10286SOL    HW131757   3.123   1.077   3.221
10286SOL    HW231758   3.066   1.009   3.084
10287SOL     OW31759   2.122   5.479   3.056
10287SOL    HW131760   2.081   5.426   3.129
10287SOL    HW231761   2.192   5.540   3.094
10288SOL     OW31762   3.706   6.612   5.211
10288SOL    HW131763   3.631   6.594   5.274
10288SOL    HW231764   3.749   6.699   5.234
10289SOL     OW31765   3.590   5.432   0.183
10289SOL    HW131766   3.661   5.415   0.252
10289SOL    HW231767   3.538   5.513   0.209
10290SOL     OW31768   3.575   2.998   1.803
10290SOL    HW131769   3.629   3.070   1.845
10290SOL    HW231770   3.630   2.951   1.734
10291SOL     OW31771   2.097   1.550   2.166
10291SOL    HW131772   2.148   1.469   2.137
10291SOL    HW231773   2.150   1.632   2.144
10292SOL     OW31774   6.741   7.017   5.631
10292SOL    HW131775   6.675   7.003   5.704
10292SOL    HW231776   6.811   6.945   5.634
10293SOL     OW31777   1.186   4.128   4.802
10293SOL    HW131778   1.192   4.227   4.816
10293SOL    HW231779   1.224   4.081   4.881
10294SOL     OW31780   3.359   1.554   2.095
10294SOL    HW131781   3.327   1.467   2.056
10294SOL    HW231782   3.442   1.582   2.048
10295SOL     OW31783   1.427   1.884   6.689
10295SOL    HW131784   1.457   1.975   6.716
10295SOL    HW231785   1.330   1.873   6.708
10296SOL     OW31786   6.218   1.245   5.597
10296SOL    HW131787   6.273   1.299   5.660
10296SOL    HW231788   6.274   1.220   5.517
10297SOL     OW31789   3.340   1.012   6.681
10297SOL    HW131790   3.353   0.937   6.747
10297SOL    HW231791   3.426   1.063   6.672
10298SOL     OW31792   0.381   2.407   2.261
10298SOL    HW131793   0.417   2.486   2.311
10298SOL    HW231794   0.377   2.428   2.163
10299SOL     OW31795   4.170   6.275   2.860
10299SOL    HW131796   4.267   6.268   2.836
10299SOL    HW231797   4.137   6.366   2.835
10300SOL     OW31798   1.058   4.104   1.719
10300SOL    HW131799   1.148   4.076   1.753
10300SOL    HW231800   1.029   4.041   1.646
10301SOL     OW31801   3.833   0.367   6.698
10301SOL    HW131802   3.787   0.405   6.778
10301SOL    HW231803   3.878   0.442   6.648
10302SOL     OW31804   3.017   6.268   4.900
10302SOL    HW131805   3.080   6.345   4.914
10302SOL    HW231806   2.941   6.297   4.843
10303SOL     OW31807   0.487   5.675   4.549
10303SOL    HW131808   0.429   5.721   4.616
10303SOL    HW231809   0.581   5.672   4.583
10304SOL     OW31810   6.201   6.155   0.747
10304SOL    HW131811   6.252   6.079   0.787
10304SOL    HW231812   6.130   6.185   0.810
10305SOL     OW31813   3.331   4.309   5.813
10305SOL    HW131814   3.307   4.403   5.794
10305SOL    HW231815   3.339   4.258   5.727
10306SOL     OW31816   4.070   0.513   0.920
10306SOL    HW131817   4.170   0.506   0.921
10306SOL    HW231818   4.040   0.559   0.836
10307SOL     OW31819   2.212   0.263   5.783
10307SOL    HW131820   2.243   0.356   5.801
10307SOL    HW231821   2.160   0.230   5.862
10308SOL     OW31822   2.642   5.178   2.440
10308SOL    HW131823   2.643   5.275   2.464
10308SOL    HW231824   2.728   5.154   2.396
10309SOL     OW31825   0.128   1.452   4.770
10309SOL    HW131826   0.116   1.550   4.785
10309SOL    HW231827   0.188   1.438   4.691
10310SOL     OW31828   1.955   3.976   5.652
10310SOL    HW131829   2.026   3.952   5.585
10310SOL    HW231830   1.947   4.075   5.657
10311SOL     OW31831   4.690   5.756   6.565
10311SOL    HW131832   4.785   5.730   6.582
10311SOL    HW231833   4.631   5.718   6.636
10312SOL     OW31834   4.403   0.540   1.904
10312SOL    HW131835   4.332   0.610   1.894
10312SOL    HW231836   4.384   0.464   1.842
10313SOL     OW31837   5.404   6.875   3.326
10313SOL    HW131838   5.379   6.812   3.399
10313SOL    HW231839   5.383   6.834   3.237
10314SOL     OW31840   0.401   0.382   0.715
10314SOL    HW131841   0.315   0.432   0.707
10314SOL    HW231842   0.391   0.292   0.672
10315SOL     OW31843   5.564   4.938   3.717
10315SOL    HW131844   5.649   4.932   3.665
10315SOL    HW231845   5.582   4.977   3.807
10316SOL     OW31846   0.488   1.894   6.825
10316SOL    HW131847   0.509   1.814   6.882
10316SOL    HW231848   0.417   1.949   6.870
10317SOL     OW31849   3.744   6.006   4.923
10317SOL    HW131850   3.718   6.086   4.978
10317SOL    HW231851   3.797   6.036   4.844
10318SOL     OW31852   6.540   6.764   0.411
10318SOL    HW131853   6.621   6.788   0.465
10318SOL    HW231854   6.526   6.665   0.415
10319SOL     OW31855   0.791   4.102   3.748
10319SOL    HW131856   0.693   4.117   3.766
10319SOL    HW231857   0.845   4.168   3.800
10320SOL     OW31858   0.280   6.221   3.798
10320SOL    HW131859   0.367   6.174   3.815
10320SOL    HW231860   0.275   6.249   3.702
10321SOL     OW31861   5.078   2.788   2.154
10321SOL    HW131862   5.164   2.825   2.120
10321SOL    HW231863   5.095   2.739   2.240
10322SOL     OW31864   4.602   4.334   5.035
10322SOL    HW131865   4.587   4.286   5.121
10322SOL    HW231866   4.518   4.381   5.007
10323SOL     OW31867   0.876   4.315   5.574
10323SOL    HW131868   0.912   4.406   5.557
10323SOL    HW231869   0.903   4.254   5.500
10324SOL     OW31870   3.053   3.445   1.841
10324SOL    HW131871   3.025   3.537   1.868
10324SOL    HW231872   3.088   3.396   1.921
10325SOL     OW31873   6.624   5.473   3.516
10325SOL    HW131874   6.675   5.415   3.453
10325SOL    HW231875   6.562   5.417   3.571
10326SOL     OW31876   5.586   3.583   6.858
10326SOL    HW131877   5.490   3.582   6.830
10326SOL    HW231878   5.626   3.672   6.835
10327SOL     OW31879   2.282   4.509   1.065
10327SOL    HW131880   2.230   4.578   1.115
10327SOL    HW231881   2.380   4.525   1.077
10328SOL     OW31882   5.814   2.272   2.156
10328SOL    HW131883   5.815   2.366   2.191
10328SOL    HW231884   5.801   2.275   2.057
10329SOL     OW31885   3.583   1.652   3.055
10329SOL    HW131886   3.552   1.561   3.028
10329SOL    HW231887   3.608   1.704   2.973
10330SOL     OW31888   4.602   1.386   1.446
10330SOL    HW131889   4.670   1.425   1.383
10330SOL    HW231890   4.612   1.429   1.535
10331SOL     OW31891   6.115   5.184   6.458
10331SOL    HW131892   6.118   5.138   6.369
10331SOL    HW231893   6.023   5.175   6.497
10332SOL     OW31894   1.719   1.042   6.547
10332SOL    HW131895   1.725   1.141   6.537
10332SOL    HW231896   1.696   1.000   6.459
10333SOL     OW31897   0.942   4.544   4.407
10333SOL    HW131898   0.987   4.456   4.394
10333SOL    HW231899   0.856   4.546   4.358
10334SOL     OW31900   3.544   0.484   3.491
10334SOL    HW131901   3.514   0.452   3.581
10334SOL    HW231902   3.617   0.551   3.502
10335SOL     OW31903   0.986   2.359   5.251
10335SOL    HW131904   0.957   2.303   5.173
10335SOL    HW231905   0.925   2.342   5.328
10336SOL     OW31906   5.346   6.684   3.527
10336SOL    HW131907   5.269   6.728   3.574
10336SOL    HW231908   5.317   6.595   3.493
10337SOL     OW31909   6.230   5.436   6.831
10337SOL    HW131910   6.139   5.412   6.795
10337SOL    HW231911   6.259   5.523   6.794
10338SOL     OW31912   1.577   6.304   1.848
10338SOL    HW131913   1.669   6.306   1.808
10338SOL    HW231914   1.583   6.311   1.947
10339SOL     OW31915   6.226   2.727   5.620
10339SOL    HW131916   6.137   2.749   5.581
10339SOL    HW231917   6.222   2.636   5.662
10340SOL     OW31918   2.318   3.395   6.353
10340SOL    HW131919   2.327   3.330   6.277
10340SOL    HW231920   2.408   3.430   6.377
10341SOL     OW31921   2.196   3.054   3.014
10341SOL    HW131922   2.276   3.038   3.072
10341SOL    HW231923   2.204   3.000   2.930
10342SOL     OW31924   0.591   0.939   3.926
10342SOL    HW131925   0.584   0.913   3.830
10342SOL    HW231926   0.655   0.878   3.973
10343SOL     OW31927   3.345   5.555   2.194
10343SOL    HW131928   3.370   5.525   2.102
10343SOL    HW231929   3.424   5.599   2.237
10344SOL     OW31930   4.272   5.879   5.764
10344SOL    HW131931   4.255   5.970   5.802
10344SOL    HW231932   4.265   5.883   5.664
10345SOL     OW31933   2.086   3.597   4.257
10345SOL    HW131934   2.115   3.610   4.351
10345SOL    HW231935   2.081   3.499   4.237
10346SOL     OW31936   6.717   5.958   0.321
10346SOL    HW131937   6.638   5.898   0.331
10346SOL    HW231938   6.755   5.980   0.411
10347SOL     OW31939   5.064   1.860   4.110
10347SOL    HW131940   5.142   1.799   4.125
10347SOL    HW231941   5.086   1.923   4.035
10348SOL     OW31942   6.730   4.241   0.793
10348SOL    HW131943   6.763   4.229   0.699
10348SOL    HW231944   6.723   4.151   0.837
10349SOL     OW31945   0.979   6.999   6.547
10349SOL    HW131946   0.880   7.012   6.541
10349SOL    HW231947   1.020   0.046   6.597
10350SOL     OW31948   3.323   6.886   6.376
10350SOL    HW131949   3.247   6.826   6.401
10350SOL    HW231950   3.378   6.843   6.304
10351SOL     OW31951   4.427   5.328   6.819
10351SOL    HW131952   4.404   5.416   6.780
10351SOL    HW231953   4.432   5.259   6.747
10352SOL     OW31954   3.205   3.539   6.428
10352SOL    HW131955   3.187   3.485   6.510
10352SOL    HW231956   3.265   3.615   6.450
10353SOL     OW31957   1.075   2.440   4.718
10353SOL    HW131958   1.034   2.446   4.809
10353SOL    HW231959   1.130   2.522   4.700
10354SOL     OW31960   5.771   1.862   1.391
10354SOL    HW131961   5.708   1.863   1.468
10354SOL    HW231962   5.746   1.788   1.328
10355SOL     OW31963   1.409   4.972   2.313
10355SOL    HW131964   1.483   4.915   2.277
10355SOL    HW231965   1.420   4.982   2.412
10356SOL     OW31966   7.028   2.686   4.586
10356SOL    HW131967   6.959   2.739   4.536
10356SOL    HW231968   0.084   2.739   4.593
10357SOL     OW31969   2.891   2.256   0.336
10357SOL    HW131970   2.972   2.212   0.297
10357SOL    HW231971   2.848   2.314   0.268
10358SOL     OW31972   0.262   1.514   2.143
10358SOL    HW131973   0.260   1.554   2.052
10358SOL    HW231974   0.299   1.421   2.138
10359SOL     OW31975   0.482   1.202   1.375
10359SOL    HW131976   0.457   1.278   1.435
10359SOL    HW231977   0.407   1.185   1.311
10360SOL     OW31978   6.512   6.203   3.189
10360SOL    HW131979   6.607   6.193   3.217
10360SOL    HW231980   6.506   6.261   3.108
10361SOL     OW31981   1.938   4.820   1.451
10361SOL    HW131982   1.846   4.857   1.451
10361SOL    HW231983   1.950   4.759   1.530
10362SOL     OW31984   1.410   5.052   4.415
10362SOL    HW131985   1.346   5.129   4.406
10362SOL    HW231986   1.447   5.051   4.508
10363SOL     OW31987   5.946   0.161   3.503
10363SOL    HW131988   5.933   0.257   3.526
10363SOL    HW231989   5.860   0.122   3.470
10364SOL     OW31990   1.314   4.600   1.210
10364SOL    HW131991   1.322   4.648   1.297
10364SOL    HW231992   1.235   4.539   1.213
10365SOL     OW31993   4.552   6.135   0.075
10365SOL    HW131994   4.510   6.109   0.162
10365SOL    HW231995   4.638   6.085   0.064
10366SOL     OW31996   3.644   0.007   3.726
10366SOL    HW131997   3.696   0.029   3.809
10366SOL    HW231998   3.708   7.014   3.652
10367SOL     OW31999   6.599   2.016   2.918
10367SOL    HW132000   6.577   2.112   2.929
10367SOL    HW232001   6.526   1.960   2.955
10368SOL     OW32002   2.733   0.315   1.218
10368SOL    HW132003   2.659   0.370   1.180
10368SOL    HW232004   2.821   0.361   1.201
10369SOL     OW32005   4.602   3.135   0.179
10369SOL    HW132006   4.602   3.061   0.246
10369SOL    HW232007   4.509   3.151   0.147
10370SOL     OW32008   3.786   0.570   5.523
10370SOL    HW132009   3.807   0.584   5.427
10370SOL    HW232010   3.741   0.651   5.560
10371SOL     OW32011   5.133   6.590   5.595
10371SOL    HW132012   5.106   6.602   5.690
10371SOL    HW232013   5.098   6.667   5.541
10372SOL     OW32014   0.997   0.481   3.553
10372SOL    HW132015   0.970   0.479   3.649
10372SOL    HW232016   0.972   0.394   3.510
10373SOL     OW32017   1.603   5.405   4.998
10373SOL    HW132018   1.550   5.335   4.950
10373SOL    HW232019   1.560   5.494   4.985
10374SOL     OW32020   2.975   2.179   4.678
10374SOL    HW132021   3.057   2.132   4.711
10374SOL    HW232022   2.917   2.204   4.755
10375SOL     OW32023   0.096   2.097   0.569
10375SOL    HW132024   0.052   2.010   0.544
10375SOL    HW232025   0.136   2.088   0.660
10376SOL     OW32026   6.407   0.799   3.609
10376SOL    HW132027   6.338   0.786   3.537
10376SOL    HW232028   6.497   0.773   3.574
10377SOL     OW32029   0.712   6.843   4.365
10377SOL    HW132030   0.736   6.901   4.442
10377SOL    HW232031   0.635   6.884   4.315
10378SOL     OW32032   6.710   6.876   5.879
10378SOL    HW132033   6.690   6.869   5.976
10378SOL    HW232034   6.802   6.841   5.861
10379SOL     OW32035   5.411   1.689   4.606
10379SOL    HW132036   5.367   1.779   4.605
10379SOL    HW232037   5.403   1.647   4.516
10380SOL     OW32038   4.501   1.082   3.218
10380SOL    HW132039   4.463   0.997   3.181
10380SOL    HW232040   4.598   1.089   3.193
10381SOL     OW32041   4.082   5.099   4.958
10381SOL    HW132042   4.144   5.172   4.929
10381SOL    HW232043   4.115   5.058   5.042
10382SOL     OW32044   1.794   6.160   0.538
10382SOL    HW132045   1.729   6.102   0.489
10382SOL    HW232046   1.763   6.175   0.632
10383SOL     OW32047   5.653   2.720   6.763
10383SOL    HW132048   5.710   2.642   6.790
10383SOL    HW232049   5.708   2.803   6.760
10384SOL     OW32050   6.130   0.381   0.038
10384SOL    HW132051   6.175   0.453   0.091
10384SOL    HW232052   6.035   0.407   0.021
10385SOL     OW32053   5.497   2.282   6.880
10385SOL    HW132054   5.482   2.315   6.974
10385SOL    HW232055   5.588   2.309   6.850
10386SOL     OW32056   6.467   2.253   6.429
10386SOL    HW132057   6.414   2.169   6.442
10386SOL    HW232058   6.530   2.242   6.352
10387SOL     OW32059   2.137   3.776   2.646
10387SOL    HW132060   2.115   3.687   2.606
10387SOL    HW232061   2.091   3.849   2.595
10388SOL     OW32062   1.548   4.601   2.507
10388SOL    HW132063   1.580   4.587   2.413
10388SOL    HW232064   1.597   4.678   2.547
10389SOL     OW32065   0.608   5.584   3.417
10389SOL    HW132066   0.658   5.603   3.333
10389SOL    HW232067   0.582   5.488   3.420
10390SOL     OW32068   1.931   3.137   3.163
10390SOL    HW132069   2.017   3.091   3.141
10390SOL    HW232070   1.945   3.236   3.160
10391SOL     OW32071   3.399   6.262   4.941
10391SOL    HW132072   3.311   6.291   4.902
10391SOL    HW232073   3.404   6.162   4.941
10392SOL     OW32074   6.896   4.948   6.811
10392SOL    HW132075   6.895   5.002   6.896
10392SOL    HW232076   6.803   4.945   6.773
10393SOL     OW32077   1.201   1.124   3.700
10393SOL    HW132078   1.121   1.184   3.693
10393SOL    HW232079   1.284   1.176   3.680
10394SOL     OW32080   2.636   6.655   0.319
10394SOL    HW132081   2.735   6.667   0.318
10394SOL    HW232082   2.615   6.558   0.335
10395SOL     OW32083   1.313   1.510   4.944
10395SOL    HW132084   1.347   1.582   4.883
10395SOL    HW232085   1.273   1.552   5.025
10396SOL     OW32086   0.603   6.902   5.011
10396SOL    HW132087   0.646   6.825   5.057
10396SOL    HW232088   0.555   6.870   4.929
10397SOL     OW32089   4.005   2.099   2.653
10397SOL    HW132090   3.910   2.092   2.682
10397SOL    HW232091   4.048   2.009   2.658
10398SOL     OW32092   6.551   3.469   2.500
10398SOL    HW132093   6.628   3.407   2.513
10398SOL    HW232094   6.576   3.560   2.533
10399SOL     OW32095   5.995   2.840   5.515
10399SOL    HW132096   5.956   2.910   5.575
10399SOL    HW232097   6.012   2.880   5.425
10400SOL     OW32098   1.904   4.550   1.669
10400SOL    HW132099   1.956   4.466   1.651
10400SOL    HW232100   1.891   4.561   1.767
10401SOL     OW32101   0.662   5.736   0.789
10401SOL    HW132102   0.586   5.702   0.733
10401SOL    HW232103   0.645   5.712   0.885
10402SOL     OW32104   0.712   2.279   4.277
10402SOL    HW132105   0.657   2.336   4.339
10402SOL    HW232106   0.780   2.229   4.330
10403SOL     OW32107   4.637   1.018   2.282
10403SOL    HW132108   4.716   1.046   2.227
10403SOL    HW232109   4.575   0.963   2.225
10404SOL     OW32110   0.070   0.048   3.957
10404SOL    HW132111   0.157   0.030   3.912
10404SOL    HW232112   0.020   6.991   3.969
10405SOL     OW32113   2.384   6.486   6.544
10405SOL    HW132114   2.378   6.387   6.561
10405SOL    HW232115   2.325   6.534   6.608
10406SOL     OW32116   1.894   6.139   5.868
10406SOL    HW132117   1.992   6.136   5.848
10406SOL    HW232118   1.850   6.057   5.830
10407SOL     OW32119   2.000   1.460   5.936
10407SOL    HW132120   1.955   1.497   6.017
10407SOL    HW232121   2.051   1.533   5.890
10408SOL     OW32122   3.904   6.124   3.245
10408SOL    HW132123   3.916   6.214   3.202
10408SOL    HW232124   3.811   6.092   3.229
10409SOL     OW32125   6.704   4.518   2.285
10409SOL    HW132126   6.780   4.557   2.337
10409SOL    HW232127   6.706   4.418   2.293
10410SOL     OW32128   5.719   6.205   0.471
10410SOL    HW132129   5.636   6.197   0.526
10410SOL    HW232130   5.791   6.147   0.510
10411SOL     OW32131   1.812   4.492   2.589
10411SOL    HW132132   1.713   4.509   2.587
10411SOL    HW232133   1.849   4.521   2.677
10412SOL     OW32134   0.127   2.037   6.657
10412SOL    HW132135   0.047   2.095   6.643
10412SOL    HW232136   0.099   1.941   6.662
10413SOL     OW32137   0.072   2.295   5.890
10413SOL    HW132138   0.053   2.393   5.882
10413SOL    HW232139   0.152   2.282   5.948
10414SOL     OW32140   5.680   6.448   4.937
10414SOL    HW132141   5.599   6.412   4.891
10414SOL    HW232142   5.652   6.491   5.023
10415SOL     OW32143   0.399   5.531   3.178
10415SOL    HW132144   0.333   5.606   3.185
10415SOL    HW232145   0.491   5.568   3.169
10416SOL     OW32146   4.903   6.778   7.011
10416SOL    HW132147   4.806   6.803   7.022
10416SOL    HW232148   4.960   6.859   7.018
10417SOL     OW32149   4.119   4.847   4.150
10417SOL    HW132150   4.195   4.807   4.202
10417SOL    HW232151   4.071   4.913   4.207
10418SOL     OW32152   6.553   3.676   0.161
10418SOL    HW132153   6.552   3.773   0.182
10418SOL    HW232154   6.483   3.629   0.214
10419SOL     OW32155   1.925   0.590   4.242
10419SOL    HW132156   1.841   0.645   4.237
10419SOL    HW232157   1.902   0.498   4.274
10420SOL     OW32158   5.724   3.226   4.372
10420SOL    HW132159   5.776   3.202   4.453
10420SOL    HW232160   5.701   3.323   4.374
10421SOL     OW32161   1.500   4.453   3.822
10421SOL    HW132162   1.445   4.498   3.892
10421SOL    HW232163   1.575   4.402   3.866
10422SOL     OW32164   5.585   3.307   5.212
10422SOL    HW132165   5.616   3.383   5.269
10422SOL    HW232166   5.659   3.279   5.150
10423SOL     OW32167   2.664   5.309   3.867
10423SOL    HW132168   2.594   5.338   3.803
10423SOL    HW232169   2.622   5.262   3.945
10424SOL     OW32170   3.754   1.196   1.366
10424SOL    HW132171   3.795   1.145   1.442
10424SOL    HW232172   3.730   1.132   1.294
10425SOL     OW32173   1.695   3.815   0.319
10425SOL    HW132174   1.734   3.803   0.410
10425SOL    HW232175   1.733   3.745   0.257
10426SOL     OW32176   5.816   2.428   6.214
10426SOL    HW132177   5.871   2.429   6.298
10426SOL    HW232178   5.822   2.338   6.171
10427SOL     OW32179   5.700   0.894   3.138
10427SOL    HW132180   5.768   0.932   3.076
10427SOL    HW232181   5.746   0.851   3.215
10428SOL     OW32182   1.743   6.600   5.119
10428SOL    HW132183   1.827   6.620   5.169
10428SOL    HW232184   1.685   6.541   5.175
10429SOL     OW32185   1.622   3.725   1.575
10429SOL    HW132186   1.544   3.720   1.637
10429SOL    HW232187   1.693   3.783   1.615
10430SOL     OW32188   3.296   0.347   4.620
10430SOL    HW132189   3.375   0.342   4.558
10430SOL    HW232190   3.239   0.266   4.607
10431SOL     OW32191   4.097   1.296   4.130
10431SOL    HW132192   4.100   1.207   4.175
10431SOL    HW232193   4.155   1.361   4.179
10432SOL     OW32194   1.098   5.457   0.358
10432SOL    HW132195   1.104   5.366   0.315
10432SOL    HW232196   1.089   5.447   0.457
10433SOL     OW32197   3.996   6.414   3.615
10433SOL    HW132198   3.961   6.394   3.706
10433SOL    HW232199   3.919   6.426   3.552
10434SOL     OW32200   4.023   1.076   6.375
10434SOL    HW132201   4.002   1.040   6.466
10434SOL    HW232202   3.977   1.164   6.363
10435SOL     OW32203   2.512   1.804   1.297
10435SOL    HW132204   2.561   1.720   1.272
10435SOL    HW232205   2.490   1.855   1.214
10436SOL     OW32206   1.247   3.355   4.944
10436SOL    HW132207   1.229   3.275   4.887
10436SOL    HW232208   1.178   3.425   4.926
10437SOL     OW32209   6.951   6.325   5.127
10437SOL    HW132210   6.960   6.406   5.070
10437SOL    HW232211   7.018   6.327   5.200
10438SOL     OW32212   6.831   5.908   6.666
10438SOL    HW132213   6.814   5.971   6.742
10438SOL    HW232214   6.796   5.947   6.581
10439SOL     OW32215   6.350   5.406   4.912
10439SOL    HW132216   6.385   5.402   5.006
10439SOL    HW232217   6.284   5.481   4.904
10440SOL     OW32218   5.972   2.214   1.409
10440SOL    HW132219   5.971   2.128   1.357
10440SOL    HW232220   6.033   2.204   1.488
10441SOL     OW32221   4.430   1.856   7.018
10441SOL    HW132222   4.358   1.842   6.950
10441SOL    HW232223   4.518   1.826   6.981
10442SOL     OW32224   2.557   1.397   5.016
10442SOL    HW132225   2.608   1.480   5.038
10442SOL    HW232226   2.620   1.319   5.012
10443SOL     OW32227   1.012   0.594   0.675
10443SOL    HW132228   1.031   0.611   0.579
10443SOL    HW232229   1.052   0.506   0.702
10444SOL     OW32230   4.623   4.906   3.509
10444SOL    HW132231   4.721   4.892   3.524
10444SOL    HW232232   4.572   4.829   3.545
10445SOL     OW32233   1.230   3.151   3.834
10445SOL    HW132234   1.221   3.190   3.926
10445SOL    HW232235   1.144   3.166   3.784
10446SOL     OW32236   2.386   4.714   5.309
10446SOL    HW132237   2.319   4.788   5.315
10446SOL    HW232238   2.338   4.627   5.300
10447SOL     OW32239   0.861   1.913   2.844
10447SOL    HW132240   0.845   1.953   2.753
10447SOL    HW232241   0.949   1.866   2.844
10448SOL     OW32242   1.516   5.913   2.372
10448SOL    HW132243   1.424   5.920   2.333
10448SOL    HW232244   1.532   5.989   2.435
10449SOL     OW32245   3.950   5.123   4.322
10449SOL    HW132246   4.031   5.182   4.322
10449SOL    HW232247   3.925   5.100   4.228
10450SOL     OW32248   0.471   1.435   4.309
10450SOL    HW132249   0.517   1.357   4.351
10450SOL    HW232250   0.539   1.495   4.267
10451SOL     OW32251   3.339   2.134   4.297
10451SOL    HW132252   3.430   2.109   4.263
10451SOL    HW232253   3.342   2.141   4.397
10452SOL     OW32254   6.643   2.744   4.418
10452SOL    HW132255   6.733   2.787   4.408
10452SOL    HW232256   6.644   2.654   4.375
10453SOL     OW32257   4.011   6.179   4.167
10453SOL    HW132258   4.032   6.178   4.069
10453SOL    HW232259   3.918   6.144   4.181
10454SOL     OW32260   6.525   0.756   6.381
10454SOL    HW132261   6.426   0.739   6.382
10454SOL    HW232262   6.572   0.676   6.344
10455SOL     OW32263   0.386   5.764   2.781
10455SOL    HW132264   0.347   5.744   2.691
10455SOL    HW232265   0.470   5.816   2.771
10456SOL     OW32266   0.826   5.545   6.366
10456SOL    HW132267   0.859   5.603   6.440
10456SOL    HW232268   0.883   5.463   6.359
10457SOL     OW32269   4.020   1.675   6.565
10457SOL    HW132270   4.040   1.680   6.663
10457SOL    HW232271   4.090   1.621   6.520
10458SOL     OW32272   1.294   6.432   6.747
10458SOL    HW132273   1.285   6.528   6.775
10458SOL    HW232274   1.339   6.380   6.819
10459SOL     OW32275   6.268   5.653   1.103
10459SOL    HW132276   6.326   5.664   1.184
10459SOL    HW232277   6.179   5.696   1.120
10460SOL     OW32278   6.473   0.872   0.531
10460SOL    HW132279   6.495   0.959   0.575
10460SOL    HW232280   6.461   0.801   0.600
10461SOL     OW32281   6.957   4.285   6.256
10461SOL    HW132282   6.994   4.274   6.349
10461SOL    HW232283   6.960   4.381   6.229
10462SOL     OW32284   3.217   4.021   6.356
10462SOL    HW132285   3.297   3.994   6.302
10462SOL    HW232286   3.141   4.042   6.294
10463SOL     OW32287   5.011   3.057   6.419
10463SOL    HW132288   5.065   3.119   6.476
10463SOL    HW232289   5.073   2.994   6.372
10464SOL     OW32290   6.566   4.498   1.735
10464SOL    HW132291   6.505   4.451   1.671
10464SOL    HW232292   6.636   4.549   1.684
10465SOL     OW32293   5.943   5.021   1.258
10465SOL    HW132294   6.027   5.073   1.248
10465SOL    HW232295   5.934   4.990   1.353
10466SOL     OW32296   5.765   3.984   5.990
10466SOL    HW132297   5.834   3.940   5.933
10466SOL    HW232298   5.695   4.025   5.932
10467SOL     OW32299   0.012   2.442   6.692
10467SOL    HW132300   0.099   2.444   6.740
10467SOL    HW232301   6.982   2.372   6.732
10468SOL     OW32302   1.514   4.532   4.679
10468SOL    HW132303   1.517   4.632   4.681
10468SOL    HW232304   1.584   4.495   4.740
10469SOL     OW32305   0.917   1.579   3.728
10469SOL    HW132306   0.960   1.661   3.766
10469SOL    HW232307   0.822   1.574   3.758
10470SOL     OW32308   2.165   3.771   2.236
10470SOL    HW132309   2.144   3.836   2.309
10470SOL    HW232310   2.153   3.678   2.269
10471SOL     OW32311   2.129   5.781   6.432
10471SOL    HW132312   2.116   5.819   6.523
10471SOL    HW232313   2.212   5.724   6.430
10472SOL     OW32314   4.002   5.244   6.354
10472SOL    HW132315   3.946   5.242   6.437
10472SOL    HW232316   4.046   5.333   6.346
10473SOL     OW32317   6.383   4.602   0.828
10473SOL    HW132318   6.409   4.510   0.798
10473SOL    HW232319   6.356   4.657   0.749
10474SOL     OW32320   6.473   6.737   5.047
10474SOL    HW132321   6.528   6.813   5.083
10474SOL    HW232322   6.381   6.770   5.026
10475SOL     OW32323   0.899   5.515   1.587
10475SOL    HW132324   0.935   5.434   1.540
10475SOL    HW232325   0.885   5.589   1.521
10476SOL     OW32326   5.163   6.521   1.247
10476SOL    HW132327   5.154   6.479   1.157
10476SOL    HW232328   5.193   6.452   1.313
10477SOL     OW32329   6.867   5.723   3.773
10477SOL    HW132330   6.787   5.773   3.805
10477SOL    HW232331   6.939   5.727   3.842
10478SOL     OW32332   6.901   0.966   6.468
10478SOL    HW132333   6.861   0.881   6.503
10478SOL    HW232334   6.972   0.998   6.532
10479SOL     OW32335   0.617   3.052   2.232
10479SOL    HW132336   0.610   2.953   2.230
10479SOL    HW232337   0.552   3.089   2.298
10480SOL     OW32338   2.594   0.954   3.362
10480SOL    HW132339   2.618   0.858   3.374
10480SOL    HW232340   2.621   1.005   3.443
10481SOL     OW32341   6.717   1.609   1.289
10481SOL    HW132342   6.653   1.562   1.350
10481SOL    HW232343   6.725   1.705   1.318
10482SOL     OW32344   5.594   2.687   3.410
10482SOL    HW132345   5.640   2.603   3.439
10482SOL    HW232346   5.663   2.756   3.388
10483SOL     OW32347   6.061   6.832   0.363
10483SOL    HW132348   6.030   6.740   0.386
10483SOL    HW232349   6.161   6.831   0.350
10484SOL     OW32350   6.688   0.908   2.049
10484SOL    HW132351   6.758   0.895   2.119
10484SOL    HW232352   6.605   0.943   2.091
10485SOL     OW32353   5.131   3.307   4.874
10485SOL    HW132354   5.109   3.326   4.969
10485SOL    HW232355   5.230   3.295   4.864
10486SOL     OW32356   5.051   2.859   2.707
10486SOL    HW132357   5.099   2.802   2.773
10486SOL    HW232358   4.958   2.877   2.739
10487SOL     OW32359   4.872   7.022   2.395
10487SOL    HW132360   4.781   6.984   2.379
10487SOL    HW232361   4.885   0.007   2.493
10488SOL     OW32362   3.585   3.947   6.731
10488SOL    HW132363   3.550   3.894   6.809
10488SOL    HW232364   3.601   3.886   6.654
10489SOL     OW32365   1.803   5.639   5.342
10489SOL    HW132366   1.792   5.543   5.315
10489SOL    HW232367   1.741   5.660   5.417
10490SOL     OW32368   6.415   0.460   4.343
10490SOL    HW132369   6.363   0.544   4.360
10490SOL    HW232370   6.365   0.382   4.382
10491SOL     OW32371   0.033   5.147   5.261
10491SOL    HW132372   7.009   5.065   5.241
10491SOL    HW232373   0.115   5.122   5.313
10492SOL     OW32374   4.115   4.539   5.996
10492SOL    HW132375   4.208   4.553   5.962
10492SOL    HW232376   4.058   4.617   5.970
10493SOL     OW32377   3.616   1.291   0.786
10493SOL    HW132378   3.524   1.263   0.756
10493SOL    HW232379   3.675   1.210   0.791
10494SOL     OW32380   5.552   1.933   5.142
10494SOL    HW132381   5.455   1.942   5.166
10494SOL    HW232382   5.577   1.837   5.141
10495SOL     OW32383   1.737   6.970   0.334
10495SOL    HW132384   1.740   6.914   0.417
10495SOL    HW232385   1.646   6.963   0.293
10496SOL     OW32386   6.464   0.525   5.756
10496SOL    HW132387   6.407   0.564   5.683
10496SOL    HW232388   6.561   0.542   5.735
10497SOL     OW32389   0.922   1.668   6.806
10497SOL    HW132390   0.998   1.727   6.835
10497SOL    HW232391   0.915   1.670   6.706
10498SOL     OW32392   3.083   4.691   5.879
10498SOL    HW132393   3.137   4.765   5.919
10498SOL    HW232394   3.001   4.676   5.935
10499SOL     OW32395   2.949   5.066   3.472
10499SOL    HW132396   2.869   5.109   3.429
10499SOL    HW232397   3.006   5.137   3.514
10500SOL     OW32398   2.003   2.192   6.734
10500SOL    HW132399   2.098   2.179   6.704
10500SOL    HW232400   1.960   2.263   6.679
10501SOL     OW32401   1.197   2.609   3.368
10501SOL    HW132402   1.222   2.637   3.460
10501SOL    HW232403   1.279   2.602   3.311
10502SOL     OW32404   3.019   5.983   5.005
10502SOL    HW132405   2.979   6.071   4.981
10502SOL    HW232406   2.947   5.913   5.009
10503SOL     OW32407   2.725   3.343   5.371
10503SOL    HW132408   2.766   3.261   5.412
10503SOL    HW232409   2.631   3.323   5.343
10504SOL     OW32410   2.423   3.536   1.262
10504SOL    HW132411   2.415   3.456   1.322
10504SOL    HW232412   2.351   3.602   1.285
10505SOL     OW32413   0.157   0.420   1.049
10505SOL    HW132414   0.165   0.446   1.145
10505SOL    HW232415   0.066   0.444   1.015
10506SOL     OW32416   0.225   3.703   5.486
10506SOL    HW132417   0.262   3.784   5.440
10506SOL    HW232418   0.145   3.671   5.436
10507SOL     OW32419   1.542   0.452   3.851
10507SOL    HW132420   1.550   0.481   3.947
10507SOL    HW232421   1.463   0.497   3.810
10508SOL     OW32422   5.477   3.546   2.387
10508SOL    HW132423   5.510   3.637   2.413
10508SOL    HW232424   5.435   3.551   2.296
10509SOL     OW32425   1.870   0.756   6.104
10509SOL    HW132426   1.881   0.689   6.031
10509SOL    HW232427   1.919   0.840   6.079
10510SOL     OW32428   5.903   6.629   6.670
10510SOL    HW132429   5.816   6.671   6.645
10510SOL    HW232430   5.975   6.664   6.610
10511SOL     OW32431   0.357   1.944   0.852
10511SOL    HW132432   0.456   1.943   0.837
10511SOL    HW232433   0.330   2.031   0.892
10512SOL     OW32434   3.263   6.284   6.385
10512SOL    HW132435   3.291   6.284   6.289
10512SOL    HW232436   3.325   6.342   6.438
10513SOL     OW32437   0.313   1.679   0.748
10513SOL    HW132438   0.308   1.778   0.763
10513SOL    HW232439   0.353   1.661   0.658
10514SOL     OW32440   6.684   3.677   1.467
10514SOL    HW132441   6.762   3.725   1.507
10514SOL    HW232442   6.609   3.674   1.532
10515SOL     OW32443   6.284   2.620   4.238
10515SOL    HW132444   6.339   2.690   4.284
10515SOL    HW232445   6.187   2.639   4.253
10516SOL     OW32446   3.110   0.378   0.753
10516SOL    HW132447   3.020   0.339   0.770
10516SOL    HW232448   3.102   0.477   0.742
10517SOL     OW32449   6.811   2.526   2.911
10517SOL    HW132450   6.864   2.479   2.840
10517SOL    HW232451   6.827   2.483   2.999
10518SOL     OW32452   0.286   6.714   2.801
10518SOL    HW132453   0.379   6.741   2.826
10518SOL    HW232454   0.269   6.738   2.706
10519SOL     OW32455   3.386   3.702   5.335
10519SOL    HW132456   3.472   3.743   5.303
10519SOL    HW232457   3.354   3.635   5.268
10520SOL     OW32458   3.426   4.406   6.412
10520SOL    HW132459   3.336   4.438   6.442
10520SOL    HW232460   3.497   4.448   6.468
10521SOL     OW32461   6.493   5.261   2.210
10521SOL    HW132462   6.476   5.287   2.306
10521SOL    HW232463   6.586   5.225   2.202
10522SOL     OW32464   6.430   0.201   1.881
10522SOL    HW132465   6.363   0.275   1.879
10522SOL    HW232466   6.412   0.141   1.959
10523SOL     OW32467   0.064   5.768   6.751
10523SOL    HW132468   6.999   5.788   6.723
10523SOL    HW232469   0.064   5.722   6.840
10524SOL     OW32470   4.931   0.576   4.579
10524SOL    HW132471   4.998   0.647   4.555
10524SOL    HW232472   4.963   0.488   4.544
10525SOL     OW32473   2.964   6.226   5.242
10525SOL    HW132474   3.049   6.245   5.291
10525SOL    HW232475   2.963   6.277   5.156
10526SOL     OW32476   5.281   0.343   2.159
10526SOL    HW132477   5.326   0.366   2.072
10526SOL    HW232478   5.184   0.365   2.153
10527SOL     OW32479   1.858   2.388   4.706
10527SOL    HW132480   1.811   2.406   4.792
10527SOL    HW232481   1.868   2.474   4.655
10528SOL     OW32482   6.137   4.593   5.691
10528SOL    HW132483   6.044   4.586   5.654
10528SOL    HW232484   6.135   4.634   5.781
10529SOL     OW32485   0.016   6.403   4.343
10529SOL    HW132486   0.111   6.433   4.337
10529SOL    HW232487   6.998   6.425   4.257
10530SOL     OW32488   2.303   2.014   5.644
10530SOL    HW132489   2.382   1.958   5.618
10530SOL    HW232490   2.221   1.957   5.647
10531SOL     OW32491   1.556   2.094   6.059
10531SOL    HW132492   1.634   2.041   6.027
10531SOL    HW232493   1.586   2.185   6.088
10532SOL     OW32494   3.574   3.051   5.362
10532SOL    HW132495   3.498   3.001   5.405
10532SOL    HW232496   3.574   3.033   5.264
10533SOL     OW32497   2.881   1.316   6.214
10533SOL    HW132498   2.927   1.228   6.202
10533SOL    HW232499   2.921   1.364   6.292
10534SOL     OW32500   5.761   5.900   1.095
10534SOL    HW132501   5.729   5.818   1.142
10534SOL    HW232502   5.692   5.972   1.103
10535SOL     OW32503   0.407   1.333   2.386
10535SOL    HW132504   0.401   1.430   2.364
10535SOL    HW232505   0.349   1.313   2.465
10536SOL     OW32506   5.385   6.241   3.845
10536SOL    HW132507   5.306   6.275   3.895
10536SOL    HW232508   5.453   6.205   3.910
10537SOL     OW32509   0.104   5.630   1.678
10537SOL    HW132510   0.108   5.722   1.640
10537SOL    HW232511   0.180   5.616   1.741
10538SOL     OW32512   4.460   4.418   6.831
10538SOL    HW132513   4.391   4.367   6.779
10538SOL    HW232514   4.550   4.376   6.818
10539SOL     OW32515   1.007   3.556   5.705
10539SOL    HW132516   1.050   3.492   5.643
10539SOL    HW232517   0.908   3.551   5.696
10540SOL     OW32518   3.017   0.878   0.355
10540SOL    HW132519   2.983   0.866   0.262
10540SOL    HW232520   3.036   0.788   0.395
10541SOL     OW32521   4.677   2.307   0.316
10541SOL    HW132522   4.650   2.403   0.327
10541SOL    HW232523   4.694   2.268   0.407
10542SOL     OW32524   1.405   2.535   0.355
10542SOL    HW132525   1.316   2.491   0.346
10542SOL    HW232526   1.462   2.484   0.420
10543SOL     OW32527   2.685   0.995   5.122
10543SOL    HW132528   2.588   1.010   5.141
10543SOL    HW232529   2.698   0.903   5.084
10544SOL     OW32530   7.010   2.692   1.388
10544SOL    HW132531   0.052   2.737   1.334
10544SOL    HW232532   6.925   2.745   1.382
10545SOL     OW32533   5.117   0.784   3.538
10545SOL    HW132534   5.154   0.856   3.597
10545SOL    HW232535   5.189   0.748   3.480
10546SOL     OW32536   4.024   1.089   5.156
10546SOL    HW132537   4.094   1.151   5.119
10546SOL    HW232538   4.068   1.011   5.199
10547SOL     OW32539   3.889   0.258   0.968
10547SOL    HW132540   3.889   0.337   0.906
10547SOL    HW232541   3.894   0.290   1.063
10548SOL     OW32542   4.521   4.621   5.199
10548SOL    HW132543   4.485   4.590   5.111
10548SOL    HW232544   4.510   4.548   5.267
10549SOL     OW32545   1.168   1.329   1.517
10549SOL    HW132546   1.218   1.408   1.482
10549SOL    HW232547   1.141   1.271   1.440
10550SOL     OW32548   5.653   6.921   4.668
10550SOL    HW132549   5.667   6.998   4.730
10550SOL    HW232550   5.627   6.840   4.721
10551SOL     OW32551   1.492   2.772   6.267
10551SOL    HW132552   1.454   2.763   6.174
10551SOL    HW232553   1.474   2.688   6.318
10552SOL     OW32554   3.427   1.952   4.939
10552SOL    HW132555   3.413   1.854   4.925
10552SOL    HW232556   3.455   1.994   4.852
10553SOL     OW32557   3.173   5.151   5.773
10553SOL    HW132558   3.130   5.142   5.683
10553SOL    HW232559   3.163   5.245   5.805
10554SOL     OW32560   6.239   4.307   5.656
10554SOL    HW132561   6.250   4.387   5.713
10554SOL    HW232562   6.155   4.314   5.602
10555SOL     OW32563   3.479   2.492   0.835
10555SOL    HW132564   3.497   2.522   0.929
10555SOL    HW232565   3.434   2.403   0.837
10556SOL     OW32566   1.806   3.337   4.241
10556SOL    HW132567   1.893   3.289   4.252
10556SOL    HW232568   1.811   3.398   4.161
10557SOL     OW32569   5.630   1.249   3.569
10557SOL    HW132570   5.599   1.317   3.635
10557SOL    HW232571   5.643   1.293   3.480
10558SOL     OW32572   5.286   5.725   4.702
10558SOL    HW132573   5.260   5.748   4.608
10558SOL    HW232574   5.286   5.809   4.757
10559SOL     OW32575   4.376   2.604   0.926
10559SOL    HW132576   4.395   2.702   0.938
10559SOL    HW232577   4.416   2.553   1.002
10560SOL     OW32578   0.269   3.146   4.161
10560SOL    HW132579   0.359   3.129   4.201
10560SOL    HW232580   0.240   3.067   4.107
10561SOL     OW32581   3.055   4.410   6.041
10561SOL    HW132582   3.011   4.418   5.951
10561SOL    HW232583   3.129   4.477   6.047
10562SOL     OW32584   3.469   1.580   0.752
10562SOL    HW132585   3.410   1.552   0.676
10562SOL    HW232586   3.413   1.597   0.833
10563SOL     OW32587   1.398   1.908   3.684
10563SOL    HW132588   1.417   1.981   3.750
10563SOL    HW232589   1.474   1.843   3.684
10564SOL     OW32590   0.025   2.330   2.143
10564SOL    HW132591   0.077   2.399   2.093
10564SOL    HW232592   6.970   2.309   2.094
10565SOL     OW32593   5.255   1.392   5.006
10565SOL    HW132594   5.229   1.481   4.968
10565SOL    HW232595   5.350   1.396   5.037
10566SOL     OW32596   4.386   5.341   0.276
10566SOL    HW132597   4.318   5.279   0.237
10566SOL    HW232598   4.417   5.306   0.364
10567SOL     OW32599   2.011   4.938   4.166
10567SOL    HW132600   2.088   5.002   4.169
10567SOL    HW232601   1.985   4.922   4.071
10568SOL     OW32602   3.677   1.807   2.836
10568SOL    HW132603   3.658   1.774   2.743
10568SOL    HW232604   3.672   1.907   2.837
10569SOL     OW32605   5.985   2.901   3.391
10569SOL    HW132606   6.044   2.942   3.461
10569SOL    HW232607   6.005   2.804   3.383
10570SOL     OW32608   1.238   4.278   1.864
10570SOL    HW132609   1.224   4.371   1.900
10570SOL    HW232610   1.191   4.269   1.776
10571SOL     OW32611   6.173   6.375   4.778
10571SOL    HW132612   6.074   6.372   4.795
10571SOL    HW232613   6.197   6.466   4.744
10572SOL     OW32614   6.565   3.379   1.602
10572SOL    HW132615   6.611   3.336   1.524
10572SOL    HW232616   6.506   3.312   1.647
10573SOL     OW32617   6.177   4.417   6.368
10573SOL    HW132618   6.165   4.318   6.354
10573SOL    HW232619   6.200   4.460   6.280
10574SOL     OW32620   0.782   1.804   3.396
10574SOL    HW132621   0.866   1.775   3.443
10574SOL    HW232622   0.703   1.777   3.451
10575SOL     OW32623   0.489   6.549   6.093
10575SOL    HW132624   0.555   6.601   6.146
10575SOL    HW232625   0.401   6.547   6.141
10576SOL     OW32626   1.310   5.196   3.394
10576SOL    HW132627   1.299   5.101   3.367
10576SOL    HW232628   1.372   5.201   3.473
10577SOL     OW32629   0.760   3.403   5.761
10577SOL    HW132630   0.784   3.310   5.733
10577SOL    HW232631   0.708   3.400   5.847
10578SOL     OW32632   5.608   1.201   5.486
10578SOL    HW132633   5.566   1.292   5.498
10578SOL    HW232634   5.693   1.210   5.435
10579SOL     OW32635   4.888   0.084   1.214
10579SOL    HW132636   4.827   0.133   1.277
10579SOL    HW232637   4.835   0.015   1.164
10580SOL     OW32638   6.883   6.365   0.754
10580SOL    HW132639   6.799   6.389   0.803
10580SOL    HW232640   6.860   6.312   0.672
10581SOL     OW32641   4.885   1.955   3.749
10581SOL    HW132642   4.975   1.916   3.769
10581SOL    HW232643   4.885   2.052   3.774
10582SOL     OW32644   3.528   4.725   0.400
10582SOL    HW132645   3.562   4.817   0.379
10582SOL    HW232646   3.430   4.720   0.378
10583SOL     OW32647   4.046   1.130   1.174
10583SOL    HW132648   3.974   1.163   1.114
10583SOL    HW232649   4.044   1.180   1.261
10584SOL     OW32650   5.987   0.295   1.265
10584SOL    HW132651   5.963   0.198   1.257
10584SOL    HW232652   5.912   0.344   1.309
10585SOL     OW32653   2.454   4.193   6.576
10585SOL    HW132654   2.390   4.147   6.514
10585SOL    HW232655   2.544   4.197   6.534
10586SOL     OW32656   4.948   1.616   0.279
10586SOL    HW132657   4.943   1.531   0.333
10586SOL    HW232658   5.038   1.621   0.235
10587SOL     OW32659   5.668   3.548   0.694
10587SOL    HW132660   5.580   3.528   0.651
10587SOL    HW232661   5.725   3.599   0.629
10588SOL     OW32662   1.561   4.798   3.580
10588SOL    HW132663   1.475   4.839   3.610
10588SOL    HW232664   1.591   4.841   3.495
10589SOL     OW32665   6.120   1.261   4.287
10589SOL    HW132666   6.155   1.202   4.214
10589SOL    HW232667   6.026   1.236   4.308
10590SOL     OW32668   1.503   0.551   5.171
10590SOL    HW132669   1.582   0.579   5.116
10590SOL    HW232670   1.445   0.630   5.190
10591SOL     OW32671   1.617   2.376   0.796
10591SOL    HW132672   1.578   2.286   0.820
10591SOL    HW232673   1.624   2.432   0.878
10592SOL     OW32674   5.993   1.479   6.897
10592SOL    HW132675   5.921   1.492   6.829
10592SOL    HW232676   6.060   1.552   6.888
10593SOL     OW32677   1.335   4.788   2.000
10593SOL    HW132678   1.327   4.689   1.985
10593SOL    HW232679   1.430   4.811   2.022
10594SOL     OW32680   0.848   1.412   4.411
10594SOL    HW132681   0.784   1.434   4.337
10594SOL    HW232682   0.885   1.320   4.395
10595SOL     OW32683   2.447   5.367   5.136
10595SOL    HW132684   2.503   5.401   5.211
10595SOL    HW232685   2.357   5.341   5.171
10596SOL     OW32686   3.554   0.836   2.288
10596SOL    HW132687   3.464   0.793   2.291
10596SOL    HW232688   3.551   0.914   2.225
10597SOL     OW32689   2.204   0.552   3.716
10597SOL    HW132690   2.120   0.537   3.768
10597SOL    HW232691   2.271   0.597   3.774
10598SOL     OW32692   2.023   1.521   0.038
10598SOL    HW132693   2.084   1.450   0.004
10598SOL    HW232694   2.068   1.610   0.035
10599SOL     OW32695   4.857   0.381   6.659
10599SOL    HW132696   4.845   0.351   6.754
10599SOL    HW232697   4.769   0.380   6.612
10600SOL     OW32698   1.549   2.243   5.574
10600SOL    HW132699   1.631   2.283   5.532
10600SOL    HW232700   1.503   2.184   5.507
10601SOL     OW32701   3.659   5.624   5.539
10601SOL    HW132702   3.665   5.650   5.635
10601SOL    HW232703   3.564   5.632   5.508
10602SOL     OW32704   4.618   0.971   1.392
10602SOL    HW132705   4.666   1.035   1.332
10602SOL    HW232706   4.574   0.901   1.337
10603SOL     OW32707   0.959   4.874   4.805
10603SOL    HW132708   0.896   4.884   4.728
10603SOL    HW232709   0.991   4.964   4.834
10604SOL     OW32710   6.627   4.098   5.493
10604SOL    HW132711   6.652   4.179   5.547
10604SOL    HW232712   6.670   4.104   5.403
10605SOL     OW32713   1.919   5.130   6.078
10605SOL    HW132714   1.828   5.095   6.100
10605SOL    HW232715   1.926   5.225   6.107
10606SOL     OW32716   0.834   0.918   2.960
10606SOL    HW132717   0.923   0.962   2.967
10606SOL    HW232718   0.778   0.967   2.893
10607SOL     OW32719   5.787   4.822   6.710
10607SOL    HW132720   5.801   4.790   6.617
10607SOL    HW232721   5.711   4.772   6.752
10608SOL     OW32722   5.899   0.725   2.573
10608SOL    HW132723   5.984   0.674   2.563
10608SOL    HW232724   5.913   0.801   2.637
10609SOL     OW32725   3.782   6.526   2.053
10609SOL    HW132726   3.851   6.464   2.089
10609SOL    HW232727   3.711   6.540   2.122
10610SOL     OW32728   1.970   4.192   4.391
10610SOL    HW132729   2.031   4.267   4.416
10610SOL    HW232730   1.905   4.223   4.321
10611SOL     OW32731   5.075   2.535   6.158
10611SOL    HW132732   4.975   2.537   6.154
10611SOL    HW232733   5.112   2.618   6.117
10612SOL     OW32734   1.455   6.655   0.941
10612SOL    HW132735   1.413   6.729   0.888
10612SOL    HW232736   1.521   6.606   0.883
10613SOL     OW32737   0.377   6.690   6.383
10613SOL    HW132738   0.368   6.639   6.469
10613SOL    HW232739   0.308   6.657   6.318
10614SOL     OW32740   6.794   1.055   4.178
10614SOL    HW132741   6.876   1.017   4.220
10614SOL    HW232742   6.713   1.023   4.227
10615SOL     OW32743   6.960   5.923   5.299
10615SOL    HW132744   6.942   5.905   5.203
10615SOL    HW232745   6.930   6.015   5.323
10616SOL     OW32746   2.590   5.996   0.561
10616SOL    HW132747   2.688   6.003   0.543
10616SOL    HW232748   2.546   5.940   0.490
10617SOL     OW32749   0.060   1.817   6.902
10617SOL    HW132750   0.145   1.769   6.923
10617SOL    HW232751   0.032   1.796   6.808
10618SOL     OW32752   6.391   3.981   1.382
10618SOL    HW132753   6.350   3.899   1.343
10618SOL    HW232754   6.454   4.022   1.316
10619SOL     OW32755   0.454   4.197   3.284
10619SOL    HW132756   0.442   4.208   3.383
10619SOL    HW232757   0.370   4.160   3.245
10620SOL     OW32758   1.225   5.228   4.431
10620SOL    HW132759   1.179   5.275   4.356
10620SOL    HW232760   1.157   5.196   4.497
10621SOL     OW32761   2.822   6.305   0.577
10621SOL    HW132762   2.785   6.358   0.653
10621SOL    HW232763   2.748   6.280   0.515
10622SOL     OW32764   4.644   1.885   1.182
10622SOL    HW132765   4.679   1.977   1.165
10622SOL    HW232766   4.704   1.837   1.246
10623SOL     OW32767   6.944   0.914   4.400
10623SOL    HW132768   6.942   0.978   4.476
10623SOL    HW232769   6.900   0.828   4.427
10624SOL     OW32770   2.773   1.273   4.715
10624SOL    HW132771   2.760   1.301   4.620
10624SOL    HW232772   2.778   1.355   4.773
10625SOL     OW32773   0.673   3.114   0.303
10625SOL    HW132774   0.660   3.112   0.204
10625SOL    HW232775   0.608   3.177   0.345
10626SOL     OW32776   5.840   2.249   1.842
10626SOL    HW132777   5.891   2.163   1.849
10626SOL    HW232778   5.903   2.325   1.858
10627SOL     OW32779   5.728   5.640   4.579
10627SOL    HW132780   5.698   5.586   4.501
10627SOL    HW232781   5.652   5.652   4.643
10628SOL     OW32782   0.245   5.880   5.834
10628SOL    HW132783   0.234   5.947   5.907
10628SOL    HW232784   0.177   5.807   5.845
10629SOL     OW32785   2.817   5.066   6.206
10629SOL    HW132786   2.826   5.057   6.107
10629SOL    HW232787   2.908   5.072   6.248
10630SOL     OW32788   6.708   0.850   2.542
10630SOL    HW132789   6.614   0.878   2.523
10630SOL    HW232790   6.751   0.918   2.603
10631SOL     OW32791   0.939   6.653   4.656
10631SOL    HW132792   0.934   6.555   4.640
10631SOL    HW232793   0.953   6.670   4.754
10632SOL     OW32794   0.520   3.150   5.683
10632SOL    HW132795   0.493   3.228   5.626
10632SOL    HW232796   0.619   3.148   5.691
10633SOL     OW32797   0.981   5.116   1.267
10633SOL    HW132798   0.882   5.120   1.280
10633SOL    HW232799   1.002   5.129   1.170
10634SOL     OW32800   4.158   6.538   1.984
10634SOL    HW132801   4.204   6.621   2.015
10634SOL    HW232802   4.085   6.515   2.049
10635SOL     OW32803   1.434   1.042   1.630
10635SOL    HW132804   1.519   1.002   1.596
10635SOL    HW232805   1.358   0.981   1.609
10636SOL     OW32806   6.250   1.348   0.912
10636SOL    HW132807   6.244   1.358   0.813
10636SOL    HW232808   6.302   1.266   0.934
10637SOL     OW32809   3.802   4.589   5.771
10637SOL    HW132810   3.741   4.663   5.743
10637SOL    HW232811   3.888   4.596   5.721
10638SOL     OW32812   6.818   0.347   5.794
10638SOL    HW132813   6.820   0.299   5.882
10638SOL    HW232814   6.878   0.301   5.729
10639SOL     OW32815   3.344   1.805   5.209
10639SOL    HW132816   3.282   1.869   5.164
10639SOL    HW232817   3.435   1.845   5.214
10640SOL     OW32818   4.263   6.145   1.023
10640SOL    HW132819   4.185   6.109   1.074
10640SOL    HW232820   4.298   6.226   1.070
10641SOL     OW32821   4.080   0.993   6.616
10641SOL    HW132822   4.052   0.954   6.704
10641SOL    HW232823   4.178   0.978   6.603
10642SOL     OW32824   6.906   4.243   0.578
10642SOL    HW132825   6.979   4.215   0.515
10642SOL    HW232826   6.940   4.316   0.637
10643SOL     OW32827   4.049   3.258   5.600
10643SOL    HW132828   4.060   3.267   5.700
10643SOL    HW232829   4.140   3.252   5.558
10644SOL     OW32830   3.827   1.255   4.598
10644SOL    HW132831   3.733   1.276   4.626
10644SOL    HW232832   3.887   1.331   4.624
10645SOL     OW32833   2.067   6.878   5.079
10645SOL    HW132834   2.051   6.946   5.008
10645SOL    HW232835   2.113   6.798   5.040
10646SOL     OW32836   1.292   4.393   6.816
10646SOL    HW132837   1.225   4.405   6.889
10646SOL    HW232838   1.284   4.469   6.751
10647SOL     OW32839   0.362   5.832   0.804
10647SOL    HW132840   0.369   5.769   0.881
10647SOL    HW232841   0.369   5.781   0.718
10648SOL     OW32842   4.622   5.250   6.618
10648SOL    HW132843   4.534   5.252   6.571
10648SOL    HW232844   4.685   5.313   6.573
10649SOL     OW32845   7.015   4.524   6.147
10649SOL    HW132846   6.939   4.589   6.154
10649SOL    HW232847   0.069   4.572   6.117
10650SOL     OW32848   3.406   0.921   5.168
10650SOL    HW132849   3.471   0.909   5.243
10650SOL    HW232850   3.313   0.928   5.206
10651SOL     OW32851   2.934   0.129   5.611
10651SOL    HW132852   2.889   0.091   5.693
10651SOL    HW232853   3.019   0.080   5.594
10652SOL     OW32854   4.086   1.161   0.598
10652SOL    HW132855   4.163   1.223   0.581
10652SOL    HW232856   4.016   1.174   0.528
10653SOL     OW32857   5.811   2.981   4.026
10653SOL    HW132858   5.803   2.946   4.119
10653SOL    HW232859   5.833   3.079   4.029
10654SOL     OW32860   4.438   1.028   1.663
10654SOL    HW132861   4.369   0.997   1.597
10654SOL    HW232862   4.529   1.018   1.624
10655SOL     OW32863   2.993   5.606   1.278
10655SOL    HW132864   3.074   5.582   1.223
10655SOL    HW232865   2.911   5.569   1.235
10656SOL     OW32866   6.415   2.658   6.551
10656SOL    HW132867   6.507   2.618   6.545
10656SOL    HW232868   6.378   2.643   6.642
10657SOL     OW32869   6.271   0.185   1.506
10657SOL    HW132870   6.366   0.212   1.494
10657SOL    HW232871   6.211   0.261   1.479
10658SOL     OW32872   0.497   6.808   4.764
10658SOL    HW132873   0.480   6.877   4.693
10658SOL    HW232874   0.507   6.718   4.721
10659SOL     OW32875   5.106   0.675   0.758
10659SOL    HW132876   5.049   0.594   0.744
10659SOL    HW232877   5.162   0.692   0.677
10660SOL     OW32878   5.434   5.579   5.585
10660SOL    HW132879   5.384   5.664   5.597
10660SOL    HW232880   5.371   5.502   5.597
10661SOL     OW32881   0.573   0.379   2.140
10661SOL    HW132882   0.577   0.374   2.240
10661SOL    HW232883   0.591   0.473   2.111
10662SOL     OW32884   6.359   1.715   0.155
10662SOL    HW132885   6.284   1.682   0.214
10662SOL    HW232886   6.433   1.750   0.212
10663SOL     OW32887   0.592   1.443   0.464
10663SOL    HW132888   0.654   1.365   0.455
10663SOL    HW232889   0.623   1.502   0.538
10664SOL     OW32890   1.937   5.367   6.177
10664SOL    HW132891   1.994   5.428   6.123
10664SOL    HW232892   1.868   5.419   6.226
10665SOL     OW32893   5.466   1.209   6.772
10665SOL    HW132894   5.449   1.241   6.865
10665SOL    HW232895   5.380   1.207   6.721
10666SOL     OW32896   0.314   6.845   0.389
10666SOL    HW132897   0.243   6.914   0.376
10666SOL    HW232898   0.404   6.886   0.371
10667SOL     OW32899   3.374   2.342   5.760
10667SOL    HW132900   3.308   2.289   5.706
10667SOL    HW232901   3.352   2.439   5.754
10668SOL     OW32902   2.268   0.767   6.576
10668SOL    HW132903   2.314   0.849   6.608
10668SOL    HW232904   2.224   0.785   6.488
10669SOL     OW32905   0.873   6.730   6.627
10669SOL    HW132906   0.891   6.806   6.689
10669SOL    HW232907   0.934   6.736   6.548
10670SOL     OW32908   6.588   4.203   4.796
10670SOL    HW132909   6.530   4.277   4.832
10670SOL    HW232910   6.632   4.156   4.872
10671SOL     OW32911   1.670   2.008   3.240
10671SOL    HW132912   1.728   1.992   3.320
10671SOL    HW232913   1.594   1.943   3.241
10672SOL     OW32914   6.946   2.579   0.943
10672SOL    HW132915   7.017   2.647   0.922
10672SOL    HW232916   6.898   2.554   0.859
10673SOL     OW32917   3.233   3.500   4.559
10673SOL    HW132918   3.222   3.408   4.521
10673SOL    HW232919   3.210   3.568   4.490
10674SOL     OW32920   3.794   1.543   2.630
10674SOL    HW132921   3.859   1.472   2.659
10674SOL    HW232922   3.814   1.571   2.537
10675SOL     OW32923   0.850   0.884   5.976
10675SOL    HW132924   0.865   0.965   5.919
10675SOL    HW232925   0.931   0.866   6.031
10676SOL     OW32926   6.980   0.153   6.852
10676SOL    HW132927   6.899   0.097   6.835
10676SOL    HW232928   6.955   0.232   6.907
10677SOL     OW32929   6.298   1.128   0.671
10677SOL    HW132930   6.387   1.174   0.669
10677SOL    HW232931   6.302   1.049   0.732
10678SOL     OW32932   1.753   5.220   3.572
10678SOL    HW132933   1.830   5.269   3.533
10678SOL    HW232934   1.742   5.245   3.668
10679SOL     OW32935   5.395   5.059   3.522
10679SOL    HW132936   5.450   5.014   3.593
10679SOL    HW232937   5.351   4.990   3.466
10680SOL     OW32938   1.239   2.522   3.787
10680SOL    HW132939   1.246   2.601   3.727
10680SOL    HW232940   1.208   2.443   3.734
10681SOL     OW32941   0.365   2.494   6.400
10681SOL    HW132942   0.375   2.558   6.476
10681SOL    HW232943   0.381   2.541   6.314
10682SOL     OW32944   6.331   1.771   2.767
10682SOL    HW132945   6.390   1.724   2.701
10682SOL    HW232946   6.333   1.723   2.854
10683SOL     OW32947   1.492   0.382   4.431
10683SOL    HW132948   1.439   0.311   4.384
10683SOL    HW232949   1.573   0.340   4.473
10684SOL     OW32950   5.416   6.023   0.323
10684SOL    HW132951   5.331   6.010   0.374
10684SOL    HW232952   5.454   5.933   0.298
10685SOL     OW32953   6.180   2.806   2.349
10685SOL    HW132954   6.193   2.723   2.294
10685SOL    HW232955   6.224   2.883   2.303
10686SOL     OW32956   4.426   4.722   0.558
10686SOL    HW132957   4.407   4.633   0.598
10686SOL    HW232958   4.343   4.778   0.559
10687SOL     OW32959   6.511   5.221   1.275
10687SOL    HW132960   6.459   5.194   1.194
10687SOL    HW232961   6.585   5.283   1.248
10688SOL     OW32962   0.210   5.050   1.072
10688SOL    HW132963   0.153   5.008   1.001
10688SOL    HW232964   0.221   5.147   1.052
10689SOL     OW32965   0.693   0.174   1.222
10689SOL    HW132966   0.663   0.263   1.189
10689SOL    HW232967   0.713   0.114   1.145
10690SOL     OW32968   4.577   6.106   2.833
10690SOL    HW132969   4.649   6.092   2.901
10690SOL    HW232970   4.501   6.045   2.852
10691SOL     OW32971   6.091   1.637   1.744
10691SOL    HW132972   5.992   1.644   1.734
10691SOL    HW232973   6.135   1.651   1.655
10692SOL     OW32974   6.062   6.411   3.888
10692SOL    HW132975   6.048   6.385   3.983
10692SOL    HW232976   6.046   6.332   3.829
10693SOL     OW32977   5.358   2.707   3.570
10693SOL    HW132978   5.430   2.710   3.500
10693SOL    HW232979   5.397   2.735   3.658
10694SOL     OW32980   2.924   6.763   0.502
10694SOL    HW132981   2.854   6.750   0.573
10694SOL    HW232982   2.917   6.857   0.467
10695SOL     OW32983   5.642   3.093   5.409
10695SOL    HW132984   5.642   3.129   5.502
10695SOL    HW232985   5.634   3.168   5.343
10696SOL     OW32986   6.153   7.028   1.715
10696SOL    HW132987   6.204   6.943   1.731
10696SOL    HW232988   6.211   0.063   1.665
10697SOL     OW32989   1.770   6.421   2.871
10697SOL    HW132990   1.690   6.454   2.921
10697SOL    HW232991   1.813   6.496   2.821
10698SOL     OW32992   3.155   0.574   4.196
10698SOL    HW132993   3.077   0.539   4.248
10698SOL    HW232994   3.164   0.673   4.212
10699SOL     OW32995   2.002   2.231   3.401
10699SOL    HW132996   2.040   2.149   3.358
10699SOL    HW232997   1.933   2.272   3.342
10700SOL     OW32998   0.811   2.030   2.575
10700SOL    HW132999   0.795   2.042   2.477
10700SOL    HW233000   0.766   1.946   2.605
10701SOL     OW33001   3.196   0.325   1.734
10701SOL    HW133002   3.218   0.346   1.639
10701SOL    HW233003   3.126   0.388   1.766
10702SOL     OW33004   5.060   2.458   0.720
10702SOL    HW133005   5.119   2.515   0.778
10702SOL    HW233006   5.094   2.459   0.626
10703SOL     OW33007   3.959   3.074   4.022
10703SOL    HW133008   4.046   3.028   4.008
10703SOL    HW233009   3.967   3.139   4.098
10704SOL     OW33010   5.821   6.217   2.028
10704SOL    HW133011   5.863   6.144   1.975
10704SOL    HW233012   5.827   6.197   2.125
10705SOL     OW33013   1.335   3.313   6.225
10705SOL    HW133014   1.383   3.238   6.269
10705SOL    HW233015   1.238   3.310   6.249
10706SOL     OW33016   3.466   3.021   1.075
10706SOL    HW133017   3.432   2.927   1.070
10706SOL    HW233018   3.551   3.023   1.128
10707SOL     OW33019   6.462   6.794   6.214
10707SOL    HW133020   6.397   6.788   6.138
10707SOL    HW233021   6.438   6.871   6.272
10708SOL     OW33022   4.944   1.267   1.294
10708SOL    HW133023   4.937   1.367   1.302
10708SOL    HW233024   4.979   1.230   1.380
10709SOL     OW33025   0.830   0.221   6.075
10709SOL    HW133026   0.890   0.300   6.081
10709SOL    HW233027   0.747   0.237   6.128
10710SOL     OW33028   6.710   6.149   3.647
10710SOL    HW133029   6.796   6.197   3.633
10710SOL    HW233030   6.705   6.071   3.585
10711SOL     OW33031   2.414   5.194   5.428
10711SOL    HW133032   2.480   5.122   5.449
10711SOL    HW233033   2.384   5.185   5.333
10712SOL     OW33034   3.822   1.357   6.135
10712SOL    HW133035   3.784   1.426   6.075
10712SOL    HW233036   3.775   1.270   6.120
10713SOL     OW33037   2.089   6.583   1.072
10713SOL    HW133038   2.169   6.544   1.117
10713SOL    HW233039   2.006   6.547   1.114
10714SOL     OW33040   6.075   5.869   4.775
10714SOL    HW133041   6.042   5.800   4.840
10714SOL    HW233042   6.053   5.840   4.682
10715SOL     OW33043   5.647   0.930   2.751
10715SOL    HW133044   5.599   0.972   2.674
10715SOL    HW233045   5.602   0.845   2.776
10716SOL     OW33046   0.149   1.020   2.083
10716SOL    HW133047   0.059   0.978   2.094
10716SOL    HW233048   0.218   0.961   2.126
10717SOL     OW33049   6.786   6.823   2.218
10717SOL    HW133050   6.828   6.737   2.248
10717SOL    HW233051   6.800   6.892   2.289
10718SOL     OW33052   1.018   4.193   5.357
10718SOL    HW133053   1.107   4.188   5.402
10718SOL    HW233054   1.031   4.217   5.261
10719SOL     OW33055   3.537   6.289   2.022
10719SOL    HW133056   3.467   6.348   1.982
10719SOL    HW233057   3.627   6.330   2.008
10720SOL     OW33058   0.026   3.441   6.441
10720SOL    HW133059   7.009   3.529   6.433
10720SOL    HW233060   6.996   3.376   6.490
10721SOL     OW33061   5.433   2.258   4.632
10721SOL    HW133062   5.485   2.180   4.599
10721SOL    HW233063   5.430   2.328   4.560
10722SOL     OW33064   0.059   5.241   0.459
10722SOL    HW133065   0.114   5.218   0.539
10722SOL    HW233066   0.117   5.245   0.378
10723SOL     OW33067   6.163   4.119   6.750
10723SOL    HW133068   6.081   4.175   6.741
10723SOL    HW233069   6.232   4.150   6.684
10724SOL     OW33070   3.498   6.934   5.717
10724SOL    HW133071   3.551   6.919   5.801
10724SOL    HW233072   3.520   7.023   5.679
10725SOL     OW33073   0.106   0.232   5.043
10725SOL    HW133074   0.011   0.241   5.015
10725SOL    HW233075   0.139   0.140   5.022
10726SOL     OW33076   6.518   0.426   3.581
10726SOL    HW133077   6.559   0.385   3.662
10726SOL    HW233078   6.558   0.385   3.499
10727SOL     OW33079   4.172   6.941   6.326
10727SOL    HW133080   4.095   6.966   6.386
10727SOL    HW233081   4.234   6.880   6.375
10728SOL     OW33082   5.871   5.171   3.717
10728SOL    HW133083   5.949   5.196   3.660
10728SOL    HW233084   5.883   5.208   3.809
10729SOL     OW33085   6.299   3.155   3.837
10729SOL    HW133086   6.261   3.178   3.927
10729SOL    HW233087   6.381   3.099   3.849
10730SOL     OW33088   1.175   6.199   4.127
10730SOL    HW133089   1.245   6.268   4.108
10730SOL    HW233090   1.135   6.168   4.040
10731SOL     OW33091   5.128   5.883   6.083
10731SOL    HW133092   5.219   5.895   6.121
10731SOL    HW233093   5.131   5.817   6.008
10732SOL     OW33094   6.773   6.095   2.312
10732SOL    HW133095   6.772   6.194   2.325
10732SOL    HW233096   6.844   6.070   2.247
10733SOL     OW33097   0.505   1.816   5.862
10733SOL    HW133098   0.420   1.861   5.891
10733SOL    HW233099   0.533   1.852   5.773
10734SOL     OW33100   0.783   0.715   4.369
10734SOL    HW133101   0.836   0.678   4.444
10734SOL    HW233102   0.725   0.790   4.402
10735SOL     OW33103   0.110   0.710   2.180
10735SOL    HW133104   0.144   0.669   2.095
10735SOL    HW233105   0.180   0.703   2.251
10736SOL     OW33106   6.029   5.671   3.879
10736SOL    HW133107   6.092   5.724   3.822
10736SOL    HW233108   5.936   5.678   3.841
10737SOL     OW33109   6.597   0.704   1.684
10737SOL    HW133110   6.619   0.660   1.771
10737SOL    HW233111   6.651   0.664   1.610
10738SOL     OW33112   2.633   0.190   1.440
10738SOL    HW133113   2.685   0.208   1.523
10738SOL    HW233114   2.682   0.226   1.361
10739SOL     OW33115   4.728   2.845   4.245
10739SOL    HW133116   4.668   2.770   4.216
10739SOL    HW233117   4.735   2.912   4.171
10740SOL     OW33118   3.141   0.441   6.007
10740SOL    HW133119   3.201   0.424   6.085
10740SOL    HW233120   3.123   0.354   5.960
10741SOL     OW33121   1.329   2.688   3.607
10741SOL    HW133122   1.404   2.623   3.598
10741SOL    HW233123   1.364   2.781   3.601
10742SOL     OW33124   6.991   0.341   2.142
10742SOL    HW133125   0.021   0.264   2.167
10742SOL    HW233126   0.016   0.424   2.132
10743SOL     OW33127   3.495   1.840   5.629
10743SOL    HW133128   3.549   1.767   5.587
10743SOL    HW233129   3.490   1.917   5.565
10744SOL     OW33130   2.616   1.827   1.543
10744SOL    HW133131   2.704   1.871   1.526
10744SOL    HW233132   2.558   1.835   1.461
10745SOL     OW33133   2.405   5.433   1.422
10745SOL    HW133134   2.494   5.462   1.389
10745SOL    HW233135   2.396   5.334   1.415
10746SOL     OW33136   2.133   5.505   6.026
10746SOL    HW133137   2.122   5.569   5.950
10746SOL    HW233138   2.199   5.542   6.091
10747SOL     OW33139   0.225   1.218   4.881
10747SOL    HW133140   0.172   1.144   4.840
10747SOL    HW233141   0.188   1.306   4.853
10748SOL     OW33142   2.671   6.228   2.503
10748SOL    HW133143   2.741   6.157   2.511
10748SOL    HW233144   2.654   6.268   2.593
10749SOL     OW33145   6.101   4.415   2.071
10749SOL    HW133146   6.005   4.407   2.097
10749SOL    HW233147   6.118   4.360   1.989
10750SOL     OW33148   4.146   2.243   4.365
10750SOL    HW133149   4.130   2.265   4.268
10750SOL    HW233150   4.236   2.202   4.375
10751SOL     OW33151   6.349   6.125   4.314
10751SOL    HW133152   6.352   6.028   4.338
10751SOL    HW233153   6.337   6.179   4.397
10752SOL     OW33154   6.941   6.643   6.640
10752SOL    HW133155   6.857   6.670   6.687
10752SOL    HW233156   6.925   6.559   6.589
10753SOL     OW33157   5.308   6.772   5.083
10753SOL    HW133158   5.223   6.823   5.096
10753SOL    HW233159   5.336   6.731   5.170
10754SOL     OW33160   0.580   5.391   2.438
10754SOL    HW133161   0.652   5.321   2.443
10754SOL    HW233162   0.581   5.435   2.348
10755SOL     OW33163   0.462   2.170   1.852
10755SOL    HW133164   0.488   2.147   1.758
10755SOL    HW233165   0.377   2.124   1.876
10756SOL     OW33166   1.154   0.218   0.127
10756SOL    HW133167   1.163   0.227   0.028
10756SOL    HW233168   1.072   0.165   0.149
10757SOL     OW33169   6.919   2.996   2.155
10757SOL    HW133170   6.990   2.935   2.121
10757SOL    HW233171   6.834   2.945   2.167
10758SOL     OW33172   1.464   0.973   0.090
10758SOL    HW133173   1.556   0.939   0.069
10758SOL    HW233174   1.449   0.969   0.189
10759SOL     OW33175   3.046   3.128   4.774
10759SOL    HW133176   2.999   3.052   4.820
10759SOL    HW233177   2.978   3.191   4.737
10760SOL     OW33178   0.675   4.970   0.305
10760SOL    HW133179   0.621   4.896   0.264
10760SOL    HW233180   0.714   4.938   0.392
10761SOL     OW33181   1.369   1.358   5.877
10761SOL    HW133182   1.456   1.401   5.902
10761SOL    HW233183   1.297   1.427   5.876
10762SOL     OW33184   1.731   6.773   0.534
10762SOL    HW133185   1.794   6.701   0.505
10762SOL    HW233186   1.637   6.736   0.534
10763SOL     OW33187   4.762   1.117   3.181
10763SOL    HW133188   4.853   1.124   3.140
10763SOL    HW233189   4.746   1.196   3.240
10764SOL     OW33190   5.087   6.076   4.597
10764SOL    HW133191   5.051   6.113   4.512
10764SOL    HW233192   5.039   5.991   4.620
10765SOL     OW33193   0.711   2.212   0.801
10765SOL    HW133194   0.727   2.262   0.886
10765SOL    HW233195   0.659   2.269   0.738
10766SOL     OW33196   2.602   5.242   6.221
10766SOL    HW133197   2.541   5.222   6.144
10766SOL    HW233198   2.665   5.166   6.235
10767SOL     OW33199   1.560   4.936   6.564
10767SOL    HW133200   1.626   4.903   6.632
10767SOL    HW233201   1.469   4.904   6.588
10768SOL     OW33202   5.457   6.520   6.779
10768SOL    HW133203   5.547   6.527   6.823
10768SOL    HW233204   5.399   6.457   6.830
10769SOL     OW33205   2.946   3.363   4.469
10769SOL    HW133206   2.910   3.437   4.413
10769SOL    HW233207   2.963   3.396   4.562
10770SOL     OW33208   5.224   0.344   3.039
10770SOL    HW133209   5.304   0.337   3.099
10770SOL    HW233210   5.145   0.375   3.092
10771SOL     OW33211   4.647   6.328   5.785
10771SOL    HW133212   4.562   6.295   5.825
10771SOL    HW233213   4.670   6.417   5.826
10772SOL     OW33214   5.344   4.486   2.360
10772SOL    HW133215   5.279   4.522   2.293
10772SOL    HW233216   5.295   4.433   2.429
10773SOL     OW33217   0.876   3.844   0.341
10773SOL    HW133218   0.956   3.792   0.371
10773SOL    HW233219   0.871   3.929   0.392
10774SOL     OW33220   0.376   3.201   0.900
10774SOL    HW133221   0.300   3.168   0.842
10774SOL    HW233222   0.380   3.146   0.983
10775SOL     OW33223   2.027   3.659   0.429
10775SOL    HW133224   1.993   3.577   0.383
10775SOL    HW233225   1.959   3.692   0.495
10776SOL     OW33226   1.003   2.987   3.418
10776SOL    HW133227   0.933   2.917   3.430
10776SOL    HW233228   0.968   3.074   3.453
10777SOL     OW33229   1.233   7.026   1.247
10777SOL    HW133230   1.262   0.083   1.288
10777SOL    HW233231   1.311   6.963   1.242
10778SOL     OW33232   4.515   0.374   3.592
10778SOL    HW133233   4.598   0.353   3.643
10778SOL    HW233234   4.435   0.364   3.652
10779SOL     OW33235   5.612   2.883   5.617
10779SOL    HW133236   5.591   2.948   5.544
10779SOL    HW233237   5.565   2.797   5.600
10780SOL     OW33238   1.455   4.839   5.183
10780SOL    HW133239   1.378   4.781   5.157
10780SOL    HW233240   1.509   4.793   5.254
10781SOL     OW33241   5.708   2.064   5.884
10781SOL    HW133242   5.758   2.010   5.817
10781SOL    HW233243   5.721   2.162   5.865
10782SOL     OW33244   1.299   2.792   5.048
10782SOL    HW133245   1.384   2.774   4.999
10782SOL    HW233246   1.305   2.881   5.095
10783SOL     OW33247   1.557   3.398   2.949
10783SOL    HW133248   1.649   3.359   2.939
10783SOL    HW233249   1.562   3.498   2.944
10784SOL     OW33250   4.909   5.486   3.806
10784SOL    HW133251   4.975   5.520   3.872
10784SOL    HW233252   4.932   5.393   3.780
10785SOL     OW33253   1.980   5.222   1.503
10785SOL    HW133254   1.915   5.175   1.563
10785SOL    HW233255   1.963   5.321   1.508
10786SOL     OW33256   4.668   1.772   2.369
10786SOL    HW133257   4.615   1.842   2.417
10786SOL    HW233258   4.694   1.806   2.278
10787SOL     OW33259   3.953   1.788   3.591
10787SOL    HW133260   3.930   1.762   3.497
10787SOL    HW233261   3.966   1.887   3.597
10788SOL     OW33262   1.686   3.088   0.051
10788SOL    HW133263   1.693   3.188   0.051
10788SOL    HW233264   1.590   3.061   0.036
10789SOL     OW33265   0.036   1.448   2.261
10789SOL    HW133266   0.051   1.477   2.355
10789SOL    HW233267   0.113   1.479   2.204
10790SOL     OW33268   0.026   2.151   5.619
10790SOL    HW133269   6.963   2.121   5.643
10790SOL    HW233270   0.075   2.179   5.702
10791SOL     OW33271   1.740   2.602   3.709
10791SOL    HW133272   1.690   2.545   3.774
10791SOL    HW233273   1.804   2.661   3.759
10792SOL     OW33274   3.716   1.240   2.355
10792SOL    HW133275   3.635   1.279   2.397
10792SOL    HW233276   3.699   1.223   2.258
10793SOL     OW33277   3.541   2.094   4.711
10793SOL    HW133278   3.573   2.188   4.721
10793SOL    HW233279   3.460   2.092   4.653
10794SOL     OW33280   4.816   2.654   6.757
10794SOL    HW133281   4.906   2.654   6.713
10794SOL    HW233282   4.748   2.691   6.693
10795SOL     OW33283   6.589   3.486   3.182
10795SOL    HW133284   6.683   3.488   3.149
10795SOL    HW233285   6.538   3.562   3.143
10796SOL     OW33286   0.494   1.566   5.973
10796SOL    HW133287   0.549   1.544   6.054
10796SOL    HW233288   0.527   1.651   5.933
10797SOL     OW33289   5.199   4.582   0.018
10797SOL    HW133290   5.133   4.657   0.021
10797SOL    HW233291   5.154   4.501   7.010
10798SOL     OW33292   1.859   6.494   0.528
10798SOL    HW133293   1.821   6.412   0.571
10798SOL    HW233294   1.916   6.467   0.449
10799SOL     OW33295   3.538   0.173   2.406
10799SOL    HW133296   3.592   0.089   2.404
10799SOL    HW233297   3.597   0.250   2.431
10800SOL     OW33298   1.868   6.825   5.343
10800SOL    HW133299   1.943   6.876   5.386
10800SOL    HW233300   1.906   6.758   5.279
10801SOL     OW33301   3.006   6.090   6.774
10801SOL    HW133302   3.009   6.127   6.867
10801SOL    HW233303   2.921   6.040   6.761
10802SOL     OW33304   0.608   4.722   4.162
10802SOL    HW133305   0.687   4.784   4.157
10802SOL    HW233306   0.524   4.776   4.167
10803SOL     OW33307   6.756   4.062   4.610
10803SOL    HW133308   6.813   4.126   4.661
10803SOL    HW233309   6.698   4.011   4.673
10804SOL     OW33310   3.801   4.440   0.953
10804SOL    HW133311   3.770   4.533   0.975
10804SOL    HW233312   3.756   4.375   1.014
10805SOL     OW33313   3.749   5.956   0.804
10805SOL    HW133314   3.697   6.029   0.761
10805SOL    HW233315   3.759   5.975   0.902
10806SOL     OW33316   5.953   3.787   6.438
10806SOL    HW133317   6.019   3.726   6.481
10806SOL    HW233318   5.928   3.751   6.348
10807SOL     OW33319   4.899   2.289   4.455
10807SOL    HW133320   4.856   2.202   4.432
10807SOL    HW233321   4.908   2.296   4.555
10808SOL     OW33322   0.624   2.160   6.812
10808SOL    HW133323   0.588   2.080   6.764
10808SOL    HW233324   0.549   2.221   6.836
10809SOL     OW33325   1.893   1.218   2.292
10809SOL    HW133326   1.862   1.258   2.206
10809SOL    HW233327   1.993   1.209   2.291
10810SOL     OW33328   1.920   1.100   6.185
10810SOL    HW133329   1.977   1.097   6.103
10810SOL    HW233330   1.824   1.101   6.159
10811SOL     OW33331   4.545   5.666   6.803
10811SOL    HW133332   4.454   5.627   6.789
10811SOL    HW233333   4.557   5.690   6.899
10812SOL     OW33334   6.555   2.746   2.404
10812SOL    HW133335   6.645   2.743   2.447
10812SOL    HW233336   6.517   2.838   2.414
10813SOL     OW33337   3.345   5.994   2.371
10813SOL    HW133338   3.333   6.089   2.399
10813SOL    HW233339   3.423   5.987   2.308
10814SOL     OW33340   1.696   6.753   4.243
10814SOL    HW133341   1.603   6.735   4.274
10814SOL    HW233342   1.696   6.770   4.144
10815SOL     OW33343   4.935   1.706   5.171
10815SOL    HW133344   4.836   1.697   5.173
10815SOL    HW233345   4.976   1.645   5.239
10816SOL     OW33346   1.942   1.791   1.432
10816SOL    HW133347   1.993   1.714   1.471
10816SOL    HW233348   1.903   1.845   1.506
10817SOL     OW33349   4.016   1.688   1.705
10817SOL    HW133350   3.995   1.623   1.778
10817SOL    HW233351   4.067   1.765   1.743
10818SOL     OW33352   4.357   3.627   6.477
10818SOL    HW133353   4.423   3.553   6.489
10818SOL    HW233354   4.399   3.714   6.503
10819SOL     OW33355   1.437   3.876   5.636
10819SOL    HW133356   1.488   3.803   5.592
10819SOL    HW233357   1.341   3.849   5.646
10820SOL     OW33358   0.449   6.225   4.515
10820SOL    HW133359   0.514   6.261   4.581
10820SOL    HW233360   0.372   6.289   4.505
10821SOL     OW33361   0.683   1.003   6.762
10821SOL    HW133362   0.617   0.965   6.828
10821SOL    HW233363   0.768   1.024   6.809
10822SOL     OW33364   0.507   4.310   6.967
10822SOL    HW133365   0.407   4.318   6.956
10822SOL    HW233366   0.549   4.302   6.877
10823SOL     OW33367   2.024   2.643   1.145
10823SOL    HW133368   1.967   2.603   1.216
10823SOL    HW233369   2.103   2.584   1.128
10824SOL     OW33370   5.328   1.115   3.882
10824SOL    HW133371   5.312   1.192   3.944
10824SOL    HW233372   5.304   1.029   3.928
10825SOL     OW33373   3.145   1.033   2.586
10825SOL    HW133374   3.103   1.116   2.623
10825SOL    HW233375   3.213   0.998   2.650
10826SOL     OW33376   0.171   3.343   1.209
10826SOL    HW133377   0.246   3.280   1.193
10826SOL    HW233378   0.165   3.365   1.306
10827SOL     OW33379   0.589   2.429   4.501
10827SOL    HW133380   0.600   2.515   4.452
10827SOL    HW233381   0.612   2.442   4.598
10828SOL     OW33382   2.497   5.094   0.288
10828SOL    HW133383   2.420   5.116   0.347
10828SOL    HW233384   2.464   5.043   0.208
10829SOL     OW33385   2.229   4.035   2.130
10829SOL    HW133386   2.246   3.937   2.126
10829SOL    HW233387   2.139   4.051   2.170
10830SOL     OW33388   5.847   0.671   3.283
10830SOL    HW133389   5.830   0.687   3.380
10830SOL    HW233390   5.890   0.581   3.271
10831SOL     OW33391   5.652   2.724   1.786
10831SOL    HW133392   5.586   2.672   1.732
10831SOL    HW233393   5.717   2.661   1.828
10832SOL     OW33394   0.809   3.164   2.768
10832SOL    HW133395   0.771   3.175   2.860
10832SOL    HW233396   0.862   3.246   2.745
10833SOL     OW33397   2.931   6.956   3.917
10833SOL    HW133398   2.926   6.857   3.909
10833SOL    HW233399   2.855   6.989   3.972
10834SOL     OW33400   6.712   1.007   6.018
10834SOL    HW133401   6.673   1.003   6.111
10834SOL    HW233402   6.748   1.098   6.001
10835SOL     OW33403   0.615   1.952   0.758
10835SOL    HW133404   0.649   2.026   0.816
10835SOL    HW233405   0.648   1.967   0.664
10836SOL     OW33406   0.906   3.009   1.045
10836SOL    HW133407   0.868   2.917   1.055
10836SOL    HW233408   0.919   3.028   0.948
10837SOL     OW33409   0.749   6.166   1.044
10837SOL    HW133410   0.684   6.168   0.968
10837SOL    HW233411   0.808   6.086   1.035
10838SOL     OW33412   6.516   6.466   0.410
10838SOL    HW133413   6.533   6.430   0.502
10838SOL    HW233414   6.461   6.401   0.358
10839SOL     OW33415   1.606   1.478   6.776
10839SOL    HW133416   1.678   1.524   6.827
10839SOL    HW233417   1.517   1.502   6.814
10840SOL     OW33418   2.429   6.894   2.756
10840SOL    HW133419   2.488   6.813   2.766
10840SOL    HW233420   2.479   6.976   2.783
10841SOL     OW33421   4.483   3.680   0.542
10841SOL    HW133422   4.458   3.753   0.606
10841SOL    HW233423   4.578   3.692   0.512
10842SOL     OW33424   5.864   2.496   1.662
10842SOL    HW133425   5.836   2.521   1.754
10842SOL    HW233426   5.959   2.465   1.663
10843SOL     OW33427   0.667   1.711   1.876
10843SOL    HW133428   0.749   1.667   1.839
10843SOL    HW233429   0.586   1.678   1.827
10844SOL     OW33430   4.736   0.324   3.753
10844SOL    HW133431   4.818   0.316   3.697
10844SOL    HW233432   4.735   0.254   3.824
10845SOL     OW33433   2.162   3.190   1.239
10845SOL    HW133434   2.113   3.104   1.228
10845SOL    HW233435   2.177   3.231   1.149
10846SOL     OW33436   3.577   2.454   1.423
10846SOL    HW133437   3.481   2.461   1.395
10846SOL    HW233438   3.589   2.497   1.512
10847SOL     OW33439   4.847   2.229   5.228
10847SOL    HW133440   4.792   2.249   5.310
10847SOL    HW233441   4.792   2.245   5.146
10848SOL     OW33442   1.770   0.921   6.785
10848SOL    HW133443   1.822   0.837   6.778
10848SOL    HW233444   1.768   0.968   6.697
10849SOL     OW33445   1.613   5.020   4.187
10849SOL    HW133446   1.574   5.025   4.279
10849SOL    HW233447   1.649   4.928   4.172
10850SOL     OW33448   5.216   1.266   1.919
10850SOL    HW133449   5.198   1.293   2.013
10850SOL    HW233450   5.310   1.288   1.895
10851SOL     OW33451   4.354   3.128   0.091
10851SOL    HW133452   4.359   3.047   0.033
10851SOL    HW233453   4.277   3.119   0.155
10852SOL     OW33454   6.560   0.090   6.251
10852SOL    HW133455   6.564   0.140   6.338
10852SOL    HW233456   6.468   0.055   6.237
10853SOL     OW33457   3.242   0.956   4.446
10853SOL    HW133458   3.313   1.007   4.495
10853SOL    HW233459   3.209   0.881   4.503
10854SOL     OW33460   6.394   6.944   0.807
10854SOL    HW133461   6.381   7.019   0.872
10854SOL    HW233462   6.418   6.982   0.717
10855SOL     OW33463   0.378   5.804   1.658
10855SOL    HW133464   0.449   5.780   1.593
10855SOL    HW233465   0.297   5.836   1.609
10856SOL     OW33466   5.333   0.022   6.691
10856SOL    HW133467   5.385   6.969   6.667
10856SOL    HW233468   5.267   0.001   6.763
10857SOL     OW33469   6.246   7.008   4.599
10857SOL    HW133470   6.166   6.952   4.575
10857SOL    HW233471   6.328   6.965   4.562
10858SOL     OW33472   2.103   2.134   6.996
10858SOL    HW133473   2.043   2.142   6.917
10858SOL    HW233474   2.198   2.130   6.965
10859SOL     OW33475   1.825   5.220   2.610
10859SOL    HW133476   1.880   5.140   2.587
10859SOL    HW233477   1.886   5.296   2.632
10860SOL     OW33478   5.964   1.985   1.232
10860SOL    HW133479   5.899   1.916   1.263
10860SOL    HW233480   5.917   2.048   1.170
10861SOL     OW33481   1.739   4.073   1.509
10861SOL    HW133482   1.783   4.004   1.566
10861SOL    HW233483   1.675   4.030   1.446
10862SOL     OW33484   3.902   4.568   5.315
10862SOL    HW133485   3.877   4.480   5.274
10862SOL    HW233486   3.997   4.565   5.345
10863SOL     OW33487   2.015   6.701   3.379
10863SOL    HW133488   2.115   6.704   3.380
10863SOL    HW233489   1.981   6.753   3.301
10864SOL     OW33490   2.785   3.417   1.859
10864SOL    HW133491   2.776   3.455   1.951
10864SOL    HW233492   2.880   3.425   1.829
10865SOL     OW33493   2.979   1.885   2.746
10865SOL    HW133494   2.950   1.850   2.657
10865SOL    HW233495   3.005   1.981   2.737
10866SOL     OW33496   0.969   3.403   4.487
10866SOL    HW133497   0.989   3.470   4.416
10866SOL    HW233498   1.008   3.433   4.574
10867SOL     OW33499   4.460   3.326   6.838
10867SOL    HW133500   4.400   3.310   6.916
10867SOL    HW233501   4.552   3.348   6.871
10868SOL     OW33502   1.138   6.724   5.229
10868SOL    HW133503   1.230   6.694   5.204
10868SOL    HW233504   1.107   6.672   5.309
10869NA      NA33505   0.036   1.036   6.264
10870NA      NA33506   4.682   4.802   5.195
10871NA      NA33507   0.911   4.750   2.954
10872NA      NA33508   5.988   3.328   3.296
10873NA      NA33509   3.802   2.702   5.449
10874NA      NA33510   2.311   4.318   7.007
10875NA      NA33511   1.653   5.510   0.211
10876NA      NA33512   4.128   4.850   1.706
10877NA      NA33513   4.931   4.060   1.147
10878NA      NA33514   3.702   1.533   0.756
10879NA      NA33515   5.428   6.701   1.637
10880NA      NA33516   2.263   6.982   5.186
10881NA      NA33517   4.232   4.950   2.926
10882NA      NA33518   4.193   4.537   6.490
   7.02901   7.02901   7.02901
