Generated by trjconv : CNT in water t= 187.00000
33518
    1C        C    1   2.844   2.770   4.750
    1C        C    2   2.897   2.719   4.870
    1C        C    3   2.845   2.771   4.990
    1C        C    4   2.852   2.776   4.261
    1C        C    5   2.906   2.733   4.384
    1C        C    6   2.848   2.771   4.507
    1C        C    7   3.016   2.642   4.628
    1C        C    8   2.900   2.723   4.629
    1C        C    9   3.076   2.602   4.750
    1C        C   10   3.010   2.634   4.870
    1C        C   11   3.180   2.495   4.980
    1C        C   12   3.059   2.565   4.982
    1C        C   13   2.852   2.774   3.775
    1C        C   14   2.902   2.723   3.897
    1C        C   15   2.850   2.775   4.018
    1C        C   16   3.020   2.646   4.140
    1C        C   17   2.903   2.727   4.139
    1C        C   18   3.082   2.614   4.262
    1C        C   19   3.022   2.652   4.384
    1C        C   20   3.209   2.557   4.506
    1C        C   21   3.078   2.608   4.506
    1C        C   22   3.279   2.537   4.628
    1C        C   23   3.208   2.550   4.750
    1C        C   24   3.412   2.484   4.872
    1C        C   25   3.269   2.502   4.869
    1C        C   26   3.489   2.475   4.988
    1C        C   27   2.845   2.765   3.286
    1C        C   28   2.903   2.722   3.407
    1C        C   29   2.848   2.765   3.530
    1C        C   30   3.018   2.641   3.652
    1C        C   31   2.904   2.724   3.653
    1C        C   32   3.078   2.602   3.774
    1C        C   33   3.017   2.641   3.895
    1C        C   34   3.206   2.547   4.019
    1C        C   35   3.077   2.604   4.018
    1C        C   36   3.278   2.535   4.141
    1C        C   37   3.212   2.558   4.264
    1C        C   38   3.418   2.509   4.386
    1C        C   39   3.278   2.530   4.386
    1C        C   40   3.488   2.505   4.508
    1C        C   41   3.418   2.513   4.631
    1C        C   42   3.629   2.488   4.747
    1C        C   43   3.487   2.491   4.752
    1C        C   44   3.705   2.489   4.866
    1C        C   45   3.628   2.484   4.983
    1C        C   46   2.841   2.755   2.796
    1C        C   47   2.895   2.709   2.918
    1C        C   48   2.842   2.758   3.040
    1C        C   49   3.016   2.640   3.164
    1C        C   50   2.897   2.718   3.163
    1C        C   51   3.078   2.602   3.285
    1C        C   52   3.018   2.640   3.407
    1C        C   53   3.211   2.553   3.531
    1C        C   54   3.080   2.606   3.529
    1C        C   55   3.277   2.527   3.653
    1C        C   56   3.207   2.547   3.775
    1C        C   57   3.415   2.510   3.897
    1C        C   58   3.276   2.530   3.898
    1C        C   59   3.488   2.508   4.018
    1C        C   60   3.417   2.513   4.141
    1C        C   61   3.628   2.501   4.263
    1C        C   62   3.487   2.501   4.263
    1C        C   63   3.701   2.506   4.384
    1C        C   64   3.629   2.500   4.505
    1C        C   65   3.837   2.543   4.624
    1C        C   66   3.702   2.503   4.627
    1C        C   67   3.904   2.568   4.745
    1C        C   68   3.839   2.535   4.866
    1C        C   69   4.050   2.588   4.976
    1C        C   70   3.922   2.530   4.978
    1C        C   71   2.829   2.741   2.309
    1C        C   72   2.883   2.695   2.432
    1C        C   73   2.831   2.747   2.553
    1C        C   74   3.011   2.631   2.675
    1C        C   75   2.889   2.702   2.674
    1C        C   76   3.074   2.598   2.797
    1C        C   77   3.012   2.630   2.919
    1C        C   78   3.205   2.546   3.041
    1C        C   79   3.079   2.608   3.042
    1C        C   80   3.275   2.527   3.163
    1C        C   81   3.210   2.550   3.286
    1C        C   82   3.414   2.494   3.405
    1C        C   83   3.277   2.528   3.409
    1C        C   84   3.484   2.494   3.528
    1C        C   85   3.416   2.502   3.652
    1C        C   86   3.626   2.501   3.774
    1C        C   87   3.485   2.496   3.775
    1C        C   88   3.697   2.510   3.896
    1C        C   89   3.629   2.507   4.019
    1C        C   90   3.837   2.545   4.137
    1C        C   91   3.700   2.511   4.141
    1C        C   92   3.902   2.569   4.260
    1C        C   93   3.836   2.546   4.383
    1C        C   94   4.032   2.635   4.501
    1C        C   95   3.907   2.568   4.503
    1C        C   96   4.092   2.676   4.622
    1C        C   97   4.029   2.636   4.742
    1C        C   98   4.189   2.772   4.865
    1C        C   99   4.098   2.662   4.864
    1C        C  100   4.208   2.852   4.978
    1C        C  101   2.819   2.726   2.072
    1C        C  102   2.990   2.591   2.193
    1C        C  103   2.879   2.681   2.190
    1C        C  104   3.063   2.574   2.313
    1C        C  105   3.003   2.621   2.432
    1C        C  106   3.199   2.536   2.552
    1C        C  107   3.070   2.592   2.553
    1C        C  108   3.271   2.520   2.673
    1C        C  109   3.206   2.545   2.796
    1C        C  110   3.410   2.495   2.917
    1C        C  111   3.272   2.524   2.919
    1C        C  112   3.483   2.487   3.038
    1C        C  113   3.414   2.499   3.161
    1C        C  114   3.625   2.496   3.281
    1C        C  115   3.484   2.486   3.283
    1C        C  116   3.695   2.508   3.403
    1C        C  117   3.625   2.504   3.526
    1C        C  118   3.830   2.545   3.648
    1C        C  119   3.692   2.515   3.650
    1C        C  120   3.898   2.571   3.769
    1C        C  121   3.834   2.545   3.892
    1C        C  122   4.022   2.644   4.014
    1C        C  123   3.901   2.571   4.014
    1C        C  124   4.082   2.679   4.137
    1C        C  125   4.026   2.635   4.259
    1C        C  126   4.196   2.768   4.377
    1C        C  127   4.089   2.676   4.379
    1C        C  128   4.244   2.823   4.497
    1C        C  129   4.196   2.772   4.620
    1C        C  130   4.321   2.942   4.742
    1C        C  131   4.241   2.824   4.743
    1C        C  132   4.353   3.008   4.862
    1C        C  133   4.292   2.963   4.980
    1C        C  134   3.173   2.468   2.083
    1C        C  135   3.038   2.506   2.088
    1C        C  136   3.260   2.484   2.191
    1C        C  137   3.195   2.521   2.311
    1C        C  138   3.405   2.480   2.430
    1C        C  139   3.267   2.506   2.432
    1C        C  140   3.481   2.482   2.549
    1C        C  141   3.410   2.496   2.671
    1C        C  142   3.620   2.495   2.793
    1C        C  143   3.479   2.491   2.794
    1C        C  144   3.692   2.506   2.914
    1C        C  145   3.624   2.490   3.037
    1C        C  146   3.830   2.543   3.156
    1C        C  147   3.695   2.501   3.158
    1C        C  148   3.899   2.563   3.278
    1C        C  149   3.833   2.539   3.400
    1C        C  150   4.021   2.630   3.524
    1C        C  151   3.896   2.563   3.524
    1C        C  152   4.080   2.672   3.645
    1C        C  153   4.023   2.637   3.770
    1C        C  154   4.189   2.771   3.888
    1C        C  155   4.081   2.681   3.890
    1C        C  156   4.242   2.817   4.011
    1C        C  157   4.191   2.769   4.134
    1C        C  158   4.337   2.926   4.253
    1C        C  159   4.246   2.818   4.254
    1C        C  160   4.377   2.987   4.374
    1C        C  161   4.328   2.936   4.497
    1C        C  162   4.441   3.115   4.616
    1C        C  163   4.369   2.994   4.620
    1C        C  164   4.469   3.183   4.736
    1C        C  165   4.435   3.124   4.859
    1C        C  166   4.522   3.322   4.973
    1C        C  167   4.481   3.190   4.974
    1C        C  168   3.476   2.443   2.073
    1C        C  169   3.400   2.462   2.190
    1C        C  170   3.618   2.465   2.309
    1C        C  171   3.476   2.468   2.308
    1C        C  172   3.693   2.482   2.428
    1C        C  173   3.622   2.485   2.550
    1C        C  174   3.829   2.538   2.668
    1C        C  175   3.693   2.498   2.672
    1C        C  176   3.895   2.563   2.790
    1C        C  177   3.828   2.541   2.912
    1C        C  178   4.024   2.627   3.034
    1C        C  179   3.895   2.570   3.034
    1C        C  180   4.084   2.664   3.157
    1C        C  181   4.026   2.626   3.279
    1C        C  182   4.194   2.754   3.402
    1C        C  183   4.083   2.665   3.402
    1C        C  184   4.244   2.808   3.522
    1C        C  185   4.191   2.759   3.644
    1C        C  186   4.335   2.919   3.765
    1C        C  187   4.243   2.812   3.764
    1C        C  188   4.375   2.981   3.886
    1C        C  189   4.332   2.927   4.009
    1C        C  190   4.447   3.105   4.130
    1C        C  191   4.377   2.983   4.130
    1C        C  192   4.477   3.172   4.250
    1C        C  193   4.448   3.109   4.373
    1C        C  194   4.504   3.317   4.495
    1C        C  195   4.469   3.180   4.494
    1C        C  196   4.526   3.389   4.614
    1C        C  197   4.515   3.318   4.736
    1C        C  198   4.558   3.536   4.852
    1C        C  199   4.531   3.395   4.854
    1C        C  200   4.584   3.620   4.964
    1C        C  201   3.614   2.423   2.076
    1C        C  202   3.826   2.517   2.183
    1C        C  203   3.693   2.464   2.188
    1C        C  204   3.897   2.542   2.304
    1C        C  205   3.829   2.519   2.425
    1C        C  206   4.021   2.619   2.543
    1C        C  207   3.896   2.552   2.545
    1C        C  208   4.077   2.663   2.665
    1C        C  209   4.018   2.632   2.790
    1C        C  210   4.198   2.746   2.910
    1C        C  211   4.081   2.668   2.911
    1C        C  212   4.252   2.792   3.033
    1C        C  213   4.194   2.753   3.156
    1C        C  214   4.331   2.912   3.274
    1C        C  215   4.241   2.804   3.279
    1C        C  216   4.370   2.974   3.395
    1C        C  217   4.330   2.920   3.520
    1C        C  218   4.436   3.103   3.639
    1C        C  219   4.375   2.976   3.642
    1C        C  220   4.464   3.171   3.760
    1C        C  221   4.441   3.105   3.883
    1C        C  222   4.504   3.307   4.006
    1C        C  223   4.470   3.170   4.006
    1C        C  224   4.518   3.378   4.128
    1C        C  225   4.508   3.310   4.251
    1C        C  226   4.534   3.524   4.367
    1C        C  227   4.519   3.384   4.371
    1C        C  228   4.530   3.598   4.488
    1C        C  229   4.540   3.530   4.611
    1C        C  230   4.515   3.745   4.728
    1C        C  231   4.546   3.607   4.729
    1C        C  232   4.500   3.819   4.847
    1C        C  233   4.543   3.754   4.964
    1C        C  234   4.022   2.601   2.062
    1C        C  235   3.896   2.542   2.065
    1C        C  236   4.084   2.646   2.179
    1C        C  237   4.022   2.611   2.301
    1C        C  238   4.199   2.735   2.424
    1C        C  239   4.086   2.648   2.421
    1C        C  240   4.250   2.785   2.546
    1C        C  241   4.194   2.742   2.668
    1C        C  242   4.332   2.909   2.785
    1C        C  243   4.244   2.799   2.787
    1C        C  244   4.376   2.962   2.909
    1C        C  245   4.337   2.905   3.032
    1C        C  246   4.437   3.095   3.150
    1C        C  247   4.374   2.969   3.152
    1C        C  248   4.455   3.165   3.271
    1C        C  249   4.428   3.103   3.395
    1C        C  250   4.501   3.304   3.514
    1C        C  251   4.461   3.168   3.516
    1C        C  252   4.515   3.374   3.637
    1C        C  253   4.505   3.306   3.760
    1C        C  254   4.525   3.515   3.879
    1C        C  255   4.519   3.374   3.883
    1C        C  256   4.522   3.588   4.000
    1C        C  257   4.526   3.519   4.123
    1C        C  258   4.496   3.730   4.242
    1C        C  259   4.528   3.593   4.244
    1C        C  260   4.474   3.800   4.363
    1C        C  261   4.491   3.734   4.486
    1C        C  262   4.426   3.938   4.603
    1C        C  263   4.482   3.809   4.606
    1C        C  264   4.401   4.010   4.722
    1C        C  265   4.439   3.946   4.843
    1C        C  266   4.320   4.127   4.959
    1C        C  267   4.401   4.014   4.959
    1C        C  268   4.260   2.775   2.064
    1C        C  269   4.195   2.733   2.181
    1C        C  270   4.340   2.892   2.300
    1C        C  271   4.250   2.782   2.302
    1C        C  272   4.379   2.955   2.420
    1C        C  273   4.339   2.895   2.542
    1C        C  274   4.443   3.085   2.663
    1C        C  275   4.377   2.960   2.661
    1C        C  276   4.470   3.152   2.784
    1C        C  277   4.439   3.088   2.906
    1C        C  278   4.501   3.294   3.026
    1C        C  279   4.465   3.157   3.026
    1C        C  280   4.514   3.367   3.146
    1C        C  281   4.495   3.301   3.270
    1C        C  282   4.522   3.512   3.389
    1C        C  283   4.514   3.371   3.391
    1C        C  284   4.522   3.585   3.511
    1C        C  285   4.525   3.515   3.633
    1C        C  286   4.501   3.725   3.754
    1C        C  287   4.522   3.585   3.756
    1C        C  288   4.480   3.793   3.876
    1C        C  289   4.502   3.728   3.999
    1C        C  290   4.435   3.932   4.118
    1C        C  291   4.486   3.800   4.120
    1C        C  292   4.401   3.999   4.238
    1C        C  293   4.430   3.934   4.360
    1C        C  294   4.327   4.125   4.480
    1C        C  295   4.396   4.002   4.480
    1C        C  296   4.289   4.188   4.601
    1C        C  297   4.330   4.133   4.725
    1C        C  298   4.199   4.312   4.839
    1C        C  299   4.283   4.196   4.843
    1C        C  300   4.171   4.402   4.947
    1C        C  301   4.349   2.882   2.065
    1C        C  302   4.470   3.068   2.178
    1C        C  303   4.393   2.947   2.180
    1C        C  304   4.483   3.142   2.298
    1C        C  305   4.446   3.079   2.419
    1C        C  306   4.509   3.284   2.537
    1C        C  307   4.476   3.147   2.540
    1C        C  308   4.520   3.355   2.659
    1C        C  309   4.505   3.289   2.783
    1C        C  310   4.519   3.504   2.898
    1C        C  311   4.515   3.363   2.903
    1C        C  312   4.521   3.575   3.020
    1C        C  313   4.522   3.508   3.144
    1C        C  314   4.495   3.719   3.264
    1C        C  315   4.518   3.579   3.265
    1C        C  316   4.476   3.789   3.385
    1C        C  317   4.492   3.723   3.509
    1C        C  318   4.423   3.922   3.628
    1C        C  319   4.477   3.792   3.632
    1C        C  320   4.393   3.985   3.751
    1C        C  321   4.429   3.924   3.874
    1C        C  322   4.324   4.109   3.992
    1C        C  323   4.406   3.994   3.994
    1C        C  324   4.279   4.167   4.113
    1C        C  325   4.327   4.119   4.237
    1C        C  326   4.185   4.279   4.356
    1C        C  327   4.286   4.181   4.357
    1C        C  328   4.133   4.332   4.477
    1C        C  329   4.190   4.288   4.599
    1C        C  330   4.024   4.432   4.716
    1C        C  331   4.140   4.350   4.715
    1C        C  332   3.969   4.489   4.833
    1C        C  333   4.053   4.478   4.944
    1C        C  334   4.555   3.263   2.064
    1C        C  335   4.535   3.124   2.063
    1C        C  336   4.541   3.349   2.173
    1C        C  337   4.516   3.280   2.294
    1C        C  338   4.523   3.495   2.412
    1C        C  339   4.520   3.354   2.415
    1C        C  340   4.520   3.567   2.533
    1C        C  341   4.528   3.496   2.655
    1C        C  342   4.498   3.712   2.774
    1C        C  343   4.520   3.572   2.774
    1C        C  344   4.483   3.783   2.895
    1C        C  345   4.501   3.715   3.018
    1C        C  346   4.428   3.915   3.139
    1C        C  347   4.480   3.784   3.140
    1C        C  348   4.392   3.981   3.259
    1C        C  349   4.425   3.920   3.383
    1C        C  350   4.312   4.101   3.502
    1C        C  351   4.392   3.984   3.505
    1C        C  352   4.274   4.160   3.625
    1C        C  353   4.316   4.103   3.748
    1C        C  354   4.175   4.261   3.868
    1C        C  355   4.276   4.161   3.870
    1C        C  356   4.119   4.308   3.989
    1C        C  357   4.174   4.262   4.111
    1C        C  358   4.016   4.403   4.233
    1C        C  359   4.128   4.318   4.232
    1C        C  360   3.957   4.448   4.353
    1C        C  361   4.020   4.416   4.475
    1C        C  362   3.825   4.507   4.594
    1C        C  363   3.957   4.458   4.594
    1C        C  364   3.760   4.542   4.715
    1C        C  365   3.839   4.544   4.832
    1C        C  366   3.629   4.596   4.948
    1C        C  367   3.767   4.573   4.949
    1C        C  368   4.517   3.568   2.054
    1C        C  369   4.522   3.489   2.169
    1C        C  370   4.504   3.705   2.288
    1C        C  371   4.516   3.564   2.289
    1C        C  372   4.479   3.774   2.409
    1C        C  373   4.498   3.706   2.531
    1C        C  374   4.421   3.908   2.651
    1C        C  375   4.475   3.778   2.651
    1C        C  376   4.392   3.973   2.772
    1C        C  377   4.423   3.910   2.895
    1C        C  378   4.314   4.093   3.012
    1C        C  379   4.393   3.976   3.016
    1C        C  380   4.273   4.152   3.134
    1C        C  381   4.314   4.098   3.258
    1C        C  382   4.172   4.258   3.379
    1C        C  383   4.266   4.153   3.379
    1C        C  384   4.118   4.304   3.502
    1C        C  385   4.174   4.260   3.624
    1C        C  386   4.002   4.382   3.744
    1C        C  387   4.122   4.308   3.746
    1C        C  388   3.943   4.423   3.866
    1C        C  389   4.004   4.390   3.989
    1C        C  390   3.817   4.485   4.111
    1C        C  391   3.948   4.431   4.112
    1C        C  392   3.752   4.511   4.233
    1C        C  393   3.824   4.498   4.354
    1C        C  394   3.618   4.559   4.476
    1C        C  395   3.756   4.531   4.473
    1C        C  396   3.546   4.566   4.597
    1C        C  397   3.620   4.561   4.717
    1C        C  398   3.406   4.560   4.839
    1C        C  399   3.546   4.578   4.836
    1C        C  400   3.339   4.518   4.955
    1C        C  401   4.496   3.706   2.055
    1C        C  402   4.454   3.918   2.168
    1C        C  403   4.498   3.784   2.171
    1C        C  404   4.407   3.976   2.288
    1C        C  405   4.433   3.907   2.408
    1C        C  406   4.325   4.095   2.527
    1C        C  407   4.397   3.974   2.528
    1C        C  408   4.276   4.153   2.647
    1C        C  409   4.315   4.092   2.768
    1C        C  410   4.172   4.249   2.891
    1C        C  411   4.270   4.148   2.890
    1C        C  412   4.120   4.296   3.014
    1C        C  413   4.172   4.251   3.137
    1C        C  414   3.996   4.375   3.255
    1C        C  415   4.116   4.301   3.257
    1C        C  416   3.937   4.410   3.379
    1C        C  417   3.998   4.379   3.502
    1C        C  418   3.809   4.477   3.620
    1C        C  419   3.937   4.417   3.623
    1C        C  420   3.745   4.503   3.743
    1C        C  421   3.814   4.481   3.864
    1C        C  422   3.612   4.533   3.991
    1C        C  423   3.751   4.505   3.988
    1C        C  424   3.542   4.547   4.113
    1C        C  425   3.614   4.538   4.234
    1C        C  426   3.403   4.555   4.360
    1C        C  427   3.544   4.559   4.356
    1C        C  428   3.329   4.552   4.480
    1C        C  429   3.405   4.562   4.599
    1C        C  430   3.193   4.521   4.723
    1C        C  431   3.332   4.550   4.719
    1C        C  432   3.123   4.498   4.845
    1C        C  433   3.203   4.492   4.960
    1C        C  434   4.385   4.122   2.055
    1C        C  435   4.443   3.995   2.052
    1C        C  436   4.306   4.167   2.166
    1C        C  437   4.332   4.097   2.287
    1C        C  438   4.180   4.251   2.401
    1C        C  439   4.282   4.153   2.406
    1C        C  440   4.127   4.302   2.522
    1C        C  441   4.178   4.254   2.644
    1C        C  442   4.010   4.382   2.768
    1C        C  443   4.123   4.298   2.767
    1C        C  444   3.942   4.411   2.889
    1C        C  445   4.000   4.370   3.011
    1C        C  446   3.811   4.473   3.132
    1C        C  447   3.937   4.409   3.131
    1C        C  448   3.744   4.495   3.254
    1C        C  449   3.809   4.470   3.377
    1C        C  450   3.604   4.530   3.502
    1C        C  451   3.742   4.501   3.497
    1C        C  452   3.538   4.548   3.625
    1C        C  453   3.609   4.540   3.747
    1C        C  454   3.399   4.548   3.868
    1C        C  455   3.540   4.545   3.870
    1C        C  456   3.331   4.543   3.992
    1C        C  457   3.400   4.545   4.115
    1C        C  458   3.195   4.508   4.239
    1C        C  459   3.332   4.543   4.238
    1C        C  460   3.125   4.488   4.360
    1C        C  461   3.192   4.517   4.481
    1C        C  462   2.994   4.440   4.603
    1C        C  463   3.125   4.493   4.603
    1C        C  464   2.931   4.401   4.723
    1C        C  465   2.990   4.444   4.845
    1C        C  466   2.803   4.335   4.962
    1C        C  467   2.907   4.429   4.961
    1C        C  468   4.124   4.297   2.045
    1C        C  469   4.192   4.253   2.160
    1C        C  470   4.011   4.378   2.281
    1C        C  471   4.129   4.299   2.279
    1C        C  472   3.946   4.409   2.402
    1C        C  473   4.008   4.379   2.525
    1C        C  474   3.814   4.468   2.646
    1C        C  475   3.944   4.412   2.647
    1C        C  476   3.746   4.492   2.767
    1C        C  477   3.812   4.466   2.890
    1C        C  478   3.604   4.518   3.011
    1C        C  479   3.742   4.492   3.010
    1C        C  480   3.532   4.528   3.133
    1C        C  481   3.605   4.525   3.253
    1C        C  482   3.397   4.537   3.379
    1C        C  483   3.538   4.535   3.377
    1C        C  484   3.324   4.536   3.501
    1C        C  485   3.396   4.546   3.622
    1C        C  486   3.193   4.502   3.747
    1C        C  487   3.329   4.541   3.746
    1C        C  488   3.130   4.479   3.872
    1C        C  489   3.195   4.505   3.994
    1C        C  490   3.001   4.423   4.117
    1C        C  491   3.128   4.486   4.117
    1C        C  492   2.942   4.382   4.238
    1C        C  493   3.000   4.422   4.361
    1C        C  494   2.826   4.305   4.483
    1C        C  495   2.936   4.394   4.483
    1C        C  496   2.771   4.260   4.605
    1C        C  497   2.819   4.313   4.726
    1C        C  498   2.662   4.168   4.843
    1C        C  499   2.755   4.274   4.846
    1C        C  500   2.598   4.120   4.958
    1C        C  501   3.998   4.354   2.041
    1C        C  502   3.819   4.471   2.160
    1C        C  503   3.946   4.408   2.159
    1C        C  504   3.749   4.490   2.281
    1C        C  505   3.813   4.458   2.402
    1C        C  506   3.607   4.510   2.519
    1C        C  507   3.746   4.487   2.523
    1C        C  508   3.538   4.523   2.642
    1C        C  509   3.607   4.519   2.765
    1C        C  510   3.395   4.532   2.886
    1C        C  511   3.536   4.525   2.887
    1C        C  512   3.322   4.530   3.007
    1C        C  513   3.390   4.536   3.130
    1C        C  514   3.189   4.500   3.257
    1C        C  515   3.327   4.531   3.256
    1C        C  516   3.121   4.478   3.379
    1C        C  517   3.186   4.509   3.501
    1C        C  518   3.002   4.411   3.626
    1C        C  519   3.125   4.482   3.625
    1C        C  520   2.945   4.373   3.750
    1C        C  521   3.005   4.412   3.872
    1C        C  522   2.837   4.287   3.996
    1C        C  523   2.945   4.378   3.995
    1C        C  524   2.792   4.233   4.119
    1C        C  525   2.834   4.291   4.240
    1C        C  526   2.695   4.133   4.366
    1C        C  527   2.781   4.245   4.363
    1C        C  528   2.646   4.080   4.487
    1C        C  529   2.687   4.146   4.605
    1C        C  530   2.588   3.960   4.731
    1C        C  531   2.641   4.092   4.727
    1C        C  532   2.542   3.901   4.852
    1C        C  533   2.536   3.995   4.960
    1C        C  534   3.617   4.558   2.040
    1C        C  535   3.749   4.511   2.046
    1C        C  536   3.539   4.539   2.158
    1C        C  537   3.609   4.518   2.279
    1C        C  538   3.393   4.527   2.401
    1C        C  539   3.534   4.521   2.399
    1C        C  540   3.323   4.516   2.523
    1C        C  541   3.397   4.520   2.643
    1C        C  542   3.187   4.491   2.766
    1C        C  543   3.325   4.522   2.764
    1C        C  544   3.122   4.464   2.888
    1C        C  545   3.186   4.490   3.011
    1C        C  546   2.997   4.410   3.136
    1C        C  547   3.121   4.477   3.136
    1C        C  548   2.941   4.366   3.258
    1C        C  549   2.997   4.410   3.380
    1C        C  550   2.835   4.281   3.505
    1C        C  551   2.941   4.374   3.504
    1C        C  552   2.785   4.234   3.629
    1C        C  553   2.835   4.284   3.750
    1C        C  554   2.702   4.122   3.874
    1C        C  555   2.789   4.234   3.874
    1C        C  556   2.665   4.064   3.997
    1C        C  557   2.708   4.120   4.120
    1C        C  558   2.603   3.941   4.245
    1C        C  559   2.665   4.068   4.244
    1C        C  560   2.574   3.880   4.370
    1C        C  561   2.589   3.951   4.491
    1C        C  562   2.536   3.746   4.616
    1C        C  563   2.570   3.883   4.614
    1C        C  564   2.515   3.682   4.739
    1C        C  565   2.518   3.760   4.858
    1C        C  566   2.540   3.546   4.979
    1C        C  567   2.533   3.685   4.975
    1C        C  568   3.329   4.479   2.043
    1C        C  569   3.398   4.518   2.158
    1C        C  570   3.186   4.479   2.282
    1C        C  571   3.322   4.519   2.278
    1C        C  572   3.116   4.464   2.404
    1C        C  573   3.185   4.488   2.525
    1C        C  574   2.988   4.407   2.648
    1C        C  575   3.114   4.470   2.646
    1C        C  576   2.928   4.369   2.770
    1C        C  577   2.994   4.404   2.890
    1C        C  578   2.831   4.275   3.016
    1C        C  579   2.939   4.366   3.014
    1C        C  580   2.778   4.226   3.138
    1C        C  581   2.831   4.277   3.259
    1C        C  582   2.702   4.114   3.384
    1C        C  583   2.789   4.226   3.384
    1C        C  584   2.665   4.058   3.508
    1C        C  585   2.701   4.120   3.629
    1C        C  586   2.606   3.932   3.756
    1C        C  587   2.663   4.062   3.752
    1C        C  588   2.574   3.872   3.879
    1C        C  589   2.600   3.939   4.001
    1C        C  590   2.539   3.738   4.128
    1C        C  591   2.575   3.874   4.124
    1C        C  592   2.526   3.671   4.252
    1C        C  593   2.534   3.745   4.373
    1C        C  594   2.516   3.533   4.500
    1C        C  595   2.523   3.674   4.495
    1C        C  596   2.520   3.463   4.623
    1C        C  597   2.517   3.539   4.742
    1C        C  598   2.538   3.328   4.862
    1C        C  599   2.529   3.468   4.863
    1C        C  600   2.536   3.249   4.978
    1C        C  601   3.197   4.437   2.045
    1C        C  602   2.985   4.393   2.161
    1C        C  603   3.120   4.441   2.161
    1C        C  604   2.926   4.361   2.286
    1C        C  605   2.988   4.405   2.405
    1C        C  606   2.824   4.271   2.529
    1C        C  607   2.926   4.369   2.526
    1C        C  608   2.777   4.217   2.651
    1C        C  609   2.824   4.274   2.772
    1C        C  610   2.693   4.112   2.897
    1C        C  611   2.777   4.225   2.896
    1C        C  612   2.660   4.050   3.020
    1C        C  613   2.693   4.114   3.142
    1C        C  614   2.598   3.925   3.267
    1C        C  615   2.659   4.053   3.264
    1C        C  616   2.574   3.864   3.392
    1C        C  617   2.606   3.930   3.513
    1C        C  618   2.533   3.730   3.636
    1C        C  619   2.575   3.865   3.635
    1C        C  620   2.522   3.664   3.761
    1C        C  621   2.535   3.736   3.882
    1C        C  622   2.513   3.528   4.010
    1C        C  623   2.523   3.669   4.006
    1C        C  624   2.520   3.459   4.133
    1C        C  625   2.517   3.531   4.255
    1C        C  626   2.541   3.322   4.381
    1C        C  627   2.519   3.462   4.379
    1C        C  628   2.555   3.250   4.502
    1C        C  629   2.541   3.324   4.622
    1C        C  630   2.597   3.117   4.747
    1C        C  631   2.554   3.253   4.744
    1C        C  632   2.620   3.050   4.870
    1C        C  633   2.563   3.111   4.985
    1C        C  634   2.784   4.304   2.056
    1C        C  635   2.893   4.392   2.052
    1C        C  636   2.747   4.231   2.170
    1C        C  637   2.814   4.273   2.287
    1C        C  638   2.685   4.106   2.410
    1C        C  639   2.766   4.222   2.410
    1C        C  640   2.650   4.048   2.533
    1C        C  641   2.689   4.107   2.656
    1C        C  642   2.596   3.918   2.777
    1C        C  643   2.650   4.048   2.779
    1C        C  644   2.572   3.854   2.901
    1C        C  645   2.599   3.922   3.022
    1C        C  646   2.530   3.724   3.149
    1C        C  647   2.572   3.859   3.145
    1C        C  648   2.519   3.655   3.272
    1C        C  649   2.532   3.729   3.392
    1C        C  650   2.512   3.519   3.521
    1C        C  651   2.519   3.660   3.514
    1C        C  652   2.518   3.452   3.645
    1C        C  653   2.515   3.523   3.767
    1C        C  654   2.530   3.315   3.892
    1C        C  655   2.508   3.454   3.890
    1C        C  656   2.549   3.248   4.015
    1C        C  657   2.539   3.319   4.137
    1C        C  658   2.606   3.120   4.260
    1C        C  659   2.556   3.251   4.260
    1C        C  660   2.634   3.054   4.383
    1C        C  661   2.600   3.116   4.505
    1C        C  662   2.711   2.936   4.628
    1C        C  663   2.629   3.050   4.626
    1C        C  664   2.754   2.879   4.750
    1C        C  665   2.696   2.928   4.871
    1C        C  666   2.751   2.873   4.987
    1C        C  667   2.690   4.020   2.058
    1C        C  668   2.682   4.106   2.168
    1C        C  669   2.585   3.915   2.291
    1C        C  670   2.643   4.045   2.290
    1C        C  671   2.562   3.850   2.414
    1C        C  672   2.592   3.919   2.533
    1C        C  673   2.524   3.718   2.658
    1C        C  674   2.570   3.852   2.655
    1C        C  675   2.511   3.649   2.781
    1C        C  676   2.531   3.719   2.903
    1C        C  677   2.511   3.513   3.030
    1C        C  678   2.519   3.654   3.027
    1C        C  679   2.512   3.443   3.153
    1C        C  680   2.513   3.514   3.275
    1C        C  681   2.533   3.307   3.402
    1C        C  682   2.511   3.447   3.399
    1C        C  683   2.550   3.241   3.525
    1C        C  684   2.538   3.312   3.646
    1C        C  685   2.604   3.114   3.771
    1C        C  686   2.551   3.245   3.770
    1C        C  687   2.633   3.052   3.894
    1C        C  688   2.599   3.116   4.016
    1C        C  689   2.716   2.939   4.141
    1C        C  690   2.638   3.056   4.138
    1C        C  691   2.755   2.880   4.264
    1C        C  692   2.712   2.937   4.385
    1C        C  693   2.757   2.879   4.507
    1C        C  694   2.628   3.895   2.057
    1C        C  695   2.524   3.707   2.175
    1C        C  696   2.570   3.840   2.173
    1C        C  697   2.510   3.638   2.298
    1C        C  698   2.519   3.715   2.416
    1C        C  699   2.495   3.505   2.540
    1C        C  700   2.505   3.646   2.539
    1C        C  701   2.505   3.437   2.664
    1C        C  702   2.503   3.508   2.786
    1C        C  703   2.527   3.300   2.912
    1C        C  704   2.505   3.439   2.909
    1C        C  705   2.545   3.234   3.036
    1C        C  706   2.527   3.302   3.158
    1C        C  707   2.603   3.105   3.281
    1C        C  708   2.550   3.237   3.280
    1C        C  709   2.632   3.044   3.405
    1C        C  710   2.600   3.109   3.527
    1C        C  711   2.712   2.930   3.651
    1C        C  712   2.631   3.047   3.650
    1C        C  713   2.759   2.880   3.774
    1C        C  714   2.717   2.938   3.896
    1C        C  715   2.759   2.883   4.019
    1C        C  716   2.450   3.499   2.061
    1C        C  717   2.485   3.635   2.062
    1C        C  718   2.471   3.422   2.180
    1C        C  719   2.489   3.498   2.299
    1C        C  720   2.517   3.288   2.423
    1C        C  721   2.496   3.427   2.422
    1C        C  722   2.535   3.222   2.547
    1C        C  723   2.526   3.298   2.665
    1C        C  724   2.599   3.102   2.793
    1C        C  725   2.544   3.232   2.789
    1C        C  726   2.627   3.036   2.915
    1C        C  727   2.595   3.102   3.036
    1C        C  728   2.712   2.925   3.161
    1C        C  729   2.633   3.043   3.158
    1C        C  730   2.752   2.871   3.285
    1C        C  731   2.710   2.926   3.408
    1C        C  732   2.752   2.869   3.530
    1C        C  733   2.492   3.198   2.070
    1C        C  734   2.490   3.280   2.184
    1C        C  735   2.577   3.081   2.307
    1C        C  736   2.522   3.212   2.304
    1C        C  737   2.604   3.015   2.429
    1C        C  738   2.583   3.088   2.548
    1C        C  739   2.696   2.912   2.673
    1C        C  740   2.623   3.033   2.672
    1C        C  741   2.744   2.858   2.795
    1C        C  742   2.701   2.916   2.916
    1C        C  743   2.749   2.864   3.039
    1C        C  744   2.546   3.070   2.074
    1C        C  745   2.691   2.900   2.186
    1C        C  746   2.614   3.018   2.186
    1C        C  747   2.732   2.845   2.309
    1C        C  748   2.687   2.901   2.430
    1C        C  749   2.732   2.847   2.553
    1C        C  750   2.744   2.844   2.069
    1C        C  751   3.664   2.302   2.007
    1C        O  752   3.713   2.197   2.057
    1C        O  753   3.628   2.276   1.874
    1C        C  754   4.644   3.048   1.999
    1C        O  755   4.625   2.959   1.911
    1C        O  756   4.758   3.015   2.074
    1C        C  757   4.453   4.216   1.964
    1C        O  758   4.552   4.277   2.012
    1C        O  759   4.406   4.246   1.835
    1C        C  760   3.585   4.658   1.935
    1C        O  761   3.616   4.780   1.940
    1C        O  762   3.555   4.623   1.803
    1C        C  763   2.873   4.503   1.956
    1C        O  764   2.910   4.485   1.836
    1C        O  765   2.788   4.611   1.980
    1C        C  766   2.345   3.467   1.963
    1C        O  767   2.388   3.475   1.845
    1C        O  768   2.208   3.497   1.963
    1C        C  769   4.696   3.589   5.057
    1C        O  770   4.676   3.540   5.171
    1C        O  771   4.828   3.579   5.013
    1C        C  772   4.278   4.474   5.020
    1C        O  773   4.267   4.504   5.142
    1C        O  774   4.363   4.561   4.950
    1C        C  775   4.148   2.515   5.060
    1C        O  776   4.188   2.400   5.029
    1C        O  777   4.171   2.536   5.197
    1C        C  778   2.918   4.518   5.078
    1C        O  779   2.839   4.616   5.087
    1C        O  780   2.965   4.479   5.204
    1C        C  781   2.469   3.039   5.074
    1C        O  782   2.392   2.954   5.021
    1C        O  783   2.502   3.030   5.209
    1C        C  784   2.424   3.980   5.056
    1C        O  785   2.314   4.036   5.031
    1C        O  786   2.448   3.948   5.191
    1C        C  787   2.945   2.412   2.021
    1C        O  788   2.965   2.382   1.901
    1C        O  789   2.895   2.298   2.084
    1C        C  790   3.161   2.368   5.056
    1C        O  791   3.176   2.252   5.010
    1C        O  792   3.174   2.353   5.194
    1C        H  793   4.286   3.028   5.065
    1C        H  794   4.141   2.837   5.060
    1C        H  795   4.509   3.128   5.057
    1C        H  796   4.537   3.374   5.066
    1C        H  797   4.520   3.797   5.059
    1C        H  798   4.378   3.954   5.045
    1C        H  799   4.297   4.165   5.056
    1C        H  800   4.023   4.521   5.038
    1C        H  801   3.817   4.625   5.028
    1C        H  802   3.588   4.623   5.043
    1C        H  803   3.398   4.479   5.036
    1C        H  804   3.174   4.424   5.037
    1C        H  805   3.905   2.448   5.045
    1C        H  806   3.680   2.444   5.067
    1C        H  807   3.027   2.598   5.079
    1C        H  808   3.444   2.432   5.075
    1C        H  809   2.841   2.705   5.074
    1C        H  810   2.691   2.877   5.076
    1C        H  811   2.541   3.296   5.074
    1C        H  812   2.608   3.509   5.053
    1C        H  813   2.523   3.734   5.070
    1C        H  814   2.581   4.188   5.039
    1C        H  815   2.749   4.328   5.054
    1C        H  816   2.739   2.894   1.974
    1C        H  817   2.795   2.653   1.998
    1C        H  818   3.215   2.486   1.986
    1C        H  819   3.426   2.409   1.985
    1C        H  820   3.857   2.500   1.974
    1C        H  821   4.092   2.560   1.992
    1C        H  822   4.235   2.740   1.966
    1C        H  823   4.372   2.928   1.970
    1C        H  824   4.624   3.290   1.987
    1C        H  825   4.492   3.521   1.961
    1C        H  826   4.469   3.748   1.961
    1C        H  827   3.809   4.527   1.958
    1C        H  828   3.928   4.301   1.979
    1C        H  829   4.179   4.312   1.954
    1C        H  830   4.516   3.972   1.977
    1C        H  831   2.593   3.869   1.959
    1C        H  832   2.713   4.054   1.959
    1C        H  833   2.773   4.260   1.959
    1C        H  834   3.377   4.476   1.947
    1C        H  835   3.170   4.358   1.978
    1C        H  836   2.527   3.004   1.992
    1C        H  837   2.468   3.235   1.973
    1C        H  838   2.452   3.694   1.979
    2V3OU   H29  839   2.802   3.553   1.962
    2V3OU   C27  840   2.787   3.503   2.061
    2V3OU   H27  841   2.733   3.573   2.130
    2V3OU   H28  842   2.730   3.407   2.047
    2V3OU   O11  843   2.914   3.477   2.121
    2V3OU   C15  844   2.925   3.397   2.233
    2V3OU   C13  845   3.051   3.376   2.292
    2V3OU   C14  846   3.075   3.270   2.381
    2V3OU   C16  847   2.972   3.187   2.423
    2V3OU    H6  848   2.993   3.100   2.487
    2V3OU   C12  849   3.213   3.232   2.418
    2V3OU    O2  850   3.233   3.122   2.473
    2V3OU   C10  851   3.326   3.312   2.368
    2V3OU    C8  852   3.458   3.272   2.390
    2V3OU   O10  853   3.485   3.151   2.446
    2V3OU   H26  854   3.409   3.114   2.495
    2V3OU    C6  855   3.566   3.352   2.341
    2V3OU    C5  856   3.538   3.469   2.271
    2V3OU    C4  857   3.704   3.296   2.346
    2V3OU    H4  858   3.729   3.229   2.433
    2V3OU    H5  859   3.706   3.226   2.257
    2V3OU    C2  860   3.816   3.400   2.333
    2V3OU    O6  861   3.811   3.476   2.454
    2V3OU   H21  862   3.763   3.556   2.428
    2V3OU    C3  863   3.781   3.495   2.218
    2V3OU    H2  864   3.868   3.566   2.214
    2V3OU    H3  865   3.784   3.440   2.121
    2V3OU   C25  866   3.949   3.326   2.325
    2V3OU    O7  867   4.005   3.300   2.218
    2V3OU   C26  868   4.030   3.290   2.449
    2V3OU   H22  869   4.066   3.387   2.491
    2V3OU   H23  870   4.117   3.226   2.421
    2V3OU    O8  871   3.965   3.210   2.545
    2V3OU   H24  872   3.935   3.263   2.621
    2V3OU    C1  873   3.646   3.564   2.230
    2V3OU    H1  874   3.624   3.620   2.135
    2V3OU    O3  875   3.659   3.657   2.338
    2V3OU   C19  876   3.621   3.794   2.317
    2V3OU    H9  877   3.518   3.799   2.272
    2V3OU    O4  878   3.717   3.851   2.231
    2V3OU   C20  879   3.847   3.870   2.287
    2V3OU   H10  880   3.901   3.772   2.301
    2V3OU   C24  881   3.612   3.861   2.455
    2V3OU   H16  882   3.542   3.797   2.515
    2V3OU   H17  883   3.570   3.964   2.444
    2V3OU   C23  884   3.752   3.878   2.513
    2V3OU   H15  885   3.795   3.774   2.526
    2V3OU    N1  886   3.737   3.960   2.632
    2V3OU   H19  887   3.815   3.932   2.688
    2V3OU   H20  888   3.647   3.934   2.667
    2V3OU   C21  889   3.852   3.950   2.417
    2V3OU   H11  890   3.956   3.931   2.458
    2V3OU    O5  891   3.834   4.091   2.412
    2V3OU   H18  892   3.786   4.102   2.496
    2V3OU   C22  893   3.915   3.948   2.176
    2V3OU   H12  894   3.859   4.044   2.159
    2V3OU   H13  895   3.901   3.897   2.077
    2V3OU   H14  896   4.024   3.963   2.199
    2V3OU   C11  897   3.159   3.474   2.274
    2V3OU    O1  898   3.134   3.592   2.238
    2V3OU    C9  899   3.299   3.430   2.294
    2V3OU    C7  900   3.403   3.505   2.241
    2V3OU    O9  901   3.384   3.620   2.167
    2V3OU   H25  902   3.290   3.621   2.141
    2V3OU   C17  903   2.822   3.311   2.277
    2V3OU    H7  904   2.723   3.348   2.250
    2V3OU   C18  905   2.846   3.211   2.371
    2V3OU    H8  906   2.771   3.170   2.440
    3SOL     OW  907   3.186   4.821   0.690
    3SOL    HW1  908   3.284   4.821   0.672
    3SOL    HW2  909   3.147   4.733   0.663
    4SOL     OW  910   6.712   6.219   1.542
    4SOL    HW1  911   6.782   6.155   1.576
    4SOL    HW2  912   6.739   6.312   1.565
    5SOL     OW  913   4.046   1.864   3.035
    5SOL    HW1  914   3.954   1.825   3.028
    5SOL    HW2  915   4.039   1.956   3.074
    6SOL     OW  916   4.228   1.458   1.292
    6SOL    HW1  917   4.245   1.433   1.387
    6SOL    HW2  918   4.313   1.451   1.240
    7SOL     OW  919   6.434   3.871   2.271
    7SOL    HW1  920   6.459   3.810   2.346
    7SOL    HW2  921   6.514   3.923   2.242
    8SOL     OW  922   2.835   6.964   6.162
    8SOL    HW1  923   2.886   6.918   6.235
    8SOL    HW2  924   2.885   0.018   6.131
    9SOL     OW  925   6.627   5.594   5.797
    9SOL    HW1  926   6.532   5.565   5.811
    9SOL    HW2  927   6.685   5.555   5.868
   10SOL     OW  928   0.845   4.895   6.071
   10SOL    HW1  929   0.773   4.917   6.005
   10SOL    HW2  930   0.811   4.915   6.164
   11SOL     OW  931   2.910   0.080   0.150
   11SOL    HW1  932   2.846   0.151   0.122
   11SOL    HW2  933   2.975   0.062   0.077
   12SOL     OW  934   3.742   6.291   4.307
   12SOL    HW1  935   3.744   6.353   4.385
   12SOL    HW2  936   3.694   6.207   4.332
   13SOL     OW  937   3.404   5.486   3.707
   13SOL    HW1  938   3.430   5.393   3.733
   13SOL    HW2  939   3.304   5.492   3.703
   14SOL     OW  940   4.963   5.716   6.460
   14SOL    HW1  941   4.903   5.744   6.535
   14SOL    HW2  942   5.053   5.756   6.472
   15SOL     OW  943   0.947   5.595   0.995
   15SOL    HW1  944   0.878   5.593   0.922
   15SOL    HW2  945   0.903   5.574   1.083
   16SOL     OW  946   5.626   3.160   5.485
   16SOL    HW1  947   5.677   3.217   5.549
   16SOL    HW2  948   5.623   3.205   5.395
   17SOL     OW  949   5.584   6.152   5.651
   17SOL    HW1  950   5.572   6.239   5.698
   17SOL    HW2  951   5.495   6.115   5.624
   18SOL     OW  952   3.366   1.029   5.851
   18SOL    HW1  953   3.341   1.053   5.758
   18SOL    HW2  954   3.296   0.969   5.890
   19SOL     OW  955   0.421   6.880   3.181
   19SOL    HW1  956   0.439   6.804   3.244
   19SOL    HW2  957   0.405   6.964   3.233
   20SOL     OW  958   5.140   2.243   4.581
   20SOL    HW1  959   5.205   2.273   4.652
   20SOL    HW2  960   5.183   2.172   4.525
   21SOL     OW  961   3.161   2.156   2.387
   21SOL    HW1  962   3.074   2.198   2.362
   21SOL    HW2  963   3.223   2.226   2.423
   22SOL     OW  964   2.139   6.702   0.256
   22SOL    HW1  965   2.211   6.770   0.246
   22SOL    HW2  966   2.180   6.611   0.259
   23SOL     OW  967   4.608   6.552   3.469
   23SOL    HW1  968   4.525   6.543   3.414
   23SOL    HW2  969   4.593   6.619   3.542
   24SOL     OW  970   5.142   1.125   2.985
   24SOL    HW1  971   5.224   1.182   2.989
   24SOL    HW2  972   5.117   1.098   3.078
   25SOL     OW  973   3.242   6.549   5.161
   25SOL    HW1  974   3.279   6.609   5.089
   25SOL    HW2  975   3.245   6.454   5.130
   26SOL     OW  976   6.155   1.092   0.600
   26SOL    HW1  977   6.135   1.169   0.661
   26SOL    HW2  978   6.200   1.126   0.517
   27SOL     OW  979   0.538   1.865   1.578
   27SOL    HW1  980   0.565   1.921   1.499
   27SOL    HW2  981   0.551   1.917   1.662
   28SOL     OW  982   3.690   1.471   6.928
   28SOL    HW1  983   3.680   1.465   6.828
   28SOL    HW2  984   3.706   1.380   6.965
   29SOL     OW  985   5.168   3.260   1.611
   29SOL    HW1  986   5.077   3.231   1.640
   29SOL    HW2  987   5.166   3.357   1.586
   30SOL     OW  988   3.634   0.931   4.617
   30SOL    HW1  989   3.669   0.873   4.543
   30SOL    HW2  990   3.566   0.881   4.670
   31SOL     OW  991   0.777   2.032   5.683
   31SOL    HW1  992   0.780   1.943   5.730
   31SOL    HW2  993   0.810   2.021   5.590
   32SOL     OW  994   0.084   1.593   2.928
   32SOL    HW1  995   0.052   1.500   2.945
   32SOL    HW2  996   0.161   1.591   2.865
   33SOL     OW  997   2.231   3.944   0.034
   33SOL    HW1  998   2.203   3.987   6.974
   33SOL    HW2  999   2.156   3.951   0.100
   34SOL     OW 1000   2.313   1.572   2.882
   34SOL    HW1 1001   2.336   1.662   2.844
   34SOL    HW2 1002   2.276   1.584   2.974
   35SOL     OW 1003   3.550   2.917   6.751
   35SOL    HW1 1004   3.588   2.967   6.674
   35SOL    HW2 1005   3.476   2.857   6.719
   36SOL     OW 1006   6.382   0.688   5.880
   36SOL    HW1 1007   6.482   0.690   5.886
   36SOL    HW2 1008   6.348   0.778   5.852
   37SOL     OW 1009   1.308   0.129   0.618
   37SOL    HW1 1010   1.328   0.041   0.662
   37SOL    HW2 1011   1.233   0.117   0.552
   38SOL     OW 1012   6.931   4.595   2.327
   38SOL    HW1 1013   6.894   4.567   2.238
   38SOL    HW2 1014   6.954   4.692   2.324
   39SOL     OW 1015   6.443   5.172   6.811
   39SOL    HW1 1016   6.492   5.190   6.896
   39SOL    HW2 1017   6.353   5.132   6.832
   40SOL     OW 1018   5.384   2.103   1.372
   40SOL    HW1 1019   5.375   2.007   1.345
   40SOL    HW2 1020   5.479   2.132   1.363
   41SOL     OW 1021   6.736   6.879   4.135
   41SOL    HW1 1022   6.753   6.898   4.232
   41SOL    HW2 1023   6.744   6.781   4.118
   42SOL     OW 1024   2.623   5.777   5.538
   42SOL    HW1 1025   2.562   5.778   5.459
   42SOL    HW2 1026   2.617   5.689   5.585
   43SOL     OW 1027   5.263   6.526   5.145
   43SOL    HW1 1028   5.254   6.610   5.092
   43SOL    HW2 1029   5.304   6.546   5.234
   44SOL     OW 1030   5.845   1.818   6.228
   44SOL    HW1 1031   5.875   1.883   6.298
   44SOL    HW2 1032   5.745   1.816   6.225
   45SOL     OW 1033   3.376   6.809   3.219
   45SOL    HW1 1034   3.449   6.771   3.161
   45SOL    HW2 1035   3.416   6.874   3.283
   46SOL     OW 1036   1.359   3.308   3.657
   46SOL    HW1 1037   1.437   3.328   3.717
   46SOL    HW2 1038   1.367   3.362   3.573
   47SOL     OW 1039   5.011   4.835   1.379
   47SOL    HW1 1040   5.002   4.835   1.279
   47SOL    HW2 1041   5.031   4.742   1.410
   48SOL     OW 1042   6.805   2.736   6.091
   48SOL    HW1 1043   6.888   2.685   6.113
   48SOL    HW2 1044   6.829   2.831   6.071
   49SOL     OW 1045   4.757   4.129   1.896
   49SOL    HW1 1046   4.723   4.107   1.805
   49SOL    HW2 1047   4.685   4.176   1.948
   50SOL     OW 1048   6.503   2.665   5.538
   50SOL    HW1 1049   6.497   2.719   5.454
   50SOL    HW2 1050   6.553   2.717   5.607
   51SOL     OW 1051   3.257   6.329   2.345
   51SOL    HW1 1052   3.185   6.268   2.378
   51SOL    HW2 1053   3.224   6.381   2.266
   52SOL     OW 1054   5.249   2.473   3.340
   52SOL    HW1 1055   5.263   2.563   3.299
   52SOL    HW2 1056   5.160   2.470   3.386
   53SOL     OW 1057   4.027   6.870   4.860
   53SOL    HW1 1058   3.962   6.896   4.788
   53SOL    HW2 1059   4.048   6.773   4.853
   54SOL     OW 1060   3.926   4.528   1.101
   54SOL    HW1 1061   3.914   4.446   1.045
   54SOL    HW2 1062   3.849   4.537   1.163
   55SOL     OW 1063   3.350   1.451   6.357
   55SOL    HW1 1064   3.369   1.549   6.351
   55SOL    HW2 1065   3.348   1.411   6.265
   56SOL     OW 1066   0.203   0.316   1.074
   56SOL    HW1 1067   0.254   0.261   1.139
   56SOL    HW2 1068   0.145   0.258   1.018
   57SOL     OW 1069   5.245   0.538   0.593
   57SOL    HW1 1070   5.193   0.524   0.510
   57SOL    HW2 1071   5.279   0.632   0.596
   58SOL     OW 1072   6.425   6.935   5.976
   58SOL    HW1 1073   6.496   7.000   6.003
   58SOL    HW2 1074   6.381   6.968   5.892
   59SOL     OW 1075   1.334   1.259   5.673
   59SOL    HW1 1076   1.422   1.296   5.702
   59SOL    HW2 1077   1.327   1.261   5.573
   60SOL     OW 1078   5.200   1.235   5.858
   60SOL    HW1 1079   5.156   1.317   5.893
   60SOL    HW2 1080   5.133   1.161   5.853
   61SOL     OW 1081   5.190   1.911   5.111
   61SOL    HW1 1082   5.268   1.972   5.126
   61SOL    HW2 1083   5.202   1.860   5.026
   62SOL     OW 1084   0.105   1.065   3.311
   62SOL    HW1 1085   0.084   1.081   3.214
   62SOL    HW2 1086   0.201   1.041   3.321
   63SOL     OW 1087   5.514   1.911   4.150
   63SOL    HW1 1088   5.534   1.931   4.246
   63SOL    HW2 1089   5.600   1.909   4.098
   64SOL     OW 1090   0.498   3.746   6.292
   64SOL    HW1 1091   0.499   3.838   6.330
   64SOL    HW2 1092   0.572   3.692   6.332
   65SOL     OW 1093   6.450   4.802   5.343
   65SOL    HW1 1094   6.375   4.736   5.354
   65SOL    HW2 1095   6.420   4.892   5.377
   66SOL     OW 1096   3.775   0.799   6.111
   66SOL    HW1 1097   3.710   0.852   6.056
   66SOL    HW2 1098   3.730   0.766   6.194
   67SOL     OW 1099   5.289   4.492   5.574
   67SOL    HW1 1100   5.293   4.592   5.586
   67SOL    HW2 1101   5.377   4.452   5.599
   68SOL     OW 1102   5.413   0.766   6.785
   68SOL    HW1 1103   5.443   0.780   6.880
   68SOL    HW2 1104   5.377   0.673   6.776
   69SOL     OW 1105   0.866   3.453   6.562
   69SOL    HW1 1106   0.904   3.498   6.481
   69SOL    HW2 1107   0.939   3.407   6.612
   70SOL     OW 1108   5.759   5.060   3.762
   70SOL    HW1 1109   5.799   5.069   3.854
   70SOL    HW2 1110   5.797   4.980   3.717
   71SOL     OW 1111   4.456   1.375   3.070
   71SOL    HW1 1112   4.432   1.286   3.030
   71SOL    HW2 1113   4.528   1.418   3.016
   72SOL     OW 1114   2.736   6.089   4.702
   72SOL    HW1 1115   2.770   5.996   4.688
   72SOL    HW2 1116   2.656   6.104   4.645
   73SOL     OW 1117   3.424   0.773   0.591
   73SOL    HW1 1118   3.433   0.702   0.522
   73SOL    HW2 1119   3.342   0.828   0.572
   74SOL     OW 1120   5.151   6.596   6.086
   74SOL    HW1 1121   5.219   6.653   6.133
   74SOL    HW2 1122   5.060   6.632   6.105
   75SOL     OW 1123   4.053   0.145   6.720
   75SOL    HW1 1124   4.083   0.068   6.776
   75SOL    HW2 1125   3.960   0.129   6.687
   76SOL     OW 1126   2.672   2.367   1.031
   76SOL    HW1 1127   2.627   2.362   0.942
   76SOL    HW2 1128   2.645   2.450   1.079
   77SOL     OW 1129   6.210   6.274   3.714
   77SOL    HW1 1130   6.140   6.212   3.679
   77SOL    HW2 1131   6.167   6.347   3.768
   78SOL     OW 1132   5.728   0.805   5.932
   78SOL    HW1 1133   5.638   0.804   5.977
   78SOL    HW2 1134   5.725   0.866   5.853
   79SOL     OW 1135   3.018   6.738   0.249
   79SOL    HW1 1136   2.951   6.762   0.178
   79SOL    HW2 1137   3.078   6.666   0.215
   80SOL     OW 1138   5.263   2.203   4.049
   80SOL    HW1 1139   5.320   2.205   4.131
   80SOL    HW2 1140   5.287   2.122   3.995
   81SOL     OW 1141   2.061   0.235   3.327
   81SOL    HW1 1142   2.132   0.282   3.380
   81SOL    HW2 1143   2.101   0.198   3.243
   82SOL     OW 1144   6.680   5.035   0.647
   82SOL    HW1 1145   6.596   5.088   0.640
   82SOL    HW2 1146   6.671   4.968   0.721
   83SOL     OW 1147   0.879   0.696   0.620
   83SOL    HW1 1148   0.855   0.722   0.526
   83SOL    HW2 1149   0.827   0.753   0.684
   84SOL     OW 1150   5.546   2.775   3.570
   84SOL    HW1 1151   5.546   2.707   3.497
   84SOL    HW2 1152   5.494   2.856   3.541
   85SOL     OW 1153   2.040   1.798   4.468
   85SOL    HW1 1154   2.063   1.724   4.531
   85SOL    HW2 1155   2.120   1.857   4.455
   86SOL     OW 1156   0.130   0.372   5.073
   86SOL    HW1 1157   0.144   0.322   4.988
   86SOL    HW2 1158   0.045   0.341   5.115
   87SOL     OW 1159   5.216   3.419   0.542
   87SOL    HW1 1160   5.185   3.479   0.615
   87SOL    HW2 1161   5.288   3.358   0.576
   88SOL     OW 1162   3.681   1.785   6.230
   88SOL    HW1 1163   3.692   1.744   6.321
   88SOL    HW2 1164   3.740   1.737   6.165
   89SOL     OW 1165   0.901   2.214   5.463
   89SOL    HW1 1166   0.992   2.249   5.485
   89SOL    HW2 1167   0.900   2.181   5.368
   90SOL     OW 1168   4.268   6.112   2.903
   90SOL    HW1 1169   4.306   6.122   2.810
   90SOL    HW2 1170   4.242   6.202   2.938
   91SOL     OW 1171   4.705   4.392   5.063
   91SOL    HW1 1172   4.751   4.305   5.082
   91SOL    HW2 1173   4.655   4.386   4.977
   92SOL     OW 1174   3.466   3.919   0.213
   92SOL    HW1 1175   3.439   4.015   0.209
   92SOL    HW2 1176   3.539   3.907   0.280
   93SOL     OW 1177   2.621   3.742   6.379
   93SOL    HW1 1178   2.543   3.679   6.377
   93SOL    HW2 1179   2.686   3.718   6.307
   94SOL     OW 1180   2.772   6.115   6.086
   94SOL    HW1 1181   2.754   6.174   6.007
   94SOL    HW2 1182   2.820   6.168   6.157
   95SOL     OW 1183   1.275   0.675   3.049
   95SOL    HW1 1184   1.224   0.641   2.970
   95SOL    HW2 1185   1.230   0.647   3.133
   96SOL     OW 1186   3.473   0.371   4.795
   96SOL    HW1 1187   3.541   0.369   4.869
   96SOL    HW2 1188   3.433   0.462   4.788
   97SOL     OW 1189   1.958   3.155   5.955
   97SOL    HW1 1190   2.036   3.099   5.926
   97SOL    HW2 1191   1.887   3.151   5.885
   98SOL     OW 1192   6.473   3.787   1.019
   98SOL    HW1 1193   6.518   3.875   1.008
   98SOL    HW2 1194   6.465   3.766   1.116
   99SOL     OW 1195   4.525   3.405   1.263
   99SOL    HW1 1196   4.428   3.404   1.287
   99SOL    HW2 1197   4.546   3.327   1.205
  100SOL     OW 1198   0.085   0.060   4.851
  100SOL    HW1 1199   0.056   0.024   4.762
  100SOL    HW2 1200   0.176   0.025   4.872
  101SOL     OW 1201   1.588   5.402   1.920
  101SOL    HW1 1202   1.655   5.388   1.847
  101SOL    HW2 1203   1.630   5.378   2.008
  102SOL     OW 1204   4.170   0.090   2.686
  102SOL    HW1 1205   4.194   0.106   2.782
  102SOL    HW2 1206   4.081   0.132   2.667
  103SOL     OW 1207   3.177   0.926   2.087
  103SOL    HW1 1208   3.135   1.002   2.037
  103SOL    HW2 1209   3.106   0.876   2.137
  104SOL     OW 1210   0.455   5.239   2.744
  104SOL    HW1 1211   0.387   5.215   2.813
  104SOL    HW2 1212   0.515   5.311   2.781
  105SOL     OW 1213   6.722   2.756   6.853
  105SOL    HW1 1214   6.645   2.808   6.889
  105SOL    HW2 1215   6.694   2.707   6.771
  106SOL     OW 1216   3.914   5.882   4.889
  106SOL    HW1 1217   3.941   5.977   4.876
  106SOL    HW2 1218   3.988   5.822   4.859
  107SOL     OW 1219   2.254   1.428   2.095
  107SOL    HW1 1220   2.334   1.369   2.104
  107SOL    HW2 1221   2.222   1.428   2.000
  108SOL     OW 1222   3.831   5.356   5.802
  108SOL    HW1 1223   3.769   5.302   5.860
  108SOL    HW2 1224   3.782   5.387   5.721
  109SOL     OW 1225   0.069   0.785   1.204
  109SOL    HW1 1226   0.120   0.817   1.284
  109SOL    HW2 1227   0.129   0.733   1.144
  110SOL     OW 1228   3.348   5.643   5.363
  110SOL    HW1 1229   3.438   5.682   5.379
  110SOL    HW2 1230   3.340   5.556   5.411
  111SOL     OW 1231   3.090   1.221   4.245
  111SOL    HW1 1232   2.997   1.236   4.280
  111SOL    HW2 1233   3.092   1.239   4.147
  112SOL     OW 1234   4.807   6.948   6.039
  112SOL    HW1 1235   4.882   6.938   6.104
  112SOL    HW2 1236   4.817   6.881   5.965
  113SOL     OW 1237   6.101   5.771   3.181
  113SOL    HW1 1238   6.077   5.860   3.144
  113SOL    HW2 1239   6.195   5.774   3.217
  114SOL     OW 1240   0.909   0.602   1.107
  114SOL    HW1 1241   0.921   0.504   1.119
  114SOL    HW2 1242   0.984   0.638   1.052
  115SOL     OW 1243   4.084   1.396   3.657
  115SOL    HW1 1244   4.057   1.347   3.574
  115SOL    HW2 1245   4.042   1.487   3.656
  116SOL     OW 1246   5.752   4.869   1.555
  116SOL    HW1 1247   5.713   4.961   1.543
  116SOL    HW2 1248   5.802   4.843   1.473
  117SOL     OW 1249   1.272   1.681   0.590
  117SOL    HW1 1250   1.205   1.606   0.589
  117SOL    HW2 1251   1.248   1.745   0.663
  118SOL     OW 1252   1.827   1.098   3.266
  118SOL    HW1 1253   1.903   1.114   3.329
  118SOL    HW2 1254   1.742   1.094   3.319
  119SOL     OW 1255   0.865   0.962   6.876
  119SOL    HW1 1256   0.940   0.904   6.843
  119SOL    HW2 1257   0.806   0.909   6.937
  120SOL     OW 1258   6.638   6.841   0.336
  120SOL    HW1 1259   6.650   6.938   0.356
  120SOL    HW2 1260   6.551   6.827   0.290
  121SOL     OW 1261   2.329   3.628   6.129
  121SOL    HW1 1262   2.307   3.550   6.070
  121SOL    HW2 1263   2.408   3.677   6.092
  122SOL     OW 1264   1.862   4.513   6.122
  122SOL    HW1 1265   1.947   4.478   6.161
  122SOL    HW2 1266   1.881   4.597   6.071
  123SOL     OW 1267   0.077   1.389   1.835
  123SOL    HW1 1268   0.138   1.466   1.853
  123SOL    HW2 1269   0.103   1.344   1.750
  124SOL     OW 1270   4.916   3.199   0.618
  124SOL    HW1 1271   4.892   3.109   0.581
  124SOL    HW2 1272   4.905   3.268   0.547
  125SOL     OW 1273   3.564   1.867   1.396
  125SOL    HW1 1274   3.517   1.885   1.483
  125SOL    HW2 1275   3.652   1.823   1.415
  126SOL     OW 1276   2.750   3.534   1.044
  126SOL    HW1 1277   2.670   3.480   1.069
  126SOL    HW2 1278   2.790   3.575   1.127
  127SOL     OW 1279   0.901   5.292   6.655
  127SOL    HW1 1280   0.898   5.209   6.600
  127SOL    HW2 1281   0.874   5.370   6.599
  128SOL     OW 1282   4.939   2.992   1.370
  128SOL    HW1 1283   4.876   2.923   1.335
  128SOL    HW2 1284   4.947   3.066   1.303
  129SOL     OW 1285   2.350   2.834   5.984
  129SOL    HW1 1286   2.421   2.829   5.914
  129SOL    HW2 1287   2.346   2.927   6.020
  130SOL     OW 1288   0.854   1.565   3.990
  130SOL    HW1 1289   0.809   1.526   3.909
  130SOL    HW2 1290   0.806   1.648   4.018
  131SOL     OW 1291   5.258   1.970   3.632
  131SOL    HW1 1292   5.260   1.989   3.730
  131SOL    HW2 1293   5.253   2.057   3.581
  132SOL     OW 1294   2.385   2.271   1.351
  132SOL    HW1 1295   2.395   2.186   1.404
  132SOL    HW2 1296   2.390   2.349   1.412
  133SOL     OW 1297   4.624   6.328   4.411
  133SOL    HW1 1298   4.669   6.319   4.322
  133SOL    HW2 1299   4.618   6.425   4.436
  134SOL     OW 1300   6.542   1.857   2.514
  134SOL    HW1 1301   6.481   1.907   2.576
  134SOL    HW2 1302   6.497   1.774   2.483
  135SOL     OW 1303   5.868   3.809   3.579
  135SOL    HW1 1304   5.914   3.726   3.611
  135SOL    HW2 1305   5.933   3.885   3.578
  136SOL     OW 1306   3.196   3.750   5.736
  136SOL    HW1 1307   3.213   3.692   5.816
  136SOL    HW2 1308   3.267   3.735   5.668
  137SOL     OW 1309   5.492   1.568   4.520
  137SOL    HW1 1310   5.408   1.603   4.560
  137SOL    HW2 1311   5.515   1.480   4.562
  138SOL     OW 1312   1.049   4.514   3.358
  138SOL    HW1 1313   1.105   4.593   3.336
  138SOL    HW2 1314   0.997   4.487   3.276
  139SOL     OW 1315   2.116   6.816   4.800
  139SOL    HW1 1316   2.176   6.769   4.865
  139SOL    HW2 1317   2.039   6.756   4.776
  140SOL     OW 1318   0.505   5.610   2.562
  140SOL    HW1 1319   0.431   5.548   2.535
  140SOL    HW2 1320   0.552   5.573   2.642
  141SOL     OW 1321   6.244   3.404   4.998
  141SOL    HW1 1322   6.264   3.382   5.093
  141SOL    HW2 1323   6.232   3.503   4.989
  142SOL     OW 1324   1.923   4.178   0.637
  142SOL    HW1 1325   1.901   4.169   0.540
  142SOL    HW2 1326   1.985   4.256   0.649
  143SOL     OW 1327   5.813   4.511   1.062
  143SOL    HW1 1328   5.878   4.587   1.053
  143SOL    HW2 1329   5.787   4.500   1.158
  144SOL     OW 1330   1.165   6.231   6.108
  144SOL    HW1 1331   1.258   6.223   6.144
  144SOL    HW2 1332   1.100   6.226   6.184
  145SOL     OW 1333   0.070   5.867   0.132
  145SOL    HW1 1334   0.020   5.938   0.181
  145SOL    HW2 1335   0.017   5.838   0.052
  146SOL     OW 1336   4.636   0.392   6.570
  146SOL    HW1 1337   4.649   0.295   6.550
  146SOL    HW2 1338   4.663   0.446   6.490
  147SOL     OW 1339   6.432   3.846   6.886
  147SOL    HW1 1340   6.339   3.838   6.922
  147SOL    HW2 1341   6.487   3.901   6.950
  148SOL     OW 1342   0.084   5.390   6.293
  148SOL    HW1 1343   0.003   5.441   6.322
  148SOL    HW2 1344   0.133   5.357   6.373
  149SOL     OW 1345   2.963   1.716   4.212
  149SOL    HW1 1346   2.937   1.641   4.273
  149SOL    HW2 1347   2.973   1.800   4.265
  150SOL     OW 1348   5.533   5.927   6.867
  150SOL    HW1 1349   5.522   5.834   6.832
  150SOL    HW2 1350   5.444   5.973   6.869
  151SOL     OW 1351   3.074   2.287   0.932
  151SOL    HW1 1352   3.105   2.196   0.961
  151SOL    HW2 1353   3.041   2.283   0.838
  152SOL     OW 1354   1.234   0.919   2.849
  152SOL    HW1 1355   1.237   0.949   2.944
  152SOL    HW2 1356   1.268   0.992   2.790
  153SOL     OW 1357   2.722   0.630   1.544
  153SOL    HW1 1358   2.663   0.612   1.623
  153SOL    HW2 1359   2.817   0.639   1.575
  154SOL     OW 1360   0.827   2.000   2.595
  154SOL    HW1 1361   0.812   2.098   2.579
  154SOL    HW2 1362   0.760   1.968   2.662
  155SOL     OW 1363   6.574   1.657   2.786
  155SOL    HW1 1364   6.571   1.590   2.712
  155SOL    HW2 1365   6.516   1.627   2.862
  156SOL     OW 1366   0.624   2.128   0.844
  156SOL    HW1 1367   0.624   2.112   0.745
  156SOL    HW2 1368   0.619   2.226   0.862
  157SOL     OW 1369   5.696   3.099   1.218
  157SOL    HW1 1370   5.752   3.091   1.136
  157SOL    HW2 1371   5.656   3.190   1.223
  158SOL     OW 1372   2.001   5.821   2.402
  158SOL    HW1 1373   2.040   5.892   2.344
  158SOL    HW2 1374   1.961   5.749   2.345
  159SOL     OW 1375   4.246   4.620   2.167
  159SOL    HW1 1376   4.257   4.570   2.081
  159SOL    HW2 1377   4.245   4.555   2.243
  160SOL     OW 1378   6.062   5.459   0.148
  160SOL    HW1 1379   6.091   5.419   0.060
  160SOL    HW2 1380   6.109   5.413   0.222
  161SOL     OW 1381   1.750   5.868   4.253
  161SOL    HW1 1382   1.663   5.871   4.203
  161SOL    HW2 1383   1.809   5.798   4.214
  162SOL     OW 1384   3.914   6.333   6.990
  162SOL    HW1 1385   3.943   6.410   6.933
  162SOL    HW2 1386   3.846   6.279   6.940
  163SOL     OW 1387   5.267   5.634   0.790
  163SOL    HW1 1388   5.338   5.687   0.838
  163SOL    HW2 1389   5.307   5.594   0.707
  164SOL     OW 1390   6.215   4.381   0.073
  164SOL    HW1 1391   6.143   4.360   0.008
  164SOL    HW2 1392   6.304   4.353   0.036
  165SOL     OW 1393   5.245   3.006   1.267
  165SOL    HW1 1394   5.207   2.978   1.355
  165SOL    HW2 1395   5.340   2.975   1.261
  166SOL     OW 1396   6.978   5.021   3.415
  166SOL    HW1 1397   6.954   5.088   3.485
  166SOL    HW2 1398   0.050   5.027   3.395
  167SOL     OW 1399   5.199   3.171   0.066
  167SOL    HW1 1400   5.145   3.192   0.147
  167SOL    HW2 1401   5.243   3.082   0.077
  168SOL     OW 1402   2.484   3.008   1.363
  168SOL    HW1 1403   2.435   3.006   1.276
  168SOL    HW2 1404   2.570   2.957   1.355
  169SOL     OW 1405   4.738   0.919   1.795
  169SOL    HW1 1406   4.826   0.872   1.793
  169SOL    HW2 1407   4.666   0.854   1.818
  170SOL     OW 1408   1.168   1.146   3.695
  170SOL    HW1 1409   1.143   1.183   3.785
  170SOL    HW2 1410   1.152   1.047   3.695
  171SOL     OW 1411   4.011   4.438   6.892
  171SOL    HW1 1412   3.921   4.404   6.865
  171SOL    HW2 1413   4.009   4.538   6.893
  172SOL     OW 1414   6.067   1.606   4.085
  172SOL    HW1 1415   6.152   1.578   4.040
  172SOL    HW2 1416   6.042   1.697   4.054
  173SOL     OW 1417   0.061   1.952   4.550
  173SOL    HW1 1418   0.012   2.011   4.615
  173SOL    HW2 1419   7.024   1.920   4.480
  174SOL     OW 1420   3.165   5.287   3.863
  174SOL    HW1 1421   3.156   5.386   3.874
  174SOL    HW2 1422   3.086   5.251   3.815
  175SOL     OW 1423   2.132   0.093   1.787
  175SOL    HW1 1424   2.212   0.153   1.793
  175SOL    HW2 1425   2.124   0.057   1.694
  176SOL     OW 1426   1.369   4.328   0.799
  176SOL    HW1 1427   1.273   4.358   0.805
  176SOL    HW2 1428   1.373   4.235   0.763
  177SOL     OW 1429   5.980   3.497   2.462
  177SOL    HW1 1430   6.074   3.481   2.432
  177SOL    HW2 1431   5.924   3.417   2.441
  178SOL     OW 1432   2.719   2.404   6.650
  178SOL    HW1 1433   2.780   2.344   6.703
  178SOL    HW2 1434   2.624   2.378   6.667
  179SOL     OW 1435   2.605   1.466   6.122
  179SOL    HW1 1436   2.615   1.490   6.025
  179SOL    HW2 1437   2.603   1.550   6.176
  180SOL     OW 1438   1.473   6.637   0.019
  180SOL    HW1 1439   1.565   6.621   7.010
  180SOL    HW2 1440   1.428   6.549   0.034
  181SOL     OW 1441   3.234   2.580   6.302
  181SOL    HW1 1442   3.203   2.590   6.396
  181SOL    HW2 1443   3.206   2.491   6.266
  182SOL     OW 1444   3.383   1.441   3.823
  182SOL    HW1 1445   3.451   1.489   3.767
  182SOL    HW2 1446   3.363   1.495   3.904
  183SOL     OW 1447   3.566   1.929   3.400
  183SOL    HW1 1448   3.526   1.976   3.479
  183SOL    HW2 1449   3.661   1.957   3.390
  184SOL     OW 1450   2.089   6.255   4.297
  184SOL    HW1 1451   2.038   6.329   4.253
  184SOL    HW2 1452   2.029   6.176   4.310
  185SOL     OW 1453   0.321   1.596   6.388
  185SOL    HW1 1454   0.330   1.640   6.299
  185SOL    HW2 1455   0.371   1.509   6.388
  186SOL     OW 1456   5.487   1.056   4.207
  186SOL    HW1 1457   5.471   1.144   4.252
  186SOL    HW2 1458   5.431   1.051   4.124
  187SOL     OW 1459   4.189   0.214   3.289
  187SOL    HW1 1460   4.283   0.236   3.316
  187SOL    HW2 1461   4.162   0.272   3.213
  188SOL     OW 1462   0.142   1.688   2.487
  188SOL    HW1 1463   0.204   1.625   2.442
  188SOL    HW2 1464   0.062   1.704   2.429
  189SOL     OW 1465   2.372   5.571   1.513
  189SOL    HW1 1466   2.352   5.651   1.570
  189SOL    HW2 1467   2.470   5.549   1.518
  190SOL     OW 1468   4.852   1.730   4.725
  190SOL    HW1 1469   4.919   1.801   4.748
  190SOL    HW2 1470   4.892   1.666   4.660
  191SOL     OW 1471   5.580   6.256   6.789
  191SOL    HW1 1472   5.583   6.257   6.689
  191SOL    HW2 1473   5.650   6.193   6.823
  192SOL     OW 1474   0.640   5.695   1.904
  192SOL    HW1 1475   0.692   5.739   1.977
  192SOL    HW2 1476   0.590   5.616   1.941
  193SOL     OW 1477   4.623   3.036   5.510
  193SOL    HW1 1478   4.588   3.111   5.566
  193SOL    HW2 1479   4.722   3.026   5.525
  194SOL     OW 1480   3.925   0.831   2.901
  194SOL    HW1 1481   3.870   0.787   2.971
  194SOL    HW2 1482   3.869   0.894   2.848
  195SOL     OW 1483   1.823   0.251   4.850
  195SOL    HW1 1484   1.841   0.348   4.835
  195SOL    HW2 1485   1.829   0.202   4.763
  196SOL     OW 1486   2.703   0.565   0.420
  196SOL    HW1 1487   2.629   0.538   0.482
  196SOL    HW2 1488   2.787   0.517   0.445
  197SOL     OW 1489   2.935   0.233   1.189
  197SOL    HW1 1490   2.978   0.303   1.246
  197SOL    HW2 1491   2.993   0.152   1.187
  198SOL     OW 1492   4.666   0.742   2.851
  198SOL    HW1 1493   4.757   0.711   2.879
  198SOL    HW2 1494   4.596   0.692   2.901
  199SOL     OW 1495   0.123   2.447   3.771
  199SOL    HW1 1496   0.127   2.416   3.676
  199SOL    HW2 1497   0.174   2.384   3.829
  200SOL     OW 1498   1.631   3.729   0.836
  200SOL    HW1 1499   1.640   3.724   0.936
  200SOL    HW2 1500   1.693   3.800   0.802
  201SOL     OW 1501   0.115   6.900   6.310
  201SOL    HW1 1502   0.018   6.920   6.318
  201SOL    HW2 1503   0.137   6.816   6.359
  202SOL     OW 1504   3.753   1.226   0.067
  202SOL    HW1 1505   3.814   1.157   0.106
  202SOL    HW2 1506   3.667   1.227   0.118
  203SOL     OW 1507   6.048   2.574   5.503
  203SOL    HW1 1508   5.963   2.536   5.467
  203SOL    HW2 1509   6.099   2.503   5.552
  204SOL     OW 1510   1.156   0.198   4.761
  204SOL    HW1 1511   1.065   0.233   4.782
  204SOL    HW2 1512   1.168   0.192   4.662
  205SOL     OW 1513   0.591   2.442   3.004
  205SOL    HW1 1514   0.577   2.541   3.013
  205SOL    HW2 1515   0.616   2.403   3.093
  206SOL     OW 1516   0.477   4.480   0.882
  206SOL    HW1 1517   0.416   4.410   0.845
  206SOL    HW2 1518   0.443   4.511   0.970
  207SOL     OW 1519   6.369   1.946   3.662
  207SOL    HW1 1520   6.343   1.969   3.756
  207SOL    HW2 1521   6.456   1.898   3.662
  208SOL     OW 1522   6.597   4.451   5.572
  208SOL    HW1 1523   6.694   4.453   5.595
  208SOL    HW2 1524   6.582   4.394   5.492
  209SOL     OW 1525   0.234   5.393   4.098
  209SOL    HW1 1526   0.283   5.431   4.177
  209SOL    HW2 1527   0.278   5.308   4.069
  210SOL     OW 1528   4.877   1.380   0.685
  210SOL    HW1 1529   4.900   1.333   0.770
  210SOL    HW2 1530   4.851   1.313   0.615
  211SOL     OW 1531   1.384   6.531   2.091
  211SOL    HW1 1532   1.349   6.449   2.135
  211SOL    HW2 1533   1.478   6.548   2.123
  212SOL     OW 1534   1.439   3.618   1.525
  212SOL    HW1 1535   1.523   3.672   1.520
  212SOL    HW2 1536   1.431   3.577   1.616
  213SOL     OW 1537   2.797   6.882   0.578
  213SOL    HW1 1538   2.712   6.912   0.621
  213SOL    HW2 1539   2.820   6.790   0.609
  214SOL     OW 1540   3.705   5.420   2.547
  214SOL    HW1 1541   3.793   5.396   2.505
  214SOL    HW2 1542   3.675   5.346   2.607
  215SOL     OW 1543   2.825   3.802   0.399
  215SOL    HW1 1544   2.731   3.783   0.369
  215SOL    HW2 1545   2.866   3.717   0.432
  216SOL     OW 1546   1.013   5.734   3.244
  216SOL    HW1 1547   1.098   5.759   3.291
  216SOL    HW2 1548   0.943   5.710   3.312
  217SOL     OW 1549   1.220   2.743   4.198
  217SOL    HW1 1550   1.201   2.654   4.238
  217SOL    HW2 1551   1.140   2.773   4.146
  218SOL     OW 1552   0.983   3.196   4.262
  218SOL    HW1 1553   1.030   3.110   4.240
  218SOL    HW2 1554   0.894   3.197   4.218
  219SOL     OW 1555   4.107   0.375   0.219
  219SOL    HW1 1556   4.134   0.299   0.279
  219SOL    HW2 1557   4.156   0.368   0.132
  220SOL     OW 1558   2.837   6.987   1.663
  220SOL    HW1 1559   2.818   0.057   1.681
  220SOL    HW2 1560   2.785   6.956   1.583
  221SOL     OW 1561   5.755   4.220   1.018
  221SOL    HW1 1562   5.800   4.308   1.032
  221SOL    HW2 1563   5.744   4.175   1.107
  222SOL     OW 1564   1.110   4.709   5.475
  222SOL    HW1 1565   1.158   4.761   5.545
  222SOL    HW2 1566   1.147   4.616   5.471
  223SOL     OW 1567   6.699   3.224   6.326
  223SOL    HW1 1568   6.624   3.269   6.277
  223SOL    HW2 1569   6.774   3.289   6.337
  224SOL     OW 1570   2.861   1.939   5.831
  224SOL    HW1 1571   2.849   1.976   5.923
  224SOL    HW2 1572   2.886   1.843   5.837
  225SOL     OW 1573   5.145   3.866   6.643
  225SOL    HW1 1574   5.157   3.924   6.563
  225SOL    HW2 1575   5.050   3.836   6.649
  226SOL     OW 1576   0.927   1.539   5.612
  226SOL    HW1 1577   0.943   1.443   5.633
  226SOL    HW2 1578   0.999   1.573   5.551
  227SOL     OW 1579   0.678   4.245   1.772
  227SOL    HW1 1580   0.734   4.227   1.852
  227SOL    HW2 1581   0.583   4.222   1.791
  228SOL     OW 1582   2.452   0.165   3.416
  228SOL    HW1 1583   2.395   0.089   3.384
  228SOL    HW2 1584   2.461   0.233   3.343
  229SOL     OW 1585   6.191   6.189   6.000
  229SOL    HW1 1586   6.179   6.177   5.901
  229SOL    HW2 1587   6.261   6.125   6.032
  230SOL     OW 1588   3.501   4.955   3.689
  230SOL    HW1 1589   3.599   4.937   3.696
  230SOL    HW2 1590   3.480   4.985   3.596
  231SOL     OW 1591   6.173   1.633   6.967
  231SOL    HW1 1592   6.268   1.608   6.983
  231SOL    HW2 1593   6.140   1.588   6.884
  232SOL     OW 1594   0.303   3.484   6.683
  232SOL    HW1 1595   0.363   3.519   6.755
  232SOL    HW2 1596   0.331   3.521   6.595
  233SOL     OW 1597   3.194   1.092   2.975
  233SOL    HW1 1598   3.274   1.072   2.919
  233SOL    HW2 1599   3.167   1.010   3.024
  234SOL     OW 1600   5.267   0.896   6.416
  234SOL    HW1 1601   5.364   0.914   6.436
  234SOL    HW2 1602   5.250   0.915   6.319
  235SOL     OW 1603   4.665   2.690   1.994
  235SOL    HW1 1604   4.684   2.778   1.950
  235SOL    HW2 1605   4.738   2.668   2.058
  236SOL     OW 1606   5.680   2.724   6.813
  236SOL    HW1 1607   5.599   2.688   6.765
  236SOL    HW2 1608   5.689   2.677   6.901
  237SOL     OW 1609   7.002   4.567   1.980
  237SOL    HW1 1610   0.018   4.604   1.896
  237SOL    HW2 1611   6.903   4.575   1.974
  238SOL     OW 1612   5.418   1.103   0.601
  238SOL    HW1 1613   5.453   1.094   0.508
  238SOL    HW2 1614   5.335   1.160   0.600
  239SOL     OW 1615   0.970   4.640   6.508
  239SOL    HW1 1616   0.889   4.667   6.560
  239SOL    HW2 1617   0.942   4.613   6.415
  240SOL     OW 1618   6.764   2.870   3.426
  240SOL    HW1 1619   6.776   2.861   3.525
  240SOL    HW2 1620   6.767   2.967   3.401
  241SOL     OW 1621   2.824   2.275   4.974
  241SOL    HW1 1622   2.880   2.247   5.052
  241SOL    HW2 1623   2.750   2.334   5.004
  242SOL     OW 1624   3.557   3.941   4.345
  242SOL    HW1 1625   3.554   3.976   4.252
  242SOL    HW2 1626   3.628   3.989   4.397
  243SOL     OW 1627   4.492   0.930   6.650
  243SOL    HW1 1628   4.471   0.934   6.747
  243SOL    HW2 1629   4.456   0.845   6.611
  244SOL     OW 1630   6.729   3.602   5.409
  244SOL    HW1 1631   6.710   3.635   5.501
  244SOL    HW2 1632   6.770   3.511   5.413
  245SOL     OW 1633   5.064   2.390   3.977
  245SOL    HW1 1634   5.102   2.467   3.925
  245SOL    HW2 1635   5.135   2.351   4.036
  246SOL     OW 1636   5.102   2.195   3.312
  246SOL    HW1 1637   5.020   2.190   3.369
  246SOL    HW2 1638   5.102   2.281   3.260
  247SOL     OW 1639   2.739   1.339   0.184
  247SOL    HW1 1640   2.764   1.435   0.171
  247SOL    HW2 1641   2.649   1.323   0.144
  248SOL     OW 1642   3.961   1.443   2.900
  248SOL    HW1 1643   4.023   1.366   2.913
  248SOL    HW2 1644   3.866   1.411   2.908
  249SOL     OW 1645   4.804   0.529   4.730
  249SOL    HW1 1646   4.835   0.601   4.791
  249SOL    HW2 1647   4.836   0.440   4.764
  250SOL     OW 1648   5.131   3.434   0.300
  250SOL    HW1 1649   5.156   3.420   0.396
  250SOL    HW2 1650   5.214   3.435   0.244
  251SOL     OW 1651   4.855   3.526   5.568
  251SOL    HW1 1652   4.920   3.456   5.599
  251SOL    HW2 1653   4.838   3.591   5.642
  252SOL     OW 1654   6.734   6.229   5.130
  252SOL    HW1 1655   6.727   6.139   5.174
  252SOL    HW2 1656   6.824   6.268   5.150
  253SOL     OW 1657   2.836   5.172   6.231
  253SOL    HW1 1658   2.903   5.113   6.186
  253SOL    HW2 1659   2.869   5.198   6.322
  254SOL     OW 1660   6.048   2.191   3.922
  254SOL    HW1 1661   6.025   2.274   3.973
  254SOL    HW2 1662   6.051   2.213   3.824
  255SOL     OW 1663   1.479   4.523   5.296
  255SOL    HW1 1664   1.576   4.519   5.270
  255SOL    HW2 1665   1.469   4.582   5.376
  256SOL     OW 1666   6.296   3.974   6.325
  256SOL    HW1 1667   6.285   4.059   6.377
  256SOL    HW2 1668   6.358   3.913   6.374
  257SOL     OW 1669   4.986   0.386   3.723
  257SOL    HW1 1670   4.977   0.305   3.781
  257SOL    HW2 1671   5.074   0.430   3.741
  258SOL     OW 1672   2.344   5.202   5.105
  258SOL    HW1 1673   2.312   5.273   5.042
  258SOL    HW2 1674   2.269   5.139   5.126
  259SOL     OW 1675   6.215   2.300   2.940
  259SOL    HW1 1676   6.300   2.336   2.903
  259SOL    HW2 1677   6.164   2.254   2.867
  260SOL     OW 1678   4.301   0.014   1.954
  260SOL    HW1 1679   4.281   0.110   1.971
  260SOL    HW2 1680   4.219   6.985   1.966
  261SOL     OW 1681   6.845   3.309   0.428
  261SOL    HW1 1682   6.918   3.369   0.397
  261SOL    HW2 1683   6.756   3.351   0.407
  262SOL     OW 1684   0.856   3.522   6.884
  262SOL    HW1 1685   0.917   3.475   6.821
  262SOL    HW2 1686   0.762   3.520   6.848
  263SOL     OW 1687   2.197   0.601   4.488
  263SOL    HW1 1688   2.125   0.661   4.454
  263SOL    HW2 1689   2.213   0.619   4.585
  264SOL     OW 1690   5.682   2.927   0.070
  264SOL    HW1 1691   5.664   3.022   0.045
  264SOL    HW2 1692   5.781   2.912   0.073
  265SOL     OW 1693   5.488   6.444   2.543
  265SOL    HW1 1694   5.506   6.520   2.606
  265SOL    HW2 1695   5.509   6.357   2.588
  266SOL     OW 1696   3.337   2.749   5.929
  266SOL    HW1 1697   3.412   2.807   5.895
  266SOL    HW2 1698   3.352   2.729   6.026
  267SOL     OW 1699   0.735   1.366   6.242
  267SOL    HW1 1700   0.649   1.357   6.291
  267SOL    HW2 1701   0.717   1.387   6.146
  268SOL     OW 1702   3.810   1.415   6.301
  268SOL    HW1 1703   3.899   1.376   6.326
  268SOL    HW2 1704   3.791   1.494   6.360
  269SOL     OW 1705   1.628   3.447   1.411
  269SOL    HW1 1706   1.558   3.499   1.460
  269SOL    HW2 1707   1.602   3.438   1.315
  270SOL     OW 1708   1.149   6.239   0.455
  270SOL    HW1 1709   1.150   6.157   0.512
  270SOL    HW2 1710   1.236   6.288   0.466
  271SOL     OW 1711   0.028   2.145   0.009
  271SOL    HW1 1712   6.972   2.192   0.043
  271SOL    HW2 1713   0.034   2.055   0.051
  272SOL     OW 1714   3.736   5.309   3.947
  272SOL    HW1 1715   3.664   5.244   3.920
  272SOL    HW2 1716   3.780   5.276   4.030
  273SOL     OW 1717   2.600   4.605   4.246
  273SOL    HW1 1718   2.674   4.650   4.197
  273SOL    HW2 1719   2.545   4.551   4.182
  274SOL     OW 1720   3.899   1.668   3.310
  274SOL    HW1 1721   3.929   1.577   3.338
  274SOL    HW2 1722   3.963   1.736   3.346
  275SOL     OW 1723   6.495   5.278   3.711
  275SOL    HW1 1724   6.502   5.219   3.630
  275SOL    HW2 1725   6.475   5.372   3.683
  276SOL     OW 1726   6.504   6.463   2.533
  276SOL    HW1 1727   6.466   6.555   2.520
  276SOL    HW2 1728   6.437   6.405   2.579
  277SOL     OW 1729   1.799   4.170   0.358
  277SOL    HW1 1730   1.829   4.264   0.340
  277SOL    HW2 1731   1.735   4.142   0.287
  278SOL     OW 1732   0.127   4.765   2.093
  278SOL    HW1 1733   0.075   4.804   2.168
  278SOL    HW2 1734   0.100   4.670   2.079
  279SOL     OW 1735   5.476   3.275   4.569
  279SOL    HW1 1736   5.481   3.191   4.624
  279SOL    HW2 1737   5.466   3.354   4.629
  280SOL     OW 1738   2.916   6.825   3.268
  280SOL    HW1 1739   2.987   6.762   3.238
  280SOL    HW2 1740   2.934   6.855   3.361
  281SOL     OW 1741   2.752   4.164   1.657
  281SOL    HW1 1742   2.776   4.067   1.671
  281SOL    HW2 1743   2.667   4.185   1.706
  282SOL     OW 1744   3.274   1.242   6.046
  282SOL    HW1 1745   3.312   1.167   5.993
  282SOL    HW2 1746   3.207   1.207   6.111
  283SOL     OW 1747   6.253   1.793   6.582
  283SOL    HW1 1748   6.344   1.755   6.599
  283SOL    HW2 1749   6.192   1.720   6.550
  284SOL     OW 1750   1.312   4.143   3.726
  284SOL    HW1 1751   1.217   4.164   3.701
  284SOL    HW2 1752   1.353   4.223   3.769
  285SOL     OW 1753   6.044   4.956   4.629
  285SOL    HW1 1754   6.087   5.044   4.648
  285SOL    HW2 1755   5.945   4.967   4.629
  286SOL     OW 1756   3.477   5.716   6.181
  286SOL    HW1 1757   3.469   5.617   6.197
  286SOL    HW2 1758   3.553   5.752   6.235
  287SOL     OW 1759   0.983   3.679   0.834
  287SOL    HW1 1760   0.917   3.684   0.909
  287SOL    HW2 1761   1.016   3.585   0.824
  288SOL     OW 1762   3.575   1.517   6.640
  288SOL    HW1 1763   3.506   1.560   6.698
  288SOL    HW2 1764   3.538   1.432   6.602
  289SOL     OW 1765   1.120   4.142   5.210
  289SOL    HW1 1766   1.155   4.075   5.275
  289SOL    HW2 1767   1.020   4.139   5.209
  290SOL     OW 1768   6.074   2.237   4.671
  290SOL    HW1 1769   6.006   2.165   4.659
  290SOL    HW2 1770   6.166   2.196   4.672
  291SOL     OW 1771   1.536   2.442   4.418
  291SOL    HW1 1772   1.592   2.427   4.337
  291SOL    HW2 1773   1.593   2.437   4.500
  292SOL     OW 1774   1.354   2.737   3.340
  292SOL    HW1 1775   1.286   2.697   3.280
  292SOL    HW2 1776   1.309   2.781   3.418
  293SOL     OW 1777   4.183   6.177   2.626
  293SOL    HW1 1778   4.106   6.235   2.650
  293SOL    HW2 1779   4.264   6.234   2.610
  294SOL     OW 1780   0.986   5.707   6.361
  294SOL    HW1 1781   1.083   5.723   6.339
  294SOL    HW2 1782   0.929   5.769   6.307
  295SOL     OW 1783   3.264   1.556   3.495
  295SOL    HW1 1784   3.325   1.612   3.440
  295SOL    HW2 1785   3.207   1.615   3.552
  296SOL     OW 1786   3.819   1.985   3.253
  296SOL    HW1 1787   3.890   2.052   3.233
  296SOL    HW2 1788   3.860   1.894   3.262
  297SOL     OW 1789   3.018   4.954   3.620
  297SOL    HW1 1790   3.023   4.934   3.522
  297SOL    HW2 1791   2.926   4.935   3.653
  298SOL     OW 1792   3.172   6.042   1.737
  298SOL    HW1 1793   3.078   6.070   1.754
  298SOL    HW2 1794   3.199   5.972   1.804
  299SOL     OW 1795   5.534   3.351   6.100
  299SOL    HW1 1796   5.495   3.373   6.189
  299SOL    HW2 1797   5.560   3.255   6.097
  300SOL     OW 1798   6.687   0.612   2.910
  300SOL    HW1 1799   6.661   0.702   2.944
  300SOL    HW2 1800   6.639   0.593   2.825
  301SOL     OW 1801   4.851   3.210   1.166
  301SOL    HW1 1802   4.859   3.237   1.070
  301SOL    HW2 1803   4.833   3.290   1.222
  302SOL     OW 1804   1.188   0.566   3.273
  302SOL    HW1 1805   1.089   0.558   3.273
  302SOL    HW2 1806   1.229   0.478   3.300
  303SOL     OW 1807   5.974   1.086   2.415
  303SOL    HW1 1808   5.928   1.054   2.332
  303SOL    HW2 1809   5.908   1.131   2.475
  304SOL     OW 1810   2.534   0.492   3.701
  304SOL    HW1 1811   2.496   0.451   3.785
  304SOL    HW2 1812   2.600   0.563   3.726
  305SOL     OW 1813   0.515   3.375   0.486
  305SOL    HW1 1814   0.491   3.278   0.479
  305SOL    HW2 1815   0.549   3.407   0.397
  306SOL     OW 1816   1.806   0.968   3.537
  306SOL    HW1 1817   1.764   1.005   3.620
  306SOL    HW2 1818   1.832   0.873   3.552
  307SOL     OW 1819   4.694   6.889   0.932
  307SOL    HW1 1820   4.629   6.878   0.856
  307SOL    HW2 1821   4.701   6.803   0.982
  308SOL     OW 1822   6.300   4.065   5.244
  308SOL    HW1 1823   6.288   4.153   5.198
  308SOL    HW2 1824   6.363   4.074   5.320
  309SOL     OW 1825   4.044   4.432   6.075
  309SOL    HW1 1826   3.965   4.438   6.135
  309SOL    HW2 1827   4.019   4.463   5.983
  310SOL     OW 1828   6.528   6.785   5.719
  310SOL    HW1 1829   6.468   6.855   5.759
  310SOL    HW2 1830   6.564   6.818   5.632
  311SOL     OW 1831   6.250   5.526   1.266
  311SOL    HW1 1832   6.222   5.447   1.211
  311SOL    HW2 1833   6.348   5.543   1.253
  312SOL     OW 1834   4.540   1.733   5.620
  312SOL    HW1 1835   4.489   1.796   5.679
  312SOL    HW2 1836   4.604   1.680   5.676
  313SOL     OW 1837   3.027   4.143   1.812
  313SOL    HW1 1838   3.093   4.165   1.740
  313SOL    HW2 1839   2.970   4.223   1.831
  314SOL     OW 1840   3.183   5.154   6.760
  314SOL    HW1 1841   3.232   5.228   6.806
  314SOL    HW2 1842   3.172   5.077   6.823
  315SOL     OW 1843   0.579   3.137   3.260
  315SOL    HW1 1844   0.581   3.054   3.315
  315SOL    HW2 1845   0.647   3.202   3.295
  316SOL     OW 1846   2.409   2.304   3.871
  316SOL    HW1 1847   2.428   2.347   3.782
  316SOL    HW2 1848   2.473   2.228   3.886
  317SOL     OW 1849   1.214   0.555   1.311
  317SOL    HW1 1850   1.187   0.496   1.388
  317SOL    HW2 1851   1.156   0.534   1.232
  318SOL     OW 1852   0.858   6.205   6.954
  318SOL    HW1 1853   0.875   6.239   0.020
  318SOL    HW2 1854   0.771   6.239   6.920
  319SOL     OW 1855   0.344   0.911   3.055
  319SOL    HW1 1856   0.356   0.828   3.000
  319SOL    HW2 1857   0.246   0.931   3.064
  320SOL     OW 1858   5.326   2.324   6.679
  320SOL    HW1 1859   5.322   2.422   6.659
  320SOL    HW2 1860   5.270   2.304   6.760
  321SOL     OW 1861   2.929   1.413   1.832
  321SOL    HW1 1862   2.914   1.498   1.882
  321SOL    HW2 1863   2.980   1.434   1.748
  322SOL     OW 1864   3.400   3.426   4.822
  322SOL    HW1 1865   3.394   3.445   4.724
  322SOL    HW2 1866   3.469   3.355   4.838
  323SOL     OW 1867   0.537   3.510   0.014
  323SOL    HW1 1868   0.503   3.418   7.023
  323SOL    HW2 1869   0.519   3.568   6.960
  324SOL     OW 1870   2.265   2.679   4.101
  324SOL    HW1 1871   2.195   2.631   4.049
  324SOL    HW2 1872   2.355   2.661   4.060
  325SOL     OW 1873   2.125   3.100   1.859
  325SOL    HW1 1874   2.125   3.156   1.776
  325SOL    HW2 1875   2.108   3.159   1.938
  326SOL     OW 1876   1.962   5.249   6.640
  326SOL    HW1 1877   1.993   5.184   6.710
  326SOL    HW2 1878   2.036   5.312   6.618
  327SOL     OW 1879   1.433   5.342   3.883
  327SOL    HW1 1880   1.408   5.269   3.819
  327SOL    HW2 1881   1.430   5.306   3.976
  328SOL     OW 1882   3.131   4.903   2.393
  328SOL    HW1 1883   3.220   4.933   2.359
  328SOL    HW2 1884   3.062   4.971   2.370
  329SOL     OW 1885   2.959   3.730   4.198
  329SOL    HW1 1886   3.020   3.797   4.156
  329SOL    HW2 1887   2.976   3.727   4.296
  330SOL     OW 1888   3.410   6.229   1.901
  330SOL    HW1 1889   3.387   6.276   1.816
  330SOL    HW2 1890   3.465   6.148   1.880
  331SOL     OW 1891   4.703   4.983   6.593
  331SOL    HW1 1892   4.680   5.080   6.582
  331SOL    HW2 1893   4.799   4.975   6.620
  332SOL     OW 1894   3.717   2.168   4.579
  332SOL    HW1 1895   3.645   2.212   4.633
  332SOL    HW2 1896   3.806   2.199   4.612
  333SOL     OW 1897   3.281   6.851   6.826
  333SOL    HW1 1898   3.199   6.819   6.778
  333SOL    HW2 1899   3.258   6.875   6.920
  334SOL     OW 1900   2.302   0.365   0.745
  334SOL    HW1 1901   2.355   0.300   0.799
  334SOL    HW2 1902   2.304   0.455   0.789
  335SOL     OW 1903   3.560   6.642   4.118
  335SOL    HW1 1904   3.601   6.698   4.046
  335SOL    HW2 1905   3.623   6.635   4.195
  336SOL     OW 1906   2.170   1.009   4.180
  336SOL    HW1 1907   2.269   1.023   4.183
  336SOL    HW2 1908   2.124   1.097   4.186
  337SOL     OW 1909   0.285   3.621   0.881
  337SOL    HW1 1910   0.336   3.582   0.805
  337SOL    HW2 1911   0.288   3.721   0.876
  338SOL     OW 1912   2.990   2.267   0.660
  338SOL    HW1 1913   3.033   2.277   0.570
  338SOL    HW2 1914   2.892   2.251   0.648
  339SOL     OW 1915   3.733   6.654   4.294
  339SOL    HW1 1916   3.754   6.594   4.371
  339SOL    HW2 1917   3.788   6.738   4.301
  340SOL     OW 1918   5.117   3.963   4.547
  340SOL    HW1 1919   5.037   4.010   4.511
  340SOL    HW2 1920   5.137   3.882   4.491
  341SOL     OW 1921   6.466   6.793   4.140
  341SOL    HW1 1922   6.549   6.847   4.124
  341SOL    HW2 1923   6.454   6.728   4.065
  342SOL     OW 1924   5.648   3.917   0.410
  342SOL    HW1 1925   5.624   3.827   0.374
  342SOL    HW2 1926   5.744   3.916   0.440
  343SOL     OW 1927   1.836   6.063   0.811
  343SOL    HW1 1928   1.771   6.027   0.878
  343SOL    HW2 1929   1.805   6.039   0.719
  344SOL     OW 1930   1.874   5.430   1.450
  344SOL    HW1 1931   1.849   5.527   1.443
  344SOL    HW2 1932   1.972   5.422   1.469
  345SOL     OW 1933   6.628   1.361   6.007
  345SOL    HW1 1934   6.577   1.293   6.060
  345SOL    HW2 1935   6.587   1.369   5.916
  346SOL     OW 1936   2.205   0.698   1.755
  346SOL    HW1 1937   2.158   0.612   1.734
  346SOL    HW2 1938   2.275   0.682   1.824
  347SOL     OW 1939   4.256   6.484   6.342
  347SOL    HW1 1940   4.282   6.398   6.385
  347SOL    HW2 1941   4.313   6.558   6.377
  348SOL     OW 1942   4.865   5.303   1.384
  348SOL    HW1 1943   4.824   5.212   1.385
  348SOL    HW2 1944   4.877   5.336   1.478
  349SOL     OW 1945   6.675   4.520   2.114
  349SOL    HW1 1946   6.718   4.611   2.109
  349SOL    HW2 1947   6.622   4.504   2.030
  350SOL     OW 1948   3.399   3.323   1.554
  350SOL    HW1 1949   3.478   3.299   1.499
  350SOL    HW2 1950   3.333   3.247   1.552
  351SOL     OW 1951   2.605   2.470   0.478
  351SOL    HW1 1952   2.530   2.425   0.430
  351SOL    HW2 1953   2.689   2.460   0.425
  352SOL     OW 1954   3.824   6.981   4.668
  352SOL    HW1 1955   3.789   0.010   4.592
  352SOL    HW2 1956   3.767   6.994   4.749
  353SOL     OW 1957   2.817   0.123   0.820
  353SOL    HW1 1958   2.784   0.114   0.726
  353SOL    HW2 1959   2.901   0.070   0.831
  354SOL     OW 1960   4.460   2.056   0.155
  354SOL    HW1 1961   4.491   2.147   0.182
  354SOL    HW2 1962   4.445   2.053   0.057
  355SOL     OW 1963   6.645   2.980   2.910
  355SOL    HW1 1964   6.572   3.012   2.971
  355SOL    HW2 1965   6.622   2.888   2.877
  356SOL     OW 1966   4.308   5.774   4.441
  356SOL    HW1 1967   4.363   5.829   4.504
  356SOL    HW2 1968   4.295   5.682   4.479
  357SOL     OW 1969   6.783   6.920   5.426
  357SOL    HW1 1970   6.843   6.930   5.505
  357SOL    HW2 1971   6.813   6.843   5.371
  358SOL     OW 1972   5.742   0.225   1.852
  358SOL    HW1 1973   5.800   0.161   1.802
  358SOL    HW2 1974   5.799   0.297   1.892
  359SOL     OW 1975   1.871   2.051   2.181
  359SOL    HW1 1976   1.938   1.979   2.160
  359SOL    HW2 1977   1.911   2.116   2.245
  360SOL     OW 1978   2.519   6.580   6.316
  360SOL    HW1 1979   2.611   6.580   6.357
  360SOL    HW2 1980   2.453   6.617   6.381
  361SOL     OW 1981   5.379   5.675   2.674
  361SOL    HW1 1982   5.367   5.616   2.754
  361SOL    HW2 1983   5.291   5.691   2.630
  362SOL     OW 1984   3.525   3.787   0.577
  362SOL    HW1 1985   3.593   3.814   0.509
  362SOL    HW2 1986   3.433   3.806   0.542
  363SOL     OW 1987   4.111   5.134   3.912
  363SOL    HW1 1988   4.133   5.198   3.986
  363SOL    HW2 1989   4.063   5.183   3.839
  364SOL     OW 1990   0.271   5.617   5.652
  364SOL    HW1 1991   0.271   5.569   5.564
  364SOL    HW2 1992   0.203   5.577   5.712
  365SOL     OW 1993   4.781   6.000   2.128
  365SOL    HW1 1994   4.817   6.093   2.116
  365SOL    HW2 1995   4.707   6.001   2.195
  366SOL     OW 1996   5.576   1.389   0.320
  366SOL    HW1 1997   5.606   1.398   0.225
  366SOL    HW2 1998   5.620   1.310   0.362
  367SOL     OW 1999   5.163   2.703   0.660
  367SOL    HW1 2000   5.090   2.682   0.595
  367SOL    HW2 2001   5.193   2.619   0.705
  368SOL     OW 2002   0.765   4.135   4.941
  368SOL    HW1 2003   0.750   4.231   4.964
  368SOL    HW2 2004   0.775   4.082   5.025
  369SOL     OW 2005   6.652   4.622   1.618
  369SOL    HW1 2006   6.741   4.664   1.598
  369SOL    HW2 2007   6.581   4.667   1.564
  370SOL     OW 2008   3.228   1.621   5.493
  370SOL    HW1 2009   3.255   1.577   5.579
  370SOL    HW2 2010   3.310   1.648   5.443
  371SOL     OW 2011   2.394   3.571   6.393
  371SOL    HW1 2012   2.353   3.644   6.448
  371SOL    HW2 2013   2.355   3.573   6.301
  372SOL     OW 2014   6.733   0.613   5.206
  372SOL    HW1 2015   6.769   0.552   5.135
  372SOL    HW2 2016   6.667   0.676   5.165
  373SOL     OW 2017   6.565   6.311   5.720
  373SOL    HW1 2018   6.532   6.388   5.775
  373SOL    HW2 2019   6.491   6.246   5.706
  374SOL     OW 2020   4.485   6.802   2.541
  374SOL    HW1 2021   4.567   6.778   2.592
  374SOL    HW2 2022   4.407   6.809   2.603
  375SOL     OW 2023   6.921   4.807   3.734
  375SOL    HW1 2024   6.978   4.726   3.749
  375SOL    HW2 2025   6.974   4.889   3.753
  376SOL     OW 2026   1.901   3.628   3.753
  376SOL    HW1 2027   1.997   3.647   3.737
  376SOL    HW2 2028   1.849   3.645   3.669
  377SOL     OW 2029   6.212   2.719   1.972
  377SOL    HW1 2030   6.217   2.757   1.880
  377SOL    HW2 2031   6.180   2.790   2.036
  378SOL     OW 2032   3.545   2.493   5.420
  378SOL    HW1 2033   3.565   2.404   5.380
  378SOL    HW2 2034   3.474   2.482   5.490
  379SOL     OW 2035   6.226   4.099   1.628
  379SOL    HW1 2036   6.212   4.020   1.688
  379SOL    HW2 2037   6.275   4.070   1.546
  380SOL     OW 2038   2.512   1.578   1.817
  380SOL    HW1 2039   2.503   1.479   1.807
  380SOL    HW2 2040   2.422   1.621   1.811
  381SOL     OW 2041   2.012   4.716   1.533
  381SOL    HW1 2042   2.026   4.649   1.460
  381SOL    HW2 2043   1.917   4.712   1.565
  382SOL     OW 2044   4.457   5.831   6.614
  382SOL    HW1 2045   4.533   5.896   6.619
  382SOL    HW2 2046   4.440   5.807   6.518
  383SOL     OW 2047   6.290   3.183   6.060
  383SOL    HW1 2048   6.328   3.151   5.974
  383SOL    HW2 2049   6.350   3.157   6.135
  384SOL     OW 2050   1.031   4.100   4.843
  384SOL    HW1 2051   0.965   4.063   4.909
  384SOL    HW2 2052   1.053   4.030   4.775
  385SOL     OW 2053   4.734   6.502   0.060
  385SOL    HW1 2054   4.671   6.427   0.039
  385SOL    HW2 2055   4.682   6.585   0.080
  386SOL     OW 2056   3.804   6.939   5.273
  386SOL    HW1 2057   3.871   6.958   5.201
  386SOL    HW2 2058   3.845   6.877   5.340
  387SOL     OW 2059   0.400   6.305   3.750
  387SOL    HW1 2060   0.436   6.369   3.682
  387SOL    HW2 2061   0.309   6.276   3.722
  388SOL     OW 2062   0.655   2.027   4.617
  388SOL    HW1 2063   0.556   2.020   4.629
  388SOL    HW2 2064   0.701   1.979   4.691
  389SOL     OW 2065   4.235   4.137   1.668
  389SOL    HW1 2066   4.281   4.123   1.580
  389SOL    HW2 2067   4.299   4.176   1.733
  390SOL     OW 2068   3.441   1.085   0.205
  390SOL    HW1 2069   3.480   1.130   0.286
  390SOL    HW2 2070   3.418   1.155   0.138
  391SOL     OW 2071   2.515   4.117   5.372
  391SOL    HW1 2072   2.466   4.204   5.372
  391SOL    HW2 2073   2.497   4.069   5.286
  392SOL     OW 2074   1.765   3.343   2.413
  392SOL    HW1 2075   1.705   3.419   2.389
  392SOL    HW2 2076   1.845   3.344   2.353
  393SOL     OW 2077   1.384   5.218   0.601
  393SOL    HW1 2078   1.313   5.165   0.648
  393SOL    HW2 2079   1.464   5.161   0.586
  394SOL     OW 2080   0.573   2.838   6.916
  394SOL    HW1 2081   0.560   2.915   6.854
  394SOL    HW2 2082   0.654   2.855   6.972
  395SOL     OW 2083   5.224   4.429   2.033
  395SOL    HW1 2084   5.220   4.352   1.969
  395SOL    HW2 2085   5.280   4.502   1.994
  396SOL     OW 2086   2.330   1.857   2.129
  396SOL    HW1 2087   2.428   1.841   2.118
  396SOL    HW2 2088   2.313   1.910   2.212
  397SOL     OW 2089   5.509   1.179   5.596
  397SOL    HW1 2090   5.606   1.185   5.573
  397SOL    HW2 2091   5.457   1.149   5.516
  398SOL     OW 2092   0.957   6.222   4.736
  398SOL    HW1 2093   0.932   6.203   4.641
  398SOL    HW2 2094   1.047   6.266   4.739
  399SOL     OW 2095   6.466   5.946   4.241
  399SOL    HW1 2096   6.404   5.900   4.178
  399SOL    HW2 2097   6.500   5.880   4.308
  400SOL     OW 2098   6.938   6.725   4.947
  400SOL    HW1 2099   6.894   6.687   4.866
  400SOL    HW2 2100   6.896   6.813   4.969
  401SOL     OW 2101   6.463   0.449   6.469
  401SOL    HW1 2102   6.556   0.418   6.448
  401SOL    HW2 2103   6.433   0.515   6.399
  402SOL     OW 2104   6.219   0.515   2.457
  402SOL    HW1 2105   6.282   0.531   2.533
  402SOL    HW2 2106   6.264   0.535   2.370
  403SOL     OW 2107   3.278   0.191   6.766
  403SOL    HW1 2108   3.196   0.138   6.788
  403SOL    HW2 2109   3.324   0.218   6.851
  404SOL     OW 2110   3.371   6.238   5.562
  404SOL    HW1 2111   3.326   6.213   5.648
  404SOL    HW2 2112   3.336   6.326   5.530
  405SOL     OW 2113   2.265   4.214   3.494
  405SOL    HW1 2114   2.345   4.273   3.488
  405SOL    HW2 2115   2.198   4.242   3.425
  406SOL     OW 2116   0.906   4.996   5.037
  406SOL    HW1 2117   0.941   4.926   5.100
  406SOL    HW2 2118   0.843   4.954   4.972
  407SOL     OW 2119   1.623   3.011   3.717
  407SOL    HW1 2120   1.711   2.965   3.730
  407SOL    HW2 2121   1.624   3.098   3.767
  408SOL     OW 2122   3.568   2.065   3.044
  408SOL    HW1 2123   3.592   2.057   3.141
  408SOL    HW2 2124   3.644   2.108   2.995
  409SOL     OW 2125   6.964   3.584   1.708
  409SOL    HW1 2126   6.925   3.515   1.768
  409SOL    HW2 2127   7.023   3.645   1.760
  410SOL     OW 2128   1.512   2.115   1.341
  410SOL    HW1 2129   1.566   2.197   1.359
  410SOL    HW2 2130   1.549   2.069   1.260
  411SOL     OW 2131   0.063   2.119   2.066
  411SOL    HW1 2132   0.072   2.074   1.977
  411SOL    HW2 2133   0.152   2.122   2.111
  412SOL     OW 2134   3.008   5.084   2.687
  412SOL    HW1 2135   2.911   5.077   2.666
  412SOL    HW2 2136   3.050   4.994   2.682
  413SOL     OW 2137   3.711   4.951   2.168
  413SOL    HW1 2138   3.697   4.867   2.114
  413SOL    HW2 2139   3.645   5.020   2.140
  414SOL     OW 2140   3.435   0.429   4.010
  414SOL    HW1 2141   3.430   0.412   3.912
  414SOL    HW2 2142   3.430   0.527   4.027
  415SOL     OW 2143   0.238   1.940   0.527
  415SOL    HW1 2144   0.283   1.949   0.437
  415SOL    HW2 2145   0.299   1.892   0.590
  416SOL     OW 2146   5.399   4.159   4.543
  416SOL    HW1 2147   5.491   4.134   4.513
  416SOL    HW2 2148   5.348   4.076   4.567
  417SOL     OW 2149   2.099   1.260   6.576
  417SOL    HW1 2150   2.060   1.226   6.661
  417SOL    HW2 2151   2.159   1.338   6.595
  418SOL     OW 2152   2.928   6.884   4.997
  418SOL    HW1 2153   2.948   6.801   5.049
  418SOL    HW2 2154   2.906   6.859   4.903
  419SOL     OW 2155   6.826   6.766   2.292
  419SOL    HW1 2156   6.772   6.747   2.374
  419SOL    HW2 2157   6.839   6.681   2.241
  420SOL     OW 2158   5.610   0.791   6.604
  420SOL    HW1 2159   5.612   0.730   6.525
  420SOL    HW2 2160   5.528   0.773   6.658
  421SOL     OW 2161   5.606   4.452   5.365
  421SOL    HW1 2162   5.640   4.435   5.273
  421SOL    HW2 2163   5.552   4.537   5.367
  422SOL     OW 2164   5.058   1.678   0.986
  422SOL    HW1 2165   5.091   1.584   0.980
  422SOL    HW2 2166   4.978   1.681   1.046
  423SOL     OW 2167   2.657   0.320   6.423
  423SOL    HW1 2168   2.752   0.297   6.444
  423SOL    HW2 2169   2.651   0.416   6.397
  424SOL     OW 2170   1.562   5.478   3.143
  424SOL    HW1 2171   1.629   5.405   3.153
  424SOL    HW2 2172   1.609   5.566   3.138
  425SOL     OW 2173   4.700   1.036   4.764
  425SOL    HW1 2174   4.738   1.111   4.819
  425SOL    HW2 2175   4.639   0.981   4.820
  426SOL     OW 2176   2.527   2.546   4.815
  426SOL    HW1 2177   2.537   2.628   4.757
  426SOL    HW2 2178   2.437   2.546   4.858
  427SOL     OW 2179   4.875   1.299   4.094
  427SOL    HW1 2180   4.889   1.397   4.100
  427SOL    HW2 2181   4.888   1.257   4.184
  428SOL     OW 2182   2.575   0.976   4.598
  428SOL    HW1 2183   2.493   1.007   4.646
  428SOL    HW2 2184   2.609   0.893   4.642
  429SOL     OW 2185   0.739   5.492   4.217
  429SOL    HW1 2186   0.728   5.513   4.314
  429SOL    HW2 2187   0.669   5.427   4.189
  430SOL     OW 2188   1.590   0.073   3.611
  430SOL    HW1 2189   1.619   7.004   3.621
  430SOL    HW2 2190   1.517   0.093   3.676
  431SOL     OW 2191   2.779   1.895   0.929
  431SOL    HW1 2192   2.704   1.840   0.966
  431SOL    HW2 2193   2.821   1.948   1.003
  432SOL     OW 2194   5.262   1.833   1.051
  432SOL    HW1 2195   5.190   1.763   1.050
  432SOL    HW2 2196   5.339   1.803   0.995
  433SOL     OW 2197   3.527   6.445   6.293
  433SOL    HW1 2198   3.543   6.353   6.258
  433SOL    HW2 2199   3.613   6.496   6.297
  434SOL     OW 2200   4.003   6.357   3.660
  434SOL    HW1 2201   4.082   6.314   3.704
  434SOL    HW2 2202   3.959   6.420   3.724
  435SOL     OW 2203   3.948   1.645   5.647
  435SOL    HW1 2204   3.856   1.618   5.678
  435SOL    HW2 2205   3.941   1.728   5.592
  436SOL     OW 2206   3.205   5.947   3.054
  436SOL    HW1 2207   3.233   5.852   3.063
  436SOL    HW2 2208   3.259   6.004   3.116
  437SOL     OW 2209   6.926   1.146   4.616
  437SOL    HW1 2210   6.959   1.053   4.599
  437SOL    HW2 2211   6.851   1.143   4.682
  438SOL     OW 2212   1.253   5.070   3.037
  438SOL    HW1 2213   1.322   5.122   3.087
  438SOL    HW2 2214   1.184   5.037   3.100
  439SOL     OW 2215   6.058   0.952   2.808
  439SOL    HW1 2216   6.143   1.004   2.810
  439SOL    HW2 2217   6.079   0.854   2.807
  440SOL     OW 2218   3.726   1.067   6.862
  440SOL    HW1 2219   3.708   1.006   6.939
  440SOL    HW2 2220   3.756   1.156   6.897
  441SOL     OW 2221   6.741   4.183   3.064
  441SOL    HW1 2222   6.790   4.100   3.037
  441SOL    HW2 2223   6.773   4.260   3.009
  442SOL     OW 2224   4.853   4.306   5.888
  442SOL    HW1 2225   4.912   4.237   5.846
  442SOL    HW2 2226   4.885   4.397   5.864
  443SOL     OW 2227   4.775   4.347   3.039
  443SOL    HW1 2228   4.778   4.429   3.096
  443SOL    HW2 2229   4.762   4.374   2.944
  444SOL     OW 2230   3.953   1.579   0.242
  444SOL    HW1 2231   3.869   1.576   0.187
  444SOL    HW2 2232   4.031   1.600   0.182
  445SOL     OW 2233   2.726   6.311   2.765
  445SOL    HW1 2234   2.783   6.297   2.847
  445SOL    HW2 2235   2.668   6.230   2.751
  446SOL     OW 2236   5.070   5.916   2.891
  446SOL    HW1 2237   5.165   5.922   2.920
  446SOL    HW2 2238   5.038   5.822   2.900
  447SOL     OW 2239   6.347   4.019   6.042
  447SOL    HW1 2240   6.335   4.010   6.141
  447SOL    HW2 2241   6.353   3.929   6.000
  448SOL     OW 2242   2.732   1.332   2.522
  448SOL    HW1 2243   2.736   1.258   2.589
  448SOL    HW2 2244   2.698   1.415   2.566
  449SOL     OW 2245   1.984   2.862   3.417
  449SOL    HW1 2246   2.064   2.861   3.477
  449SOL    HW2 2247   2.000   2.924   3.341
  450SOL     OW 2248   0.424   4.865   3.567
  450SOL    HW1 2249   0.470   4.911   3.643
  450SOL    HW2 2250   0.441   4.767   3.573
  451SOL     OW 2251   0.128   2.399   3.499
  451SOL    HW1 2252   0.092   2.305   3.499
  451SOL    HW2 2253   0.194   2.409   3.425
  452SOL     OW 2254   3.662   6.497   2.810
  452SOL    HW1 2255   3.584   6.455   2.764
  452SOL    HW2 2256   3.630   6.558   2.882
  453SOL     OW 2257   4.304   0.346   6.696
  453SOL    HW1 2258   4.380   0.306   6.644
  453SOL    HW2 2259   4.316   0.445   6.702
  454SOL     OW 2260   6.448   4.377   6.047
  454SOL    HW1 2261   6.448   4.379   6.147
  454SOL    HW2 2262   6.493   4.293   6.015
  455SOL     OW 2263   0.156   4.094   5.724
  455SOL    HW1 2264   0.243   4.066   5.684
  455SOL    HW2 2265   0.170   4.124   5.818
  456SOL     OW 2266   1.701   0.974   3.789
  456SOL    HW1 2267   1.747   0.909   3.850
  456SOL    HW2 2268   1.693   1.062   3.836
  457SOL     OW 2269   1.517   6.052   5.947
  457SOL    HW1 2270   1.597   6.042   5.887
  457SOL    HW2 2271   1.545   6.096   6.032
  458SOL     OW 2272   2.760   1.624   3.011
  458SOL    HW1 2273   2.856   1.607   2.989
  458SOL    HW2 2274   2.704   1.550   2.974
  459SOL     OW 2275   2.007   0.131   5.129
  459SOL    HW1 2276   2.043   0.224   5.125
  459SOL    HW2 2277   1.993   0.097   5.036
  460SOL     OW 2278   1.261   1.515   5.209
  460SOL    HW1 2279   1.310   1.592   5.249
  460SOL    HW2 2280   1.308   1.485   5.125
  461SOL     OW 2281   6.774   4.726   5.747
  461SOL    HW1 2282   6.682   4.719   5.784
  461SOL    HW2 2283   6.786   4.816   5.704
  462SOL     OW 2284   3.363   3.555   4.575
  462SOL    HW1 2285   3.402   3.485   4.516
  462SOL    HW2 2286   3.264   3.540   4.583
  463SOL     OW 2287   5.952   6.746   2.384
  463SOL    HW1 2288   5.964   6.832   2.334
  463SOL    HW2 2289   5.873   6.755   2.445
  464SOL     OW 2290   3.554   6.213   5.907
  464SOL    HW1 2291   3.474   6.190   5.963
  464SOL    HW2 2292   3.559   6.149   5.830
  465SOL     OW 2293   1.429   1.890   0.819
  465SOL    HW1 2294   1.330   1.893   0.835
  465SOL    HW2 2295   1.477   1.903   0.906
  466SOL     OW 2296   3.425   6.300   4.788
  466SOL    HW1 2297   3.328   6.296   4.813
  466SOL    HW2 2298   3.479   6.329   4.867
  467SOL     OW 2299   0.640   1.842   2.787
  467SOL    HW1 2300   0.633   1.801   2.878
  467SOL    HW2 2301   0.552   1.880   2.760
  468SOL     OW 2302   4.695   0.064   6.518
  468SOL    HW1 2303   4.763   0.044   6.447
  468SOL    HW2 2304   4.739   0.111   6.594
  469SOL     OW 2305   2.792   4.345   5.550
  469SOL    HW1 2306   2.798   4.434   5.506
  469SOL    HW2 2307   2.810   4.273   5.483
  470SOL     OW 2308   2.730   5.391   3.095
  470SOL    HW1 2309   2.709   5.488   3.087
  470SOL    HW2 2310   2.646   5.338   3.079
  471SOL     OW 2311   2.806   2.289   3.777
  471SOL    HW1 2312   2.755   2.224   3.720
  471SOL    HW2 2313   2.838   2.365   3.720
  472SOL     OW 2314   5.848   4.397   6.511
  472SOL    HW1 2315   5.864   4.341   6.430
  472SOL    HW2 2316   5.886   4.351   6.592
  473SOL     OW 2317   6.832   2.615   2.661
  473SOL    HW1 2318   6.902   2.614   2.732
  473SOL    HW2 2319   6.803   2.522   2.641
  474SOL     OW 2320   6.271   6.070   4.664
  474SOL    HW1 2321   6.227   6.047   4.577
  474SOL    HW2 2322   6.317   5.989   4.700
  475SOL     OW 2323   5.523   2.342   0.372
  475SOL    HW1 2324   5.496   2.369   0.280
  475SOL    HW2 2325   5.622   2.325   0.375
  476SOL     OW 2326   0.588   4.346   2.131
  476SOL    HW1 2327   0.656   4.273   2.130
  476SOL    HW2 2328   0.608   4.412   2.059
  477SOL     OW 2329   2.754   5.964   3.977
  477SOL    HW1 2330   2.674   5.905   3.988
  477SOL    HW2 2331   2.804   5.937   3.895
  478SOL     OW 2332   4.432   5.595   2.741
  478SOL    HW1 2333   4.461   5.512   2.790
  478SOL    HW2 2334   4.407   5.666   2.807
  479SOL     OW 2335   4.042   3.531   4.166
  479SOL    HW1 2336   4.078   3.544   4.073
  479SOL    HW2 2337   4.011   3.619   4.202
  480SOL     OW 2338   1.280   6.902   2.788
  480SOL    HW1 2339   1.219   6.826   2.765
  480SOL    HW2 2340   1.364   6.866   2.830
  481SOL     OW 2341   0.762   5.947   0.910
  481SOL    HW1 2342   0.859   5.971   0.909
  481SOL    HW2 2343   0.737   5.913   1.001
  482SOL     OW 2344   5.635   4.321   2.743
  482SOL    HW1 2345   5.718   4.350   2.694
  482SOL    HW2 2346   5.567   4.395   2.739
  483SOL     OW 2347   5.881   2.119   3.033
  483SOL    HW1 2348   5.783   2.137   3.029
  483SOL    HW2 2349   5.930   2.206   3.045
  484SOL     OW 2350   2.008   4.314   4.415
  484SOL    HW1 2351   1.969   4.223   4.426
  484SOL    HW2 2352   2.098   4.318   4.459
  485SOL     OW 2353   5.614   3.389   2.383
  485SOL    HW1 2354   5.712   3.370   2.392
  485SOL    HW2 2355   5.562   3.313   2.421
  486SOL     OW 2356   6.129   0.023   6.465
  486SOL    HW1 2357   6.145   0.120   6.446
  486SOL    HW2 2358   6.124   0.010   6.564
  487SOL     OW 2359   0.194   6.710   3.335
  487SOL    HW1 2360   0.146   6.714   3.423
  487SOL    HW2 2361   0.292   6.696   3.352
  488SOL     OW 2362   1.890   6.975   3.340
  488SOL    HW1 2363   1.810   7.026   3.374
  488SOL    HW2 2364   1.913   7.008   3.248
  489SOL     OW 2365   6.712   6.055   4.435
  489SOL    HW1 2366   6.678   6.002   4.513
  489SOL    HW2 2367   6.635   6.094   4.385
  490SOL     OW 2368   1.693   5.412   6.032
  490SOL    HW1 2369   1.661   5.364   6.113
  490SOL    HW2 2370   1.759   5.355   5.983
  491SOL     OW 2371   0.032   2.993   0.272
  491SOL    HW1 2372   0.059   2.941   0.353
  491SOL    HW2 2373   0.013   2.930   0.197
  492SOL     OW 2374   1.260   1.700   5.766
  492SOL    HW1 2375   1.169   1.683   5.803
  492SOL    HW2 2376   1.328   1.690   5.838
  493SOL     OW 2377   2.482   6.673   5.050
  493SOL    HW1 2378   2.574   6.634   5.043
  493SOL    HW2 2379   2.463   6.729   4.970
  494SOL     OW 2380   2.344   0.340   5.548
  494SOL    HW1 2381   2.422   0.303   5.497
  494SOL    HW2 2382   2.333   0.437   5.526
  495SOL     OW 2383   4.273   6.200   5.840
  495SOL    HW1 2384   4.182   6.236   5.821
  495SOL    HW2 2385   4.286   6.114   5.789
  496SOL     OW 2386   6.062   2.163   2.745
  496SOL    HW1 2387   5.999   2.200   2.677
  496SOL    HW2 2388   6.024   2.078   2.782
  497SOL     OW 2389   3.509   1.070   6.220
  497SOL    HW1 2390   3.443   1.048   6.147
  497SOL    HW2 2391   3.576   1.135   6.185
  498SOL     OW 2392   0.116   5.760   2.157
  498SOL    HW1 2393   0.075   5.836   2.207
  498SOL    HW2 2394   0.162   5.794   2.075
  499SOL     OW 2395   3.308   4.771   6.489
  499SOL    HW1 2396   3.366   4.820   6.555
  499SOL    HW2 2397   3.293   4.677   6.521
  500SOL     OW 2398   5.463   2.668   6.652
  500SOL    HW1 2399   5.376   2.629   6.622
  500SOL    HW2 2400   5.464   2.766   6.631
  501SOL     OW 2401   1.581   0.046   2.988
  501SOL    HW1 2402   1.579   0.107   2.908
  501SOL    HW2 2403   1.535   6.986   2.965
  502SOL     OW 2404   1.892   4.740   5.637
  502SOL    HW1 2405   1.972   4.702   5.592
  502SOL    HW2 2406   1.916   4.826   5.682
  503SOL     OW 2407   3.213   4.286   6.756
  503SOL    HW1 2408   3.164   4.235   6.686
  503SOL    HW2 2409   3.311   4.281   6.739
  504SOL     OW 2410   6.791   6.300   1.970
  504SOL    HW1 2411   6.709   6.344   1.933
  504SOL    HW2 2412   6.764   6.227   2.034
  505SOL     OW 2413   4.488   6.884   4.961
  505SOL    HW1 2414   4.542   6.958   5.002
  505SOL    HW2 2415   4.492   6.803   5.019
  506SOL     OW 2416   3.073   5.654   3.066
  506SOL    HW1 2417   3.170   5.634   3.082
  506SOL    HW2 2418   3.062   5.752   3.049
  507SOL     OW 2419   4.101   1.068   1.985
  507SOL    HW1 2420   4.045   0.992   2.019
  507SOL    HW2 2421   4.098   1.069   1.885
  508SOL     OW 2422   6.844   3.810   4.240
  508SOL    HW1 2423   6.931   3.808   4.191
  508SOL    HW2 2424   6.783   3.739   4.204
  509SOL     OW 2425   4.778   0.552   6.781
  509SOL    HW1 2426   4.758   0.646   6.756
  509SOL    HW2 2427   4.714   0.491   6.736
  510SOL     OW 2428   6.622   4.609   6.127
  510SOL    HW1 2429   6.538   4.640   6.172
  510SOL    HW2 2430   6.621   4.509   6.119
  511SOL     OW 2431   1.507   1.378   6.849
  511SOL    HW1 2432   1.557   1.412   6.929
  511SOL    HW2 2433   1.431   1.321   6.878
  512SOL     OW 2434   5.149   2.576   6.867
  512SOL    HW1 2435   5.089   2.625   6.804
  512SOL    HW2 2436   5.144   2.478   6.848
  513SOL     OW 2437   5.527   0.491   2.360
  513SOL    HW1 2438   5.557   0.437   2.281
  513SOL    HW2 2439   5.565   0.583   2.353
  514SOL     OW 2440   6.971   6.644   4.342
  514SOL    HW1 2441   6.967   6.695   4.256
  514SOL    HW2 2442   6.987   6.547   4.323
  515SOL     OW 2443   2.642   0.602   6.367
  515SOL    HW1 2444   2.713   0.667   6.339
  515SOL    HW2 2445   2.584   0.645   6.436
  516SOL     OW 2446   2.541   4.235   1.409
  516SOL    HW1 2447   2.634   4.237   1.372
  516SOL    HW2 2448   2.496   4.323   1.390
  517SOL     OW 2449   3.001   5.509   2.589
  517SOL    HW1 2450   2.978   5.601   2.557
  517SOL    HW2 2451   2.924   5.471   2.640
  518SOL     OW 2452   2.184   3.318   3.628
  518SOL    HW1 2453   2.165   3.302   3.725
  518SOL    HW2 2454   2.104   3.359   3.585
  519SOL     OW 2455   6.540   6.409   3.923
  519SOL    HW1 2456   6.535   6.429   4.021
  519SOL    HW2 2457   6.529   6.311   3.909
  520SOL     OW 2458   1.055   3.310   0.067
  520SOL    HW1 2459   1.141   3.300   0.018
  520SOL    HW2 2460   0.980   3.275   0.011
  521SOL     OW 2461   4.995   5.026   4.368
  521SOL    HW1 2462   4.907   4.993   4.333
  521SOL    HW2 2463   4.989   5.040   4.467
  522SOL     OW 2464   4.245   3.620   1.439
  522SOL    HW1 2465   4.236   3.618   1.538
  522SOL    HW2 2466   4.182   3.553   1.398
  523SOL     OW 2467   0.152   6.172   1.556
  523SOL    HW1 2468   0.247   6.151   1.531
  523SOL    HW2 2469   0.123   6.254   1.506
  524SOL     OW 2470   0.544   3.160   2.072
  524SOL    HW1 2471   0.540   3.110   1.986
  524SOL    HW2 2472   0.634   3.147   2.114
  525SOL     OW 2473   0.865   2.900   6.874
  525SOL    HW1 2474   0.898   2.856   6.958
  525SOL    HW2 2475   0.878   2.999   6.881
  526SOL     OW 2476   3.626   6.960   4.423
  526SOL    HW1 2477   3.602   6.919   4.511
  526SOL    HW2 2478   3.548   6.953   4.361
  527SOL     OW 2479   1.431   1.885   0.011
  527SOL    HW1 2480   1.353   1.936   6.999
  527SOL    HW2 2481   1.397   1.816   0.075
  528SOL     OW 2482   0.195   3.656   3.786
  528SOL    HW1 2483   0.155   3.713   3.858
  528SOL    HW2 2484   0.147   3.674   3.700
  529SOL     OW 2485   2.998   0.390   5.530
  529SOL    HW1 2486   2.925   0.417   5.592
  529SOL    HW2 2487   2.968   0.312   5.475
  530SOL     OW 2488   3.559   3.252   1.893
  530SOL    HW1 2489   3.485   3.315   1.870
  530SOL    HW2 2490   3.531   3.196   1.972
  531SOL     OW 2491   2.602   0.753   2.579
  531SOL    HW1 2492   2.670   0.826   2.579
  531SOL    HW2 2493   2.567   0.741   2.671
  532SOL     OW 2494   2.268   3.303   0.366
  532SOL    HW1 2495   2.286   3.206   0.356
  532SOL    HW2 2496   2.175   3.324   0.336
  533SOL     OW 2497   4.670   0.137   3.726
  533SOL    HW1 2498   4.649   0.228   3.691
  533SOL    HW2 2499   4.673   0.140   3.826
  534SOL     OW 2500   0.995   5.681   1.397
  534SOL    HW1 2501   0.997   5.781   1.398
  534SOL    HW2 2502   1.061   5.645   1.463
  535SOL     OW 2503   6.305   4.166   3.310
  535SOL    HW1 2504   6.378   4.106   3.275
  535SOL    HW2 2505   6.217   4.118   3.305
  536SOL     OW 2506   6.597   6.088   3.219
  536SOL    HW1 2507   6.553   6.156   3.277
  536SOL    HW2 2508   6.687   6.065   3.257
  537SOL     OW 2509   4.047   6.896   4.144
  537SOL    HW1 2510   3.968   6.936   4.098
  537SOL    HW2 2511   4.023   6.876   4.239
  538SOL     OW 2512   1.632   4.981   5.321
  538SOL    HW1 2513   1.702   5.049   5.343
  538SOL    HW2 2514   1.598   4.940   5.405
  539SOL     OW 2515   1.383   5.584   1.515
  539SOL    HW1 2516   1.388   5.523   1.594
  539SOL    HW2 2517   1.474   5.618   1.492
  540SOL     OW 2518   1.832   1.336   4.165
  540SOL    HW1 2519   1.818   1.242   4.133
  540SOL    HW2 2520   1.782   1.399   4.106
  541SOL     OW 2521   4.191   5.945   3.829
  541SOL    HW1 2522   4.095   5.926   3.847
  541SOL    HW2 2523   4.209   6.043   3.841
  542SOL     OW 2524   3.697   5.796   6.751
  542SOL    HW1 2525   3.658   5.864   6.813
  542SOL    HW2 2526   3.625   5.760   6.691
  543SOL     OW 2527   5.727   3.594   4.033
  543SOL    HW1 2528   5.704   3.567   3.939
  543SOL    HW2 2529   5.744   3.692   4.036
  544SOL     OW 2530   0.685   4.736   0.055
  544SOL    HW1 2531   0.602   4.736   7.024
  544SOL    HW2 2532   0.765   4.740   7.022
  545SOL     OW 2533   5.358   1.373   1.213
  545SOL    HW1 2534   5.446   1.411   1.185
  545SOL    HW2 2535   5.350   1.375   1.313
  546SOL     OW 2536   0.337   4.492   2.052
  546SOL    HW1 2537   0.240   4.505   2.031
  546SOL    HW2 2538   0.347   4.437   2.135
  547SOL     OW 2539   3.557   2.186   0.451
  547SOL    HW1 2540   3.614   2.187   0.369
  547SOL    HW2 2541   3.589   2.114   0.513
  548SOL     OW 2542   3.455   3.330   0.662
  548SOL    HW1 2543   3.372   3.276   0.677
  548SOL    HW2 2544   3.520   3.312   0.736
  549SOL     OW 2545   5.063   2.336   0.870
  549SOL    HW1 2546   5.051   2.286   0.784
  549SOL    HW2 2547   4.973   2.357   0.908
  550SOL     OW 2548   6.676   4.154   3.482
  550SOL    HW1 2549   6.668   4.218   3.558
  550SOL    HW2 2550   6.724   4.071   3.512
  551SOL     OW 2551   6.671   1.111   1.027
  551SOL    HW1 2552   6.648   1.016   1.006
  551SOL    HW2 2553   6.770   1.119   1.039
  552SOL     OW 2554   4.994   5.440   5.109
  552SOL    HW1 2555   4.938   5.361   5.136
  552SOL    HW2 2556   5.083   5.407   5.076
  553SOL     OW 2557   3.391   0.649   4.291
  553SOL    HW1 2558   3.426   0.558   4.313
  553SOL    HW2 2559   3.307   0.641   4.238
  554SOL     OW 2560   5.764   5.608   0.053
  554SOL    HW1 2561   5.838   5.544   0.075
  554SOL    HW2 2562   5.740   5.661   0.134
  555SOL     OW 2563   3.588   5.486   5.299
  555SOL    HW1 2564   3.519   5.499   5.227
  555SOL    HW2 2565   3.675   5.523   5.268
  556SOL     OW 2566   5.276   1.664   4.633
  556SOL    HW1 2567   5.244   1.589   4.690
  556SOL    HW2 2568   5.209   1.681   4.560
  557SOL     OW 2569   0.058   4.663   6.163
  557SOL    HW1 2570   6.989   4.676   6.131
  557SOL    HW2 2571   0.114   4.739   6.130
  558SOL     OW 2572   4.038   3.892   3.667
  558SOL    HW1 2573   3.967   3.823   3.656
  558SOL    HW2 2574   4.128   3.849   3.660
  559SOL     OW 2575   6.223   5.889   5.761
  559SOL    HW1 2576   6.159   5.957   5.725
  559SOL    HW2 2577   6.188   5.798   5.743
  560SOL     OW 2578   6.853   3.016   3.935
  560SOL    HW1 2579   6.786   2.970   3.993
  560SOL    HW2 2580   6.890   2.952   3.869
  561SOL     OW 2581   6.951   3.334   6.365
  561SOL    HW1 2582   6.990   3.393   6.294
  561SOL    HW2 2583   6.904   3.390   6.433
  562SOL     OW 2584   4.772   6.916   5.562
  562SOL    HW1 2585   4.810   6.894   5.472
  562SOL    HW2 2586   4.799   7.009   5.586
  563SOL     OW 2587   1.838   1.821   4.175
  563SOL    HW1 2588   1.897   1.897   4.148
  563SOL    HW2 2589   1.768   1.807   4.105
  564SOL     OW 2590   0.097   1.312   6.884
  564SOL    HW1 2591   0.103   1.261   6.798
  564SOL    HW2 2592   0.031   1.386   6.874
  565SOL     OW 2593   3.208   3.024   3.687
  565SOL    HW1 2594   3.210   3.020   3.588
  565SOL    HW2 2595   3.291   2.981   3.724
  566SOL     OW 2596   2.386   4.834   2.852
  566SOL    HW1 2597   2.473   4.786   2.858
  566SOL    HW2 2598   2.371   4.865   2.758
  567SOL     OW 2599   2.737   2.733   0.501
  567SOL    HW1 2600   2.709   2.789   0.579
  567SOL    HW2 2601   2.689   2.646   0.504
  568SOL     OW 2602   5.571   6.915   0.764
  568SOL    HW1 2603   5.490   6.858   0.748
  568SOL    HW2 2604   5.561   6.962   0.851
  569SOL     OW 2605   1.213   2.561   0.708
  569SOL    HW1 2606   1.147   2.605   0.648
  569SOL    HW2 2607   1.175   2.475   0.743
  570SOL     OW 2608   3.199   0.164   6.220
  570SOL    HW1 2609   3.166   0.089   6.277
  570SOL    HW2 2610   3.299   0.163   6.218
  571SOL     OW 2611   2.743   4.947   3.637
  571SOL    HW1 2612   2.706   4.917   3.548
  571SOL    HW2 2613   2.668   4.977   3.696
  572SOL     OW 2614   1.921   5.701   4.759
  572SOL    HW1 2615   1.976   5.651   4.692
  572SOL    HW2 2616   1.980   5.730   4.835
  573SOL     OW 2617   6.312   1.465   5.523
  573SOL    HW1 2618   6.228   1.412   5.520
  573SOL    HW2 2619   6.290   1.562   5.533
  574SOL     OW 2620   3.324   0.934   5.305
  574SOL    HW1 2621   3.409   0.912   5.352
  574SOL    HW2 2622   3.344   0.955   5.209
  575SOL     OW 2623   4.519   2.765   1.045
  575SOL    HW1 2624   4.426   2.755   1.011
  575SOL    HW2 2625   4.517   2.811   1.134
  576SOL     OW 2626   1.785   2.997   3.004
  576SOL    HW1 2627   1.723   2.991   2.926
  576SOL    HW2 2628   1.753   3.068   3.066
  577SOL     OW 2629   0.938   0.631   2.608
  577SOL    HW1 2630   0.958   0.699   2.537
  577SOL    HW2 2631   0.867   0.667   2.668
  578SOL     OW 2632   1.899   5.540   6.871
  578SOL    HW1 2633   1.809   5.574   6.899
  578SOL    HW2 2634   1.924   5.581   6.784
  579SOL     OW 2635   1.957   4.735   2.438
  579SOL    HW1 2636   1.874   4.682   2.423
  579SOL    HW2 2637   2.009   4.696   2.514
  580SOL     OW 2638   4.554   4.928   5.215
  580SOL    HW1 2639   4.497   4.900   5.292
  580SOL    HW2 2640   4.510   4.901   5.129
  581SOL     OW 2641   0.871   3.353   3.681
  581SOL    HW1 2642   0.915   3.266   3.660
  581SOL    HW2 2643   0.940   3.420   3.707
  582SOL     OW 2644   4.806   5.406   3.487
  582SOL    HW1 2645   4.835   5.410   3.582
  582SOL    HW2 2646   4.869   5.347   3.436
  583SOL     OW 2647   3.063   5.295   5.296
  583SOL    HW1 2648   3.080   5.340   5.384
  583SOL    HW2 2649   3.104   5.204   5.296
  584SOL     OW 2650   3.250   6.738   6.211
  584SOL    HW1 2651   3.317   6.809   6.228
  584SOL    HW2 2652   3.277   6.654   6.258
  585SOL     OW 2653   4.158   0.168   1.209
  585SOL    HW1 2654   4.106   0.186   1.126
  585SOL    HW2 2655   4.216   0.087   1.196
  586SOL     OW 2656   3.627   0.391   1.110
  586SOL    HW1 2657   3.530   0.416   1.110
  586SOL    HW2 2658   3.676   0.449   1.175
  587SOL     OW 2659   5.573   2.393   2.344
  587SOL    HW1 2660   5.521   2.396   2.258
  587SOL    HW2 2661   5.525   2.445   2.414
  588SOL     OW 2662   1.698   5.224   1.049
  588SOL    HW1 2663   1.741   5.137   1.072
  588SOL    HW2 2664   1.714   5.246   0.953
  589SOL     OW 2665   3.022   5.637   1.253
  589SOL    HW1 2666   3.067   5.723   1.276
  589SOL    HW2 2667   3.003   5.635   1.155
  590SOL     OW 2668   5.351   1.427   0.801
  590SOL    HW1 2669   5.426   1.368   0.830
  590SOL    HW2 2670   5.294   1.378   0.736
  591SOL     OW 2671   4.678   5.823   3.547
  591SOL    HW1 2672   4.610   5.873   3.492
  591SOL    HW2 2673   4.663   5.844   3.644
  592SOL     OW 2674   4.793   0.751   3.554
  592SOL    HW1 2675   4.809   0.840   3.510
  592SOL    HW2 2676   4.789   0.763   3.653
  593SOL     OW 2677   4.155   1.952   4.870
  593SOL    HW1 2678   4.142   1.907   4.959
  593SOL    HW2 2679   4.125   2.047   4.876
  594SOL     OW 2680   5.864   1.314   0.679
  594SOL    HW1 2681   5.858   1.214   0.681
  594SOL    HW2 2682   5.882   1.345   0.586
  595SOL     OW 2683   5.247   6.256   3.437
  595SOL    HW1 2684   5.254   6.333   3.500
  595SOL    HW2 2685   5.338   6.216   3.423
  596SOL     OW 2686   0.129   4.975   3.673
  596SOL    HW1 2687   0.120   4.885   3.715
  596SOL    HW2 2688   0.180   4.966   3.587
  597SOL     OW 2689   2.767   0.352   6.097
  597SOL    HW1 2690   2.734   0.298   6.020
  597SOL    HW2 2691   2.722   0.441   6.098
  598SOL     OW 2692   3.122   3.943   4.657
  598SOL    HW1 2693   3.086   4.029   4.693
  598SOL    HW2 2694   3.154   3.886   4.732
  599SOL     OW 2695   1.900   6.432   1.935
  599SOL    HW1 2696   1.985   6.408   1.888
  599SOL    HW2 2697   1.916   6.511   1.995
  600SOL     OW 2698   0.284   3.393   5.756
  600SOL    HW1 2699   0.252   3.462   5.820
  600SOL    HW2 2700   0.216   3.320   5.748
  601SOL     OW 2701   1.557   0.916   5.168
  601SOL    HW1 2702   1.620   0.971   5.223
  601SOL    HW2 2703   1.600   0.893   5.081
  602SOL     OW 2704   3.021   0.460   5.982
  602SOL    HW1 2705   2.970   0.378   6.007
  602SOL    HW2 2706   2.959   0.537   5.971
  603SOL     OW 2707   1.631   1.598   5.490
  603SOL    HW1 2708   1.640   1.577   5.393
  603SOL    HW2 2709   1.721   1.613   5.530
  604SOL     OW 2710   0.648   2.516   1.761
  604SOL    HW1 2711   0.572   2.464   1.721
  604SOL    HW2 2712   0.657   2.604   1.714
  605SOL     OW 2713   7.007   4.842   2.331
  605SOL    HW1 2714   6.938   4.912   2.312
  605SOL    HW2 2715   0.045   4.875   2.400
  606SOL     OW 2716   4.351   6.843   5.384
  606SOL    HW1 2717   4.280   6.817   5.450
  606SOL    HW2 2718   4.340   6.940   5.361
  607SOL     OW 2719   0.548   4.984   5.624
  607SOL    HW1 2720   0.514   4.933   5.545
  607SOL    HW2 2721   0.504   5.074   5.626
  608SOL     OW 2722   3.540   6.953   6.719
  608SOL    HW1 2723   3.462   6.928   6.776
  608SOL    HW2 2724   3.520   0.012   6.671
  609SOL     OW 2725   3.726   2.471   1.700
  609SOL    HW1 2726   3.666   2.549   1.718
  609SOL    HW2 2727   3.681   2.387   1.731
  610SOL     OW 2728   4.178   2.302   0.358
  610SOL    HW1 2729   4.200   2.396   0.331
  610SOL    HW2 2730   4.261   2.257   0.390
  611SOL     OW 2731   4.046   0.026   3.095
  611SOL    HW1 2732   4.039   0.009   2.997
  611SOL    HW2 2733   4.139   0.057   3.117
  612SOL     OW 2734   2.988   5.123   5.000
  612SOL    HW1 2735   3.084   5.118   5.027
  612SOL    HW2 2736   2.945   5.034   5.015
  613SOL     OW 2737   5.625   4.925   4.841
  613SOL    HW1 2738   5.653   4.864   4.916
  613SOL    HW2 2739   5.526   4.938   4.843
  614SOL     OW 2740   5.071   4.740   4.797
  614SOL    HW1 2741   5.117   4.715   4.712
  614SOL    HW2 2742   5.005   4.669   4.822
  615SOL     OW 2743   6.945   3.609   0.833
  615SOL    HW1 2744   6.879   3.585   0.762
  615SOL    HW2 2745   7.015   3.538   0.838
  616SOL     OW 2746   6.042   2.731   2.807
  616SOL    HW1 2747   5.999   2.676   2.735
  616SOL    HW2 2748   5.975   2.751   2.878
  617SOL     OW 2749   1.612   4.675   6.853
  617SOL    HW1 2750   1.643   4.709   6.765
  617SOL    HW2 2751   1.690   4.647   6.908
  618SOL     OW 2752   2.006   2.309   1.569
  618SOL    HW1 2753   1.956   2.242   1.513
  618SOL    HW2 2754   1.993   2.400   1.531
  619SOL     OW 2755   1.872   2.001   0.697
  619SOL    HW1 2756   1.946   2.046   0.646
  619SOL    HW2 2757   1.898   1.993   0.794
  620SOL     OW 2758   4.381   1.656   0.365
  620SOL    HW1 2759   4.373   1.749   0.329
  620SOL    HW2 2760   4.293   1.628   0.404
  621SOL     OW 2761   5.815   5.086   6.452
  621SOL    HW1 2762   5.840   5.090   6.356
  621SOL    HW2 2763   5.791   5.177   6.485
  622SOL     OW 2764   1.630   1.230   0.087
  622SOL    HW1 2765   1.657   1.326   0.076
  622SOL    HW2 2766   1.675   1.174   0.019
  623SOL     OW 2767   0.497   6.158   5.543
  623SOL    HW1 2768   0.522   6.100   5.465
  623SOL    HW2 2769   0.579   6.199   5.582
  624SOL     OW 2770   0.781   3.065   2.263
  624SOL    HW1 2771   0.745   3.116   2.342
  624SOL    HW2 2772   0.752   2.970   2.269
  625SOL     OW 2773   3.039   2.043   1.560
  625SOL    HW1 2774   2.952   2.085   1.535
  625SOL    HW2 2775   3.056   2.055   1.657
  626SOL     OW 2776   2.112   5.862   3.675
  626SOL    HW1 2777   2.114   5.829   3.580
  626SOL    HW2 2778   2.146   5.791   3.736
  627SOL     OW 2779   5.120   0.241   0.701
  627SOL    HW1 2780   5.154   0.300   0.774
  627SOL    HW2 2781   5.028   0.269   0.676
  628SOL     OW 2782   4.664   4.892   4.792
  628SOL    HW1 2783   4.755   4.883   4.752
  628SOL    HW2 2784   4.664   4.963   4.862
  629SOL     OW 2785   0.383   0.137   1.225
  629SOL    HW1 2786   0.396   0.041   1.197
  629SOL    HW2 2787   0.382   0.143   1.325
  630SOL     OW 2788   5.497   2.567   2.059
  630SOL    HW1 2789   5.461   2.477   2.082
  630SOL    HW2 2790   5.587   2.557   2.016
  631SOL     OW 2791   3.130   0.415   5.162
  631SOL    HW1 2792   3.108   0.502   5.207
  631SOL    HW2 2793   3.218   0.424   5.115
  632SOL     OW 2794   2.284   1.365   0.546
  632SOL    HW1 2795   2.228   1.414   0.478
  632SOL    HW2 2796   2.265   1.267   0.540
  633SOL     OW 2797   3.318   5.381   0.304
  633SOL    HW1 2798   3.279   5.468   0.273
  633SOL    HW2 2799   3.418   5.389   0.309
  634SOL     OW 2800   4.279   4.812   1.881
  634SOL    HW1 2801   4.340   4.744   1.842
  634SOL    HW2 2802   4.217   4.768   1.946
  635SOL     OW 2803   4.639   6.598   3.085
  635SOL    HW1 2804   4.589   6.582   3.171
  635SOL    HW2 2805   4.702   6.674   3.097
  636SOL     OW 2806   5.130   5.772   6.748
  636SOL    HW1 2807   5.180   5.699   6.702
  636SOL    HW2 2808   5.194   5.837   6.789
  637SOL     OW 2809   5.481   4.830   2.035
  637SOL    HW1 2810   5.421   4.890   1.982
  637SOL    HW2 2811   5.453   4.830   2.130
  638SOL     OW 2812   5.037   1.339   2.258
  638SOL    HW1 2813   4.962   1.400   2.233
  638SOL    HW2 2814   5.093   1.320   2.177
  639SOL     OW 2815   4.885   5.046   2.504
  639SOL    HW1 2816   4.963   4.991   2.475
  639SOL    HW2 2817   4.865   5.115   2.434
  640SOL     OW 2818   2.373   4.507   5.556
  640SOL    HW1 2819   2.355   4.410   5.571
  640SOL    HW2 2820   2.448   4.518   5.491
  641SOL     OW 2821   0.826   5.600   4.520
  641SOL    HW1 2822   0.784   5.517   4.555
  641SOL    HW2 2823   0.913   5.617   4.566
  642SOL     OW 2824   0.447   3.903   4.095
  642SOL    HW1 2825   0.530   3.849   4.112
  642SOL    HW2 2826   0.442   3.926   3.998
  643SOL     OW 2827   5.992   5.545   4.857
  643SOL    HW1 2828   6.019   5.589   4.943
  643SOL    HW2 2829   5.988   5.446   4.871
  644SOL     OW 2830   0.664   5.992   2.822
  644SOL    HW1 2831   0.652   6.084   2.785
  644SOL    HW2 2832   0.599   5.930   2.779
  645SOL     OW 2833   4.677   2.584   4.652
  645SOL    HW1 2834   4.760   2.600   4.599
  645SOL    HW2 2835   4.680   2.492   4.692
  646SOL     OW 2836   1.875   2.081   3.428
  646SOL    HW1 2837   1.916   2.169   3.407
  646SOL    HW2 2838   1.789   2.095   3.477
  647SOL     OW 2839   5.993   2.797   6.345
  647SOL    HW1 2840   6.068   2.855   6.379
  647SOL    HW2 2841   5.909   2.819   6.394
  648SOL     OW 2842   5.879   3.912   2.838
  648SOL    HW1 2843   5.936   3.985   2.877
  648SOL    HW2 2844   5.789   3.949   2.816
  649SOL     OW 2845   4.243   4.389   0.405
  649SOL    HW1 2846   4.284   4.388   0.314
  649SOL    HW2 2847   4.297   4.448   0.466
  650SOL     OW 2848   4.649   4.618   0.602
  650SOL    HW1 2849   4.659   4.522   0.629
  650SOL    HW2 2850   4.736   4.652   0.567
  651SOL     OW 2851   0.360   6.208   0.732
  651SOL    HW1 2852   0.380   6.211   0.830
  651SOL    HW2 2853   0.433   6.159   0.684
  652SOL     OW 2854   4.929   6.570   3.751
  652SOL    HW1 2855   4.863   6.632   3.793
  652SOL    HW2 2856   4.885   6.482   3.733
  653SOL     OW 2857   3.593   5.158   5.278
  653SOL    HW1 2858   3.549   5.100   5.347
  653SOL    HW2 2859   3.575   5.121   5.187
  654SOL     OW 2860   0.406   4.867   6.071
  654SOL    HW1 2861   0.340   4.814   6.019
  654SOL    HW2 2862   0.357   4.931   6.131
  655SOL     OW 2863   0.933   0.227   2.199
  655SOL    HW1 2864   0.989   0.175   2.264
  655SOL    HW2 2865   0.841   0.239   2.235
  656SOL     OW 2866   2.130   6.177   1.826
  656SOL    HW1 2867   2.209   6.238   1.813
  656SOL    HW2 2868   2.162   6.089   1.861
  657SOL     OW 2869   2.255   1.981   1.478
  657SOL    HW1 2870   2.188   1.920   1.522
  657SOL    HW2 2871   2.265   2.063   1.533
  658SOL     OW 2872   3.378   3.220   6.969
  658SOL    HW1 2873   3.474   3.194   6.975
  658SOL    HW2 2874   3.351   3.268   0.027
  659SOL     OW 2875   2.945   6.208   6.278
  659SOL    HW1 2876   2.961   6.259   6.363
  659SOL    HW2 2877   2.989   6.255   6.202
  660SOL     OW 2878   3.828   5.831   1.778
  660SOL    HW1 2879   3.835   5.768   1.701
  660SOL    HW2 2880   3.751   5.804   1.837
  661SOL     OW 2881   4.241   6.018   3.522
  661SOL    HW1 2882   4.152   6.016   3.476
  661SOL    HW2 2883   4.237   5.959   3.603
  662SOL     OW 2884   3.574   0.867   5.395
  662SOL    HW1 2885   3.618   0.927   5.462
  662SOL    HW2 2886   3.628   0.783   5.385
  663SOL     OW 2887   2.216   3.628   5.613
  663SOL    HW1 2888   2.165   3.560   5.559
  663SOL    HW2 2889   2.159   3.707   5.630
  664SOL     OW 2890   7.006   6.380   6.298
  664SOL    HW1 2891   6.923   6.413   6.252
  664SOL    HW2 2892   7.013   6.422   6.388
  665SOL     OW 2893   3.673   5.282   2.814
  665SOL    HW1 2894   3.714   5.263   2.903
  665SOL    HW2 2895   3.575   5.267   2.818
  666SOL     OW 2896   4.565   0.613   2.005
  666SOL    HW1 2897   4.474   0.623   2.044
  666SOL    HW2 2898   4.566   0.649   1.912
  667SOL     OW 2899   1.022   5.191   1.754
  667SOL    HW1 2900   1.106   5.143   1.730
  667SOL    HW2 2901   0.948   5.125   1.764
  668SOL     OW 2902   5.168   5.895   5.763
  668SOL    HW1 2903   5.174   5.963   5.836
  668SOL    HW2 2904   5.167   5.804   5.802
  669SOL     OW 2905   5.984   1.190   3.339
  669SOL    HW1 2906   5.974   1.112   3.401
  669SOL    HW2 2907   5.967   1.160   3.245
  670SOL     OW 2908   2.735   1.802   2.136
  670SOL    HW1 2909   2.721   1.850   2.050
  670SOL    HW2 2910   2.811   1.845   2.186
  671SOL     OW 2911   3.185   5.858   1.292
  671SOL    HW1 2912   3.152   5.934   1.349
  671SOL    HW2 2913   3.252   5.892   1.227
  672SOL     OW 2914   6.811   5.311   1.830
  672SOL    HW1 2915   6.817   5.398   1.879
  672SOL    HW2 2916   6.804   5.236   1.896
  673SOL     OW 2917   5.991   0.337   1.140
  673SOL    HW1 2918   6.074   0.281   1.148
  673SOL    HW2 2919   6.011   0.418   1.084
  674SOL     OW 2920   0.578   1.473   4.912
  674SOL    HW1 2921   0.546   1.529   4.988
  674SOL    HW2 2922   0.536   1.382   4.917
  675SOL     OW 2923   5.813   2.489   2.283
  675SOL    HW1 2924   5.800   2.542   2.200
  675SOL    HW2 2925   5.733   2.430   2.297
  676SOL     OW 2926   2.102   5.118   4.855
  676SOL    HW1 2927   2.047   5.054   4.802
  676SOL    HW2 2928   2.197   5.116   4.823
  677SOL     OW 2929   5.330   0.845   1.485
  677SOL    HW1 2930   5.251   0.789   1.462
  677SOL    HW2 2931   5.327   0.867   1.583
  678SOL     OW 2932   2.532   4.990   4.840
  678SOL    HW1 2933   2.536   5.042   4.925
  678SOL    HW2 2934   2.625   4.971   4.808
  679SOL     OW 2935   5.454   1.388   5.080
  679SOL    HW1 2936   5.426   1.404   4.986
  679SOL    HW2 2937   5.546   1.348   5.081
  680SOL     OW 2938   4.712   6.010   4.304
  680SOL    HW1 2939   4.659   6.085   4.343
  680SOL    HW2 2940   4.650   5.936   4.278
  681SOL     OW 2941   4.180   5.983   2.041
  681SOL    HW1 2942   4.105   5.968   1.976
  681SOL    HW2 2943   4.157   5.941   2.128
  682SOL     OW 2944   6.517   1.296   1.816
  682SOL    HW1 2945   6.481   1.331   1.902
  682SOL    HW2 2946   6.467   1.212   1.791
  683SOL     OW 2947   4.767   2.922   0.561
  683SOL    HW1 2948   4.726   2.931   0.470
  683SOL    HW2 2949   4.697   2.897   0.627
  684SOL     OW 2950   6.009   0.901   0.132
  684SOL    HW1 2951   6.039   0.824   0.076
  684SOL    HW2 2952   5.987   0.868   0.224
  685SOL     OW 2953   2.965   2.037   3.701
  685SOL    HW1 2954   3.059   2.045   3.667
  685SOL    HW2 2955   2.952   2.100   3.778
  686SOL     OW 2956   4.657   1.552   4.837
  686SOL    HW1 2957   4.571   1.565   4.790
  686SOL    HW2 2958   4.719   1.627   4.815
  687SOL     OW 2959   0.834   1.884   4.783
  687SOL    HW1 2960   0.911   1.931   4.739
  687SOL    HW2 2961   0.849   1.785   4.781
  688SOL     OW 2962   0.066   1.415   5.885
  688SOL    HW1 2963   0.091   1.383   5.977
  688SOL    HW2 2964   0.028   1.339   5.833
  689SOL     OW 2965   2.415   4.656   5.934
  689SOL    HW1 2966   2.403   4.567   5.890
  689SOL    HW2 2967   2.406   4.729   5.866
  690SOL     OW 2968   6.755   3.678   3.479
  690SOL    HW1 2969   6.851   3.662   3.501
  690SOL    HW2 2970   6.728   3.769   3.511
  691SOL     OW 2971   3.429   1.535   1.214
  691SOL    HW1 2972   3.463   1.457   1.162
  691SOL    HW2 2973   3.495   1.610   1.211
  692SOL     OW 2974   3.928   1.792   4.996
  692SOL    HW1 2975   3.935   1.809   5.094
  692SOL    HW2 2976   3.863   1.718   4.979
  693SOL     OW 2977   5.078   6.544   3.971
  693SOL    HW1 2978   5.026   6.542   3.886
  693SOL    HW2 2979   5.092   6.450   4.004
  694SOL     OW 2980   4.201   6.169   4.082
  694SOL    HW1 2981   4.274   6.109   4.115
  694SOL    HW2 2982   4.217   6.262   4.116
  695SOL     OW 2983   3.620   5.741   4.085
  695SOL    HW1 2984   3.684   5.728   4.160
  695SOL    HW2 2985   3.630   5.834   4.049
  696SOL     OW 2986   4.862   4.381   3.412
  696SOL    HW1 2987   4.884   4.413   3.505
  696SOL    HW2 2988   4.821   4.290   3.417
  697SOL     OW 2989   1.483   3.606   2.572
  697SOL    HW1 2990   1.511   3.700   2.552
  697SOL    HW2 2991   1.520   3.545   2.503
  698SOL     OW 2992   4.860   6.322   0.825
  698SOL    HW1 2993   4.772   6.278   0.843
  698SOL    HW2 2994   4.912   6.267   0.760
  699SOL     OW 2995   2.172   2.900   6.586
  699SOL    HW1 2996   2.234   2.966   6.543
  699SOL    HW2 2997   2.077   2.924   6.564
  700SOL     OW 2998   3.572   0.138   1.940
  700SOL    HW1 2999   3.536   0.062   1.995
  700SOL    HW2 3000   3.668   0.122   1.920
  701SOL     OW 3001   0.207   4.259   0.375
  701SOL    HW1 3002   0.287   4.302   0.417
  701SOL    HW2 3003   0.157   4.207   0.445
  702SOL     OW 3004   1.967   0.054   4.154
  702SOL    HW1 3005   1.909   0.020   4.080
  702SOL    HW2 3006   2.026   0.127   4.120
  703SOL     OW 3007   3.260   3.386   5.737
  703SOL    HW1 3008   3.344   3.332   5.730
  703SOL    HW2 3009   3.231   3.414   5.646
  704SOL     OW 3010   2.236   2.225   6.104
  704SOL    HW1 3011   2.249   2.324   6.099
  704SOL    HW2 3012   2.148   2.206   6.147
  705SOL     OW 3013   6.498   5.890   3.075
  705SOL    HW1 3014   6.566   5.841   3.021
  705SOL    HW2 3015   6.544   5.962   3.128
  706SOL     OW 3016   4.206   1.650   5.299
  706SOL    HW1 3017   4.283   1.613   5.351
  706SOL    HW2 3018   4.120   1.621   5.340
  707SOL     OW 3019   3.877   4.836   3.463
  707SOL    HW1 3020   3.971   4.802   3.460
  707SOL    HW2 3021   3.828   4.807   3.381
  708SOL     OW 3022   2.699   1.803   3.203
  708SOL    HW1 3023   2.721   1.730   3.139
  708SOL    HW2 3024   2.769   1.807   3.275
  709SOL     OW 3025   1.088   6.515   1.184
  709SOL    HW1 3026   1.109   6.462   1.102
  709SOL    HW2 3027   1.029   6.592   1.159
  710SOL     OW 3028   4.975   2.463   1.697
  710SOL    HW1 3029   4.968   2.488   1.793
  710SOL    HW2 3030   4.895   2.496   1.648
  711SOL     OW 3031   0.092   2.968   6.290
  711SOL    HW1 3032   0.087   2.874   6.256
  711SOL    HW2 3033   0.024   2.981   6.362
  712SOL     OW 3034   5.077   1.757   0.716
  712SOL    HW1 3035   5.173   1.779   0.699
  712SOL    HW2 3036   5.064   1.733   0.812
  713SOL     OW 3037   4.249   2.752   5.381
  713SOL    HW1 3038   4.153   2.772   5.403
  713SOL    HW2 3039   4.253   2.677   5.315
  714SOL     OW 3040   5.716   5.505   3.967
  714SOL    HW1 3041   5.816   5.509   3.964
  714SOL    HW2 3042   5.683   5.538   4.055
  715SOL     OW 3043   6.225   5.333   6.061
  715SOL    HW1 3044   6.228   5.250   6.006
  715SOL    HW2 3045   6.133   5.346   6.097
  716SOL     OW 3046   1.445   1.080   3.609
  716SOL    HW1 3047   1.350   1.098   3.637
  716SOL    HW2 3048   1.467   0.984   3.623
  717SOL     OW 3049   6.351   4.578   4.176
  717SOL    HW1 3050   6.376   4.501   4.235
  717SOL    HW2 3051   6.368   4.663   4.225
  718SOL     OW 3052   4.775   2.955   5.096
  718SOL    HW1 3053   4.844   2.901   5.144
  718SOL    HW2 3054   4.738   2.902   5.019
  719SOL     OW 3055   5.582   0.390   2.590
  719SOL    HW1 3056   5.507   0.395   2.656
  719SOL    HW2 3057   5.553   0.432   2.504
  720SOL     OW 3058   2.364   0.104   6.061
  720SOL    HW1 3059   2.354   0.164   5.982
  720SOL    HW2 3060   2.453   0.059   6.058
  721SOL     OW 3061   1.862   1.184   2.296
  721SOL    HW1 3062   1.959   1.207   2.307
  721SOL    HW2 3063   1.807   1.267   2.309
  722SOL     OW 3064   2.868   0.698   5.937
  722SOL    HW1 3065   2.895   0.794   5.935
  722SOL    HW2 3066   2.793   0.686   6.001
  723SOL     OW 3067   1.810   5.971   3.620
  723SOL    HW1 3068   1.799   5.980   3.522
  723SOL    HW2 3069   1.765   5.887   3.652
  724SOL     OW 3070   0.349   1.283   3.870
  724SOL    HW1 3071   0.309   1.364   3.826
  724SOL    HW2 3072   0.434   1.307   3.915
  725SOL     OW 3073   2.072   4.568   2.670
  725SOL    HW1 3074   2.166   4.539   2.650
  725SOL    HW2 3075   2.021   4.491   2.708
  726SOL     OW 3076   2.336   4.967   0.971
  726SOL    HW1 3077   2.238   4.949   0.965
  726SOL    HW2 3078   2.386   4.880   0.963
  727SOL     OW 3079   4.970   5.093   6.214
  727SOL    HW1 3080   5.053   5.071   6.267
  727SOL    HW2 3081   4.963   5.192   6.202
  728SOL     OW 3082   6.571   3.197   4.234
  728SOL    HW1 3083   6.496   3.146   4.274
  728SOL    HW2 3084   6.557   3.206   4.136
  729SOL     OW 3085   0.694   2.656   1.177
  729SOL    HW1 3086   0.701   2.720   1.254
  729SOL    HW2 3087   0.678   2.707   1.093
  730SOL     OW 3088   5.623   1.091   3.527
  730SOL    HW1 3089   5.579   1.085   3.437
  730SOL    HW2 3090   5.577   1.029   3.591
  731SOL     OW 3091   5.342   4.726   6.701
  731SOL    HW1 3092   5.387   4.709   6.613
  731SOL    HW2 3093   5.246   4.700   6.695
  732SOL     OW 3094   5.514   2.748   2.318
  732SOL    HW1 3095   5.498   2.762   2.220
  732SOL    HW2 3096   5.609   2.770   2.339
  733SOL     OW 3097   5.796   0.642   4.295
  733SOL    HW1 3098   5.755   0.720   4.343
  733SOL    HW2 3099   5.793   0.658   4.197
  734SOL     OW 3100   5.830   5.072   2.988
  734SOL    HW1 3101   5.906   5.133   3.012
  734SOL    HW2 3102   5.807   5.015   3.066
  735SOL     OW 3103   4.407   1.065   1.333
  735SOL    HW1 3104   4.375   1.032   1.422
  735SOL    HW2 3105   4.333   1.056   1.266
  736SOL     OW 3106   1.256   1.607   3.749
  736SOL    HW1 3107   1.179   1.625   3.688
  736SOL    HW2 3108   1.223   1.604   3.844
  737SOL     OW 3109   6.065   1.613   6.160
  737SOL    HW1 3110   5.991   1.674   6.188
  737SOL    HW2 3111   6.095   1.638   6.068
  738SOL     OW 3112   2.733   3.858   1.559
  738SOL    HW1 3113   2.786   3.849   1.644
  738SOL    HW2 3114   2.637   3.875   1.582
  739SOL     OW 3115   3.625   0.643   5.094
  739SOL    HW1 3116   3.675   0.724   5.062
  739SOL    HW2 3117   3.613   0.650   5.193
  740SOL     OW 3118   6.012   1.896   2.942
  740SOL    HW1 3119   5.996   1.839   3.023
  740SOL    HW2 3120   5.968   1.985   2.955
  741SOL     OW 3121   1.621   0.921   4.707
  741SOL    HW1 3122   1.606   1.017   4.684
  741SOL    HW2 3123   1.678   0.879   4.636
  742SOL     OW 3124   2.394   5.942   1.238
  742SOL    HW1 3125   2.329   5.911   1.306
  742SOL    HW2 3126   2.373   6.037   1.213
  743SOL     OW 3127   0.131   6.224   2.926
  743SOL    HW1 3128   0.230   6.220   2.934
  743SOL    HW2 3129   0.092   6.135   2.953
  744SOL     OW 3130   6.175   0.720   0.571
  744SOL    HW1 3131   6.223   0.801   0.606
  744SOL    HW2 3132   6.237   0.642   0.575
  745SOL     OW 3133   2.412   5.756   5.338
  745SOL    HW1 3134   2.358   5.728   5.258
  745SOL    HW2 3135   2.415   5.856   5.342
  746SOL     OW 3136   5.854   4.544   5.603
  746SOL    HW1 3137   5.901   4.463   5.638
  746SOL    HW2 3138   5.819   4.598   5.680
  747SOL     OW 3139   4.586   6.318   4.084
  747SOL    HW1 3140   4.681   6.315   4.117
  747SOL    HW2 3141   4.537   6.391   4.133
  748SOL     OW 3142   5.183   5.358   2.386
  748SOL    HW1 3143   5.106   5.358   2.449
  748SOL    HW2 3144   5.269   5.362   2.437
  749SOL     OW 3145   5.526   3.774   3.752
  749SOL    HW1 3146   5.557   3.679   3.746
  749SOL    HW2 3147   5.557   3.824   3.671
  750SOL     OW 3148   3.142   0.834   1.161
  750SOL    HW1 3149   3.115   0.907   1.099
  750SOL    HW2 3150   3.232   0.800   1.134
  751SOL     OW 3151   4.993   1.318   1.448
  751SOL    HW1 3152   5.040   1.282   1.369
  751SOL    HW2 3153   4.950   1.405   1.425
  752SOL     OW 3154   3.191   2.184   6.464
  752SOL    HW1 3155   3.197   2.104   6.524
  752SOL    HW2 3156   3.229   2.264   6.510
  753SOL     OW 3157   2.892   3.416   5.530
  753SOL    HW1 3158   2.865   3.413   5.434
  753SOL    HW2 3159   2.853   3.337   5.578
  754SOL     OW 3160   4.219   1.198   0.211
  754SOL    HW1 3161   4.261   1.115   0.247
  754SOL    HW2 3162   4.288   1.270   0.206
  755SOL     OW 3163   2.778   4.573   5.390
  755SOL    HW1 3164   2.689   4.573   5.345
  755SOL    HW2 3165   2.849   4.558   5.321
  756SOL     OW 3166   3.294   4.560   0.113
  756SOL    HW1 3167   3.319   4.657   0.104
  756SOL    HW2 3168   3.265   4.542   0.206
  757SOL     OW 3169   2.073   6.395   2.254
  757SOL    HW1 3170   2.063   6.470   2.188
  757SOL    HW2 3171   2.044   6.427   2.345
  758SOL     OW 3172   3.585   1.454   4.248
  758SOL    HW1 3173   3.488   1.470   4.230
  758SOL    HW2 3174   3.637   1.465   4.164
  759SOL     OW 3175   6.693   2.724   3.178
  759SOL    HW1 3176   6.697   2.754   3.273
  759SOL    HW2 3177   6.760   2.775   3.124
  760SOL     OW 3178   6.240   6.876   4.280
  760SOL    HW1 3179   6.220   6.972   4.301
  760SOL    HW2 3180   6.319   6.870   4.219
  761SOL     OW 3181   5.701   4.690   5.761
  761SOL    HW1 3182   5.649   4.605   5.762
  761SOL    HW2 3183   5.708   4.726   5.854
  762SOL     OW 3184   2.689   6.915   5.350
  762SOL    HW1 3185   2.665   6.924   5.446
  762SOL    HW2 3186   2.611   6.880   5.299
  763SOL     OW 3187   4.996   6.915   6.537
  763SOL    HW1 3188   4.925   6.844   6.540
  763SOL    HW2 3189   5.075   6.887   6.591
  764SOL     OW 3190   5.949   1.196   5.246
  764SOL    HW1 3191   5.999   1.111   5.225
  764SOL    HW2 3192   5.991   1.272   5.196
  765SOL     OW 3193   1.392   6.359   0.483
  765SOL    HW1 3194   1.411   6.318   0.572
  765SOL    HW2 3195   1.477   6.362   0.429
  766SOL     OW 3196   2.946   2.240   5.242
  766SOL    HW1 3197   2.916   2.268   5.333
  766SOL    HW2 3198   3.036   2.277   5.223
  767SOL     OW 3199   6.095   6.441   3.897
  767SOL    HW1 3200   6.176   6.487   3.932
  767SOL    HW2 3201   6.017   6.462   3.955
  768SOL     OW 3202   2.104   6.777   3.302
  768SOL    HW1 3203   2.019   6.793   3.352
  768SOL    HW2 3204   2.096   6.816   3.210
  769SOL     OW 3205   3.209   1.409   5.115
  769SOL    HW1 3206   3.167   1.489   5.159
  769SOL    HW2 3207   3.307   1.425   5.105
  770SOL     OW 3208   1.971   4.790   4.440
  770SOL    HW1 3209   2.055   4.735   4.438
  770SOL    HW2 3210   1.966   4.845   4.357
  771SOL     OW 3211   1.538   5.172   3.393
  771SOL    HW1 3212   1.489   5.175   3.480
  771SOL    HW2 3213   1.613   5.107   3.398
  772SOL     OW 3214   5.601   4.936   5.659
  772SOL    HW1 3215   5.627   4.845   5.692
  772SOL    HW2 3216   5.684   4.990   5.643
  773SOL     OW 3217   1.113   3.897   3.312
  773SOL    HW1 3218   1.085   3.966   3.379
  773SOL    HW2 3219   1.079   3.807   3.341
  774SOL     OW 3220   2.503   1.092   2.855
  774SOL    HW1 3221   2.443   1.172   2.858
  774SOL    HW2 3222   2.534   1.070   2.948
  775SOL     OW 3223   1.735   2.305   4.254
  775SOL    HW1 3224   1.804   2.284   4.323
  775SOL    HW2 3225   1.778   2.317   4.165
  776SOL     OW 3226   6.942   0.286   6.968
  776SOL    HW1 3227   0.009   0.307   7.002
  776SOL    HW2 3228   6.918   0.193   6.995
  777SOL     OW 3229   1.473   3.425   1.154
  777SOL    HW1 3230   1.483   3.326   1.165
  777SOL    HW2 3231   1.549   3.461   1.101
  778SOL     OW 3232   2.392   0.128   1.440
  778SOL    HW1 3233   2.365   0.223   1.460
  778SOL    HW2 3234   2.453   0.128   1.361
  779SOL     OW 3235   0.138   2.674   1.721
  779SOL    HW1 3236   0.171   2.712   1.635
  779SOL    HW2 3237   0.047   2.710   1.741
  780SOL     OW 3238   0.903   2.831   4.311
  780SOL    HW1 3239   0.936   2.746   4.270
  780SOL    HW2 3240   0.960   2.853   4.390
  781SOL     OW 3241   6.774   4.948   0.053
  781SOL    HW1 3242   6.719   4.878   0.100
  781SOL    HW2 3243   6.842   4.903   7.022
  782SOL     OW 3244   2.283   3.915   5.399
  782SOL    HW1 3245   2.355   3.919   5.329
  782SOL    HW2 3246   2.320   3.873   5.482
  783SOL     OW 3247   5.684   5.236   0.804
  783SOL    HW1 3248   5.604   5.254   0.861
  783SOL    HW2 3249   5.654   5.216   0.710
  784SOL     OW 3250   2.714   5.767   2.062
  784SOL    HW1 3251   2.648   5.787   1.990
  784SOL    HW2 3252   2.673   5.706   2.130
  785SOL     OW 3253   0.274   1.505   3.749
  785SOL    HW1 3254   0.198   1.566   3.728
  785SOL    HW2 3255   0.347   1.517   3.681
  786SOL     OW 3256   6.798   1.060   2.966
  786SOL    HW1 3257   6.881   1.045   2.912
  786SOL    HW2 3258   6.756   1.147   2.938
  787SOL     OW 3259   2.237   0.049   7.002
  787SOL    HW1 3260   2.196   7.021   6.928
  787SOL    HW2 3261   2.267   7.013   0.049
  788SOL     OW 3262   4.028   2.514   1.634
  788SOL    HW1 3263   4.087   2.435   1.615
  788SOL    HW2 3264   3.934   2.483   1.645
  789SOL     OW 3265   4.213   5.680   2.582
  789SOL    HW1 3266   4.141   5.635   2.529
  789SOL    HW2 3267   4.274   5.611   2.621
  790SOL     OW 3268   1.756   1.463   2.015
  790SOL    HW1 3269   1.783   1.541   2.070
  790SOL    HW2 3270   1.748   1.491   1.919
  791SOL     OW 3271   2.646   6.264   5.288
  791SOL    HW1 3272   2.731   6.224   5.324
  791SOL    HW2 3273   2.603   6.320   5.358
  792SOL     OW 3274   0.331   1.368   1.117
  792SOL    HW1 3275   0.307   1.349   1.022
  792SOL    HW2 3276   0.346   1.466   1.129
  793SOL     OW 3277   4.826   5.966   4.930
  793SOL    HW1 3278   4.740   5.939   4.973
  793SOL    HW2 3279   4.812   5.976   4.831
  794SOL     OW 3280   3.697   3.521   5.377
  794SOL    HW1 3281   3.698   3.594   5.309
  794SOL    HW2 3282   3.753   3.444   5.344
  795SOL     OW 3283   3.763   0.537   6.036
  795SOL    HW1 3284   3.765   0.632   6.067
  795SOL    HW2 3285   3.747   0.534   5.937
  796SOL     OW 3286   2.186   2.640   0.038
  796SOL    HW1 3287   2.164   2.592   6.978
  796SOL    HW2 3288   2.114   2.705   0.059
  797SOL     OW 3289   3.948   0.055   0.770
  797SOL    HW1 3290   3.992   0.122   0.710
  797SOL    HW2 3291   3.971   6.988   0.739
  798SOL     OW 3292   3.111   6.310   1.435
  798SOL    HW1 3293   3.086   6.213   1.428
  798SOL    HW2 3294   3.190   6.319   1.496
  799SOL     OW 3295   7.004   1.581   6.270
  799SOL    HW1 3296   6.976   1.590   6.174
  799SOL    HW2 3297   6.932   1.618   6.329
  800SOL     OW 3298   0.052   2.084   2.491
  800SOL    HW1 3299   0.037   2.164   2.432
  800SOL    HW2 3300   0.036   2.001   2.438
  801SOL     OW 3301   1.765   4.578   5.231
  801SOL    HW1 3302   1.793   4.650   5.169
  801SOL    HW2 3303   1.752   4.493   5.180
  802SOL     OW 3304   4.124   2.329   6.715
  802SOL    HW1 3305   4.185   2.260   6.754
  802SOL    HW2 3306   4.044   2.340   6.775
  803SOL     OW 3307   2.474   6.992   5.798
  803SOL    HW1 3308   2.512   6.965   5.886
  803SOL    HW2 3309   2.374   6.983   5.801
  804SOL     OW 3310   6.476   6.349   1.434
  804SOL    HW1 3311   6.484   6.315   1.341
  804SOL    HW2 3312   6.536   6.296   1.494
  805SOL     OW 3313   1.482   0.169   3.883
  805SOL    HW1 3314   1.577   0.157   3.910
  805SOL    HW2 3315   1.427   0.095   3.921
  806SOL     OW 3316   6.849   0.427   5.952
  806SOL    HW1 3317   6.930   0.464   5.907
  806SOL    HW2 3318   6.847   0.328   5.941
  807SOL     OW 3319   0.672   6.755   3.993
  807SOL    HW1 3320   0.673   6.689   4.069
  807SOL    HW2 3321   0.593   6.815   4.004
  808SOL     OW 3322   5.441   2.950   0.189
  808SOL    HW1 3323   5.482   2.987   0.272
  808SOL    HW2 3324   5.512   2.931   0.121
  809SOL     OW 3325   0.974   5.027   0.185
  809SOL    HW1 3326   0.983   4.928   0.195
  809SOL    HW2 3327   1.056   5.063   0.139
  810SOL     OW 3328   2.757   3.408   0.474
  810SOL    HW1 3329   2.855   3.397   0.489
  810SOL    HW2 3330   2.710   3.321   0.493
  811SOL     OW 3331   5.652   5.356   5.100
  811SOL    HW1 3332   5.709   5.437   5.099
  811SOL    HW2 3333   5.593   5.356   5.019
  812SOL     OW 3334   0.265   2.186   2.774
  812SOL    HW1 3335   0.296   2.200   2.868
  812SOL    HW2 3336   0.203   2.107   2.770
  813SOL     OW 3337   2.766   0.177   4.366
  813SOL    HW1 3338   2.798   0.132   4.283
  813SOL    HW2 3339   2.787   0.121   4.445
  814SOL     OW 3340   6.501   5.631   2.027
  814SOL    HW1 3341   6.473   5.596   1.938
  814SOL    HW2 3342   6.489   5.730   2.030
  815SOL     OW 3343   5.526   2.587   3.859
  815SOL    HW1 3344   5.495   2.500   3.820
  815SOL    HW2 3345   5.544   2.652   3.786
  816SOL     OW 3346   4.565   4.496   0.241
  816SOL    HW1 3347   4.477   4.473   0.199
  816SOL    HW2 3348   4.586   4.592   0.225
  817SOL     OW 3349   1.274   5.402   1.725
  817SOL    HW1 3350   1.291   5.449   1.811
  817SOL    HW2 3351   1.215   5.323   1.741
  818SOL     OW 3352   5.664   2.699   4.257
  818SOL    HW1 3353   5.673   2.759   4.178
  818SOL    HW2 3354   5.589   2.635   4.242
  819SOL     OW 3355   5.743   2.586   1.880
  819SOL    HW1 3356   5.742   2.492   1.847
  819SOL    HW2 3357   5.735   2.649   1.803
  820SOL     OW 3358   3.256   2.152   4.399
  820SOL    HW1 3359   3.205   2.204   4.331
  820SOL    HW2 3360   3.213   2.163   4.489
  821SOL     OW 3361   6.009   5.126   5.412
  821SOL    HW1 3362   6.029   5.044   5.359
  821SOL    HW2 3363   5.995   5.204   5.350
  822SOL     OW 3364   0.212   4.585   3.578
  822SOL    HW1 3365   0.145   4.627   3.519
  822SOL    HW2 3366   0.299   4.575   3.529
  823SOL     OW 3367   6.935   4.006   5.713
  823SOL    HW1 3368   0.007   4.023   5.704
  823SOL    HW2 3369   6.901   4.047   5.797
  824SOL     OW 3370   5.575   0.892   5.333
  824SOL    HW1 3371   5.566   0.797   5.305
  824SOL    HW2 3372   5.670   0.912   5.357
  825SOL     OW 3373   6.230   5.849   0.396
  825SOL    HW1 3374   6.310   5.791   0.383
  825SOL    HW2 3375   6.156   5.817   0.337
  826SOL     OW 3376   4.115   2.121   6.175
  826SOL    HW1 3377   4.016   2.110   6.162
  826SOL    HW2 3378   4.151   2.045   6.228
  827SOL     OW 3379   2.983   4.213   5.227
  827SOL    HW1 3380   2.924   4.176   5.299
  827SOL    HW2 3381   2.956   4.307   5.208
  828SOL     OW 3382   6.170   5.509   5.321
  828SOL    HW1 3383   6.245   5.575   5.316
  828SOL    HW2 3384   6.206   5.416   5.322
  829SOL     OW 3385   3.292   2.930   2.269
  829SOL    HW1 3386   3.330   2.838   2.275
  829SOL    HW2 3387   3.257   2.958   2.358
  830SOL     OW 3388   5.840   4.941   6.686
  830SOL    HW1 3389   5.918   4.878   6.687
  830SOL    HW2 3390   5.835   4.985   6.596
  831SOL     OW 3391   5.929   6.990   0.919
  831SOL    HW1 3392   5.864   7.016   0.990
  831SOL    HW2 3393   6.017   6.966   0.962
  832SOL     OW 3394   4.429   1.357   4.067
  832SOL    HW1 3395   4.406   1.411   4.148
  832SOL    HW2 3396   4.346   1.342   4.012
  833SOL     OW 3397   1.497   3.653   6.790
  833SOL    HW1 3398   1.460   3.571   6.745
  833SOL    HW2 3399   1.424   3.698   6.842
  834SOL     OW 3400   4.926   3.503   0.153
  834SOL    HW1 3401   4.900   3.594   0.186
  834SOL    HW2 3402   4.988   3.460   0.219
  835SOL     OW 3403   1.867   0.489   5.128
  835SOL    HW1 3404   1.801   0.424   5.090
  835SOL    HW2 3405   1.877   0.472   5.226
  836SOL     OW 3406   3.280   1.456   5.726
  836SOL    HW1 3407   3.200   1.403   5.699
  836SOL    HW2 3408   3.362   1.416   5.685
  837SOL     OW 3409   1.512   0.109   1.393
  837SOL    HW1 3410   1.480   0.073   1.305
  837SOL    HW2 3411   1.486   0.206   1.400
  838SOL     OW 3412   2.235   6.045   4.494
  838SOL    HW1 3413   2.240   5.956   4.448
  838SOL    HW2 3414   2.201   6.113   4.429
  839SOL     OW 3415   2.481   1.427   1.228
  839SOL    HW1 3416   2.530   1.482   1.296
  839SOL    HW2 3417   2.533   1.426   1.143
  840SOL     OW 3418   6.293   5.591   0.003
  840SOL    HW1 3419   6.322   5.566   0.096
  840SOL    HW2 3420   6.222   5.528   6.998
  841SOL     OW 3421   3.890   5.867   6.491
  841SOL    HW1 3422   3.922   5.904   6.578
  841SOL    HW2 3423   3.914   5.770   6.485
  842SOL     OW 3424   3.068   6.319   0.047
  842SOL    HW1 3425   3.008   6.321   0.127
  842SOL    HW2 3426   3.032   6.252   7.007
  843SOL     OW 3427   2.593   1.944   1.930
  843SOL    HW1 3428   2.503   1.985   1.941
  843SOL    HW2 3429   2.594   1.888   1.847
  844SOL     OW 3430   0.448   6.889   1.150
  844SOL    HW1 3431   0.529   6.878   1.092
  844SOL    HW2 3432   0.367   6.900   1.092
  845SOL     OW 3433   4.977   2.489   3.361
  845SOL    HW1 3434   4.913   2.554   3.403
  845SOL    HW2 3435   4.980   2.505   3.263
  846SOL     OW 3436   2.838   0.786   6.330
  846SOL    HW1 3437   2.906   0.749   6.393
  846SOL    HW2 3438   2.824   0.883   6.350
  847SOL     OW 3439   2.050   3.303   2.043
  847SOL    HW1 3440   2.121   3.370   2.020
  847SOL    HW2 3441   1.967   3.323   1.992
  848SOL     OW 3442   6.849   6.644   5.691
  848SOL    HW1 3443   6.867   6.606   5.782
  848SOL    HW2 3444   6.788   6.723   5.699
  849SOL     OW 3445   6.169   3.807   6.939
  849SOL    HW1 3446   6.134   3.750   6.864
  849SOL    HW2 3447   6.110   3.888   6.948
  850SOL     OW 3448   0.388   0.048   4.888
  850SOL    HW1 3449   0.387   0.098   4.974
  850SOL    HW2 3450   0.467   0.077   4.834
  851SOL     OW 3451   6.774   3.056   0.199
  851SOL    HW1 3452   6.863   3.027   0.233
  851SOL    HW2 3453   6.781   3.082   0.103
  852SOL     OW 3454   0.328   4.874   0.404
  852SOL    HW1 3455   0.287   4.965   0.401
  852SOL    HW2 3456   0.290   4.823   0.481
  853SOL     OW 3457   2.061   4.232   5.995
  853SOL    HW1 3458   1.990   4.198   6.057
  853SOL    HW2 3459   2.144   4.252   6.047
  854SOL     OW 3460   5.486   6.827   0.247
  854SOL    HW1 3461   5.527   6.739   0.224
  854SOL    HW2 3462   5.545   6.875   0.312
  855SOL     OW 3463   6.054   0.209   0.377
  855SOL    HW1 3464   6.000   0.125   0.374
  855SOL    HW2 3465   5.992   0.287   0.386
  856SOL     OW 3466   1.229   6.557   5.633
  856SOL    HW1 3467   1.144   6.534   5.587
  856SOL    HW2 3468   1.245   6.493   5.708
  857SOL     OW 3469   0.105   5.336   2.236
  857SOL    HW1 3470   0.085   5.278   2.315
  857SOL    HW2 3471   0.045   5.415   2.237
  858SOL     OW 3472   2.992   3.728   0.968
  858SOL    HW1 3473   3.036   3.817   0.961
  858SOL    HW2 3474   2.947   3.706   0.881
  859SOL     OW 3475   5.348   6.062   5.571
  859SOL    HW1 3476   5.273   6.115   5.610
  859SOL    HW2 3477   5.313   6.001   5.500
  860SOL     OW 3478   5.492   2.917   6.549
  860SOL    HW1 3479   5.486   2.953   6.642
  860SOL    HW2 3480   5.420   2.959   6.492
  861SOL     OW 3481   2.101   5.794   3.390
  861SOL    HW1 3482   2.181   5.849   3.367
  861SOL    HW2 3483   2.020   5.853   3.393
  862SOL     OW 3484   2.071   5.131   3.645
  862SOL    HW1 3485   2.167   5.114   3.622
  862SOL    HW2 3486   2.036   5.206   3.590
  863SOL     OW 3487   6.154   0.937   6.099
  863SOL    HW1 3488   6.094   0.874   6.051
  863SOL    HW2 3489   6.160   0.912   6.196
  864SOL     OW 3490   4.301   0.094   4.993
  864SOL    HW1 3491   4.363   0.017   5.010
  864SOL    HW2 3492   4.259   0.082   4.903
  865SOL     OW 3493   1.640   0.074   5.790
  865SOL    HW1 3494   1.568   0.004   5.800
  865SOL    HW2 3495   1.605   0.150   5.735
  866SOL     OW 3496   3.561   6.818   1.103
  866SOL    HW1 3497   3.601   6.908   1.119
  866SOL    HW2 3498   3.463   6.827   1.090
  867SOL     OW 3499   5.502   3.009   0.502
  867SOL    HW1 3500   5.460   2.919   0.513
  867SOL    HW2 3501   5.431   3.078   0.491
  868SOL     OW 3502   0.130   1.963   2.732
  868SOL    HW1 3503   0.069   1.903   2.784
  868SOL    HW2 3504   0.078   2.009   2.660
  869SOL     OW 3505   6.630   3.401   3.443
  869SOL    HW1 3506   6.694   3.340   3.396
  869SOL    HW2 3507   6.676   3.485   3.469
  870SOL     OW 3508   3.845   4.245   1.054
  870SOL    HW1 3509   3.908   4.253   0.976
  870SOL    HW2 3510   3.895   4.213   1.134
  871SOL     OW 3511   5.463   2.183   4.234
  871SOL    HW1 3512   5.530   2.173   4.160
  871SOL    HW2 3513   5.506   2.226   4.313
  872SOL     OW 3514   0.348   2.277   4.706
  872SOL    HW1 3515   0.313   2.370   4.711
  872SOL    HW2 3516   0.416   2.263   4.777
  873SOL     OW 3517   4.018   6.297   5.781
  873SOL    HW1 3518   3.943   6.253   5.732
  873SOL    HW2 3519   3.981   6.351   5.857
  874SOL     OW 3520   5.901   4.181   0.203
  874SOL    HW1 3521   5.905   4.274   0.166
  874SOL    HW2 3522   5.931   4.181   0.298
  875SOL     OW 3523   4.942   5.424   0.728
  875SOL    HW1 3524   4.923   5.400   0.633
  875SOL    HW2 3525   4.900   5.356   0.788
  876SOL     OW 3526   0.438   5.270   2.052
  876SOL    HW1 3527   0.358   5.217   2.025
  876SOL    HW2 3528   0.430   5.363   2.015
  877SOL     OW 3529   3.462   4.092   5.941
  877SOL    HW1 3530   3.532   4.051   5.882
  877SOL    HW2 3531   3.373   4.052   5.920
  878SOL     OW 3532   4.763   6.856   4.098
  878SOL    HW1 3533   4.738   6.852   4.001
  878SOL    HW2 3534   4.849   6.907   4.107
  879SOL     OW 3535   3.662   0.565   1.514
  879SOL    HW1 3536   3.711   0.557   1.601
  879SOL    HW2 3537   3.567   0.590   1.532
  880SOL     OW 3538   3.818   4.062   4.278
  880SOL    HW1 3539   3.790   4.070   4.374
  880SOL    HW2 3540   3.889   3.992   4.270
  881SOL     OW 3541   4.977   3.126   4.895
  881SOL    HW1 3542   5.041   3.054   4.921
  881SOL    HW2 3543   4.950   3.177   4.976
  882SOL     OW 3544   0.984   3.329   3.987
  882SOL    HW1 3545   0.900   3.362   4.032
  882SOL    HW2 3546   1.001   3.234   4.014
  883SOL     OW 3547   3.352   0.941   1.615
  883SOL    HW1 3548   3.280   0.927   1.683
  883SOL    HW2 3549   3.326   1.016   1.554
  884SOL     OW 3550   5.514   3.781   5.803
  884SOL    HW1 3551   5.479   3.688   5.812
  884SOL    HW2 3552   5.441   3.846   5.820
  885SOL     OW 3553   3.141   1.201   5.281
  885SOL    HW1 3554   3.192   1.115   5.279
  885SOL    HW2 3555   3.188   1.269   5.224
  886SOL     OW 3556   3.639   0.046   0.310
  886SOL    HW1 3557   3.562   0.026   0.370
  886SOL    HW2 3558   3.634   0.142   0.281
  887SOL     OW 3559   3.627   6.881   3.570
  887SOL    HW1 3560   3.550   6.819   3.580
  887SOL    HW2 3561   3.681   6.882   3.655
  888SOL     OW 3562   6.666   6.426   3.449
  888SOL    HW1 3563   6.720   6.437   3.366
  888SOL    HW2 3564   6.722   6.382   3.520
  889SOL     OW 3565   6.852   3.361   0.735
  889SOL    HW1 3566   6.919   3.361   0.809
  889SOL    HW2 3567   6.895   3.329   0.651
  890SOL     OW 3568   1.190   5.347   3.015
  890SOL    HW1 3569   1.275   5.298   3.034
  890SOL    HW2 3570   1.192   5.382   2.921
  891SOL     OW 3571   5.874   4.681   0.680
  891SOL    HW1 3572   5.965   4.640   0.687
  891SOL    HW2 3573   5.809   4.629   0.736
  892SOL     OW 3574   2.442   3.749   5.572
  892SOL    HW1 3575   2.348   3.716   5.575
  892SOL    HW2 3576   2.485   3.721   5.487
  893SOL     OW 3577   2.031   6.481   3.033
  893SOL    HW1 3578   2.017   6.430   3.118
  893SOL    HW2 3579   1.958   6.548   3.021
  894SOL     OW 3580   1.212   2.946   1.999
  894SOL    HW1 3581   1.137   2.911   1.942
  894SOL    HW2 3582   1.250   3.028   1.956
  895SOL     OW 3583   0.718   5.111   3.684
  895SOL    HW1 3584   0.700   5.135   3.589
  895SOL    HW2 3585   0.803   5.058   3.689
  896SOL     OW 3586   5.248   5.136   1.075
  896SOL    HW1 3587   5.268   5.044   1.109
  896SOL    HW2 3588   5.254   5.201   1.151
  897SOL     OW 3589   4.055   1.372   6.978
  897SOL    HW1 3590   3.967   1.374   7.024
  897SOL    HW2 3591   4.109   1.294   7.011
  898SOL     OW 3592   3.137   6.306   3.041
  898SOL    HW1 3593   3.134   6.379   2.973
  898SOL    HW2 3594   3.232   6.279   3.058
  899SOL     OW 3595   0.286   6.705   0.272
  899SOL    HW1 3596   0.352   6.638   0.235
  899SOL    HW2 3597   0.333   6.790   0.292
  900SOL     OW 3598   5.901   7.005   0.444
  900SOL    HW1 3599   5.952   6.945   0.383
  900SOL    HW2 3600   5.920   6.980   0.539
  901SOL     OW 3601   2.349   6.950   2.992
  901SOL    HW1 3602   2.377   6.903   2.908
  901SOL    HW2 3603   2.416   6.931   3.064
  902SOL     OW 3604   0.624   2.133   0.535
  902SOL    HW1 3605   0.636   2.040   0.501
  902SOL    HW2 3606   0.598   2.194   0.460
  903SOL     OW 3607   0.204   2.301   0.140
  903SOL    HW1 3608   0.140   2.243   0.090
  903SOL    HW2 3609   0.162   2.332   0.225
  904SOL     OW 3610   2.580   2.160   2.790
  904SOL    HW1 3611   2.528   2.092   2.842
  904SOL    HW2 3612   2.615   2.230   2.852
  905SOL     OW 3613   4.936   1.693   6.656
  905SOL    HW1 3614   4.857   1.718   6.712
  905SOL    HW2 3615   5.009   1.659   6.714
  906SOL     OW 3616   6.863   1.774   6.541
  906SOL    HW1 3617   6.862   1.858   6.487
  906SOL    HW2 3618   6.858   1.796   6.638
  907SOL     OW 3619   5.411   3.259   0.641
  907SOL    HW1 3620   5.508   3.272   0.661
  907SOL    HW2 3621   5.383   3.167   0.669
  908SOL     OW 3622   2.624   4.730   2.892
  908SOL    HW1 3623   2.672   4.710   2.807
  908SOL    HW2 3624   2.680   4.788   2.950
  909SOL     OW 3625   4.452   5.888   1.504
  909SOL    HW1 3626   4.498   5.946   1.571
  909SOL    HW2 3627   4.520   5.854   1.438
  910SOL     OW 3628   3.209   2.025   0.953
  910SOL    HW1 3629   3.277   2.045   1.024
  910SOL    HW2 3630   3.241   2.063   0.866
  911SOL     OW 3631   0.391   6.263   6.525
  911SOL    HW1 3632   0.296   6.235   6.540
  911SOL    HW2 3633   0.452   6.185   6.542
  912SOL     OW 3634   5.993   2.407   3.047
  912SOL    HW1 3635   6.024   2.500   3.068
  912SOL    HW2 3636   6.065   2.359   2.995
  913SOL     OW 3637   4.394   6.923   3.000
  913SOL    HW1 3638   4.471   6.987   2.993
  913SOL    HW2 3639   4.365   6.918   3.096
  914SOL     OW 3640   2.566   6.941   6.067
  914SOL    HW1 3641   2.556   6.842   6.064
  914SOL    HW2 3642   2.661   6.965   6.090
  915SOL     OW 3643   6.129   4.309   6.821
  915SOL    HW1 3644   6.166   4.216   6.813
  915SOL    HW2 3645   6.031   4.307   6.802
  916SOL     OW 3646   1.858   2.637   1.712
  916SOL    HW1 3647   1.910   2.627   1.627
  916SOL    HW2 3648   1.778   2.576   1.708
  917SOL     OW 3649   0.504   6.697   0.628
  917SOL    HW1 3650   0.452   6.623   0.670
  917SOL    HW2 3651   0.566   6.659   0.560
  918SOL     OW 3652   3.276   0.619   0.346
  918SOL    HW1 3653   3.355   0.592   0.291
  918SOL    HW2 3654   3.201   0.645   0.285
  919SOL     OW 3655   5.677   1.753   2.582
  919SOL    HW1 3656   5.659   1.665   2.626
  919SOL    HW2 3657   5.730   1.738   2.499
  920SOL     OW 3658   2.480   3.876   1.664
  920SOL    HW1 3659   2.406   3.814   1.688
  920SOL    HW2 3660   2.455   3.969   1.690
  921SOL     OW 3661   4.982   6.110   4.293
  921SOL    HW1 3662   4.906   6.064   4.339
  921SOL    HW2 3663   4.948   6.192   4.247
  922SOL     OW 3664   4.070   3.925   4.619
  922SOL    HW1 3665   4.059   3.827   4.606
  922SOL    HW2 3666   4.138   3.960   4.554
  923SOL     OW 3667   2.231   3.236   6.897
  923SOL    HW1 3668   2.197   3.262   6.806
  923SOL    HW2 3669   2.307   3.172   6.887
  924SOL     OW 3670   6.435   3.921   1.722
  924SOL    HW1 3671   6.489   3.962   1.795
  924SOL    HW2 3672   6.436   3.980   1.642
  925SOL     OW 3673   6.990   2.559   0.125
  925SOL    HW1 3674   0.033   2.543   0.054
  925SOL    HW2 3675   7.011   2.504   0.205
  926SOL     OW 3676   6.676   0.543   1.312
  926SOL    HW1 3677   6.733   0.621   1.284
  926SOL    HW2 3678   6.607   0.526   1.241
  927SOL     OW 3679   5.252   3.636   3.643
  927SOL    HW1 3680   5.286   3.694   3.569
  927SOL    HW2 3681   5.207   3.692   3.712
  928SOL     OW 3682   2.200   5.969   0.265
  928SOL    HW1 3683   2.221   6.061   0.301
  928SOL    HW2 3684   2.140   5.922   0.329
  929SOL     OW 3685   0.082   1.040   0.132
  929SOL    HW1 3686   0.078   1.132   0.172
  929SOL    HW2 3687   0.177   1.015   0.115
  930SOL     OW 3688   5.017   6.151   6.550
  930SOL    HW1 3689   5.109   6.158   6.590
  930SOL    HW2 3690   5.024   6.126   6.454
  931SOL     OW 3691   6.859   1.523   4.784
  931SOL    HW1 3692   6.797   1.449   4.809
  931SOL    HW2 3693   6.877   1.520   4.686
  932SOL     OW 3694   2.387   1.794   2.747
  932SOL    HW1 3695   2.315   1.772   2.681
  932SOL    HW2 3696   2.473   1.806   2.699
  933SOL     OW 3697   1.410   5.245   3.174
  933SOL    HW1 3698   1.455   5.332   3.153
  933SOL    HW2 3699   1.443   5.212   3.262
  934SOL     OW 3700   2.812   5.624   6.052
  934SOL    HW1 3701   2.890   5.602   6.111
  934SOL    HW2 3702   2.818   5.721   6.025
  935SOL     OW 3703   5.308   4.291   4.116
  935SOL    HW1 3704   5.371   4.329   4.049
  935SOL    HW2 3705   5.214   4.309   4.086
  936SOL     OW 3706   0.842   6.520   6.026
  936SOL    HW1 3707   0.809   6.456   6.095
  936SOL    HW2 3708   0.795   6.608   6.037
  937SOL     OW 3709   5.748   1.631   5.757
  937SOL    HW1 3710   5.802   1.702   5.801
  937SOL    HW2 3711   5.651   1.656   5.761
  938SOL     OW 3712   6.656   5.465   4.619
  938SOL    HW1 3713   6.594   5.478   4.696
  938SOL    HW2 3714   6.607   5.481   4.533
  939SOL     OW 3715   0.016   6.872   3.845
  939SOL    HW1 3716   0.070   6.789   3.834
  939SOL    HW2 3717   7.002   6.899   3.757
  940SOL     OW 3718   0.664   3.761   0.614
  940SOL    HW1 3719   0.679   3.826   0.539
  940SOL    HW2 3720   0.688   3.804   0.701
  941SOL     OW 3721   5.024   0.277   6.909
  941SOL    HW1 3722   5.022   0.227   6.822
  941SOL    HW2 3723   5.119   0.296   6.934
  942SOL     OW 3724   6.295   6.774   1.510
  942SOL    HW1 3725   6.248   6.764   1.598
  942SOL    HW2 3726   6.358   6.698   1.497
  943SOL     OW 3727   1.565   4.880   2.782
  943SOL    HW1 3728   1.585   4.795   2.732
  943SOL    HW2 3729   1.603   4.958   2.732
  944SOL     OW 3730   0.728   5.689   4.859
  944SOL    HW1 3731   0.733   5.749   4.939
  944SOL    HW2 3732   0.786   5.726   4.786
  945SOL     OW 3733   0.173   4.940   5.428
  945SOL    HW1 3734   0.115   4.924   5.348
  945SOL    HW2 3735   0.268   4.919   5.404
  946SOL     OW 3736   4.706   4.844   4.470
  946SOL    HW1 3737   4.715   4.907   4.393
  946SOL    HW2 3738   4.616   4.854   4.511
  947SOL     OW 3739   3.494   3.126   3.882
  947SOL    HW1 3740   3.444   3.048   3.920
  947SOL    HW2 3741   3.547   3.170   3.955
  948SOL     OW 3742   4.726   1.179   2.909
  948SOL    HW1 3743   4.751   1.113   2.838
  948SOL    HW2 3744   4.635   1.157   2.943
  949SOL     OW 3745   2.840   6.146   0.409
  949SOL    HW1 3746   2.867   6.064   0.459
  949SOL    HW2 3747   2.889   6.149   0.322
  950SOL     OW 3748   5.949   5.672   2.550
  950SOL    HW1 3749   5.905   5.762   2.544
  950SOL    HW2 3750   5.931   5.621   2.466
  951SOL     OW 3751   1.109   0.139   3.560
  951SOL    HW1 3752   1.177   0.212   3.560
  951SOL    HW2 3753   1.065   0.135   3.650
  952SOL     OW 3754   4.106   2.231   2.661
  952SOL    HW1 3755   4.182   2.277   2.613
  952SOL    HW2 3756   4.023   2.241   2.607
  953SOL     OW 3757   6.036   5.737   5.084
  953SOL    HW1 3758   6.019   5.835   5.088
  953SOL    HW2 3759   5.958   5.687   5.121
  954SOL     OW 3760   3.706   6.113   2.291
  954SOL    HW1 3761   3.607   6.125   2.277
  954SOL    HW2 3762   3.748   6.079   2.207
  955SOL     OW 3763   2.079   4.331   6.992
  955SOL    HW1 3764   2.002   4.270   6.974
  955SOL    HW2 3765   2.094   4.390   6.914
  956SOL     OW 3766   6.814   0.779   1.524
  956SOL    HW1 3767   6.805   0.762   1.426
  956SOL    HW2 3768   6.904   0.749   1.555
  957SOL     OW 3769   6.274   2.013   1.478
  957SOL    HW1 3770   6.263   2.003   1.577
  957SOL    HW2 3771   6.294   1.923   1.438
  958SOL     OW 3772   4.045   6.250   2.081
  958SOL    HW1 3773   4.111   6.325   2.074
  958SOL    HW2 3774   4.090   6.164   2.055
  959SOL     OW 3775   3.532   6.839   4.731
  959SOL    HW1 3776   3.443   6.882   4.724
  959SOL    HW2 3777   3.551   6.788   4.647
  960SOL     OW 3778   1.776   0.191   1.392
  960SOL    HW1 3779   1.818   0.259   1.332
  960SOL    HW2 3780   1.677   0.190   1.378
  961SOL     OW 3781   4.089   6.757   3.169
  961SOL    HW1 3782   4.082   6.659   3.148
  961SOL    HW2 3783   4.079   6.809   3.085
  962SOL     OW 3784   6.729   0.960   4.406
  962SOL    HW1 3785   6.714   1.058   4.415
  962SOL    HW2 3786   6.825   0.943   4.380
  963SOL     OW 3787   4.338   0.961   0.623
  963SOL    HW1 3788   4.241   0.981   0.607
  963SOL    HW2 3789   4.363   0.988   0.716
  964SOL     OW 3790   4.510   5.216   5.267
  964SOL    HW1 3791   4.521   5.117   5.259
  964SOL    HW2 3792   4.598   5.258   5.289
  965SOL     OW 3793   6.173   1.854   2.115
  965SOL    HW1 3794   6.150   1.939   2.162
  965SOL    HW2 3795   6.272   1.850   2.100
  966SOL     OW 3796   5.263   3.055   3.732
  966SOL    HW1 3797   5.270   3.136   3.791
  966SOL    HW2 3798   5.355   3.029   3.702
  967SOL     OW 3799   3.108   4.964   0.077
  967SOL    HW1 3800   3.049   4.893   0.116
  967SOL    HW2 3801   3.152   5.015   0.151
  968SOL     OW 3802   3.869   6.504   1.496
  968SOL    HW1 3803   3.840   6.518   1.590
  968SOL    HW2 3804   3.882   6.593   1.451
  969SOL     OW 3805   2.520   4.991   5.371
  969SOL    HW1 3806   2.429   5.030   5.361
  969SOL    HW2 3807   2.572   5.005   5.286
  970SOL     OW 3808   5.539   0.599   5.944
  970SOL    HW1 3809   5.464   0.648   5.899
  970SOL    HW2 3810   5.626   0.642   5.919
  971SOL     OW 3811   0.376   3.303   2.455
  971SOL    HW1 3812   0.395   3.392   2.414
  971SOL    HW2 3813   0.345   3.316   2.550
  972SOL     OW 3814   6.802   2.676   1.924
  972SOL    HW1 3815   6.877   2.734   1.895
  972SOL    HW2 3816   6.715   2.723   1.906
  973SOL     OW 3817   0.779   4.923   6.890
  973SOL    HW1 3818   0.833   4.990   6.941
  973SOL    HW2 3819   0.682   4.935   6.910
  974SOL     OW 3820   0.624   5.452   2.242
  974SOL    HW1 3821   0.582   5.431   2.153
  974SOL    HW2 3822   0.684   5.377   2.270
  975SOL     OW 3823   2.471   6.951   0.407
  975SOL    HW1 3824   2.466   6.866   0.459
  975SOL    HW2 3825   2.565   6.965   0.375
  976SOL     OW 3826   0.102   3.681   1.270
  976SOL    HW1 3827   0.180   3.662   1.210
  976SOL    HW2 3828   0.067   3.595   1.307
  977SOL     OW 3829   0.643   1.015   1.974
  977SOL    HW1 3830   0.589   1.025   1.890
  977SOL    HW2 3831   0.583   0.991   2.050
  978SOL     OW 3832   5.177   1.425   1.006
  978SOL    HW1 3833   5.242   1.416   1.081
  978SOL    HW2 3834   5.227   1.426   0.919
  979SOL     OW 3835   0.468   2.816   6.598
  979SOL    HW1 3836   0.428   2.885   6.537
  979SOL    HW2 3837   0.429   2.827   6.690
  980SOL     OW 3838   4.774   1.275   4.915
  980SOL    HW1 3839   4.794   1.273   4.817
  980SOL    HW2 3840   4.826   1.349   4.958
  981SOL     OW 3841   0.663   0.677   4.766
  981SOL    HW1 3842   0.689   0.716   4.854
  981SOL    HW2 3843   0.577   0.719   4.735
  982SOL     OW 3844   1.029   1.641   5.305
  982SOL    HW1 3845   1.082   1.718   5.342
  982SOL    HW2 3846   1.092   1.571   5.270
  983SOL     OW 3847   6.875   3.703   2.669
  983SOL    HW1 3848   6.902   3.623   2.615
  983SOL    HW2 3849   6.819   3.672   2.746
  984SOL     OW 3850   1.542   2.265   2.831
  984SOL    HW1 3851   1.554   2.227   2.923
  984SOL    HW2 3852   1.478   2.207   2.780
  985SOL     OW 3853   6.646   4.048   4.681
  985SOL    HW1 3854   6.621   3.969   4.625
  985SOL    HW2 3855   6.746   4.055   4.685
  986SOL     OW 3856   4.404   5.307   1.301
  986SOL    HW1 3857   4.437   5.231   1.358
  986SOL    HW2 3858   4.343   5.365   1.356
  987SOL     OW 3859   5.674   6.294   2.151
  987SOL    HW1 3860   5.672   6.274   2.053
  987SOL    HW2 3861   5.598   6.246   2.196
  988SOL     OW 3862   3.340   3.953   2.220
  988SOL    HW1 3863   3.280   3.991   2.150
  988SOL    HW2 3864   3.377   4.027   2.276
  989SOL     OW 3865   6.610   1.901   0.320
  989SOL    HW1 3866   6.554   1.838   0.266
  989SOL    HW2 3867   6.573   1.908   0.412
  990SOL     OW 3868   3.614   0.151   2.741
  990SOL    HW1 3869   3.583   0.130   2.833
  990SOL    HW2 3870   3.615   0.250   2.728
  991SOL     OW 3871   0.081   4.303   3.744
  991SOL    HW1 3872   0.025   4.313   3.826
  991SOL    HW2 3873   0.175   4.328   3.765
  992SOL     OW 3874   0.768   3.233   1.355
  992SOL    HW1 3875   0.706   3.279   1.417
  992SOL    HW2 3876   0.853   3.284   1.347
  993SOL     OW 3877   0.645   3.886   0.907
  993SOL    HW1 3878   0.634   3.973   0.957
  993SOL    HW2 3879   0.707   3.826   0.957
  994SOL     OW 3880   3.981   5.328   1.277
  994SOL    HW1 3881   3.900   5.282   1.242
  994SOL    HW2 3882   4.042   5.350   1.200
  995SOL     OW 3883   4.279   3.137   5.807
  995SOL    HW1 3884   4.338   3.057   5.799
  995SOL    HW2 3885   4.256   3.171   5.716
  996SOL     OW 3886   3.546   5.350   5.042
  996SOL    HW1 3887   3.503   5.439   5.027
  996SOL    HW2 3888   3.542   5.326   5.139
  997SOL     OW 3889   1.325   6.966   3.548
  997SOL    HW1 3890   1.267   0.018   3.573
  997SOL    HW2 3891   1.345   6.911   3.629
  998SOL     OW 3892   6.550   0.045   6.452
  998SOL    HW1 3893   6.562   0.123   6.391
  998SOL    HW2 3894   6.534   0.077   6.545
  999SOL     OW 3895   4.855   3.906   1.624
  999SOL    HW1 3896   4.849   3.817   1.668
  999SOL    HW2 3897   4.895   3.896   1.533
 1000SOL     OW 3898   4.223   1.334   1.702
 1000SOL    HW1 3899   4.151   1.403   1.713
 1000SOL    HW2 3900   4.182   1.243   1.707
 1001SOL     OW 3901   3.535   5.846   2.387
 1001SOL    HW1 3902   3.614   5.802   2.429
 1001SOL    HW2 3903   3.469   5.776   2.359
 1002SOL     OW 3904   5.407   1.810   1.310
 1002SOL    HW1 3905   5.369   1.803   1.217
 1002SOL    HW2 3906   5.506   1.824   1.304
 1003SOL     OW 3907   1.868   5.977   2.597
 1003SOL    HW1 3908   1.931   5.929   2.536
 1003SOL    HW2 3909   1.774   5.950   2.576
 1004SOL     OW 3910   6.927   1.266   2.359
 1004SOL    HW1 3911   6.920   1.326   2.438
 1004SOL    HW2 3912   6.844   1.273   2.303
 1005SOL     OW 3913   1.557   4.213   4.205
 1005SOL    HW1 3914   1.528   4.141   4.141
 1005SOL    HW2 3915   1.625   4.271   4.160
 1006SOL     OW 3916   2.211   4.103   0.412
 1006SOL    HW1 3917   2.124   4.057   0.396
 1006SOL    HW2 3918   2.220   4.180   0.349
 1007SOL     OW 3919   4.664   1.207   6.221
 1007SOL    HW1 3920   4.651   1.217   6.123
 1007SOL    HW2 3921   4.706   1.290   6.258
 1008SOL     OW 3922   0.268   3.510   5.398
 1008SOL    HW1 3923   0.189   3.541   5.345
 1008SOL    HW2 3924   0.288   3.415   5.375
 1009SOL     OW 3925   6.286   4.452   5.823
 1009SOL    HW1 3926   6.205   4.395   5.813
 1009SOL    HW2 3927   6.347   4.412   5.891
 1010SOL     OW 3928   3.049   2.487   1.283
 1010SOL    HW1 3929   3.005   2.500   1.194
 1010SOL    HW2 3930   2.979   2.485   1.354
 1011SOL     OW 3931   0.559   5.718   3.436
 1011SOL    HW1 3932   0.499   5.798   3.437
 1011SOL    HW2 3933   0.518   5.645   3.490
 1012SOL     OW 3934   6.682   6.836   2.563
 1012SOL    HW1 3935   6.677   6.936   2.560
 1012SOL    HW2 3936   6.720   6.807   2.650
 1013SOL     OW 3937   6.783   1.200   6.192
 1013SOL    HW1 3938   6.695   1.158   6.171
 1013SOL    HW2 3939   6.792   1.285   6.141
 1014SOL     OW 3940   0.845   3.906   4.584
 1014SOL    HW1 3941   0.932   3.870   4.619
 1014SOL    HW2 3942   0.823   3.861   4.498
 1015SOL     OW 3943   2.622   0.585   6.093
 1015SOL    HW1 3944   2.589   0.674   6.063
 1015SOL    HW2 3945   2.618   0.579   6.193
 1016SOL     OW 3946   4.429   4.798   1.488
 1016SOL    HW1 3947   4.396   4.722   1.433
 1016SOL    HW2 3948   4.507   4.769   1.543
 1017SOL     OW 3949   2.755   1.494   1.212
 1017SOL    HW1 3950   2.795   1.529   1.297
 1017SOL    HW2 3951   2.782   1.399   1.198
 1018SOL     OW 3952   0.153   4.720   3.804
 1018SOL    HW1 3953   0.186   4.662   3.729
 1018SOL    HW2 3954   0.166   4.671   3.891
 1019SOL     OW 3955   6.967   5.185   0.481
 1019SOL    HW1 3956   6.892   5.187   0.415
 1019SOL    HW2 3957   6.961   5.102   0.536
 1020SOL     OW 3958   6.049   0.836   1.277
 1020SOL    HW1 3959   6.012   0.790   1.196
 1020SOL    HW2 3960   6.148   0.823   1.280
 1021SOL     OW 3961   6.725   6.113   2.169
 1021SOL    HW1 3962   6.799   6.069   2.219
 1021SOL    HW2 3963   6.637   6.081   2.206
 1022SOL     OW 3964   2.443   5.670   5.926
 1022SOL    HW1 3965   2.458   5.769   5.928
 1022SOL    HW2 3966   2.403   5.642   6.014
 1023SOL     OW 3967   0.354   0.721   2.557
 1023SOL    HW1 3968   0.354   0.657   2.480
 1023SOL    HW2 3969   0.442   0.718   2.604
 1024SOL     OW 3970   0.648   1.812   4.246
 1024SOL    HW1 3971   0.589   1.764   4.182
 1024SOL    HW2 3972   0.593   1.869   4.307
 1025SOL     OW 3973   4.682   2.945   0.298
 1025SOL    HW1 3974   4.587   2.966   0.321
 1025SOL    HW2 3975   4.719   3.018   0.240
 1026SOL     OW 3976   2.628   2.729   1.721
 1026SOL    HW1 3977   2.716   2.772   1.701
 1026SOL    HW2 3978   2.642   2.636   1.755
 1027SOL     OW 3979   1.779   6.890   1.826
 1027SOL    HW1 3980   1.695   6.845   1.858
 1027SOL    HW2 3981   1.855   6.826   1.830
 1028SOL     OW 3982   1.107   6.438   3.018
 1028SOL    HW1 3983   1.198   6.442   3.060
 1028SOL    HW2 3984   1.071   6.531   3.009
 1029SOL     OW 3985   1.021   2.070   6.158
 1029SOL    HW1 3986   1.059   2.044   6.070
 1029SOL    HW2 3987   0.985   1.988   6.204
 1030SOL     OW 3988   3.490   3.032   1.540
 1030SOL    HW1 3989   3.559   3.010   1.471
 1030SOL    HW2 3990   3.533   3.033   1.630
 1031SOL     OW 3991   4.394   3.104   1.467
 1031SOL    HW1 3992   4.389   3.011   1.502
 1031SOL    HW2 3993   4.447   3.161   1.530
 1032SOL     OW 3994   2.026   1.172   5.369
 1032SOL    HW1 3995   2.117   1.164   5.410
 1032SOL    HW2 3996   1.990   1.263   5.386
 1033SOL     OW 3997   1.596   5.823   2.261
 1033SOL    HW1 3998   1.520   5.762   2.239
 1033SOL    HW2 3999   1.599   5.897   2.194
 1034SOL     OW 4000   1.550   6.100   4.287
 1034SOL    HW1 4001   1.641   6.126   4.253
 1034SOL    HW2 4002   1.521   6.015   4.242
 1035SOL     OW 4003   0.139   2.226   6.515
 1035SOL    HW1 4004   0.115   2.190   6.605
 1035SOL    HW2 4005   0.142   2.326   6.520
 1036SOL     OW 4006   3.904   0.851   1.619
 1036SOL    HW1 4007   3.849   0.888   1.694
 1036SOL    HW2 4008   3.891   0.907   1.538
 1037SOL     OW 4009   1.574   2.174   3.087
 1037SOL    HW1 4010   1.585   2.076   3.102
 1037SOL    HW2 4011   1.488   2.205   3.128
 1038SOL     OW 4012   1.600   1.057   5.816
 1038SOL    HW1 4013   1.681   1.098   5.858
 1038SOL    HW2 4014   1.598   1.081   5.718
 1039SOL     OW 4015   3.443   3.434   4.309
 1039SOL    HW1 4016   3.450   3.485   4.222
 1039SOL    HW2 4017   3.400   3.345   4.292
 1040SOL     OW 4018   5.226   1.074   2.415
 1040SOL    HW1 4019   5.221   1.122   2.327
 1040SOL    HW2 4020   5.251   1.139   2.486
 1041SOL     OW 4021   6.957   6.519   3.422
 1041SOL    HW1 4022   0.004   6.551   3.483
 1041SOL    HW2 4023   6.973   6.423   3.399
 1042SOL     OW 4024   4.579   5.037   3.024
 1042SOL    HW1 4025   4.646   5.074   3.088
 1042SOL    HW2 4026   4.487   5.060   3.056
 1043SOL     OW 4027   4.148   2.313   3.428
 1043SOL    HW1 4028   4.206   2.316   3.509
 1043SOL    HW2 4029   4.203   2.327   3.347
 1044SOL     OW 4030   6.112   5.665   1.459
 1044SOL    HW1 4031   6.174   5.615   1.398
 1044SOL    HW2 4032   6.073   5.744   1.411
 1045SOL     OW 4033   3.332   0.593   3.165
 1045SOL    HW1 4034   3.281   0.634   3.240
 1045SOL    HW2 4035   3.392   0.662   3.124
 1046SOL     OW 4036   1.639   1.354   0.445
 1046SOL    HW1 4037   1.662   1.375   0.540
 1046SOL    HW2 4038   1.715   1.380   0.386
 1047SOL     OW 4039   3.180   0.590   4.111
 1047SOL    HW1 4040   3.255   0.595   4.045
 1047SOL    HW2 4041   3.117   0.667   4.095
 1048SOL     OW 4042   3.470   5.526   2.483
 1048SOL    HW1 4043   3.566   5.538   2.511
 1048SOL    HW2 4044   3.411   5.537   2.562
 1049SOL     OW 4045   5.128   6.953   3.769
 1049SOL    HW1 4046   5.184   6.997   3.700
 1049SOL    HW2 4047   5.043   7.005   3.782
 1050SOL     OW 4048   3.838   5.896   2.717
 1050SOL    HW1 4049   3.938   5.895   2.719
 1050SOL    HW2 4050   3.808   5.955   2.642
 1051SOL     OW 4051   0.295   5.974   0.005
 1051SOL    HW1 4052   0.222   5.952   0.070
 1051SOL    HW2 4053   0.384   5.964   0.050
 1052SOL     OW 4054   5.088   1.086   5.010
 1052SOL    HW1 4055   5.142   1.142   5.074
 1052SOL    HW2 4056   5.040   1.015   5.060
 1053SOL     OW 4057   5.649   4.048   2.783
 1053SOL    HW1 4058   5.667   4.140   2.747
 1053SOL    HW2 4059   5.606   3.992   2.712
 1054SOL     OW 4060   3.170   3.179   0.673
 1054SOL    HW1 4061   3.238   3.117   0.634
 1054SOL    HW2 4062   3.120   3.133   0.746
 1055SOL     OW 4063   4.418   6.281   6.046
 1055SOL    HW1 4064   4.367   6.220   5.985
 1055SOL    HW2 4065   4.504   6.307   6.003
 1056SOL     OW 4066   0.724   3.911   0.387
 1056SOL    HW1 4067   0.652   3.910   0.318
 1056SOL    HW2 4068   0.794   3.843   0.364
 1057SOL     OW 4069   4.029   2.182   1.489
 1057SOL    HW1 4070   3.932   2.207   1.493
 1057SOL    HW2 4071   4.067   2.183   1.582
 1058SOL     OW 4072   4.749   2.677   3.464
 1058SOL    HW1 4073   4.736   2.776   3.466
 1058SOL    HW2 4074   4.741   2.641   3.557
 1059SOL     OW 4075   2.025   6.801   2.351
 1059SOL    HW1 4076   2.011   6.894   2.316
 1059SOL    HW2 4077   1.936   6.760   2.372
 1060SOL     OW 4078   0.203   4.943   4.162
 1060SOL    HW1 4079   0.254   5.018   4.204
 1060SOL    HW2 4080   0.120   4.926   4.214
 1061SOL     OW 4081   6.575   3.658   6.743
 1061SOL    HW1 4082   6.671   3.680   6.757
 1061SOL    HW2 4083   6.519   3.710   6.808
 1062SOL     OW 4084   3.766   6.193   5.403
 1062SOL    HW1 4085   3.667   6.201   5.392
 1062SOL    HW2 4086   3.812   6.236   5.325
 1063SOL     OW 4087   0.093   7.017   0.352
 1063SOL    HW1 4088   0.154   0.058   0.395
 1063SOL    HW2 4089   0.123   6.999   0.258
 1064SOL     OW 4090   0.417   4.551   1.715
 1064SOL    HW1 4091   0.345   4.502   1.764
 1064SOL    HW2 4092   0.410   4.649   1.735
 1065SOL     OW 4093   3.360   0.682   3.952
 1065SOL    HW1 4094   3.297   0.707   3.879
 1065SOL    HW2 4095   3.440   0.742   3.949
 1066SOL     OW 4096   4.816   6.845   2.321
 1066SOL    HW1 4097   4.749   6.897   2.373
 1066SOL    HW2 4098   4.874   6.907   2.268
 1067SOL     OW 4099   2.303   0.863   6.850
 1067SOL    HW1 4100   2.395   0.901   6.861
 1067SOL    HW2 4101   2.240   0.912   6.909
 1068SOL     OW 4102   5.809   3.884   1.273
 1068SOL    HW1 4103   5.857   3.938   1.342
 1068SOL    HW2 4104   5.853   3.795   1.264
 1069SOL     OW 4105   5.231   5.344   0.778
 1069SOL    HW1 4106   5.141   5.310   0.805
 1069SOL    HW2 4107   5.228   5.444   0.772
 1070SOL     OW 4108   2.470   6.897   2.430
 1070SOL    HW1 4109   2.438   6.970   2.369
 1070SOL    HW2 4110   2.420   6.812   2.409
 1071SOL     OW 4111   1.307   1.963   4.466
 1071SOL    HW1 4112   1.226   2.021   4.476
 1071SOL    HW2 4113   1.297   1.883   4.525
 1072SOL     OW 4114   2.468   0.899   1.874
 1072SOL    HW1 4115   2.566   0.885   1.858
 1072SOL    HW2 4116   2.432   0.966   1.808
 1073SOL     OW 4117   5.595   1.760   3.030
 1073SOL    HW1 4118   5.650   1.740   3.111
 1073SOL    HW2 4119   5.641   1.831   2.976
 1074SOL     OW 4120   2.792   4.931   1.929
 1074SOL    HW1 4121   2.741   4.895   1.851
 1074SOL    HW2 4122   2.823   4.855   1.987
 1075SOL     OW 4123   6.019   1.351   4.115
 1075SOL    HW1 4124   6.092   1.329   4.179
 1075SOL    HW2 4125   6.009   1.450   4.107
 1076SOL     OW 4126   0.905   2.879   5.455
 1076SOL    HW1 4127   0.882   2.896   5.550
 1076SOL    HW2 4128   0.886   2.783   5.432
 1077SOL     OW 4129   0.030   6.879   0.561
 1077SOL    HW1 4130   0.120   6.881   0.605
 1077SOL    HW2 4131   0.032   6.940   0.482
 1078SOL     OW 4132   6.284   0.410   3.277
 1078SOL    HW1 4133   6.236   0.364   3.352
 1078SOL    HW2 4134   6.365   0.357   3.251
 1079SOL     OW 4135   1.747   4.997   1.825
 1079SOL    HW1 4136   1.810   4.968   1.753
 1079SOL    HW2 4137   1.669   5.044   1.783
 1080SOL     OW 4138   2.532   5.664   4.570
 1080SOL    HW1 4139   2.604   5.674   4.638
 1080SOL    HW2 4140   2.505   5.568   4.563
 1081SOL     OW 4141   6.909   5.434   4.937
 1081SOL    HW1 4142   6.859   5.372   4.876
 1081SOL    HW2 4143   6.998   5.394   4.959
 1082SOL     OW 4144   5.844   2.081   5.578
 1082SOL    HW1 4145   5.927   2.131   5.602
 1082SOL    HW2 4146   5.764   2.137   5.596
 1083SOL     OW 4147   4.849   3.115   6.836
 1083SOL    HW1 4148   4.769   3.098   6.778
 1083SOL    HW2 4149   4.821   3.167   6.917
 1084SOL     OW 4150   6.822   6.696   6.731
 1084SOL    HW1 4151   6.858   6.654   6.647
 1084SOL    HW2 4152   6.727   6.667   6.745
 1085SOL     OW 4153   2.078   3.297   3.903
 1085SOL    HW1 4154   2.067   3.368   3.973
 1085SOL    HW2 4155   1.995   3.242   3.898
 1086SOL     OW 4156   6.692   5.314   6.573
 1086SOL    HW1 4157   6.787   5.283   6.573
 1086SOL    HW2 4158   6.676   5.375   6.495
 1087SOL     OW 4159   1.227   1.528   5.523
 1087SOL    HW1 4160   1.241   1.589   5.601
 1087SOL    HW2 4161   1.315   1.489   5.495
 1088SOL     OW 4162   0.215   4.999   3.395
 1088SOL    HW1 4163   0.282   5.066   3.429
 1088SOL    HW2 4164   0.254   4.907   3.403
 1089SOL     OW 4165   1.031   5.869   5.135
 1089SOL    HW1 4166   1.051   5.942   5.069
 1089SOL    HW2 4167   1.114   5.817   5.154
 1090SOL     OW 4168   4.603   2.282   3.274
 1090SOL    HW1 4169   4.504   2.272   3.280
 1090SOL    HW2 4170   4.647   2.204   3.318
 1091SOL     OW 4171   2.167   3.622   3.482
 1091SOL    HW1 4172   2.154   3.702   3.541
 1091SOL    HW2 4173   2.261   3.590   3.490
 1092SOL     OW 4174   0.830   5.217   0.336
 1092SOL    HW1 4175   0.873   5.145   0.281
 1092SOL    HW2 4176   0.819   5.299   0.280
 1093SOL     OW 4177   2.523   6.790   1.471
 1093SOL    HW1 4178   2.516   6.877   1.423
 1093SOL    HW2 4179   2.490   6.800   1.564
 1094SOL     OW 4180   0.657   6.943   2.623
 1094SOL    HW1 4181   0.557   6.939   2.626
 1094SOL    HW2 4182   0.686   0.012   2.609
 1095SOL     OW 4183   0.505   2.060   6.945
 1095SOL    HW1 4184   0.512   2.116   6.863
 1095SOL    HW2 4185   0.578   2.085   7.009
 1096SOL     OW 4186   3.637   4.226   1.241
 1096SOL    HW1 4187   3.724   4.239   1.193
 1096SOL    HW2 4188   3.635   4.284   1.323
 1097SOL     OW 4189   2.084   5.218   2.862
 1097SOL    HW1 4190   2.080   5.131   2.911
 1097SOL    HW2 4191   2.135   5.207   2.777
 1098SOL     OW 4192   6.181   4.072   6.710
 1098SOL    HW1 4193   6.241   3.998   6.679
 1098SOL    HW2 4194   6.090   4.036   6.727
 1099SOL     OW 4195   4.488   0.973   6.926
 1099SOL    HW1 4196   4.412   0.932   6.976
 1099SOL    HW2 4197   4.548   1.021   6.990
 1100SOL     OW 4198   3.960   1.080   4.005
 1100SOL    HW1 4199   4.058   1.069   3.989
 1100SOL    HW2 4200   3.924   1.150   3.943
 1101SOL     OW 4201   5.393   4.208   5.031
 1101SOL    HW1 4202   5.392   4.197   5.130
 1101SOL    HW2 4203   5.438   4.295   5.008
 1102SOL     OW 4204   2.665   1.478   4.616
 1102SOL    HW1 4205   2.662   1.391   4.566
 1102SOL    HW2 4206   2.719   1.467   4.699
 1103SOL     OW 4207   2.253   1.487   0.114
 1103SOL    HW1 4208   2.234   1.484   0.212
 1103SOL    HW2 4209   2.169   1.468   0.063
 1104SOL     OW 4210   1.674   3.996   3.804
 1104SOL    HW1 4211   1.675   3.945   3.718
 1104SOL    HW2 4212   1.735   4.074   3.797
 1105SOL     OW 4213   5.129   2.780   4.866
 1105SOL    HW1 4214   5.165   2.840   4.937
 1105SOL    HW2 4215   5.051   2.825   4.822
 1106SOL     OW 4216   0.255   1.347   0.816
 1106SOL    HW1 4217   0.194   1.283   0.769
 1106SOL    HW2 4218   0.263   1.431   0.762
 1107SOL     OW 4219   0.841   0.789   0.347
 1107SOL    HW1 4220   0.862   0.878   0.305
 1107SOL    HW2 4221   0.834   0.720   0.276
 1108SOL     OW 4222   3.757   6.492   4.803
 1108SOL    HW1 4223   3.733   6.574   4.856
 1108SOL    HW2 4224   3.722   6.411   4.850
 1109SOL     OW 4225   5.822   1.323   4.293
 1109SOL    HW1 4226   5.771   1.409   4.295
 1109SOL    HW2 4227   5.889   1.326   4.218
 1110SOL     OW 4228   3.724   0.949   3.735
 1110SOL    HW1 4229   3.818   0.954   3.770
 1110SOL    HW2 4230   3.667   0.898   3.799
 1111SOL     OW 4231   5.567   4.404   6.350
 1111SOL    HW1 4232   5.597   4.493   6.385
 1111SOL    HW2 4233   5.579   4.335   6.422
 1112SOL     OW 4234   6.640   0.444   3.403
 1112SOL    HW1 4235   6.589   0.370   3.448
 1112SOL    HW2 4236   6.603   0.532   3.432
 1113SOL     OW 4237   6.351   4.553   1.342
 1113SOL    HW1 4238   6.400   4.494   1.278
 1113SOL    HW2 4239   6.257   4.520   1.353
 1114SOL     OW 4240   3.329   2.024   6.144
 1114SOL    HW1 4241   3.250   2.030   6.083
 1114SOL    HW2 4242   3.299   2.028   6.239
 1115SOL     OW 4243   4.271   4.058   5.331
 1115SOL    HW1 4244   4.274   4.010   5.419
 1115SOL    HW2 4245   4.364   4.074   5.298
 1116SOL     OW 4246   6.048   6.939   7.018
 1116SOL    HW1 4247   5.966   6.901   6.975
 1116SOL    HW2 4248   6.037   0.013   7.026
 1117SOL     OW 4249   0.880   1.913   1.443
 1117SOL    HW1 4250   0.975   1.940   1.461
 1117SOL    HW2 4251   0.868   1.817   1.468
 1118SOL     OW 4252   2.195   5.262   0.223
 1118SOL    HW1 4253   2.198   5.336   0.156
 1118SOL    HW2 4254   2.239   5.292   0.308
 1119SOL     OW 4255   4.325   4.536   1.910
 1119SOL    HW1 4256   4.249   4.559   1.848
 1119SOL    HW2 4257   4.355   4.442   1.892
 1120SOL     OW 4258   6.180   5.978   1.110
 1120SOL    HW1 4259   6.208   6.065   1.151
 1120SOL    HW2 4260   6.259   5.935   1.067
 1121SOL     OW 4261   0.186   4.354   5.101
 1121SOL    HW1 4262   0.221   4.443   5.072
 1121SOL    HW2 4263   0.097   4.338   5.058
 1122SOL     OW 4264   6.117   3.048   1.856
 1122SOL    HW1 4265   6.095   3.068   1.760
 1122SOL    HW2 4266   6.215   3.062   1.871
 1123SOL     OW 4267   4.714   2.143   3.988
 1123SOL    HW1 4268   4.633   2.100   3.950
 1123SOL    HW2 4269   4.762   2.078   4.048
 1124SOL     OW 4270   0.759   3.656   5.934
 1124SOL    HW1 4271   0.749   3.754   5.951
 1124SOL    HW2 4272   0.782   3.641   5.838
 1125SOL     OW 4273   1.731   2.921   4.097
 1125SOL    HW1 4274   1.788   2.968   4.164
 1125SOL    HW2 4275   1.743   2.823   4.106
 1126SOL     OW 4276   5.546   6.203   5.368
 1126SOL    HW1 4277   5.492   6.158   5.440
 1126SOL    HW2 4278   5.489   6.218   5.288
 1127SOL     OW 4279   5.873   6.586   4.697
 1127SOL    HW1 4280   5.941   6.631   4.754
 1127SOL    HW2 4281   5.868   6.632   4.608
 1128SOL     OW 4282   6.227   1.601   4.755
 1128SOL    HW1 4283   6.148   1.587   4.815
 1128SOL    HW2 4284   6.291   1.665   4.797
 1129SOL     OW 4285   1.722   6.479   0.626
 1129SOL    HW1 4286   1.660   6.445   0.697
 1129SOL    HW2 4287   1.816   6.452   0.648
 1130SOL     OW 4288   2.071   5.205   1.704
 1130SOL    HW1 4289   2.086   5.263   1.624
 1130SOL    HW2 4290   2.016   5.126   1.677
 1131SOL     OW 4291   1.621   0.309   5.026
 1131SOL    HW1 4292   1.536   0.326   4.975
 1131SOL    HW2 4293   1.685   0.258   4.968
 1132SOL     OW 4294   4.145   0.374   3.072
 1132SOL    HW1 4295   4.146   0.474   3.073
 1132SOL    HW2 4296   4.077   0.343   3.005
 1133SOL     OW 4297   0.565   0.806   0.396
 1133SOL    HW1 4298   0.664   0.796   0.390
 1133SOL    HW2 4299   0.528   0.833   0.307
 1134SOL     OW 4300   5.387   0.080   2.370
 1134SOL    HW1 4301   5.474   0.074   2.321
 1134SOL    HW2 4302   5.326   0.142   2.321
 1135SOL     OW 4303   2.365   6.787   3.789
 1135SOL    HW1 4304   2.463   6.768   3.778
 1135SOL    HW2 4305   2.350   6.885   3.783
 1136SOL     OW 4306   3.494   4.928   2.935
 1136SOL    HW1 4307   3.493   4.935   2.836
 1136SOL    HW2 4308   3.407   4.890   2.967
 1137SOL     OW 4309   0.823   5.786   6.727
 1137SOL    HW1 4310   0.888   5.844   6.678
 1137SOL    HW2 4311   0.751   5.842   6.767
 1138SOL     OW 4312   1.200   1.763   5.017
 1138SOL    HW1 4313   1.259   1.726   4.945
 1138SOL    HW2 4314   1.232   1.731   5.106
 1139SOL     OW 4315   2.527   4.817   3.850
 1139SOL    HW1 4316   2.436   4.774   3.855
 1139SOL    HW2 4317   2.595   4.747   3.828
 1140SOL     OW 4318   2.414   0.191   2.564
 1140SOL    HW1 4319   2.394   0.167   2.469
 1140SOL    HW2 4320   2.512   0.211   2.573
 1141SOL     OW 4321   6.691   5.605   6.700
 1141SOL    HW1 4322   6.777   5.557   6.717
 1141SOL    HW2 4323   6.641   5.616   6.786
 1142SOL     OW 4324   2.638   7.003   3.434
 1142SOL    HW1 4325   2.692   6.989   3.517
 1142SOL    HW2 4326   2.591   0.065   3.440
 1143SOL     OW 4327   1.392   3.224   2.701
 1143SOL    HW1 4328   1.397   3.157   2.775
 1143SOL    HW2 4329   1.481   3.266   2.688
 1144SOL     OW 4330   5.481   4.229   2.985
 1144SOL    HW1 4331   5.418   4.303   2.960
 1144SOL    HW2 4332   5.565   4.238   2.931
 1145SOL     OW 4333   1.374   2.569   0.460
 1145SOL    HW1 4334   1.374   2.655   0.511
 1145SOL    HW2 4335   1.310   2.505   0.501
 1146SOL     OW 4336   0.665   2.066   1.414
 1146SOL    HW1 4337   0.685   2.154   1.457
 1146SOL    HW2 4338   0.747   2.010   1.412
 1147SOL     OW 4339   2.657   5.680   0.761
 1147SOL    HW1 4340   2.690   5.592   0.793
 1147SOL    HW2 4341   2.726   5.722   0.701
 1148SOL     OW 4342   3.744   6.284   1.232
 1148SOL    HW1 4343   3.790   6.278   1.320
 1148SOL    HW2 4344   3.748   6.379   1.199
 1149SOL     OW 4345   5.419   2.850   1.499
 1149SOL    HW1 4346   5.319   2.855   1.495
 1149SOL    HW2 4347   5.455   2.816   1.412
 1150SOL     OW 4348   0.465   4.016   0.232
 1150SOL    HW1 4349   0.508   4.096   0.275
 1150SOL    HW2 4350   0.508   3.999   0.144
 1151SOL     OW 4351   6.189   4.598   4.762
 1151SOL    HW1 4352   6.247   4.677   4.783
 1151SOL    HW2 4353   6.119   4.587   4.832
 1152SOL     OW 4354   4.732   6.122   6.167
 1152SOL    HW1 4355   4.762   6.035   6.206
 1152SOL    HW2 4356   4.640   6.143   6.200
 1153SOL     OW 4357   6.788   6.905   1.494
 1153SOL    HW1 4358   6.807   6.937   1.587
 1153SOL    HW2 4359   6.786   6.805   1.493
 1154SOL     OW 4360   0.657   4.139   1.052
 1154SOL    HW1 4361   0.755   4.153   1.036
 1154SOL    HW2 4362   0.629   4.195   1.130
 1155SOL     OW 4363   2.636   6.095   5.601
 1155SOL    HW1 4364   2.599   6.148   5.678
 1155SOL    HW2 4365   2.736   6.101   5.601
 1156SOL     OW 4366   4.501   1.813   4.983
 1156SOL    HW1 4367   4.423   1.751   4.983
 1156SOL    HW2 4368   4.494   1.875   4.905
 1157SOL     OW 4369   5.006   0.988   5.825
 1157SOL    HW1 4370   4.963   0.934   5.897
 1157SOL    HW2 4371   5.083   0.937   5.786
 1158SOL     OW 4372   6.487   6.203   4.326
 1158SOL    HW1 4373   6.466   6.107   4.309
 1158SOL    HW2 4374   6.428   6.237   4.400
 1159SOL     OW 4375   5.784   6.680   3.055
 1159SOL    HW1 4376   5.857   6.747   3.069
 1159SOL    HW2 4377   5.706   6.725   3.013
 1160SOL     OW 4378   4.030   5.563   1.870
 1160SOL    HW1 4379   3.991   5.649   1.902
 1160SOL    HW2 4380   3.980   5.533   1.789
 1161SOL     OW 4381   0.264   5.465   6.517
 1161SOL    HW1 4382   0.332   5.492   6.448
 1161SOL    HW2 4383   0.309   5.449   6.604
 1162SOL     OW 4384   2.541   2.616   5.481
 1162SOL    HW1 4385   2.542   2.703   5.433
 1162SOL    HW2 4386   2.498   2.546   5.423
 1163SOL     OW 4387   6.080   4.585   1.732
 1163SOL    HW1 4388   6.170   4.588   1.689
 1163SOL    HW2 4389   6.046   4.678   1.745
 1164SOL     OW 4390   5.262   2.910   5.435
 1164SOL    HW1 4391   5.329   2.904   5.361
 1164SOL    HW2 4392   5.226   3.003   5.440
 1165SOL     OW 4393   4.233   5.874   3.175
 1165SOL    HW1 4394   4.175   5.953   3.157
 1165SOL    HW2 4395   4.329   5.899   3.160
 1166SOL     OW 4396   2.131   5.874   6.648
 1166SOL    HW1 4397   2.109   5.809   6.721
 1166SOL    HW2 4398   2.096   5.964   6.673
 1167SOL     OW 4399   4.841   5.088   1.085
 1167SOL    HW1 4400   4.797   5.065   1.172
 1167SOL    HW2 4401   4.833   5.186   1.069
 1168SOL     OW 4402   6.462   2.697   1.367
 1168SOL    HW1 4403   6.491   2.615   1.418
 1168SOL    HW2 4404   6.420   2.669   1.281
 1169SOL     OW 4405   5.441   2.060   5.114
 1169SOL    HW1 4406   5.473   1.988   5.175
 1169SOL    HW2 4407   5.468   2.149   5.150
 1170SOL     OW 4408   5.607   0.073   2.929
 1170SOL    HW1 4409   5.651   0.161   2.909
 1170SOL    HW2 4410   5.538   0.087   3.001
 1171SOL     OW 4411   2.326   6.899   0.193
 1171SOL    HW1 4412   2.376   6.870   0.111
 1171SOL    HW2 4413   2.390   6.943   0.256
 1172SOL     OW 4414   5.210   4.127   1.130
 1172SOL    HW1 4415   5.263   4.209   1.151
 1172SOL    HW2 4416   5.270   4.058   1.089
 1173SOL     OW 4417   2.893   1.273   1.496
 1173SOL    HW1 4418   2.991   1.284   1.509
 1173SOL    HW2 4419   2.870   1.282   1.399
 1174SOL     OW 4420   3.577   4.004   2.037
 1174SOL    HW1 4421   3.622   3.949   2.108
 1174SOL    HW2 4422   3.479   4.005   2.053
 1175SOL     OW 4423   4.850   3.550   6.119
 1175SOL    HW1 4424   4.753   3.555   6.099
 1175SOL    HW2 4425   4.870   3.600   6.203
 1176SOL     OW 4426   5.172   3.627   6.810
 1176SOL    HW1 4427   5.128   3.570   6.741
 1176SOL    HW2 4428   5.148   3.723   6.795
 1177SOL     OW 4429   6.891   3.757   5.127
 1177SOL    HW1 4430   6.796   3.740   5.149
 1177SOL    HW2 4431   6.901   3.767   5.028
 1178SOL     OW 4432   2.549   3.736   0.337
 1178SOL    HW1 4433   2.515   3.663   0.396
 1178SOL    HW2 4434   2.544   3.707   0.242
 1179SOL     OW 4435   2.471   5.828   0.339
 1179SOL    HW1 4436   2.392   5.833   0.279
 1179SOL    HW2 4437   2.547   5.879   0.299
 1180SOL     OW 4438   2.766   6.416   3.738
 1180SOL    HW1 4439   2.790   6.353   3.665
 1180SOL    HW2 4440   2.685   6.383   3.786
 1181SOL     OW 4441   0.244   5.273   6.097
 1181SOL    HW1 4442   0.175   5.295   6.166
 1181SOL    HW2 4443   0.326   5.327   6.114
 1182SOL     OW 4444   3.771   4.894   3.696
 1182SOL    HW1 4445   3.837   4.884   3.771
 1182SOL    HW2 4446   3.809   4.856   3.612
 1183SOL     OW 4447   2.155   3.800   6.776
 1183SOL    HW1 4448   2.208   3.755   6.848
 1183SOL    HW2 4449   2.141   3.896   6.800
 1184SOL     OW 4450   6.971   1.245   4.923
 1184SOL    HW1 4451   6.896   1.311   4.913
 1184SOL    HW2 4452   6.966   1.203   5.013
 1185SOL     OW 4453   0.610   1.750   0.831
 1185SOL    HW1 4454   0.671   1.822   0.864
 1185SOL    HW2 4455   0.625   1.667   0.883
 1186SOL     OW 4456   5.787   6.753   5.793
 1186SOL    HW1 4457   5.695   6.772   5.828
 1186SOL    HW2 4458   5.843   6.836   5.800
 1187SOL     OW 4459   6.229   6.718   6.898
 1187SOL    HW1 4460   6.186   6.679   6.979
 1187SOL    HW2 4461   6.327   6.729   6.913
 1188SOL     OW 4462   3.801   6.185   5.681
 1188SOL    HW1 4463   3.797   6.179   5.581
 1188SOL    HW2 4464   3.714   6.155   5.719
 1189SOL     OW 4465   6.270   2.478   1.727
 1189SOL    HW1 4466   6.349   2.536   1.745
 1189SOL    HW2 4467   6.297   2.405   1.664
 1190SOL     OW 4468   3.064   5.573   3.955
 1190SOL    HW1 4469   3.115   5.626   4.023
 1190SOL    HW2 4470   2.967   5.596   3.960
 1191SOL     OW 4471   4.603   5.181   3.884
 1191SOL    HW1 4472   4.657   5.098   3.888
 1191SOL    HW2 4473   4.551   5.183   3.799
 1192SOL     OW 4474   3.965   5.531   3.138
 1192SOL    HW1 4475   3.874   5.550   3.102
 1192SOL    HW2 4476   4.020   5.487   3.068
 1193SOL     OW 4477   6.346   3.331   5.279
 1193SOL    HW1 4478   6.348   3.235   5.249
 1193SOL    HW2 4479   6.417   3.347   5.347
 1194SOL     OW 4480   5.842   0.016   1.366
 1194SOL    HW1 4481   5.828   0.105   1.408
 1194SOL    HW2 4482   5.926   7.001   1.402
 1195SOL     OW 4483   0.005   4.211   0.611
 1195SOL    HW1 4484   6.968   4.195   0.535
 1195SOL    HW2 4485   6.979   4.234   0.693
 1196SOL     OW 4486   0.386   5.900   2.791
 1196SOL    HW1 4487   0.394   5.928   2.695
 1196SOL    HW2 4488   0.413   5.805   2.800
 1197SOL     OW 4489   4.618   0.754   5.128
 1197SOL    HW1 4490   4.634   0.673   5.185
 1197SOL    HW2 4491   4.602   0.833   5.187
 1198SOL     OW 4492   1.181   2.786   2.237
 1198SOL    HW1 4493   1.188   2.840   2.153
 1198SOL    HW2 4494   1.272   2.769   2.273
 1199SOL     OW 4495   3.962   4.087   1.550
 1199SOL    HW1 4496   4.055   4.082   1.586
 1199SOL    HW2 4497   3.915   4.000   1.567
 1200SOL     OW 4498   3.325   3.769   4.294
 1200SOL    HW1 4499   3.405   3.823   4.319
 1200SOL    HW2 4500   3.341   3.673   4.316
 1201SOL     OW 4501   0.852   0.975   4.116
 1201SOL    HW1 4502   0.931   0.923   4.149
 1201SOL    HW2 4503   0.774   0.959   4.176
 1202SOL     OW 4504   0.553   5.553   5.659
 1202SOL    HW1 4505   0.460   5.588   5.649
 1202SOL    HW2 4506   0.607   5.579   5.579
 1203SOL     OW 4507   6.144   5.961   6.855
 1203SOL    HW1 4508   6.057   5.911   6.858
 1203SOL    HW2 4509   6.199   5.936   6.935
 1204SOL     OW 4510   3.284   6.372   1.638
 1204SOL    HW1 4511   3.251   6.420   1.720
 1204SOL    HW2 4512   3.366   6.417   1.604
 1205SOL     OW 4513   4.672   3.639   1.285
 1205SOL    HW1 4514   4.626   3.555   1.255
 1205SOL    HW2 4515   4.608   3.694   1.338
 1206SOL     OW 4516   2.853   2.757   5.426
 1206SOL    HW1 4517   2.882   2.696   5.500
 1206SOL    HW2 4518   2.908   2.840   5.427
 1207SOL     OW 4519   2.040   6.259   1.146
 1207SOL    HW1 4520   2.003   6.334   1.091
 1207SOL    HW2 4521   2.136   6.244   1.122
 1208SOL     OW 4522   3.248   3.806   1.313
 1208SOL    HW1 4523   3.279   3.893   1.349
 1208SOL    HW2 4524   3.157   3.817   1.273
 1209SOL     OW 4525   4.827   1.249   4.622
 1209SOL    HW1 4526   4.882   1.165   4.633
 1209SOL    HW2 4527   4.888   1.328   4.618
 1210SOL     OW 4528   3.172   0.743   3.765
 1210SOL    HW1 4529   3.126   0.670   3.714
 1210SOL    HW2 4530   3.111   0.821   3.774
 1211SOL     OW 4531   1.086   3.872   1.786
 1211SOL    HW1 4532   1.016   3.843   1.851
 1211SOL    HW2 4533   1.069   3.828   1.698
 1212SOL     OW 4534   6.341   0.575   6.966
 1212SOL    HW1 4535   6.371   0.669   6.949
 1212SOL    HW2 4536   6.405   0.532   0.005
 1213SOL     OW 4537   6.863   1.864   0.392
 1213SOL    HW1 4538   6.771   1.876   0.355
 1213SOL    HW2 4539   6.881   1.933   0.461
 1214SOL     OW 4540   0.701   2.466   6.722
 1214SOL    HW1 4541   0.667   2.492   6.631
 1214SOL    HW2 4542   0.702   2.367   6.730
 1215SOL     OW 4543   1.002   4.640   3.724
 1215SOL    HW1 4544   1.099   4.661   3.737
 1215SOL    HW2 4545   0.992   4.554   3.674
 1216SOL     OW 4546   4.737   0.654   1.001
 1216SOL    HW1 4547   4.719   0.562   1.036
 1216SOL    HW2 4548   4.761   0.649   0.904
 1217SOL     OW 4549   2.301   4.759   0.161
 1217SOL    HW1 4550   2.222   4.699   0.148
 1217SOL    HW2 4551   2.271   4.849   0.190
 1218SOL     OW 4552   2.278   4.289   4.496
 1218SOL    HW1 4553   2.334   4.355   4.546
 1218SOL    HW2 4554   2.258   4.210   4.554
 1219SOL     OW 4555   5.808   6.103   1.566
 1219SOL    HW1 4556   5.754   6.175   1.610
 1219SOL    HW2 4557   5.865   6.057   1.634
 1220SOL     OW 4558   1.086   5.033   3.248
 1220SOL    HW1 4559   1.100   5.080   3.335
 1220SOL    HW2 4560   0.988   5.027   3.229
 1221SOL     OW 4561   5.992   3.850   5.969
 1221SOL    HW1 4562   5.893   3.860   5.971
 1221SOL    HW2 4563   6.018   3.787   5.896
 1222SOL     OW 4564   6.507   0.154   6.707
 1222SOL    HW1 4565   6.474   0.247   6.721
 1222SOL    HW2 4566   6.431   0.089   6.716
 1223SOL     OW 4567   3.924   0.488   0.997
 1223SOL    HW1 4568   3.892   0.521   1.085
 1223SOL    HW2 4569   3.857   0.509   0.926
 1224SOL     OW 4570   3.020   5.674   0.027
 1224SOL    HW1 4571   2.984   5.588   7.016
 1224SOL    HW2 4572   2.959   5.748   0.001
 1225SOL     OW 4573   3.612   3.498   6.846
 1225SOL    HW1 4574   3.618   3.595   6.820
 1225SOL    HW2 4575   3.517   3.469   6.847
 1226SOL     OW 4576   2.385   5.272   1.236
 1226SOL    HW1 4577   2.395   5.237   1.329
 1226SOL    HW2 4578   2.442   5.353   1.224
 1227SOL     OW 4579   6.480   4.045   0.187
 1227SOL    HW1 4580   6.485   4.145   0.188
 1227SOL    HW2 4581   6.399   4.015   0.238
 1228SOL     OW 4582   4.524   2.587   6.588
 1228SOL    HW1 4583   4.560   2.618   6.675
 1228SOL    HW2 4584   4.444   2.642   6.563
 1229SOL     OW 4585   3.800   5.366   6.198
 1229SOL    HW1 4586   3.876   5.381   6.262
 1229SOL    HW2 4587   3.833   5.375   6.104
 1230SOL     OW 4588   4.895   0.254   3.403
 1230SOL    HW1 4589   4.826   0.218   3.340
 1230SOL    HW2 4590   4.868   0.345   3.433
 1231SOL     OW 4591   1.530   3.339   4.316
 1231SOL    HW1 4592   1.615   3.391   4.307
 1231SOL    HW2 4593   1.550   3.253   4.364
 1232SOL     OW 4594   0.514   2.421   6.247
 1232SOL    HW1 4595   0.544   2.451   6.157
 1232SOL    HW2 4596   0.415   2.411   6.248
 1233SOL     OW 4597   1.153   3.525   4.071
 1233SOL    HW1 4598   1.089   3.463   4.024
 1233SOL    HW2 4599   1.148   3.615   4.028
 1234SOL     OW 4600   6.437   4.177   4.796
 1234SOL    HW1 4601   6.371   4.104   4.784
 1234SOL    HW2 4602   6.522   4.153   4.750
 1235SOL     OW 4603   6.946   5.566   2.208
 1235SOL    HW1 4604   7.011   5.638   2.184
 1235SOL    HW2 4605   6.896   5.593   2.290
 1236SOL     OW 4606   5.048   1.277   0.409
 1236SOL    HW1 4607   4.950   1.275   0.429
 1236SOL    HW2 4608   5.072   1.197   0.353
 1237SOL     OW 4609   2.232   4.962   5.678
 1237SOL    HW1 4610   2.300   4.889   5.667
 1237SOL    HW2 4611   2.166   4.934   5.748
 1238SOL     OW 4612   2.257   0.611   0.532
 1238SOL    HW1 4613   2.206   0.532   0.568
 1238SOL    HW2 4614   2.203   0.694   0.545
 1239SOL     OW 4615   6.878   6.831   6.344
 1239SOL    HW1 4616   6.912   6.750   6.297
 1239SOL    HW2 4617   6.783   6.848   6.315
 1240SOL     OW 4618   5.708   5.840   1.545
 1240SOL    HW1 4619   5.747   5.925   1.512
 1240SOL    HW2 4620   5.684   5.782   1.467
 1241SOL     OW 4621   6.285   4.230   3.999
 1241SOL    HW1 4622   6.250   4.245   4.091
 1241SOL    HW2 4623   6.336   4.144   3.997
 1242SOL     OW 4624   0.421   3.731   1.925
 1242SOL    HW1 4625   0.384   3.668   1.857
 1242SOL    HW2 4626   0.404   3.825   1.897
 1243SOL     OW 4627   0.563   6.611   5.133
 1243SOL    HW1 4628   0.650   6.633   5.090
 1243SOL    HW2 4629   0.578   6.546   5.207
 1244SOL     OW 4630   6.496   6.643   3.554
 1244SOL    HW1 4631   6.560   6.714   3.583
 1244SOL    HW2 4632   6.545   6.559   3.535
 1245SOL     OW 4633   5.152   4.064   6.437
 1245SOL    HW1 4634   5.138   4.153   6.479
 1245SOL    HW2 4635   5.128   4.068   6.340
 1246SOL     OW 4636   2.106   6.172   1.402
 1246SOL    HW1 4637   2.035   6.212   1.460
 1246SOL    HW2 4638   2.086   6.192   1.306
 1247SOL     OW 4639   2.895   0.185   6.493
 1247SOL    HW1 4640   2.843   0.131   6.560
 1247SOL    HW2 4641   2.981   0.138   6.472
 1248SOL     OW 4642   2.417   0.048   4.320
 1248SOL    HW1 4643   2.401   0.120   4.388
 1248SOL    HW2 4644   2.461   6.996   4.365
 1249SOL     OW 4645   5.862   2.270   2.034
 1249SOL    HW1 4646   5.831   2.254   1.940
 1249SOL    HW2 4647   5.938   2.335   2.033
 1250SOL     OW 4648   6.401   4.786   4.368
 1250SOL    HW1 4649   6.442   4.731   4.441
 1250SOL    HW2 4650   6.468   4.851   4.334
 1251SOL     OW 4651   2.813   6.659   4.266
 1251SOL    HW1 4652   2.791   6.631   4.172
 1251SOL    HW2 4653   2.889   6.604   4.300
 1252SOL     OW 4654   3.648   3.577   5.809
 1252SOL    HW1 4655   3.590   3.503   5.844
 1252SOL    HW2 4656   3.743   3.558   5.832
 1253SOL     OW 4657   3.478   5.122   1.501
 1253SOL    HW1 4658   3.412   5.107   1.575
 1253SOL    HW2 4659   3.474   5.218   1.472
 1254SOL     OW 4660   6.597   3.300   2.296
 1254SOL    HW1 4661   6.613   3.201   2.291
 1254SOL    HW2 4662   6.564   3.323   2.387
 1255SOL     OW 4663   6.505   1.874   4.552
 1255SOL    HW1 4664   6.572   1.909   4.487
 1255SOL    HW2 4665   6.493   1.776   4.538
 1256SOL     OW 4666   6.637   6.896   3.151
 1256SOL    HW1 4667   6.606   6.846   3.070
 1256SOL    HW2 4668   6.690   6.834   3.209
 1257SOL     OW 4669   6.208   6.839   3.824
 1257SOL    HW1 4670   6.155   6.792   3.753
 1257SOL    HW2 4671   6.292   6.787   3.842
 1258SOL     OW 4672   1.164   5.264   3.727
 1258SOL    HW1 4673   1.180   5.273   3.629
 1258SOL    HW2 4674   1.231   5.202   3.767
 1259SOL     OW 4675   3.518   2.048   4.385
 1259SOL    HW1 4676   3.571   2.105   4.448
 1259SOL    HW2 4677   3.421   2.070   4.394
 1260SOL     OW 4678   1.343   1.436   6.641
 1260SOL    HW1 4679   1.290   1.355   6.617
 1260SOL    HW2 4680   1.407   1.415   6.715
 1261SOL     OW 4681   0.047   5.784   6.401
 1261SOL    HW1 4682   0.136   5.816   6.366
 1261SOL    HW2 4683   0.028   5.830   6.488
 1262SOL     OW 4684   5.208   5.282   1.318
 1262SOL    HW1 4685   5.130   5.333   1.355
 1262SOL    HW2 4686   5.195   5.184   1.336
 1263SOL     OW 4687   0.392   0.971   2.484
 1263SOL    HW1 4688   0.375   0.894   2.546
 1263SOL    HW2 4689   0.336   0.959   2.402
 1264SOL     OW 4690   0.428   4.001   6.330
 1264SOL    HW1 4691   0.454   4.090   6.293
 1264SOL    HW2 4692   0.329   3.997   6.343
 1265SOL     OW 4693   6.313   5.277   4.479
 1265SOL    HW1 4694   6.361   5.193   4.501
 1265SOL    HW2 4695   6.272   5.315   4.562
 1266SOL     OW 4696   0.612   0.501   4.108
 1266SOL    HW1 4697   0.592   0.588   4.064
 1266SOL    HW2 4698   0.595   0.426   4.043
 1267SOL     OW 4699   4.746   1.175   1.681
 1267SOL    HW1 4700   4.744   1.083   1.722
 1267SOL    HW2 4701   4.783   1.169   1.589
 1268SOL     OW 4702   2.707   2.776   6.491
 1268SOL    HW1 4703   2.705   2.721   6.575
 1268SOL    HW2 4704   2.734   2.718   6.414
 1269SOL     OW 4705   5.768   2.817   3.724
 1269SOL    HW1 4706   5.697   2.781   3.663
 1269SOL    HW2 4707   5.727   2.887   3.783
 1270SOL     OW 4708   2.359   4.727   2.182
 1270SOL    HW1 4709   2.415   4.786   2.239
 1270SOL    HW2 4710   2.409   4.702   2.099
 1271SOL     OW 4711   3.460   1.279   2.028
 1271SOL    HW1 4712   3.405   1.277   1.944
 1271SOL    HW2 4713   3.460   1.188   2.070
 1272SOL     OW 4714   6.031   4.745   6.739
 1272SOL    HW1 4715   6.068   4.789   6.821
 1272SOL    HW2 4716   6.003   4.652   6.762
 1273SOL     OW 4717   1.408   3.633   5.285
 1273SOL    HW1 4718   1.385   3.556   5.344
 1273SOL    HW2 4719   1.381   3.612   5.191
 1274SOL     OW 4720   0.412   4.545   1.129
 1274SOL    HW1 4721   0.331   4.604   1.135
 1274SOL    HW2 4722   0.475   4.568   1.203
 1275SOL     OW 4723   3.273   0.637   3.426
 1275SOL    HW1 4724   3.329   0.608   3.505
 1275SOL    HW2 4725   3.268   0.736   3.424
 1276SOL     OW 4726   5.571   5.339   4.641
 1276SOL    HW1 4727   5.504   5.286   4.693
 1276SOL    HW2 4728   5.586   5.427   4.686
 1277SOL     OW 4729   1.604   5.096   0.391
 1277SOL    HW1 4730   1.583   5.049   0.306
 1277SOL    HW2 4731   1.577   5.192   0.384
 1278SOL     OW 4732   1.390   0.018   4.176
 1278SOL    HW1 4733   1.325   0.086   4.142
 1278SOL    HW2 4734   1.416   6.983   4.102
 1279SOL     OW 4735   2.401   4.373   5.861
 1279SOL    HW1 4736   2.485   4.355   5.809
 1279SOL    HW2 4737   2.322   4.340   5.809
 1280SOL     OW 4738   4.372   0.228   4.042
 1280SOL    HW1 4739   4.450   0.260   3.988
 1280SOL    HW2 4740   4.404   0.197   4.132
 1281SOL     OW 4741   2.818   5.809   3.761
 1281SOL    HW1 4742   2.900   5.807   3.703
 1281SOL    HW2 4743   2.757   5.881   3.728
 1282SOL     OW 4744   6.997   2.818   0.088
 1282SOL    HW1 4745   0.007   2.842   7.023
 1282SOL    HW2 4746   6.983   2.719   0.093
 1283SOL     OW 4747   6.394   3.796   5.872
 1283SOL    HW1 4748   6.445   3.780   5.788
 1283SOL    HW2 4749   6.337   3.717   5.893
 1284SOL     OW 4750   3.792   0.591   1.240
 1284SOL    HW1 4751   3.732   0.603   1.319
 1284SOL    HW2 4752   3.803   0.678   1.193
 1285SOL     OW 4753   4.425   1.224   5.125
 1285SOL    HW1 4754   4.411   1.221   5.224
 1285SOL    HW2 4755   4.498   1.290   5.105
 1286SOL     OW 4756   4.508   2.394   0.870
 1286SOL    HW1 4757   4.549   2.323   0.812
 1286SOL    HW2 4758   4.580   2.448   0.913
 1287SOL     OW 4759   5.036   4.771   5.065
 1287SOL    HW1 4760   5.061   4.776   4.968
 1287SOL    HW2 4761   4.961   4.835   5.084
 1288SOL     OW 4762   4.247   5.028   5.391
 1288SOL    HW1 4763   4.220   5.089   5.317
 1288SOL    HW2 4764   4.190   5.045   5.471
 1289SOL     OW 4765   0.222   0.761   1.992
 1289SOL    HW1 4766   0.177   0.706   2.063
 1289SOL    HW2 4767   0.196   0.857   2.004
 1290SOL     OW 4768   1.737   6.951   1.144
 1290SOL    HW1 4769   1.660   6.985   1.089
 1290SOL    HW2 4770   1.810   7.020   1.145
 1291SOL     OW 4771   6.655   4.939   4.523
 1291SOL    HW1 4772   6.642   4.938   4.424
 1291SOL    HW2 4773   6.732   4.879   4.547
 1292SOL     OW 4774   0.933   5.389   2.118
 1292SOL    HW1 4775   0.941   5.407   2.020
 1292SOL    HW2 4776   0.900   5.296   2.133
 1293SOL     OW 4777   2.678   2.048   0.345
 1293SOL    HW1 4778   2.636   2.032   0.434
 1293SOL    HW2 4779   2.645   1.980   0.280
 1294SOL     OW 4780   1.474   4.123   6.249
 1294SOL    HW1 4781   1.395   4.173   6.215
 1294SOL    HW2 4782   1.557   4.176   6.233
 1295SOL     OW 4783   0.530   3.583   1.377
 1295SOL    HW1 4784   0.583   3.627   1.450
 1295SOL    HW2 4785   0.537   3.638   1.293
 1296SOL     OW 4786   4.593   6.866   5.286
 1296SOL    HW1 4787   4.605   6.956   5.329
 1296SOL    HW2 4788   4.501   6.832   5.304
 1297SOL     OW 4789   1.047   6.309   1.673
 1297SOL    HW1 4790   1.034   6.311   1.574
 1297SOL    HW2 4791   1.038   6.402   1.709
 1298SOL     OW 4792   4.981   5.931   3.310
 1298SOL    HW1 4793   4.916   6.007   3.313
 1298SOL    HW2 4794   4.977   5.880   3.396
 1299SOL     OW 4795   2.084   2.542   3.933
 1299SOL    HW1 4796   2.135   2.522   3.850
 1299SOL    HW2 4797   1.987   2.522   3.919
 1300SOL     OW 4798   1.772   3.232   1.647
 1300SOL    HW1 4799   1.843   3.302   1.654
 1300SOL    HW2 4800   1.765   3.202   1.552
 1301SOL     OW 4801   0.948   6.639   2.015
 1301SOL    HW1 4802   0.924   6.643   2.112
 1301SOL    HW2 4803   0.912   6.720   1.969
 1302SOL     OW 4804   5.272   0.767   5.264
 1302SOL    HW1 4805   5.283   0.737   5.169
 1302SOL    HW2 4806   5.332   0.714   5.323
 1303SOL     OW 4807   4.124   0.753   2.033
 1303SOL    HW1 4808   4.060   0.771   2.108
 1303SOL    HW2 4809   4.210   0.718   2.071
 1304SOL     OW 4810   2.064   1.261   1.474
 1304SOL    HW1 4811   2.070   1.234   1.571
 1304SOL    HW2 4812   2.062   1.179   1.417
 1305SOL     OW 4813   5.909   4.220   6.327
 1305SOL    HW1 4814   5.864   4.133   6.345
 1305SOL    HW2 4815   5.887   4.250   6.235
 1306SOL     OW 4816   1.492   5.771   4.766
 1306SOL    HW1 4817   1.408   5.722   4.743
 1306SOL    HW2 4818   1.549   5.779   4.684
 1307SOL     OW 4819   2.096   3.491   4.091
 1307SOL    HW1 4820   2.085   3.589   4.107
 1307SOL    HW2 4821   2.118   3.446   4.177
 1308SOL     OW 4822   6.727   6.838   5.948
 1308SOL    HW1 4823   6.711   6.850   6.046
 1308SOL    HW2 4824   6.648   6.794   5.905
 1309SOL     OW 4825   5.244   4.750   5.480
 1309SOL    HW1 4826   5.270   4.726   5.386
 1309SOL    HW2 4827   5.257   4.849   5.493
 1310SOL     OW 4828   0.317   4.423   3.768
 1310SOL    HW1 4829   0.320   4.501   3.706
 1310SOL    HW2 4830   0.407   4.412   3.811
 1311SOL     OW 4831   6.491   5.885   6.309
 1311SOL    HW1 4832   6.578   5.835   6.315
 1311SOL    HW2 4833   6.440   5.872   6.395
 1312SOL     OW 4834   1.772   0.146   0.115
 1312SOL    HW1 4835   1.784   0.173   0.210
 1312SOL    HW2 4836   1.700   0.201   0.073
 1313SOL     OW 4837   6.750   5.173   2.590
 1313SOL    HW1 4838   6.657   5.161   2.555
 1313SOL    HW2 4839   6.763   5.114   2.670
 1314SOL     OW 4840   3.466   1.789   4.535
 1314SOL    HW1 4841   3.516   1.702   4.528
 1314SOL    HW2 4842   3.522   1.862   4.496
 1315SOL     OW 4843   6.806   0.812   3.721
 1315SOL    HW1 4844   6.845   0.755   3.649
 1315SOL    HW2 4845   6.838   0.906   3.711
 1316SOL     OW 4846   3.737   0.022   4.928
 1316SOL    HW1 4847   3.812   0.047   4.989
 1316SOL    HW2 4848   3.651   0.062   4.962
 1317SOL     OW 4849   1.580   4.130   5.166
 1317SOL    HW1 4850   1.495   4.164   5.206
 1317SOL    HW2 4851   1.626   4.068   5.230
 1318SOL     OW 4852   1.458   2.506   6.752
 1318SOL    HW1 4853   1.446   2.413   6.787
 1318SOL    HW2 4854   1.438   2.508   6.654
 1319SOL     OW 4855   0.347   5.605   6.969
 1319SOL    HW1 4856   0.446   5.613   6.982
 1319SOL    HW2 4857   0.328   5.521   6.918
 1320SOL     OW 4858   2.895   2.868   0.173
 1320SOL    HW1 4859   2.830   2.922   0.227
 1320SOL    HW2 4860   2.849   2.833   0.091
 1321SOL     OW 4861   4.663   2.427   6.395
 1321SOL    HW1 4862   4.596   2.487   6.439
 1321SOL    HW2 4863   4.683   2.350   6.455
 1322SOL     OW 4864   3.901   1.626   4.235
 1322SOL    HW1 4865   3.831   1.630   4.306
 1322SOL    HW2 4866   3.923   1.719   4.204
 1323SOL     OW 4867   3.414   6.221   0.494
 1323SOL    HW1 4868   3.431   6.167   0.576
 1323SOL    HW2 4869   3.394   6.159   0.418
 1324SOL     OW 4870   0.722   3.494   0.640
 1324SOL    HW1 4871   0.657   3.463   0.571
 1324SOL    HW2 4872   0.721   3.593   0.645
 1325SOL     OW 4873   3.981   6.183   5.035
 1325SOL    HW1 4874   3.926   6.250   5.086
 1325SOL    HW2 4875   4.066   6.166   5.085
 1326SOL     OW 4876   4.966   3.881   5.249
 1326SOL    HW1 4877   5.003   3.928   5.330
 1326SOL    HW2 4878   4.904   3.808   5.279
 1327SOL     OW 4879   0.713   6.575   1.139
 1327SOL    HW1 4880   0.654   6.609   1.212
 1327SOL    HW2 4881   0.792   6.635   1.130
 1328SOL     OW 4882   2.196   2.872   6.867
 1328SOL    HW1 4883   2.105   2.856   6.904
 1328SOL    HW2 4884   2.188   2.899   6.770
 1329SOL     OW 4885   6.916   2.310   2.835
 1329SOL    HW1 4886   6.955   2.236   2.890
 1329SOL    HW2 4887   6.885   2.275   2.747
 1330SOL     OW 4888   0.889   2.213   1.040
 1330SOL    HW1 4889   0.895   2.305   1.080
 1330SOL    HW2 4890   0.801   2.172   1.065
 1331SOL     OW 4891   4.625   2.694   2.763
 1331SOL    HW1 4892   4.636   2.697   2.862
 1331SOL    HW2 4893   4.669   2.774   2.722
 1332SOL     OW 4894   2.467   6.689   0.542
 1332SOL    HW1 4895   2.447   6.744   0.622
 1332SOL    HW2 4896   2.462   6.592   0.566
 1333SOL     OW 4897   2.891   3.517   3.348
 1333SOL    HW1 4898   2.958   3.448   3.373
 1333SOL    HW2 4899   2.799   3.482   3.364
 1334SOL     OW 4900   6.208   1.923   3.448
 1334SOL    HW1 4901   6.143   1.847   3.456
 1334SOL    HW2 4902   6.272   1.920   3.525
 1335SOL     OW 4903   2.049   2.064   1.930
 1335SOL    HW1 4904   1.964   2.102   1.892
 1335SOL    HW2 4905   2.115   2.137   1.945
 1336SOL     OW 4906   4.007   1.418   5.513
 1336SOL    HW1 4907   4.003   1.508   5.556
 1336SOL    HW2 4908   4.101   1.386   5.512
 1337SOL     OW 4909   6.767   1.620   3.027
 1337SOL    HW1 4910   6.862   1.625   3.057
 1337SOL    HW2 4911   6.764   1.613   2.927
 1338SOL     OW 4912   0.210   3.964   4.216
 1338SOL    HW1 4913   0.299   3.969   4.171
 1338SOL    HW2 4914   0.179   3.868   4.219
 1339SOL     OW 4915   6.723   0.770   0.100
 1339SOL    HW1 4916   6.638   0.743   0.145
 1339SOL    HW2 4917   6.775   0.689   0.076
 1340SOL     OW 4918   5.620   1.525   2.709
 1340SOL    HW1 4919   5.550   1.575   2.760
 1340SOL    HW2 4920   5.576   1.455   2.652
 1341SOL     OW 4921   4.009   6.261   0.262
 1341SOL    HW1 4922   3.985   6.350   0.299
 1341SOL    HW2 4923   3.990   6.259   0.164
 1342SOL     OW 4924   2.901   5.257   6.476
 1342SOL    HW1 4925   2.986   5.295   6.512
 1342SOL    HW2 4926   2.831   5.257   6.548
 1343SOL     OW 4927   5.301   5.309   2.763
 1343SOL    HW1 4928   5.213   5.332   2.805
 1343SOL    HW2 4929   5.343   5.233   2.813
 1344SOL     OW 4930   0.435   6.297   4.299
 1344SOL    HW1 4931   0.508   6.237   4.267
 1344SOL    HW2 4932   0.374   6.318   4.223
 1345SOL     OW 4933   0.598   4.867   2.054
 1345SOL    HW1 4934   0.692   4.870   2.090
 1345SOL    HW2 4935   0.572   4.959   2.023
 1346SOL     OW 4936   1.876   5.647   6.220
 1346SOL    HW1 4937   1.830   5.715   6.164
 1346SOL    HW2 4938   1.953   5.688   6.267
 1347SOL     OW 4939   0.946   6.823   6.888
 1347SOL    HW1 4940   1.031   6.834   6.835
 1347SOL    HW2 4941   0.919   6.727   6.888
 1348SOL     OW 4942   6.963   6.576   5.458
 1348SOL    HW1 4943   6.926   6.625   5.380
 1348SOL    HW2 4944   6.926   6.615   5.543
 1349SOL     OW 4945   5.246   2.455   4.437
 1349SOL    HW1 4946   5.255   2.535   4.496
 1349SOL    HW2 4947   5.227   2.374   4.493
 1350SOL     OW 4948   4.508   5.148   5.938
 1350SOL    HW1 4949   4.600   5.166   5.972
 1350SOL    HW2 4950   4.465   5.077   5.993
 1351SOL     OW 4951   5.939   2.654   4.245
 1351SOL    HW1 4952   5.839   2.655   4.254
 1351SOL    HW2 4953   5.976   2.744   4.268
 1352SOL     OW 4954   6.825   6.301   3.606
 1352SOL    HW1 4955   6.812   6.235   3.679
 1352SOL    HW2 4956   6.922   6.328   3.601
 1353SOL     OW 4957   1.255   1.885   0.362
 1353SOL    HW1 4958   1.174   1.908   0.308
 1353SOL    HW2 4959   1.228   1.829   0.440
 1354SOL     OW 4960   7.019   4.064   1.974
 1354SOL    HW1 4961   0.022   4.157   2.000
 1354SOL    HW2 4962   0.002   4.052   1.876
 1355SOL     OW 4963   5.858   3.466   4.241
 1355SOL    HW1 4964   5.832   3.500   4.331
 1355SOL    HW2 4965   5.806   3.515   4.171
 1356SOL     OW 4966   3.664   3.060   1.741
 1356SOL    HW1 4967   3.760   3.079   1.762
 1356SOL    HW2 4968   3.607   3.135   1.776
 1357SOL     OW 4969   0.115   4.431   6.345
 1357SOL    HW1 4970   0.126   4.487   6.263
 1357SOL    HW2 4971   0.044   4.362   6.329
 1358SOL     OW 4972   6.131   6.572   0.087
 1358SOL    HW1 4973   6.073   6.491   0.097
 1358SOL    HW2 4974   6.224   6.551   0.115
 1359SOL     OW 4975   6.124   4.764   2.195
 1359SOL    HW1 4976   6.183   4.730   2.269
 1359SOL    HW2 4977   6.030   4.738   2.212
 1360SOL     OW 4978   2.872   3.196   0.293
 1360SOL    HW1 4979   2.785   3.164   0.330
 1360SOL    HW2 4980   2.931   3.227   0.368
 1361SOL     OW 4981   6.742   4.400   4.543
 1361SOL    HW1 4982   6.836   4.430   4.552
 1361SOL    HW2 4983   6.701   4.392   4.634
 1362SOL     OW 4984   3.875   4.010   3.057
 1362SOL    HW1 4985   3.810   3.939   3.030
 1362SOL    HW2 4986   3.939   4.027   2.982
 1363SOL     OW 4987   0.362   5.494   4.353
 1363SOL    HW1 4988   0.354   5.455   4.445
 1363SOL    HW2 4989   0.324   5.586   4.352
 1364SOL     OW 4990   4.613   4.192   0.301
 1364SOL    HW1 4991   4.595   4.152   0.390
 1364SOL    HW2 4992   4.633   4.290   0.311
 1365SOL     OW 4993   0.720   4.327   6.594
 1365SOL    HW1 4994   0.738   4.340   6.496
 1365SOL    HW2 4995   0.806   4.304   6.641
 1366SOL     OW 4996   1.660   6.324   6.144
 1366SOL    HW1 4997   1.603   6.405   6.132
 1366SOL    HW2 4998   1.753   6.352   6.170
 1367SOL     OW 4999   2.011   0.649   2.262
 1367SOL    HW1 5000   2.000   0.687   2.170
 1367SOL    HW2 5001   1.984   0.553   2.262
 1368SOL     OW 5002   5.288   6.802   5.009
 1368SOL    HW1 5003   5.386   6.797   5.027
 1368SOL    HW2 5004   5.243   6.846   5.087
 1369SOL     OW 5005   2.016   6.357   3.290
 1369SOL    HW1 5006   1.990   6.425   3.359
 1369SOL    HW2 5007   1.998   6.265   3.326
 1370SOL     OW 5008   3.718   0.543   2.456
 1370SOL    HW1 5009   3.801   0.520   2.404
 1370SOL    HW2 5010   3.742   0.606   2.530
 1371SOL     OW 5011   4.554   1.264   4.566
 1371SOL    HW1 5012   4.638   1.230   4.608
 1371SOL    HW2 5013   4.530   1.205   4.488
 1372SOL     OW 5014   2.108   2.783   1.104
 1372SOL    HW1 5015   2.173   2.781   1.028
 1372SOL    HW2 5016   2.096   2.877   1.135
 1373SOL     OW 5017   6.560   4.465   0.695
 1373SOL    HW1 5018   6.590   4.379   0.736
 1373SOL    HW2 5019   6.509   4.445   0.611
 1374SOL     OW 5020   4.580   2.099   0.800
 1374SOL    HW1 5021   4.575   2.014   0.748
 1374SOL    HW2 5022   4.545   2.084   0.892
 1375SOL     OW 5023   6.972   5.171   6.128
 1375SOL    HW1 5024   6.901   5.199   6.194
 1375SOL    HW2 5025   7.001   5.250   6.075
 1376SOL     OW 5026   4.643   2.680   3.900
 1376SOL    HW1 5027   4.644   2.681   4.000
 1376SOL    HW2 5028   4.707   2.749   3.865
 1377SOL     OW 5029   0.295   4.297   6.494
 1377SOL    HW1 5030   0.364   4.252   6.438
 1377SOL    HW2 5031   0.232   4.348   6.435
 1378SOL     OW 5032   0.690   2.355   5.559
 1378SOL    HW1 5033   0.750   2.282   5.527
 1378SOL    HW2 5034   0.594   2.327   5.550
 1379SOL     OW 5035   3.396   6.397   2.809
 1379SOL    HW1 5036   3.423   6.333   2.881
 1379SOL    HW2 5037   3.393   6.349   2.721
 1380SOL     OW 5038   6.557   0.060   2.736
 1380SOL    HW1 5039   6.519   7.009   2.787
 1380SOL    HW2 5040   6.544   0.145   2.788
 1381SOL     OW 5041   5.024   2.663   0.074
 1381SOL    HW1 5042   5.058   2.631   7.012
 1381SOL    HW2 5043   5.084   2.631   0.147
 1382SOL     OW 5044   5.922   4.648   5.973
 1382SOL    HW1 5045   5.983   4.660   6.052
 1382SOL    HW2 5046   5.946   4.714   5.902
 1383SOL     OW 5047   0.757   1.472   0.341
 1383SOL    HW1 5048   0.820   1.466   0.418
 1383SOL    HW2 5049   0.807   1.463   0.255
 1384SOL     OW 5050   2.882   1.565   3.740
 1384SOL    HW1 5051   2.935   1.490   3.701
 1384SOL    HW2 5052   2.795   1.531   3.774
 1385SOL     OW 5053   6.425   2.663   3.137
 1385SOL    HW1 5054   6.522   2.684   3.147
 1385SOL    HW2 5055   6.414   2.565   3.119
 1386SOL     OW 5056   2.091   2.857   4.379
 1386SOL    HW1 5057   2.158   2.798   4.424
 1386SOL    HW2 5058   2.137   2.941   4.348
 1387SOL     OW 5059   3.540   0.218   4.455
 1387SOL    HW1 5060   3.468   0.207   4.524
 1387SOL    HW2 5061   3.508   0.279   4.382
 1388SOL     OW 5062   6.493   0.225   4.008
 1388SOL    HW1 5063   6.409   0.279   4.003
 1388SOL    HW2 5064   6.484   0.155   4.079
 1389SOL     OW 5065   6.980   0.139   4.239
 1389SOL    HW1 5066   6.908   0.123   4.171
 1389SOL    HW2 5067   6.973   0.233   4.273
 1390SOL     OW 5068   4.147   1.589   0.457
 1390SOL    HW1 5069   4.085   1.558   0.385
 1390SOL    HW2 5070   4.122   1.681   0.486
 1391SOL     OW 5071   6.281   0.980   5.844
 1391SOL    HW1 5072   6.254   0.930   5.927
 1391SOL    HW2 5073   6.231   0.944   5.765
 1392SOL     OW 5074   4.591   6.086   5.906
 1392SOL    HW1 5075   4.623   6.117   5.996
 1392SOL    HW2 5076   4.535   6.004   5.917
 1393SOL     OW 5077   6.600   1.710   6.668
 1393SOL    HW1 5078   6.642   1.621   6.651
 1393SOL    HW2 5079   6.580   1.719   6.765
 1394SOL     OW 5080   4.264   6.376   3.316
 1394SOL    HW1 5081   4.177   6.347   3.357
 1394SOL    HW2 5082   4.338   6.319   3.352
 1395SOL     OW 5083   0.889   4.381   3.164
 1395SOL    HW1 5084   0.893   4.409   3.068
 1395SOL    HW2 5085   0.795   4.389   3.197
 1396SOL     OW 5086   2.020   1.181   4.533
 1396SOL    HW1 5087   2.037   1.172   4.631
 1396SOL    HW2 5088   2.106   1.206   4.487
 1397SOL     OW 5089   0.314   5.435   4.883
 1397SOL    HW1 5090   0.279   5.528   4.892
 1397SOL    HW2 5091   0.394   5.424   4.943
 1398SOL     OW 5092   1.775   1.040   0.324
 1398SOL    HW1 5093   1.850   1.076   0.380
 1398SOL    HW2 5094   1.731   1.115   0.275
 1399SOL     OW 5095   3.973   6.808   0.704
 1399SOL    HW1 5096   4.004   6.809   0.609
 1399SOL    HW2 5097   3.876   6.782   0.707
 1400SOL     OW 5098   6.964   0.399   4.357
 1400SOL    HW1 5099   6.924   0.365   4.441
 1400SOL    HW2 5100   6.907   0.474   4.321
 1401SOL     OW 5101   5.463   0.411   4.314
 1401SOL    HW1 5102   5.503   0.487   4.263
 1401SOL    HW2 5103   5.522   0.387   4.391
 1402SOL     OW 5104   5.564   3.981   1.520
 1402SOL    HW1 5105   5.571   3.959   1.617
 1402SOL    HW2 5106   5.472   3.959   1.488
 1403SOL     OW 5107   3.723   3.617   0.075
 1403SOL    HW1 5108   3.786   3.666   0.015
 1403SOL    HW2 5109   3.775   3.559   0.138
 1404SOL     OW 5110   4.949   0.230   1.259
 1404SOL    HW1 5111   4.852   0.206   1.262
 1404SOL    HW2 5112   4.959   0.329   1.247
 1405SOL     OW 5113   2.121   3.567   1.024
 1405SOL    HW1 5114   2.161   3.563   1.116
 1405SOL    HW2 5115   2.090   3.661   1.005
 1406SOL     OW 5116   2.212   3.293   1.374
 1406SOL    HW1 5117   2.134   3.244   1.413
 1406SOL    HW2 5118   2.285   3.299   1.442
 1407SOL     OW 5119   0.956   3.487   1.868
 1407SOL    HW1 5120   0.987   3.506   1.961
 1407SOL    HW2 5121   1.023   3.520   1.803
 1408SOL     OW 5122   5.798   6.028   6.560
 1408SOL    HW1 5123   5.730   6.102   6.556
 1408SOL    HW2 5124   5.761   5.947   6.514
 1409SOL     OW 5125   6.980   0.867   5.829
 1409SOL    HW1 5126   0.028   0.900   5.888
 1409SOL    HW2 5127   7.019   0.819   5.751
 1410SOL     OW 5128   2.646   2.740   6.013
 1410SOL    HW1 5129   2.643   2.806   5.938
 1410SOL    HW2 5130   2.563   2.685   6.012
 1411SOL     OW 5131   4.150   5.696   0.406
 1411SOL    HW1 5132   4.232   5.675   0.353
 1411SOL    HW2 5133   4.121   5.790   0.387
 1412SOL     OW 5134   1.758   2.796   0.559
 1412SOL    HW1 5135   1.716   2.723   0.613
 1412SOL    HW2 5136   1.701   2.878   0.564
 1413SOL     OW 5137   2.183   1.602   5.095
 1413SOL    HW1 5138   2.187   1.514   5.047
 1413SOL    HW2 5139   2.116   1.596   5.169
 1414SOL     OW 5140   0.844   3.829   2.636
 1414SOL    HW1 5141   0.853   3.789   2.545
 1414SOL    HW2 5142   0.775   3.778   2.688
 1415SOL     OW 5143   2.460   2.279   4.216
 1415SOL    HW1 5144   2.426   2.214   4.283
 1415SOL    HW2 5145   2.405   2.274   4.133
 1416SOL     OW 5146   4.155   0.016   6.008
 1416SOL    HW1 5147   4.118   0.106   5.983
 1416SOL    HW2 5148   4.099   6.970   5.964
 1417SOL     OW 5149   2.945   2.966   6.454
 1417SOL    HW1 5150   2.966   2.892   6.391
 1417SOL    HW2 5151   2.865   2.942   6.509
 1418SOL     OW 5152   3.453   3.669   0.077
 1418SOL    HW1 5153   3.439   3.759   0.118
 1418SOL    HW2 5154   3.550   3.650   0.069
 1419SOL     OW 5155   1.931   4.911   3.689
 1419SOL    HW1 5156   1.961   5.002   3.661
 1419SOL    HW2 5157   1.967   4.891   3.781
 1420SOL     OW 5158   3.914   5.272   2.394
 1420SOL    HW1 5159   3.827   5.305   2.357
 1420SOL    HW2 5160   3.948   5.197   2.337
 1421SOL     OW 5161   0.781   4.962   5.317
 1421SOL    HW1 5162   0.816   4.871   5.297
 1421SOL    HW2 5163   0.799   4.985   5.413
 1422SOL     OW 5164   2.754   3.948   5.992
 1422SOL    HW1 5165   2.768   3.945   5.893
 1422SOL    HW2 5166   2.841   3.964   6.038
 1423SOL     OW 5167   3.988   1.136   5.018
 1423SOL    HW1 5168   4.053   1.206   4.988
 1423SOL    HW2 5169   3.928   1.112   4.941
 1424SOL     OW 5170   5.914   2.820   6.741
 1424SOL    HW1 5171   5.820   2.806   6.774
 1424SOL    HW2 5172   5.938   2.745   6.679
 1425SOL     OW 5173   3.542   6.086   4.395
 1425SOL    HW1 5174   3.500   6.083   4.305
 1425SOL    HW2 5175   3.572   5.994   4.421
 1426SOL     OW 5176   2.187   1.758   6.284
 1426SOL    HW1 5177   2.190   1.675   6.228
 1426SOL    HW2 5178   2.266   1.816   6.262
 1427SOL     OW 5179   1.129   1.272   3.237
 1427SOL    HW1 5180   1.165   1.339   3.302
 1427SOL    HW2 5181   1.072   1.319   3.169
 1428SOL     OW 5182   7.009   2.943   2.842
 1428SOL    HW1 5183   6.995   2.916   2.747
 1428SOL    HW2 5184   0.081   2.945   2.863
 1429SOL     OW 5185   6.158   1.793   0.616
 1429SOL    HW1 5186   6.172   1.728   0.542
 1429SOL    HW2 5187   6.066   1.783   0.653
 1430SOL     OW 5188   2.099   4.135   3.758
 1430SOL    HW1 5189   2.119   4.081   3.840
 1430SOL    HW2 5190   2.183   4.148   3.705
 1431SOL     OW 5191   2.554   1.204   6.052
 1431SOL    HW1 5192   2.458   1.190   6.078
 1431SOL    HW2 5193   2.579   1.299   6.070
 1432SOL     OW 5194   2.278   1.312   1.011
 1432SOL    HW1 5195   2.223   1.362   1.077
 1432SOL    HW2 5196   2.264   1.351   0.920
 1433SOL     OW 5197   2.888   0.439   4.392
 1433SOL    HW1 5198   2.846   0.348   4.390
 1433SOL    HW2 5199   2.818   0.507   4.413
 1434SOL     OW 5200   6.889   2.730   6.435
 1434SOL    HW1 5201   6.955   2.762   6.503
 1434SOL    HW2 5202   6.801   2.712   6.479
 1435SOL     OW 5203   0.120   0.122   3.627
 1435SOL    HW1 5204   0.194   0.157   3.569
 1435SOL    HW2 5205   0.084   0.197   3.684
 1436SOL     OW 5206   5.861   2.537   0.869
 1436SOL    HW1 5207   5.843   2.445   0.833
 1436SOL    HW2 5208   5.921   2.531   0.948
 1437SOL     OW 5209   4.461   1.531   6.358
 1437SOL    HW1 5210   4.407   1.558   6.437
 1437SOL    HW2 5211   4.491   1.436   6.370
 1438SOL     OW 5212   2.736   0.805   1.816
 1438SOL    HW1 5213   2.810   0.770   1.873
 1438SOL    HW2 5214   2.775   0.855   1.738
 1439SOL     OW 5215   6.941   5.528   6.873
 1439SOL    HW1 5216   6.920   5.431   6.867
 1439SOL    HW2 5217   6.987   5.558   6.789
 1440SOL     OW 5218   3.721   2.938   3.646
 1440SOL    HW1 5219   3.766   2.946   3.735
 1440SOL    HW2 5220   3.778   2.979   3.575
 1441SOL     OW 5221   6.876   2.986   4.371
 1441SOL    HW1 5222   6.818   2.946   4.299
 1441SOL    HW2 5223   6.819   3.012   4.449
 1442SOL     OW 5224   4.907   4.576   0.382
 1442SOL    HW1 5225   4.852   4.600   0.303
 1442SOL    HW2 5226   5.000   4.610   0.370
 1443SOL     OW 5227   0.660   1.373   3.641
 1443SOL    HW1 5228   0.739   1.401   3.587
 1443SOL    HW2 5229   0.576   1.406   3.597
 1444SOL     OW 5230   4.441   0.293   3.409
 1444SOL    HW1 5231   4.492   0.300   3.495
 1444SOL    HW2 5232   4.498   0.250   3.339
 1445SOL     OW 5233   0.240   2.481   1.366
 1445SOL    HW1 5234   0.203   2.555   1.422
 1445SOL    HW2 5235   0.335   2.501   1.342
 1446SOL     OW 5236   4.241   1.927   1.565
 1446SOL    HW1 5237   4.305   1.961   1.634
 1446SOL    HW2 5238   4.162   1.988   1.560
 1447SOL     OW 5239   6.666   1.023   5.344
 1447SOL    HW1 5240   6.581   0.998   5.391
 1447SOL    HW2 5241   6.673   1.122   5.339
 1448SOL     OW 5242   5.242   1.309   0.068
 1448SOL    HW1 5243   5.309   1.383   0.067
 1448SOL    HW2 5244   5.216   1.287   6.999
 1449SOL     OW 5245   4.915   6.573   0.694
 1449SOL    HW1 5246   4.904   6.485   0.740
 1449SOL    HW2 5247   4.981   6.564   0.620
 1450SOL     OW 5248   5.692   3.055   2.235
 1450SOL    HW1 5249   5.745   3.091   2.157
 1450SOL    HW2 5250   5.742   2.979   2.276
 1451SOL     OW 5251   1.869   6.705   2.960
 1451SOL    HW1 5252   1.949   6.758   2.987
 1451SOL    HW2 5253   1.827   6.746   2.879
 1452SOL     OW 5254   5.371   0.712   4.988
 1452SOL    HW1 5255   5.277   0.687   4.966
 1452SOL    HW2 5256   5.429   0.630   4.983
 1453SOL     OW 5257   5.124   4.165   4.876
 1453SOL    HW1 5258   5.106   4.239   4.941
 1453SOL    HW2 5259   5.219   4.171   4.845
 1454SOL     OW 5260   5.135   2.906   1.539
 1454SOL    HW1 5261   5.121   2.838   1.610
 1454SOL    HW2 5262   5.046   2.941   1.508
 1455SOL     OW 5263   1.074   0.827   1.774
 1455SOL    HW1 5264   1.106   0.914   1.810
 1455SOL    HW2 5265   1.072   0.759   1.848
 1456SOL     OW 5266   0.018   0.073   4.559
 1456SOL    HW1 5267   7.020   0.003   4.491
 1456SOL    HW2 5268   0.111   0.104   4.544
 1457SOL     OW 5269   1.548   0.585   3.895
 1457SOL    HW1 5270   1.487   0.514   3.860
 1457SOL    HW2 5271   1.530   0.671   3.847
 1458SOL     OW 5272   5.129   6.933   5.940
 1458SOL    HW1 5273   5.060   6.877   5.894
 1458SOL    HW2 5274   5.109   6.937   6.038
 1459SOL     OW 5275   2.749   6.041   6.731
 1459SOL    HW1 5276   2.744   5.943   6.751
 1459SOL    HW2 5277   2.816   6.057   6.658
 1460SOL     OW 5278   1.141   6.533   6.881
 1460SOL    HW1 5279   1.211   6.514   6.813
 1460SOL    HW2 5280   1.175   6.511   6.973
 1461SOL     OW 5281   5.821   4.514   3.080
 1461SOL    HW1 5282   5.750   4.451   3.111
 1461SOL    HW2 5283   5.904   4.500   3.133
 1462SOL     OW 5284   6.269   0.955   1.015
 1462SOL    HW1 5285   6.269   0.876   1.075
 1462SOL    HW2 5286   6.261   1.039   1.069
 1463SOL     OW 5287   0.902   0.425   5.110
 1463SOL    HW1 5288   0.865   0.395   5.198
 1463SOL    HW2 5289   1.002   0.422   5.113
 1464SOL     OW 5290   0.119   6.561   0.555
 1464SOL    HW1 5291   0.204   6.610   0.575
 1464SOL    HW2 5292   0.093   6.577   0.460
 1465SOL     OW 5293   0.381   0.241   3.803
 1465SOL    HW1 5294   0.306   0.307   3.803
 1465SOL    HW2 5295   0.355   0.161   3.857
 1466SOL     OW 5296   6.393   5.758   2.342
 1466SOL    HW1 5297   6.353   5.798   2.259
 1466SOL    HW2 5298   6.321   5.747   2.411
 1467SOL     OW 5299   1.240   1.364   3.497
 1467SOL    HW1 5300   1.260   1.311   3.579
 1467SOL    HW2 5301   1.325   1.400   3.459
 1468SOL     OW 5302   5.556   5.632   3.799
 1468SOL    HW1 5303   5.625   5.577   3.845
 1468SOL    HW2 5304   5.561   5.617   3.700
 1469SOL     OW 5305   0.485   0.361   2.640
 1469SOL    HW1 5306   0.513   0.400   2.727
 1469SOL    HW2 5307   0.397   0.314   2.651
 1470SOL     OW 5308   1.222   1.006   3.154
 1470SOL    HW1 5309   1.174   1.085   3.193
 1470SOL    HW2 5310   1.297   0.980   3.215
 1471SOL     OW 5311   0.222   0.495   0.466
 1471SOL    HW1 5312   0.173   0.483   0.553
 1471SOL    HW2 5313   0.165   0.548   0.403
 1472SOL     OW 5314   4.815   0.384   5.712
 1472SOL    HW1 5315   4.830   0.432   5.799
 1472SOL    HW2 5316   4.872   0.425   5.641
 1473SOL     OW 5317   6.297   5.737   2.815
 1473SOL    HW1 5318   6.241   5.679   2.874
 1473SOL    HW2 5319   6.274   5.833   2.830
 1474SOL     OW 5320   6.038   5.485   4.495
 1474SOL    HW1 5321   5.998   5.400   4.530
 1474SOL    HW2 5322   6.086   5.466   4.410
 1475SOL     OW 5323   6.776   0.336   2.708
 1475SOL    HW1 5324   6.721   0.308   2.786
 1475SOL    HW2 5325   6.866   0.366   2.740
 1476SOL     OW 5326   1.506   1.383   2.194
 1476SOL    HW1 5327   1.540   1.368   2.287
 1476SOL    HW2 5328   1.581   1.370   2.129
 1477SOL     OW 5329   3.153   0.056   4.993
 1477SOL    HW1 5330   3.170   0.106   5.078
 1477SOL    HW2 5331   3.101   6.999   5.013
 1478SOL     OW 5332   6.380   5.258   1.030
 1478SOL    HW1 5333   6.346   5.279   0.938
 1478SOL    HW2 5334   6.477   5.234   1.024
 1479SOL     OW 5335   1.843   4.427   0.441
 1479SOL    HW1 5336   1.748   4.458   0.447
 1479SOL    HW2 5337   1.902   4.492   0.488
 1480SOL     OW 5338   1.934   0.931   6.793
 1480SOL    HW1 5339   1.909   0.943   6.696
 1480SOL    HW2 5340   1.913   0.837   6.821
 1481SOL     OW 5341   6.075   2.104   5.755
 1481SOL    HW1 5342   5.981   2.117   5.785
 1481SOL    HW2 5343   6.137   2.153   5.818
 1482SOL     OW 5344   5.341   0.810   0.608
 1482SOL    HW1 5345   5.252   0.818   0.563
 1482SOL    HW2 5346   5.382   0.901   0.616
 1483SOL     OW 5347   6.591   2.863   0.181
 1483SOL    HW1 5348   6.632   2.774   0.162
 1483SOL    HW2 5349   6.662   2.933   0.183
 1484SOL     OW 5350   6.671   4.598   2.469
 1484SOL    HW1 5351   6.638   4.524   2.410
 1484SOL    HW2 5352   6.771   4.605   2.461
 1485SOL     OW 5353   5.352   3.099   3.039
 1485SOL    HW1 5354   5.385   3.187   3.005
 1485SOL    HW2 5355   5.255   3.106   3.062
 1486SOL     OW 5356   4.982   2.570   3.097
 1486SOL    HW1 5357   5.043   2.593   3.021
 1486SOL    HW2 5358   4.892   2.545   3.061
 1487SOL     OW 5359   5.587   1.214   6.139
 1487SOL    HW1 5360   5.580   1.310   6.167
 1487SOL    HW2 5361   5.527   1.198   6.060
 1488SOL     OW 5362   4.907   0.627   2.956
 1488SOL    HW1 5363   4.991   0.636   3.009
 1488SOL    HW2 5364   4.830   0.608   3.018
 1489SOL     OW 5365   4.035   4.857   4.703
 1489SOL    HW1 5366   4.113   4.919   4.694
 1489SOL    HW2 5367   3.976   4.865   4.622
 1490SOL     OW 5368   0.991   1.312   0.438
 1490SOL    HW1 5369   0.989   1.322   0.339
 1490SOL    HW2 5370   1.076   1.267   0.466
 1491SOL     OW 5371   7.020   3.630   3.554
 1491SOL    HW1 5372   0.034   3.705   3.501
 1491SOL    HW2 5373   0.051   3.549   3.545
 1492SOL     OW 5374   5.090   2.115   1.377
 1492SOL    HW1 5375   5.190   2.111   1.369
 1492SOL    HW2 5376   5.064   2.106   1.473
 1493SOL     OW 5377   4.282   0.321   5.193
 1493SOL    HW1 5378   4.287   0.397   5.129
 1493SOL    HW2 5379   4.282   0.235   5.143
 1494SOL     OW 5380   3.834   2.465   6.093
 1494SOL    HW1 5381   3.747   2.445   6.138
 1494SOL    HW2 5382   3.823   2.544   6.032
 1495SOL     OW 5383   0.517   3.392   3.103
 1495SOL    HW1 5384   0.504   3.479   3.151
 1495SOL    HW2 5385   0.533   3.319   3.169
 1496SOL     OW 5386   6.397   0.267   2.391
 1496SOL    HW1 5387   6.377   0.319   2.474
 1496SOL    HW2 5388   6.464   0.316   2.336
 1497SOL     OW 5389   6.857   5.392   4.162
 1497SOL    HW1 5390   6.893   5.431   4.077
 1497SOL    HW2 5391   6.905   5.307   4.183
 1498SOL     OW 5392   2.202   4.688   6.361
 1498SOL    HW1 5393   2.297   4.656   6.361
 1498SOL    HW2 5394   2.199   4.783   6.328
 1499SOL     OW 5395   0.884   3.420   4.960
 1499SOL    HW1 5396   0.892   3.343   5.024
 1499SOL    HW2 5397   0.817   3.486   4.994
 1500SOL     OW 5398   5.513   0.157   0.400
 1500SOL    HW1 5399   5.522   0.194   0.307
 1500SOL    HW2 5400   5.492   0.231   0.463
 1501SOL     OW 5401   4.304   0.091   6.575
 1501SOL    HW1 5402   4.232   0.150   6.611
 1501SOL    HW2 5403   4.342   0.035   6.649
 1502SOL     OW 5404   6.394   6.586   0.162
 1502SOL    HW1 5405   6.432   6.531   0.237
 1502SOL    HW2 5406   6.460   6.589   0.087
 1503SOL     OW 5407   2.317   2.732   0.251
 1503SOL    HW1 5408   2.252   2.691   0.187
 1503SOL    HW2 5409   2.397   2.765   0.201
 1504SOL     OW 5410   3.014   6.877   4.463
 1504SOL    HW1 5411   3.009   6.818   4.382
 1504SOL    HW2 5412   3.099   6.929   4.462
 1505SOL     OW 5413   5.592   6.864   5.411
 1505SOL    HW1 5414   5.558   6.807   5.336
 1505SOL    HW2 5415   5.669   6.818   5.456
 1506SOL     OW 5416   0.936   5.331   3.524
 1506SOL    HW1 5417   0.882   5.386   3.459
 1506SOL    HW2 5418   0.895   5.336   3.615
 1507SOL     OW 5419   1.825   1.983   5.058
 1507SOL    HW1 5420   1.820   1.959   4.961
 1507SOL    HW2 5421   1.912   2.029   5.076
 1508SOL     OW 5422   4.233   6.918   0.794
 1508SOL    HW1 5423   4.148   6.894   0.747
 1508SOL    HW2 5424   4.244   7.018   0.791
 1509SOL     OW 5425   4.634   3.285   6.195
 1509SOL    HW1 5426   4.733   3.274   6.187
 1509SOL    HW2 5427   4.590   3.195   6.188
 1510SOL     OW 5428   0.130   2.351   4.356
 1510SOL    HW1 5429   0.190   2.390   4.426
 1510SOL    HW2 5430   0.036   2.352   4.390
 1511SOL     OW 5431   2.762   1.694   6.879
 1511SOL    HW1 5432   2.788   1.681   6.783
 1511SOL    HW2 5433   2.829   1.649   6.937
 1512SOL     OW 5434   7.022   0.305   1.505
 1512SOL    HW1 5435   6.970   0.379   1.548
 1512SOL    HW2 5436   0.088   0.336   1.484
 1513SOL     OW 5437   3.583   0.109   3.907
 1513SOL    HW1 5438   3.580   0.184   3.972
 1513SOL    HW2 5439   3.578   0.145   3.814
 1514SOL     OW 5440   5.903   1.729   5.302
 1514SOL    HW1 5441   5.843   1.769   5.371
 1514SOL    HW2 5442   5.990   1.704   5.344
 1515SOL     OW 5443   0.477   4.305   5.389
 1515SOL    HW1 5444   0.574   4.323   5.409
 1515SOL    HW2 5445   0.468   4.279   5.293
 1516SOL     OW 5446   0.797   1.938   0.927
 1516SOL    HW1 5447   0.788   1.912   1.023
 1516SOL    HW2 5448   0.733   2.012   0.906
 1517SOL     OW 5449   4.043   5.554   3.732
 1517SOL    HW1 5450   3.958   5.563   3.784
 1517SOL    HW2 5451   4.023   5.562   3.635
 1518SOL     OW 5452   6.714   4.358   0.287
 1518SOL    HW1 5453   6.617   4.337   0.280
 1518SOL    HW2 5454   6.753   4.309   0.365
 1519SOL     OW 5455   6.691   4.829   0.877
 1519SOL    HW1 5456   6.788   4.810   0.870
 1519SOL    HW2 5457   6.664   4.832   0.973
 1520SOL     OW 5458   2.122   3.382   2.550
 1520SOL    HW1 5459   2.072   3.384   2.464
 1520SOL    HW2 5460   2.190   3.310   2.548
 1521SOL     OW 5461   1.313   3.244   6.921
 1521SOL    HW1 5462   1.396   3.292   6.893
 1521SOL    HW2 5463   1.338   3.164   6.976
 1522SOL     OW 5464   6.580   1.984   6.536
 1522SOL    HW1 5465   6.595   1.891   6.570
 1522SOL    HW2 5466   6.581   1.984   6.436
 1523SOL     OW 5467   6.176   2.852   0.670
 1523SOL    HW1 5468   6.251   2.798   0.634
 1523SOL    HW2 5469   6.125   2.894   0.595
 1524SOL     OW 5470   0.155   1.620   1.558
 1524SOL    HW1 5471   0.236   1.669   1.592
 1524SOL    HW2 5472   0.076   1.642   1.615
 1525SOL     OW 5473   4.067   1.674   5.889
 1525SOL    HW1 5474   4.051   1.575   5.890
 1525SOL    HW2 5475   4.018   1.715   5.812
 1526SOL     OW 5476   0.170   1.738   1.301
 1526SOL    HW1 5477   0.131   1.697   1.384
 1526SOL    HW2 5478   0.099   1.790   1.253
 1527SOL     OW 5479   3.483   1.455   5.065
 1527SOL    HW1 5480   3.548   1.380   5.051
 1527SOL    HW2 5481   3.504   1.530   5.003
 1528SOL     OW 5482   4.693   6.301   2.642
 1528SOL    HW1 5483   4.735   6.261   2.560
 1528SOL    HW2 5484   4.761   6.304   2.715
 1529SOL     OW 5485   4.013   0.835   5.988
 1529SOL    HW1 5486   4.012   0.809   5.891
 1529SOL    HW2 5487   3.928   0.807   6.031
 1530SOL     OW 5488   2.977   6.616   2.104
 1530SOL    HW1 5489   2.927   6.690   2.060
 1530SOL    HW2 5490   3.004   6.643   2.196
 1531SOL     OW 5491   6.735   0.332   3.943
 1531SOL    HW1 5492   6.810   0.268   3.926
 1531SOL    HW2 5493   6.652   0.281   3.965
 1532SOL     OW 5494   3.280   2.121   5.258
 1532SOL    HW1 5495   3.247   2.203   5.212
 1532SOL    HW2 5496   3.229   2.109   5.343
 1533SOL     OW 5497   6.669   3.711   0.115
 1533SOL    HW1 5498   6.603   3.657   0.062
 1533SOL    HW2 5499   6.643   3.807   0.112
 1534SOL     OW 5500   1.290   5.862   0.351
 1534SOL    HW1 5501   1.328   5.954   0.347
 1534SOL    HW2 5502   1.349   5.804   0.407
 1535SOL     OW 5503   5.453   4.700   4.390
 1535SOL    HW1 5504   5.521   4.629   4.372
 1535SOL    HW2 5505   5.499   4.787   4.410
 1536SOL     OW 5506   2.290   5.756   4.430
 1536SOL    HW1 5507   2.310   5.751   4.332
 1536SOL    HW2 5508   2.373   5.737   4.482
 1537SOL     OW 5509   2.490   5.891   3.909
 1537SOL    HW1 5510   2.479   5.792   3.910
 1537SOL    HW2 5511   2.486   5.924   3.815
 1538SOL     OW 5512   2.382   4.652   6.720
 1538SOL    HW1 5513   2.403   4.561   6.686
 1538SOL    HW2 5514   2.439   4.672   6.799
 1539SOL     OW 5515   3.518   4.370   1.734
 1539SOL    HW1 5516   3.582   4.310   1.782
 1539SOL    HW2 5517   3.538   4.465   1.756
 1540SOL     OW 5518   0.673   0.160   4.532
 1540SOL    HW1 5519   0.661   0.072   4.486
 1540SOL    HW2 5520   0.713   0.146   4.622
 1541SOL     OW 5521   4.250   2.860   1.206
 1541SOL    HW1 5522   4.203   2.834   1.290
 1541SOL    HW2 5523   4.349   2.852   1.220
 1542SOL     OW 5524   0.504   6.000   1.133
 1542SOL    HW1 5525   0.478   6.057   1.211
 1542SOL    HW2 5526   0.591   5.955   1.153
 1543SOL     OW 5527   3.174   3.504   4.085
 1543SOL    HW1 5528   3.180   3.427   4.148
 1543SOL    HW2 5529   3.078   3.519   4.059
 1544SOL     OW 5530   3.007   3.873   2.394
 1544SOL    HW1 5531   2.953   3.905   2.317
 1544SOL    HW2 5532   3.099   3.912   2.389
 1545SOL     OW 5533   6.403   0.980   5.404
 1545SOL    HW1 5534   6.354   1.066   5.388
 1545SOL    HW2 5535   6.338   0.904   5.400
 1546SOL     OW 5536   6.383   6.828   6.403
 1546SOL    HW1 5537   6.315   6.846   6.332
 1546SOL    HW2 5538   6.425   6.914   6.431
 1547SOL     OW 5539   3.023   4.786   2.859
 1547SOL    HW1 5540   3.073   4.800   2.773
 1547SOL    HW2 5541   3.079   4.817   2.936
 1548SOL     OW 5542   4.057   4.732   5.263
 1548SOL    HW1 5543   4.156   4.735   5.271
 1548SOL    HW2 5544   4.025   4.638   5.271
 1549SOL     OW 5545   6.908   2.381   1.470
 1549SOL    HW1 5546   6.969   2.348   1.542
 1549SOL    HW2 5547   6.839   2.442   1.510
 1550SOL     OW 5548   2.149   6.278   5.093
 1550SOL    HW1 5549   2.057   6.241   5.103
 1550SOL    HW2 5550   2.155   6.330   5.008
 1551SOL     OW 5551   1.597   2.758   1.115
 1551SOL    HW1 5552   1.516   2.798   1.071
 1551SOL    HW2 5553   1.621   2.811   1.196
 1552SOL     OW 5554   1.600   0.562   1.355
 1552SOL    HW1 5555   1.548   0.498   1.412
 1552SOL    HW2 5556   1.687   0.519   1.328
 1553SOL     OW 5557   6.170   1.883   0.043
 1553SOL    HW1 5558   6.187   1.807   7.007
 1553SOL    HW2 5559   6.114   1.851   0.120
 1554SOL     OW 5560   4.308   2.350   3.216
 1554SOL    HW1 5561   4.305   2.447   3.240
 1554SOL    HW2 5562   4.307   2.340   3.116
 1555SOL     OW 5563   4.962   1.451   5.067
 1555SOL    HW1 5564   4.938   1.547   5.083
 1555SOL    HW2 5565   5.019   1.417   5.141
 1556SOL     OW 5566   3.538   0.363   0.716
 1556SOL    HW1 5567   3.453   0.406   0.685
 1556SOL    HW2 5568   3.562   0.288   0.654
 1557SOL     OW 5569   2.069   2.315   1.150
 1557SOL    HW1 5570   1.978   2.341   1.118
 1557SOL    HW2 5571   2.121   2.397   1.173
 1558SOL     OW 5572   6.563   3.258   5.444
 1558SOL    HW1 5573   6.652   3.304   5.447
 1558SOL    HW2 5574   6.553   3.198   5.523
 1559SOL     OW 5575   1.144   4.077   2.840
 1559SOL    HW1 5576   1.110   4.037   2.925
 1559SOL    HW2 5577   1.095   4.037   2.763
 1560SOL     OW 5578   3.820   1.257   0.447
 1560SOL    HW1 5579   3.881   1.253   0.367
 1560SOL    HW2 5580   3.764   1.340   0.443
 1561SOL     OW 5581   5.634   6.206   1.830
 1561SOL    HW1 5582   5.540   6.201   1.862
 1561SOL    HW2 5583   5.666   6.300   1.836
 1562SOL     OW 5584   3.075   0.056   2.134
 1562SOL    HW1 5585   3.002   0.014   2.188
 1562SOL    HW2 5586   3.114   7.013   2.073
 1563SOL     OW 5587   3.200   2.178   4.680
 1563SOL    HW1 5588   3.277   2.120   4.652
 1563SOL    HW2 5589   3.192   2.176   4.780
 1564SOL     OW 5590   1.212   1.951   2.358
 1564SOL    HW1 5591   1.162   1.904   2.431
 1564SOL    HW2 5592   1.160   1.944   2.273
 1565SOL     OW 5593   3.522   6.428   3.850
 1565SOL    HW1 5594   3.594   6.444   3.917
 1565SOL    HW2 5595   3.434   6.459   3.888
 1566SOL     OW 5596   5.190   4.753   3.607
 1566SOL    HW1 5597   5.176   4.791   3.699
 1566SOL    HW2 5598   5.125   4.795   3.544
 1567SOL     OW 5599   5.985   5.754   6.056
 1567SOL    HW1 5600   6.011   5.829   6.117
 1567SOL    HW2 5601   6.067   5.709   6.022
 1568SOL     OW 5602   1.965   6.518   3.491
 1568SOL    HW1 5603   1.958   6.464   3.574
 1568SOL    HW2 5604   1.874   6.525   3.448
 1569SOL     OW 5605   3.256   0.137   2.969
 1569SOL    HW1 5606   3.352   0.156   2.949
 1569SOL    HW2 5607   3.208   0.222   2.992
 1570SOL     OW 5608   3.077   0.084   6.946
 1570SOL    HW1 5609   3.141   0.016   6.984
 1570SOL    HW2 5610   3.019   0.040   6.878
 1571SOL     OW 5611   1.121   2.663   3.512
 1571SOL    HW1 5612   1.157   2.735   3.572
 1571SOL    HW2 5613   1.190   2.591   3.501
 1572SOL     OW 5614   1.908   4.982   1.609
 1572SOL    HW1 5615   1.960   4.897   1.604
 1572SOL    HW2 5616   1.834   4.979   1.541
 1573SOL     OW 5617   4.842   5.635   1.437
 1573SOL    HW1 5618   4.894   5.717   1.458
 1573SOL    HW2 5619   4.854   5.568   1.510
 1574SOL     OW 5620   6.241   3.328   2.092
 1574SOL    HW1 5621   6.287   3.394   2.150
 1574SOL    HW2 5622   6.143   3.330   2.110
 1575SOL     OW 5623   1.275   1.236   1.703
 1575SOL    HW1 5624   1.185   1.260   1.737
 1575SOL    HW2 5625   1.345   1.264   1.769
 1576SOL     OW 5626   0.405   6.361   2.253
 1576SOL    HW1 5627   0.477   6.361   2.183
 1576SOL    HW2 5628   0.328   6.307   2.221
 1577SOL     OW 5629   3.194   0.441   6.366
 1577SOL    HW1 5630   3.166   0.346   6.349
 1577SOL    HW2 5631   3.112   0.498   6.374
 1578SOL     OW 5632   4.074   0.929   0.691
 1578SOL    HW1 5633   4.037   0.994   0.625
 1578SOL    HW2 5634   4.019   0.846   0.690
 1579SOL     OW 5635   1.417   2.687   1.725
 1579SOL    HW1 5636   1.345   2.619   1.738
 1579SOL    HW2 5637   1.466   2.701   1.811
 1580SOL     OW 5638   3.069   3.765   3.013
 1580SOL    HW1 5639   3.035   3.703   2.942
 1580SOL    HW2 5640   3.008   3.761   3.092
 1581SOL     OW 5641   0.164   4.032   6.319
 1581SOL    HW1 5642   0.154   4.099   6.246
 1581SOL    HW2 5643   0.077   4.024   6.369
 1582SOL     OW 5644   4.379   6.411   5.627
 1582SOL    HW1 5645   4.425   6.334   5.671
 1582SOL    HW2 5646   4.411   6.497   5.668
 1583SOL     OW 5647   0.784   5.976   4.815
 1583SOL    HW1 5648   0.801   5.937   4.906
 1583SOL    HW2 5649   0.839   6.059   4.803
 1584SOL     OW 5650   1.079   5.551   6.641
 1584SOL    HW1 5651   1.045   5.605   6.564
 1584SOL    HW2 5652   1.041   5.458   6.636
 1585SOL     OW 5653   3.937   0.990   3.434
 1585SOL    HW1 5654   3.957   0.962   3.528
 1585SOL    HW2 5655   4.020   1.026   3.392
 1586SOL     OW 5656   2.647   5.424   3.728
 1586SOL    HW1 5657   2.686   5.482   3.799
 1586SOL    HW2 5658   2.656   5.470   3.639
 1587SOL     OW 5659   1.618   6.478   5.742
 1587SOL    HW1 5660   1.642   6.381   5.738
 1587SOL    HW2 5661   1.701   6.533   5.740
 1588SOL     OW 5662   4.737   0.441   2.341
 1588SOL    HW1 5663   4.665   0.458   2.274
 1588SOL    HW2 5664   4.777   0.351   2.325
 1589SOL     OW 5665   6.254   3.905   2.565
 1589SOL    HW1 5666   6.183   3.839   2.591
 1589SOL    HW2 5667   6.226   3.954   2.483
 1590SOL     OW 5668   5.329   1.747   3.126
 1590SOL    HW1 5669   5.281   1.833   3.147
 1590SOL    HW2 5670   5.421   1.767   3.094
 1591SOL     OW 5671   0.385   6.044   1.492
 1591SOL    HW1 5672   0.335   5.972   1.444
 1591SOL    HW2 5673   0.414   6.113   1.426
 1592SOL     OW 5674   1.534   3.955   6.806
 1592SOL    HW1 5675   1.471   4.021   6.847
 1592SOL    HW2 5676   1.506   3.862   6.832
 1593SOL     OW 5677   1.127   0.479   6.437
 1593SOL    HW1 5678   1.095   0.409   6.501
 1593SOL    HW2 5679   1.116   0.570   6.477
 1594SOL     OW 5680   6.901   0.279   2.072
 1594SOL    HW1 5681   6.929   0.336   1.994
 1594SOL    HW2 5682   6.966   0.203   2.082
 1595SOL     OW 5683   1.766   3.909   6.987
 1595SOL    HW1 5684   1.700   3.912   6.913
 1595SOL    HW2 5685   1.808   3.819   6.992
 1596SOL     OW 5686   6.018   4.099   2.952
 1596SOL    HW1 5687   6.113   4.076   2.974
 1596SOL    HW2 5688   6.008   4.199   2.950
 1597SOL     OW 5689   2.929   5.381   1.067
 1597SOL    HW1 5690   2.874   5.297   1.060
 1597SOL    HW2 5691   3.025   5.356   1.080
 1598SOL     OW 5692   1.810   5.440   6.547
 1598SOL    HW1 5693   1.874   5.368   6.575
 1598SOL    HW2 5694   1.774   5.419   6.456
 1599SOL     OW 5695   3.831   5.317   4.212
 1599SOL    HW1 5696   3.881   5.403   4.222
 1599SOL    HW2 5697   3.841   5.263   4.296
 1600SOL     OW 5698   3.337   0.814   2.985
 1600SOL    HW1 5699   3.368   0.886   2.922
 1600SOL    HW2 5700   3.346   0.725   2.940
 1601SOL     OW 5701   6.193   6.447   4.242
 1601SOL    HW1 5702   6.290   6.456   4.218
 1601SOL    HW2 5703   6.184   6.405   4.332
 1602SOL     OW 5704   4.632   5.415   4.035
 1602SOL    HW1 5705   4.709   5.392   4.093
 1602SOL    HW2 5706   4.610   5.339   3.975
 1603SOL     OW 5707   2.837   5.715   4.511
 1603SOL    HW1 5708   2.937   5.717   4.520
 1603SOL    HW2 5709   2.803   5.624   4.533
 1604SOL     OW 5710   4.051   4.786   2.053
 1604SOL    HW1 5711   4.111   4.711   2.080
 1604SOL    HW2 5712   4.047   4.853   2.127
 1605SOL     OW 5713   5.693   5.391   1.616
 1605SOL    HW1 5714   5.744   5.466   1.659
 1605SOL    HW2 5715   5.597   5.397   1.642
 1606SOL     OW 5716   4.194   5.918   4.259
 1606SOL    HW1 5717   4.212   5.866   4.175
 1606SOL    HW2 5718   4.240   5.874   4.336
 1607SOL     OW 5719   4.282   0.028   2.300
 1607SOL    HW1 5720   4.348   0.060   2.368
 1607SOL    HW2 5721   4.222   6.985   2.341
 1608SOL     OW 5722   6.921   1.047   3.648
 1608SOL    HW1 5723   7.014   1.067   3.615
 1608SOL    HW2 5724   6.855   1.065   3.575
 1609SOL     OW 5725   3.181   6.445   0.572
 1609SOL    HW1 5726   3.234   6.361   0.583
 1609SOL    HW2 5727   3.106   6.447   0.638
 1610SOL     OW 5728   4.241   6.563   0.317
 1610SOL    HW1 5729   4.332   6.595   0.346
 1610SOL    HW2 5730   4.187   6.540   0.397
 1611SOL     OW 5731   1.394   3.961   1.162
 1611SOL    HW1 5732   1.491   3.985   1.172
 1611SOL    HW2 5733   1.352   3.954   1.253
 1612SOL     OW 5734   2.732   5.574   1.096
 1612SOL    HW1 5735   2.808   5.513   1.075
 1612SOL    HW2 5736   2.758   5.668   1.078
 1613SOL     OW 5737   0.970   5.924   2.461
 1613SOL    HW1 5738   0.983   5.918   2.560
 1613SOL    HW2 5739   0.877   5.957   2.441
 1614SOL     OW 5740   5.821   2.116   5.864
 1614SOL    HW1 5741   5.726   2.146   5.854
 1614SOL    HW2 5742   5.868   2.175   5.930
 1615SOL     OW 5743   0.445   5.250   6.749
 1615SOL    HW1 5744   0.446   5.175   6.816
 1615SOL    HW2 5745   0.522   5.311   6.766
 1616SOL     OW 5746   3.752   0.902   5.062
 1616SOL    HW1 5747   3.807   0.936   5.138
 1616SOL    HW2 5748   3.708   0.979   5.014
 1617SOL     OW 5749   4.791   6.956   3.606
 1617SOL    HW1 5750   4.761   0.017   3.646
 1617SOL    HW2 5751   4.846   6.975   3.525
 1618SOL     OW 5752   1.862   6.207   2.235
 1618SOL    HW1 5753   1.859   6.124   2.179
 1618SOL    HW2 5754   1.957   6.237   2.245
 1619SOL     OW 5755   1.230   5.076   0.381
 1619SOL    HW1 5756   1.194   5.018   0.454
 1619SOL    HW2 5757   1.300   5.026   0.329
 1620SOL     OW 5758   2.827   5.150   0.962
 1620SOL    HW1 5759   2.832   5.062   1.011
 1620SOL    HW2 5760   2.772   5.139   0.880
 1621SOL     OW 5761   5.901   6.177   1.325
 1621SOL    HW1 5762   5.837   6.154   1.252
 1621SOL    HW2 5763   5.853   6.173   1.413
 1622SOL     OW 5764   0.553   4.220   6.217
 1622SOL    HW1 5765   0.624   4.288   6.240
 1622SOL    HW2 5766   0.515   4.241   6.127
 1623SOL     OW 5767   0.836   2.214   4.725
 1623SOL    HW1 5768   0.759   2.152   4.707
 1623SOL    HW2 5769   0.906   2.166   4.777
 1624SOL     OW 5770   3.528   1.192   0.434
 1624SOL    HW1 5771   3.594   1.267   0.428
 1624SOL    HW2 5772   3.464   1.210   0.509
 1625SOL     OW 5773   1.945   5.130   0.226
 1625SOL    HW1 5774   1.920   5.086   0.312
 1625SOL    HW2 5775   2.017   5.198   0.243
 1626SOL     OW 5776   3.003   2.011   2.564
 1626SOL    HW1 5777   2.994   2.087   2.627
 1626SOL    HW2 5778   3.050   2.042   2.481
 1627SOL     OW 5779   5.147   2.809   4.501
 1627SOL    HW1 5780   5.242   2.780   4.490
 1627SOL    HW2 5781   5.098   2.745   4.561
 1628SOL     OW 5782   5.273   6.000   6.861
 1628SOL    HW1 5783   5.263   6.070   6.790
 1628SOL    HW2 5784   5.228   6.030   6.945
 1629SOL     OW 5785   3.158   2.105   3.339
 1629SOL    HW1 5786   3.126   2.168   3.268
 1629SOL    HW2 5787   3.140   2.011   3.311
 1630SOL     OW 5788   0.340   3.892   6.857
 1630SOL    HW1 5789   0.284   3.963   6.813
 1630SOL    HW2 5790   0.280   3.823   6.898
 1631SOL     OW 5791   6.860   3.370   1.258
 1631SOL    HW1 5792   6.800   3.449   1.250
 1631SOL    HW2 5793   6.943   3.395   1.308
 1632SOL     OW 5794   5.428   4.469   2.700
 1632SOL    HW1 5795   5.349   4.442   2.645
 1632SOL    HW2 5796   5.397   4.511   2.785
 1633SOL     OW 5797   4.787   4.084   3.872
 1633SOL    HW1 5798   4.751   4.033   3.950
 1633SOL    HW2 5799   4.882   4.060   3.857
 1634SOL     OW 5800   3.760   0.788   4.413
 1634SOL    HW1 5801   3.854   0.786   4.445
 1634SOL    HW2 5802   3.735   0.698   4.376
 1635SOL     OW 5803   3.411   5.064   6.394
 1635SOL    HW1 5804   3.497   5.113   6.407
 1635SOL    HW2 5805   3.395   5.004   6.473
 1636SOL     OW 5806   3.820   6.096   1.042
 1636SOL    HW1 5807   3.826   6.180   1.095
 1636SOL    HW2 5808   3.804   6.118   0.946
 1637SOL     OW 5809   6.794   6.694   3.275
 1637SOL    HW1 5810   6.850   6.633   3.332
 1637SOL    HW2 5811   6.737   6.639   3.215
 1638SOL     OW 5812   0.171   3.160   1.384
 1638SOL    HW1 5813   0.085   3.170   1.434
 1638SOL    HW2 5814   0.162   3.087   1.316
 1639SOL     OW 5815   6.860   3.871   1.423
 1639SOL    HW1 5816   6.921   3.816   1.365
 1639SOL    HW2 5817   6.822   3.813   1.495
 1640SOL     OW 5818   6.188   0.127   1.212
 1640SOL    HW1 5819   6.286   0.139   1.225
 1640SOL    HW2 5820   6.158   0.043   1.257
 1641SOL     OW 5821   6.747   2.155   3.569
 1641SOL    HW1 5822   6.650   2.173   3.555
 1641SOL    HW2 5823   6.761   2.115   3.659
 1642SOL     OW 5824   6.604   2.486   6.761
 1642SOL    HW1 5825   6.520   2.509   6.812
 1642SOL    HW2 5826   6.591   2.400   6.713
 1643SOL     OW 5827   3.194   4.919   3.825
 1643SOL    HW1 5828   3.138   4.950   3.749
 1643SOL    HW2 5829   3.244   4.837   3.798
 1644SOL     OW 5830   6.086   2.759   0.257
 1644SOL    HW1 5831   5.987   2.760   0.239
 1644SOL    HW2 5832   6.105   2.809   0.342
 1645SOL     OW 5833   2.635   0.241   5.824
 1645SOL    HW1 5834   2.550   0.290   5.806
 1645SOL    HW2 5835   2.615   0.145   5.844
 1646SOL     OW 5836   1.668   5.951   6.344
 1646SOL    HW1 5837   1.587   5.899   6.371
 1646SOL    HW2 5838   1.676   5.950   6.245
 1647SOL     OW 5839   5.609   2.899   4.066
 1647SOL    HW1 5840   5.598   2.902   3.967
 1647SOL    HW2 5841   5.537   2.954   4.109
 1648SOL     OW 5842   4.794   6.158   0.294
 1648SOL    HW1 5843   4.811   6.081   0.233
 1648SOL    HW2 5844   4.736   6.225   0.248
 1649SOL     OW 5845   3.165   0.442   3.861
 1649SOL    HW1 5846   3.109   0.475   3.785
 1649SOL    HW2 5847   3.146   0.495   3.943
 1650SOL     OW 5848   1.658   5.062   6.227
 1650SOL    HW1 5849   1.668   4.988   6.161
 1650SOL    HW2 5850   1.564   5.096   6.227
 1651SOL     OW 5851   0.306   2.788   3.424
 1651SOL    HW1 5852   0.256   2.772   3.339
 1651SOL    HW2 5853   0.261   2.741   3.499
 1652SOL     OW 5854   1.063   3.232   1.821
 1652SOL    HW1 5855   1.056   3.200   1.727
 1652SOL    HW2 5856   1.036   3.328   1.826
 1653SOL     OW 5857   0.366   5.461   2.330
 1653SOL    HW1 5858   0.465   5.448   2.327
 1653SOL    HW2 5859   0.323   5.406   2.258
 1654SOL     OW 5860   1.023   3.087   1.597
 1654SOL    HW1 5861   1.073   3.044   1.523
 1654SOL    HW2 5862   0.925   3.082   1.578
 1655SOL     OW 5863   0.039   1.179   4.170
 1655SOL    HW1 5864   0.052   1.163   4.268
 1655SOL    HW2 5865   7.023   1.099   4.128
 1656SOL     OW 5866   2.390   5.715   4.175
 1656SOL    HW1 5867   2.489   5.701   4.169
 1656SOL    HW2 5868   2.343   5.638   4.133
 1657SOL     OW 5869   6.788   0.971   5.031
 1657SOL    HW1 5870   6.709   0.911   5.045
 1657SOL    HW2 5871   6.808   1.018   5.117
 1658SOL     OW 5872   6.942   0.345   0.507
 1658SOL    HW1 5873   6.944   0.261   0.452
 1658SOL    HW2 5874   6.979   0.326   0.598
 1659SOL     OW 5875   4.130   0.065   0.062
 1659SOL    HW1 5876   4.057   7.025   0.080
 1659SOL    HW2 5877   4.191   0.030   7.018
 1660SOL     OW 5878   1.651   6.639   2.174
 1660SOL    HW1 5879   1.661   6.543   2.150
 1660SOL    HW2 5880   1.700   6.657   2.260
 1661SOL     OW 5881   2.910   4.790   2.458
 1661SOL    HW1 5882   2.999   4.826   2.432
 1661SOL    HW2 5883   2.862   4.758   2.376
 1662SOL     OW 5884   6.957   1.214   5.739
 1662SOL    HW1 5885   6.994   1.206   5.646
 1662SOL    HW2 5886   6.858   1.196   5.736
 1663SOL     OW 5887   5.277   5.069   2.473
 1663SOL    HW1 5888   5.363   5.077   2.423
 1663SOL    HW2 5889   5.238   5.160   2.486
 1664SOL     OW 5890   1.157   0.603   5.237
 1664SOL    HW1 5891   1.240   0.647   5.269
 1664SOL    HW2 5892   1.177   0.546   5.157
 1665SOL     OW 5893   1.433   3.044   1.449
 1665SOL    HW1 5894   1.451   3.032   1.547
 1665SOL    HW2 5895   1.517   3.074   1.404
 1666SOL     OW 5896   5.341   6.649   6.580
 1666SOL    HW1 5897   5.429   6.616   6.545
 1666SOL    HW2 5898   5.268   6.588   6.549
 1667SOL     OW 5899   0.023   6.782   1.163
 1667SOL    HW1 5900   0.063   6.691   1.173
 1667SOL    HW2 5901   0.008   6.823   1.253
 1668SOL     OW 5902   5.500   5.007   3.584
 1668SOL    HW1 5903   5.577   4.984   3.525
 1668SOL    HW2 5904   5.500   5.105   3.604
 1669SOL     OW 5905   0.119   4.407   5.644
 1669SOL    HW1 5906   0.198   4.432   5.700
 1669SOL    HW2 5907   0.151   4.358   5.562
 1670SOL     OW 5908   1.232   4.779   5.709
 1670SOL    HW1 5909   1.148   4.791   5.762
 1670SOL    HW2 5910   1.311   4.788   5.771
 1671SOL     OW 5911   5.377   1.613   2.843
 1671SOL    HW1 5912   5.323   1.538   2.882
 1671SOL    HW2 5913   5.416   1.668   2.917
 1672SOL     OW 5914   0.982   3.624   0.063
 1672SOL    HW1 5915   1.043   3.549   0.088
 1672SOL    HW2 5916   0.908   3.590   0.006
 1673SOL     OW 5917   2.236   1.955   4.712
 1673SOL    HW1 5918   2.261   1.926   4.804
 1673SOL    HW2 5919   2.258   1.881   4.648
 1674SOL     OW 5920   5.880   2.691   2.099
 1674SOL    HW1 5921   5.968   2.646   2.084
 1674SOL    HW2 5922   5.814   2.659   2.032
 1675SOL     OW 5923   4.647   0.198   1.256
 1675SOL    HW1 5924   4.654   0.101   1.277
 1675SOL    HW2 5925   4.562   0.235   1.296
 1676SOL     OW 5926   2.148   2.282   2.623
 1676SOL    HW1 5927   2.095   2.238   2.551
 1676SOL    HW2 5928   2.240   2.302   2.589
 1677SOL     OW 5929   3.618   4.129   3.111
 1677SOL    HW1 5930   3.716   4.113   3.111
 1677SOL    HW2 5931   3.590   4.168   3.199
 1678SOL     OW 5932   0.820   6.347   1.245
 1678SOL    HW1 5933   0.797   6.328   1.340
 1678SOL    HW2 5934   0.781   6.435   1.218
 1679SOL     OW 5935   1.793   1.198   5.080
 1679SOL    HW1 5936   1.844   1.120   5.118
 1679SOL    HW2 5937   1.819   1.211   4.984
 1680SOL     OW 5938   5.212   3.025   4.694
 1680SOL    HW1 5939   5.181   3.111   4.652
 1680SOL    HW2 5940   5.171   2.948   4.647
 1681SOL     OW 5941   1.686   5.630   4.898
 1681SOL    HW1 5942   1.765   5.678   4.859
 1681SOL    HW2 5943   1.602   5.673   4.865
 1682SOL     OW 5944   2.563   0.853   6.012
 1682SOL    HW1 5945   2.534   0.902   6.094
 1682SOL    HW2 5946   2.528   0.900   5.931
 1683SOL     OW 5947   5.338   5.982   2.967
 1683SOL    HW1 5948   5.365   6.072   3.001
 1683SOL    HW2 5949   5.339   5.917   3.042
 1684SOL     OW 5950   0.935   4.550   1.884
 1684SOL    HW1 5951   0.901   4.463   1.920
 1684SOL    HW2 5952   0.867   4.621   1.898
 1685SOL     OW 5953   1.942   2.001   5.611
 1685SOL    HW1 5954   1.864   1.967   5.664
 1685SOL    HW2 5955   2.002   2.053   5.672
 1686SOL     OW 5956   4.270   5.557   3.871
 1686SOL    HW1 5957   4.201   5.569   3.800
 1686SOL    HW2 5958   4.305   5.463   3.869
 1687SOL     OW 5959   0.181   4.402   1.717
 1687SOL    HW1 5960   0.150   4.492   1.746
 1687SOL    HW2 5961   0.148   4.383   1.625
 1688SOL     OW 5962   1.993   2.354   3.324
 1688SOL    HW1 5963   2.037   2.381   3.238
 1688SOL    HW2 5964   1.894   2.371   3.317
 1689SOL     OW 5965   6.715   1.339   2.178
 1689SOL    HW1 5966   6.617   1.349   2.192
 1689SOL    HW2 5967   6.733   1.286   2.095
 1690SOL     OW 5968   1.451   3.424   4.059
 1690SOL    HW1 5969   1.469   3.393   4.152
 1690SOL    HW2 5970   1.371   3.484   4.060
 1691SOL     OW 5971   4.904   3.683   4.183
 1691SOL    HW1 5972   4.972   3.711   4.116
 1691SOL    HW2 5973   4.922   3.589   4.211
 1692SOL     OW 5974   5.617   5.120   1.486
 1692SOL    HW1 5975   5.641   5.204   1.533
 1692SOL    HW2 5976   5.628   5.132   1.387
 1693SOL     OW 5977   0.200   1.821   4.734
 1693SOL    HW1 5978   0.143   1.855   4.659
 1693SOL    HW2 5979   0.164   1.853   4.821
 1694SOL     OW 5980   6.432   0.880   4.508
 1694SOL    HW1 5981   6.528   0.860   4.490
 1694SOL    HW2 5982   6.414   0.977   4.493
 1695SOL     OW 5983   3.756   0.676   6.833
 1695SOL    HW1 5984   3.856   0.676   6.839
 1695SOL    HW2 5985   3.722   0.583   6.848
 1696SOL     OW 5986   3.970   5.402   0.760
 1696SOL    HW1 5987   4.042   5.467   0.783
 1696SOL    HW2 5988   3.885   5.452   0.742
 1697SOL     OW 5989   5.805   2.309   0.759
 1697SOL    HW1 5990   5.826   2.237   0.693
 1697SOL    HW2 5991   5.767   2.268   0.842
 1698SOL     OW 5992   3.613   0.950   1.732
 1698SOL    HW1 5993   3.655   0.892   1.802
 1698SOL    HW2 5994   3.534   0.902   1.693
 1699SOL     OW 5995   2.424   1.846   6.155
 1699SOL    HW1 5996   2.458   1.925   6.105
 1699SOL    HW2 5997   2.499   1.799   6.201
 1700SOL     OW 5998   5.706   3.097   3.862
 1700SOL    HW1 5999   5.657   3.168   3.913
 1700SOL    HW2 6000   5.803   3.098   3.889
 1701SOL     OW 6001   6.472   5.436   4.811
 1701SOL    HW1 6002   6.482   5.519   4.865
 1701SOL    HW2 6003   6.487   5.356   4.869
 1702SOL     OW 6004   1.436   0.959   6.023
 1702SOL    HW1 6005   1.508   0.974   5.955
 1702SOL    HW2 6006   1.466   0.996   6.111
 1703SOL     OW 6007   3.878   1.634   6.109
 1703SOL    HW1 6008   3.958   1.669   6.061
 1703SOL    HW2 6009   3.874   1.534   6.099
 1704SOL     OW 6010   1.659   1.491   0.040
 1704SOL    HW1 6011   1.612   1.579   0.038
 1704SOL    HW2 6012   1.743   1.500   0.094
 1705SOL     OW 6013   4.097   2.018   1.943
 1705SOL    HW1 6014   4.145   2.084   2.001
 1705SOL    HW2 6015   4.029   2.066   1.888
 1706SOL     OW 6016   3.976   1.506   0.847
 1706SOL    HW1 6017   4.057   1.491   0.790
 1706SOL    HW2 6018   3.965   1.604   0.864
 1707SOL     OW 6019   4.662   2.019   3.079
 1707SOL    HW1 6020   4.663   1.920   3.097
 1707SOL    HW2 6021   4.691   2.067   3.162
 1708SOL     OW 6022   3.750   5.540   2.145
 1708SOL    HW1 6023   3.716   5.455   2.186
 1708SOL    HW2 6024   3.744   5.534   2.045
 1709SOL     OW 6025   4.452   6.526   1.019
 1709SOL    HW1 6026   4.540   6.552   0.980
 1709SOL    HW2 6027   4.433   6.581   1.100
 1710SOL     OW 6028   4.102   5.086   3.402
 1710SOL    HW1 6029   4.006   5.084   3.430
 1710SOL    HW2 6030   4.148   5.004   3.435
 1711SOL     OW 6031   2.830   5.065   5.870
 1711SOL    HW1 6032   2.795   5.153   5.901
 1711SOL    HW2 6033   2.849   5.069   5.772
 1712SOL     OW 6034   0.413   2.343   5.141
 1712SOL    HW1 6035   0.477   2.293   5.083
 1712SOL    HW2 6036   0.441   2.337   5.236
 1713SOL     OW 6037   3.742   0.999   2.773
 1713SOL    HW1 6038   3.780   1.063   2.707
 1713SOL    HW2 6039   3.692   1.049   2.844
 1714SOL     OW 6040   3.206   2.340   6.857
 1714SOL    HW1 6041   3.257   2.328   6.772
 1714SOL    HW2 6042   3.228   2.267   6.921
 1715SOL     OW 6043   1.993   5.966   2.004
 1715SOL    HW1 6044   1.962   6.050   1.961
 1715SOL    HW2 6045   1.970   5.888   1.945
 1716SOL     OW 6046   4.669   0.273   3.982
 1716SOL    HW1 6047   4.699   0.278   4.077
 1716SOL    HW2 6048   4.648   0.365   3.949
 1717SOL     OW 6049   3.829   5.902   5.435
 1717SOL    HW1 6050   3.849   5.859   5.347
 1717SOL    HW2 6051   3.799   5.996   5.421
 1718SOL     OW 6052   2.026   2.117   2.394
 1718SOL    HW1 6053   1.954   2.054   2.421
 1718SOL    HW2 6054   2.113   2.068   2.391
 1719SOL     OW 6055   1.722   4.602   1.184
 1719SOL    HW1 6056   1.674   4.657   1.253
 1719SOL    HW2 6057   1.768   4.664   1.119
 1720SOL     OW 6058   0.006   2.861   5.834
 1720SOL    HW1 6059   0.019   2.761   5.834
 1720SOL    HW2 6060   0.079   2.904   5.888
 1721SOL     OW 6061   1.468   0.691   2.358
 1721SOL    HW1 6062   1.487   0.646   2.445
 1721SOL    HW2 6063   1.473   0.624   2.284
 1722SOL     OW 6064   3.172   1.887   2.957
 1722SOL    HW1 6065   3.156   1.985   2.972
 1722SOL    HW2 6066   3.145   1.863   2.864
 1723SOL     OW 6067   4.724   1.944   0.211
 1723SOL    HW1 6068   4.766   1.993   0.288
 1723SOL    HW2 6069   4.626   1.966   0.207
 1724SOL     OW 6070   6.182   2.134   1.248
 1724SOL    HW1 6071   6.253   2.114   1.181
 1724SOL    HW2 6072   6.209   2.096   1.337
 1725SOL     OW 6073   2.018   4.361   6.584
 1725SOL    HW1 6074   1.926   4.322   6.591
 1725SOL    HW2 6075   2.068   4.315   6.510
 1726SOL     OW 6076   5.957   4.063   3.440
 1726SOL    HW1 6077   6.006   4.022   3.364
 1726SOL    HW2 6078   6.018   4.122   3.492
 1727SOL     OW 6079   3.752   3.746   3.618
 1727SOL    HW1 6080   3.655   3.733   3.597
 1727SOL    HW2 6081   3.762   3.772   3.714
 1728SOL     OW 6082   5.061   4.396   5.690
 1728SOL    HW1 6083   5.148   4.415   5.643
 1728SOL    HW2 6084   5.053   4.298   5.706
 1729SOL     OW 6085   1.330   4.063   2.153
 1729SOL    HW1 6086   1.258   3.993   2.160
 1729SOL    HW2 6087   1.321   4.111   2.066
 1730SOL     OW 6088   2.482   6.036   4.875
 1730SOL    HW1 6089   2.466   6.084   4.961
 1730SOL    HW2 6090   2.572   6.059   4.839
 1731SOL     OW 6091   5.568   4.863   3.839
 1731SOL    HW1 6092   5.513   4.868   3.756
 1731SOL    HW2 6093   5.606   4.953   3.859
 1732SOL     OW 6094   2.052   4.418   5.808
 1732SOL    HW1 6095   1.961   4.456   5.790
 1732SOL    HW2 6096   2.050   4.363   5.892
 1733SOL     OW 6097   2.809   3.954   6.865
 1733SOL    HW1 6098   2.781   4.017   6.792
 1733SOL    HW2 6099   2.728   3.909   6.902
 1734SOL     OW 6100   6.558   3.062   1.061
 1734SOL    HW1 6101   6.512   3.150   1.051
 1734SOL    HW2 6102   6.492   2.992   1.085
 1735SOL     OW 6103   4.532   5.491   0.192
 1735SOL    HW1 6104   4.619   5.517   0.151
 1735SOL    HW2 6105   4.494   5.412   0.143
 1736SOL     OW 6106   4.199   3.726   1.690
 1736SOL    HW1 6107   4.150   3.791   1.747
 1736SOL    HW2 6108   4.215   3.642   1.743
 1737SOL     OW 6109   5.542   0.654   4.059
 1737SOL    HW1 6110   5.529   0.686   3.965
 1737SOL    HW2 6111   5.480   0.704   4.119
 1738SOL     OW 6112   2.138   3.916   4.336
 1738SOL    HW1 6113   2.178   3.972   4.409
 1738SOL    HW2 6114   2.116   3.825   4.371
 1739SOL     OW 6115   5.582   0.053   3.397
 1739SOL    HW1 6116   5.549   0.032   3.489
 1739SOL    HW2 6117   5.535   7.020   3.330
 1740SOL     OW 6118   6.844   1.954   4.934
 1740SOL    HW1 6119   6.804   2.017   5.000
 1740SOL    HW2 6120   6.888   2.006   4.861
 1741SOL     OW 6121   1.520   1.982   3.853
 1741SOL    HW1 6122   1.422   1.977   3.831
 1741SOL    HW2 6123   1.532   2.030   3.940
 1742SOL     OW 6124   5.954   0.311   5.599
 1742SOL    HW1 6125   6.015   0.351   5.668
 1742SOL    HW2 6126   5.895   0.244   5.643
 1743SOL     OW 6127   1.295   1.851   3.002
 1743SOL    HW1 6128   1.386   1.812   2.990
 1743SOL    HW2 6129   1.229   1.776   3.013
 1744SOL     OW 6130   5.251   2.234   3.549
 1744SOL    HW1 6131   5.216   2.228   3.455
 1744SOL    HW2 6132   5.299   2.321   3.560
 1745SOL     OW 6133   5.951   6.370   0.935
 1745SOL    HW1 6134   5.860   6.328   0.941
 1745SOL    HW2 6135   5.973   6.414   1.022
 1746SOL     OW 6136   1.769   3.783   3.954
 1746SOL    HW1 6137   1.716   3.852   3.905
 1746SOL    HW2 6138   1.812   3.722   3.888
 1747SOL     OW 6139   3.803   1.707   1.921
 1747SOL    HW1 6140   3.891   1.708   1.872
 1747SOL    HW2 6141   3.811   1.761   2.005
 1748SOL     OW 6142   6.705   1.502   4.412
 1748SOL    HW1 6143   6.786   1.465   4.457
 1748SOL    HW2 6144   6.734   1.568   4.342
 1749SOL     OW 6145   2.936   6.158   0.840
 1749SOL    HW1 6146   2.928   6.161   0.939
 1749SOL    HW2 6147   2.856   6.112   0.801
 1750SOL     OW 6148   4.379   0.492   4.983
 1750SOL    HW1 6149   4.401   0.581   5.023
 1750SOL    HW2 6150   4.442   0.473   4.908
 1751SOL     OW 6151   6.236   2.703   5.055
 1751SOL    HW1 6152   6.196   2.638   5.120
 1751SOL    HW2 6153   6.164   2.740   4.996
 1752SOL     OW 6154   6.749   1.289   1.232
 1752SOL    HW1 6155   6.711   1.238   1.155
 1752SOL    HW2 6156   6.747   1.233   1.314
 1753SOL     OW 6157   0.045   1.385   1.436
 1753SOL    HW1 6158   6.996   1.419   1.493
 1753SOL    HW2 6159   0.123   1.447   1.443
 1754SOL     OW 6160   3.261   6.151   5.805
 1754SOL    HW1 6161   3.296   6.152   5.899
 1754SOL    HW2 6162   3.237   6.057   5.780
 1755SOL     OW 6163   6.571   6.850   4.831
 1755SOL    HW1 6164   6.583   6.822   4.736
 1755SOL    HW2 6165   6.515   6.783   4.879
 1756SOL     OW 6166   5.191   0.278   6.001
 1756SOL    HW1 6167   5.268   0.216   5.985
 1756SOL    HW2 6168   5.107   0.235   5.967
 1757SOL     OW 6169   2.456   5.165   4.005
 1757SOL    HW1 6170   2.370   5.118   3.985
 1757SOL    HW2 6171   2.502   5.121   4.082
 1758SOL     OW 6172   2.031   6.619   5.355
 1758SOL    HW1 6173   1.951   6.622   5.415
 1758SOL    HW2 6174   2.076   6.531   5.364
 1759SOL     OW 6175   1.313   5.925   6.115
 1759SOL    HW1 6176   1.343   6.009   6.159
 1759SOL    HW2 6177   1.361   5.913   6.028
 1760SOL     OW 6178   6.474   0.564   4.865
 1760SOL    HW1 6179   6.446   0.534   4.773
 1760SOL    HW2 6180   6.508   0.658   4.861
 1761SOL     OW 6181   6.775   1.998   1.499
 1761SOL    HW1 6182   6.868   1.996   1.536
 1761SOL    HW2 6183   6.748   2.092   1.483
 1762SOL     OW 6184   0.763   1.571   5.307
 1762SOL    HW1 6185   0.778   1.473   5.296
 1762SOL    HW2 6186   0.851   1.619   5.301
 1763SOL     OW 6187   1.285   4.122   4.952
 1763SOL    HW1 6188   1.233   4.134   5.037
 1763SOL    HW2 6189   1.221   4.100   4.878
 1764SOL     OW 6190   1.287   4.310   2.003
 1764SOL    HW1 6191   1.348   4.322   1.925
 1764SOL    HW2 6192   1.196   4.282   1.971
 1765SOL     OW 6193   4.790   2.846   1.744
 1765SOL    HW1 6194   4.744   2.888   1.823
 1765SOL    HW2 6195   4.885   2.828   1.767
 1766SOL     OW 6196   4.548   4.420   3.983
 1766SOL    HW1 6197   4.586   4.360   4.053
 1766SOL    HW2 6198   4.584   4.393   3.893
 1767SOL     OW 6199   6.828   5.622   2.544
 1767SOL    HW1 6200   6.760   5.693   2.526
 1767SOL    HW2 6201   6.918   5.665   2.558
 1768SOL     OW 6202   4.646   6.043   1.641
 1768SOL    HW1 6203   4.648   6.091   1.728
 1768SOL    HW2 6204   4.699   6.094   1.573
 1769SOL     OW 6205   5.991   0.634   6.571
 1769SOL    HW1 6206   5.938   0.550   6.570
 1769SOL    HW2 6207   5.956   0.695   6.641
 1770SOL     OW 6208   1.183   4.868   5.258
 1770SOL    HW1 6209   1.128   4.811   5.318
 1770SOL    HW2 6210   1.236   4.810   5.196
 1771SOL     OW 6211   0.816   4.031   6.937
 1771SOL    HW1 6212   0.830   4.115   6.884
 1771SOL    HW2 6213   0.902   3.982   6.946
 1772SOL     OW 6214   3.346   5.090   4.135
 1772SOL    HW1 6215   3.286   5.101   4.056
 1772SOL    HW2 6216   3.318   5.008   4.187
 1773SOL     OW 6217   0.901   0.293   4.828
 1773SOL    HW1 6218   0.867   0.358   4.759
 1773SOL    HW2 6219   0.886   0.332   4.919
 1774SOL     OW 6220   5.960   6.636   1.489
 1774SOL    HW1 6221   6.047   6.605   1.450
 1774SOL    HW2 6222   5.889   6.634   1.418
 1775SOL     OW 6223   1.610   5.166   6.896
 1775SOL    HW1 6224   1.675   5.199   6.964
 1775SOL    HW2 6225   1.654   5.167   6.806
 1776SOL     OW 6226   4.965   1.059   5.322
 1776SOL    HW1 6227   4.977   1.154   5.349
 1776SOL    HW2 6228   4.974   1.001   5.403
 1777SOL     OW 6229   4.386   6.701   6.486
 1777SOL    HW1 6230   4.324   6.761   6.435
 1777SOL    HW2 6231   4.470   6.750   6.507
 1778SOL     OW 6232   5.486   1.540   4.140
 1778SOL    HW1 6233   5.550   1.537   4.063
 1778SOL    HW2 6234   5.535   1.562   4.224
 1779SOL     OW 6235   5.136   0.263   4.747
 1779SOL    HW1 6236   5.182   0.209   4.818
 1779SOL    HW2 6237   5.195   0.339   4.720
 1780SOL     OW 6238   1.181   5.048   4.725
 1780SOL    HW1 6239   1.208   5.139   4.692
 1780SOL    HW2 6240   1.190   4.981   4.651
 1781SOL     OW 6241   4.504   0.115   4.245
 1781SOL    HW1 6242   4.471   0.038   4.299
 1781SOL    HW2 6243   4.601   0.103   4.225
 1782SOL     OW 6244   1.740   1.767   2.762
 1782SOL    HW1 6245   1.838   1.773   2.782
 1782SOL    HW2 6246   1.725   1.698   2.691
 1783SOL     OW 6247   2.129   3.593   5.878
 1783SOL    HW1 6248   2.138   3.689   5.906
 1783SOL    HW2 6249   2.187   3.576   5.799
 1784SOL     OW 6250   2.442   0.534   0.938
 1784SOL    HW1 6251   2.477   0.448   0.975
 1784SOL    HW2 6252   2.347   0.546   0.968
 1785SOL     OW 6253   0.691   6.429   4.431
 1785SOL    HW1 6254   0.723   6.373   4.508
 1785SOL    HW2 6255   0.600   6.400   4.404
 1786SOL     OW 6256   2.140   5.807   0.950
 1786SOL    HW1 6257   2.238   5.813   0.970
 1786SOL    HW2 6258   2.097   5.742   1.012
 1787SOL     OW 6259   1.712   2.622   5.601
 1787SOL    HW1 6260   1.688   2.530   5.632
 1787SOL    HW2 6261   1.780   2.662   5.663
 1788SOL     OW 6262   4.530   4.058   0.518
 1788SOL    HW1 6263   4.434   4.043   0.539
 1788SOL    HW2 6264   4.579   4.084   0.601
 1789SOL     OW 6265   6.412   3.620   1.748
 1789SOL    HW1 6266   6.444   3.703   1.793
 1789SOL    HW2 6267   6.489   3.558   1.734
 1790SOL     OW 6268   2.963   1.952   4.345
 1790SOL    HW1 6269   3.010   1.994   4.267
 1790SOL    HW2 6270   2.932   2.023   4.408
 1791SOL     OW 6271   6.500   0.684   3.794
 1791SOL    HW1 6272   6.591   0.679   3.836
 1791SOL    HW2 6273   6.508   0.688   3.695
 1792SOL     OW 6274   6.807   2.482   5.328
 1792SOL    HW1 6275   6.884   2.441   5.377
 1792SOL    HW2 6276   6.842   2.537   5.252
 1793SOL     OW 6277   0.220   1.495   5.315
 1793SOL    HW1 6278   0.219   1.437   5.397
 1793SOL    HW2 6279   0.127   1.526   5.295
 1794SOL     OW 6280   6.667   0.262   6.326
 1794SOL    HW1 6281   6.699   0.356   6.312
 1794SOL    HW2 6282   6.677   0.211   6.240
 1795SOL     OW 6283   5.929   4.651   0.308
 1795SOL    HW1 6284   5.938   4.651   0.408
 1795SOL    HW2 6285   5.970   4.567   0.271
 1796SOL     OW 6286   1.413   0.107   5.174
 1796SOL    HW1 6287   1.489   0.048   5.148
 1796SOL    HW2 6288   1.393   0.171   5.100
 1797SOL     OW 6289   2.281   6.274   4.677
 1797SOL    HW1 6290   2.283   6.188   4.625
 1797SOL    HW2 6291   2.342   6.266   4.756
 1798SOL     OW 6292   3.577   3.692   4.743
 1798SOL    HW1 6293   3.531   3.604   4.754
 1798SOL    HW2 6294   3.521   3.751   4.685
 1799SOL     OW 6295   3.389   0.414   6.634
 1799SOL    HW1 6296   3.354   0.441   6.724
 1799SOL    HW2 6297   3.343   0.331   6.603
 1800SOL     OW 6298   5.075   4.095   3.743
 1800SOL    HW1 6299   5.080   4.147   3.658
 1800SOL    HW2 6300   5.113   4.150   3.817
 1801SOL     OW 6301   1.376   1.158   2.019
 1801SOL    HW1 6302   1.435   1.103   1.959
 1801SOL    HW2 6303   1.428   1.235   2.056
 1802SOL     OW 6304   6.215   4.602   3.395
 1802SOL    HW1 6305   6.167   4.688   3.410
 1802SOL    HW2 6306   6.275   4.582   3.472
 1803SOL     OW 6307   0.102   6.341   2.686
 1803SOL    HW1 6308   0.121   6.439   2.698
 1803SOL    HW2 6309   0.110   6.295   2.775
 1804SOL     OW 6310   3.163   3.757   6.066
 1804SOL    HW1 6311   3.237   3.750   6.133
 1804SOL    HW2 6312   3.137   3.666   6.035
 1805SOL     OW 6313   0.414   6.660   6.267
 1805SOL    HW1 6314   0.506   6.622   6.277
 1805SOL    HW2 6315   0.365   6.611   6.195
 1806SOL     OW 6316   6.824   2.588   2.365
 1806SOL    HW1 6317   6.794   2.583   2.461
 1806SOL    HW2 6318   6.882   2.668   2.353
 1807SOL     OW 6319   6.777   4.088   1.592
 1807SOL    HW1 6320   6.800   4.055   1.501
 1807SOL    HW2 6321   6.740   4.181   1.585
 1808SOL     OW 6322   4.861   2.678   5.623
 1808SOL    HW1 6323   4.805   2.627   5.557
 1808SOL    HW2 6324   4.930   2.731   5.573
 1809SOL     OW 6325   3.770   2.072   5.131
 1809SOL    HW1 6326   3.846   2.109   5.185
 1809SOL    HW2 6327   3.800   2.061   5.036
 1810SOL     OW 6328   0.220   0.043   3.961
 1810SOL    HW1 6329   0.230   0.027   4.059
 1810SOL    HW2 6330   0.141   7.019   3.926
 1811SOL     OW 6331   4.008   5.040   2.231
 1811SOL    HW1 6332   3.926   5.003   2.188
 1811SOL    HW2 6333   4.051   5.106   2.170
 1812SOL     OW 6334   4.654   0.153   6.101
 1812SOL    HW1 6335   4.572   0.126   6.051
 1812SOL    HW2 6336   4.729   0.090   6.079
 1813SOL     OW 6337   4.796   4.939   2.927
 1813SOL    HW1 6338   4.716   4.991   2.957
 1813SOL    HW2 6339   4.766   4.862   2.871
 1814SOL     OW 6340   0.629   6.567   0.421
 1814SOL    HW1 6341   0.695   6.636   0.392
 1814SOL    HW2 6342   0.604   6.510   0.342
 1815SOL     OW 6343   5.855   5.910   2.180
 1815SOL    HW1 6344   5.904   5.872   2.101
 1815SOL    HW2 6345   5.896   5.997   2.206
 1816SOL     OW 6346   4.151   6.081   5.471
 1816SOL    HW1 6347   4.239   6.088   5.518
 1816SOL    HW2 6348   4.079   6.069   5.539
 1817SOL     OW 6349   2.605   1.395   2.928
 1817SOL    HW1 6350   2.606   1.341   3.012
 1817SOL    HW2 6351   2.511   1.421   2.906
 1818SOL     OW 6352   1.784   6.585   7.020
 1818SOL    HW1 6353   1.785   6.680   6.990
 1818SOL    HW2 6354   1.814   6.580   0.090
 1819SOL     OW 6355   1.128   4.705   2.990
 1819SOL    HW1 6356   1.106   4.635   2.923
 1819SOL    HW2 6357   1.209   4.756   2.961
 1820SOL     OW 6358   4.302   6.838   3.287
 1820SOL    HW1 6359   4.282   6.913   3.352
 1820SOL    HW2 6360   4.216   6.807   3.246
 1821SOL     OW 6361   3.730   0.971   2.181
 1821SOL    HW1 6362   3.744   1.066   2.155
 1821SOL    HW2 6363   3.634   0.956   2.204
 1822SOL     OW 6364   0.676   3.500   2.260
 1822SOL    HW1 6365   0.598   3.475   2.203
 1822SOL    HW2 6366   0.729   3.418   2.282
 1823SOL     OW 6367   3.739   6.393   2.438
 1823SOL    HW1 6368   3.739   6.422   2.343
 1823SOL    HW2 6369   3.652   6.351   2.461
 1824SOL     OW 6370   4.295   3.914   0.986
 1824SOL    HW1 6371   4.197   3.921   1.005
 1824SOL    HW2 6372   4.347   3.945   1.066
 1825SOL     OW 6373   1.811   2.504   5.037
 1825SOL    HW1 6374   1.825   2.427   4.974
 1825SOL    HW2 6375   1.730   2.487   5.093
 1826SOL     OW 6376   3.481   1.956   1.643
 1826SOL    HW1 6377   3.521   1.936   1.732
 1826SOL    HW2 6378   3.436   2.046   1.647
 1827SOL     OW 6379   5.516   4.506   0.493
 1827SOL    HW1 6380   5.532   4.603   0.471
 1827SOL    HW2 6381   5.556   4.485   0.582
 1828SOL     OW 6382   1.357   3.431   5.827
 1828SOL    HW1 6383   1.404   3.520   5.822
 1828SOL    HW2 6384   1.405   3.365   5.770
 1829SOL     OW 6385   3.572   0.845   3.979
 1829SOL    HW1 6386   3.527   0.927   4.012
 1829SOL    HW2 6387   3.664   0.839   4.020
 1830SOL     OW 6388   6.006   0.122   4.890
 1830SOL    HW1 6389   5.957   0.050   4.841
 1830SOL    HW2 6390   5.968   0.131   4.982
 1831SOL     OW 6391   5.109   4.985   2.760
 1831SOL    HW1 6392   5.065   5.067   2.724
 1831SOL    HW2 6393   5.084   4.974   2.857
 1832SOL     OW 6394   2.362   3.646   0.648
 1832SOL    HW1 6395   2.434   3.596   0.600
 1832SOL    HW2 6396   2.273   3.608   0.624
 1833SOL     OW 6397   4.940   0.114   1.829
 1833SOL    HW1 6398   4.919   0.024   1.791
 1833SOL    HW2 6399   4.950   0.180   1.754
 1834SOL     OW 6400   2.505   2.213   0.169
 1834SOL    HW1 6401   2.516   2.145   0.242
 1834SOL    HW2 6402   2.559   2.185   0.090
 1835SOL     OW 6403   0.080   4.983   1.187
 1835SOL    HW1 6404   0.141   4.986   1.266
 1835SOL    HW2 6405   0.134   4.976   1.103
 1836SOL     OW 6406   5.717   1.491   1.966
 1836SOL    HW1 6407   5.785   1.560   1.941
 1836SOL    HW2 6408   5.752   1.400   1.943
 1837SOL     OW 6409   2.784   1.030   6.190
 1837SOL    HW1 6410   2.752   0.955   6.132
 1837SOL    HW2 6411   2.738   1.114   6.163
 1838SOL     OW 6412   5.882   1.064   0.617
 1838SOL    HW1 6413   5.855   0.985   0.561
 1838SOL    HW2 6414   5.982   1.070   0.620
 1839SOL     OW 6415   5.961   1.604   0.373
 1839SOL    HW1 6416   5.863   1.620   0.389
 1839SOL    HW2 6417   5.986   1.514   0.409
 1840SOL     OW 6418   4.274   0.185   2.942
 1840SOL    HW1 6419   4.225   0.254   2.996
 1840SOL    HW2 6420   4.372   0.202   2.946
 1841SOL     OW 6421   2.215   0.366   2.360
 1841SOL    HW1 6422   2.253   0.279   2.331
 1841SOL    HW2 6423   2.281   0.415   2.416
 1842SOL     OW 6424   2.114   5.012   0.677
 1842SOL    HW1 6425   2.131   4.941   0.745
 1842SOL    HW2 6426   2.191   5.017   0.613
 1843SOL     OW 6427   3.249   1.252   4.574
 1843SOL    HW1 6428   3.232   1.327   4.637
 1843SOL    HW2 6429   3.215   1.276   4.483
 1844SOL     OW 6430   4.791   1.425   6.301
 1844SOL    HW1 6431   4.803   1.509   6.249
 1844SOL    HW2 6432   4.760   1.446   6.393
 1845SOL     OW 6433   1.989   1.274   3.092
 1845SOL    HW1 6434   1.954   1.245   3.182
 1845SOL    HW2 6435   2.064   1.215   3.064
 1846SOL     OW 6436   4.467   1.073   2.952
 1846SOL    HW1 6437   4.486   1.043   3.046
 1846SOL    HW2 6438   4.399   1.012   2.911
 1847SOL     OW 6439   2.095   0.114   4.477
 1847SOL    HW1 6440   2.149   0.048   4.527
 1847SOL    HW2 6441   2.015   0.069   4.437
 1848SOL     OW 6442   1.961   5.706   4.172
 1848SOL    HW1 6443   2.047   5.737   4.132
 1848SOL    HW2 6444   1.939   5.615   4.137
 1849SOL     OW 6445   4.398   2.307   2.577
 1849SOL    HW1 6446   4.451   2.236   2.624
 1849SOL    HW2 6447   4.445   2.395   2.585
 1850SOL     OW 6448   5.413   2.311   2.116
 1850SOL    HW1 6449   5.340   2.316   2.047
 1850SOL    HW2 6450   5.375   2.276   2.202
 1851SOL     OW 6451   0.028   3.094   6.035
 1851SOL    HW1 6452   6.958   3.097   6.065
 1851SOL    HW2 6453   0.086   3.059   6.109
 1852SOL     OW 6454   1.567   4.727   2.071
 1852SOL    HW1 6455   1.593   4.636   2.038
 1852SOL    HW2 6456   1.648   4.786   2.072
 1853SOL     OW 6457   0.373   2.841   4.447
 1853SOL    HW1 6458   0.355   2.870   4.353
 1853SOL    HW2 6459   0.346   2.915   4.510
 1854SOL     OW 6460   0.673   5.864   3.091
 1854SOL    HW1 6461   0.665   5.897   2.997
 1854SOL    HW2 6462   0.696   5.940   3.152
 1855SOL     OW 6463   4.917   3.464   4.759
 1855SOL    HW1 6464   4.885   3.504   4.845
 1855SOL    HW2 6465   4.890   3.367   4.756
 1856SOL     OW 6466   3.807   3.774   6.874
 1856SOL    HW1 6467   3.863   3.720   6.812
 1856SOL    HW2 6468   3.862   3.848   6.914
 1857SOL     OW 6469   5.118   0.867   0.473
 1857SOL    HW1 6470   5.130   0.942   0.408
 1857SOL    HW2 6471   5.020   0.855   0.493
 1858SOL     OW 6472   4.445   2.354   4.412
 1858SOL    HW1 6473   4.482   2.446   4.412
 1858SOL    HW2 6474   4.510   2.292   4.455
 1859SOL     OW 6475   6.157   1.998   4.900
 1859SOL    HW1 6476   6.082   1.956   4.848
 1859SOL    HW2 6477   6.214   2.051   4.838
 1860SOL     OW 6478   0.910   1.705   5.041
 1860SOL    HW1 6479   0.929   1.690   5.138
 1860SOL    HW2 6480   0.996   1.716   4.991
 1861SOL     OW 6481   6.639   0.863   3.047
 1861SOL    HW1 6482   6.556   0.881   2.994
 1861SOL    HW2 6483   6.710   0.928   3.021
 1862SOL     OW 6484   1.885   6.359   6.844
 1862SOL    HW1 6485   1.824   6.325   6.772
 1862SOL    HW2 6486   1.838   6.429   6.897
 1863SOL     OW 6487   0.358   3.397   1.490
 1863SOL    HW1 6488   0.422   3.465   1.455
 1863SOL    HW2 6489   0.329   3.337   1.415
 1864SOL     OW 6490   3.144   5.899   3.343
 1864SOL    HW1 6491   3.130   5.917   3.441
 1864SOL    HW2 6492   3.227   5.845   3.331
 1865SOL     OW 6493   4.813   1.200   6.922
 1865SOL    HW1 6494   4.764   1.287   6.927
 1865SOL    HW2 6495   4.779   1.147   6.844
 1866SOL     OW 6496   0.818   4.352   3.928
 1866SOL    HW1 6497   0.868   4.438   3.945
 1866SOL    HW2 6498   0.836   4.288   4.003
 1867SOL     OW 6499   2.797   2.095   1.447
 1867SOL    HW1 6500   2.755   2.084   1.537
 1867SOL    HW2 6501   2.753   2.171   1.399
 1868SOL     OW 6502   5.412   4.240   5.300
 1868SOL    HW1 6503   5.329   4.283   5.335
 1868SOL    HW2 6504   5.492   4.288   5.334
 1869SOL     OW 6505   4.436   2.136   4.032
 1869SOL    HW1 6506   4.356   2.079   4.014
 1869SOL    HW2 6507   4.407   2.231   4.047
 1870SOL     OW 6508   1.452   4.490   4.276
 1870SOL    HW1 6509   1.505   4.519   4.355
 1870SOL    HW2 6510   1.445   4.390   4.275
 1871SOL     OW 6511   0.885   6.668   0.363
 1871SOL    HW1 6512   0.925   6.578   0.379
 1871SOL    HW2 6513   0.929   6.709   0.283
 1872SOL     OW 6514   3.246   1.966   0.411
 1872SOL    HW1 6515   3.153   1.974   0.446
 1872SOL    HW2 6516   3.295   2.052   0.427
 1873SOL     OW 6517   6.451   0.934   0.033
 1873SOL    HW1 6518   6.506   0.933   6.975
 1873SOL    HW2 6519   6.479   0.858   0.091
 1874SOL     OW 6520   1.105   6.512   6.063
 1874SOL    HW1 6521   1.007   6.496   6.056
 1874SOL    HW2 6522   1.155   6.430   6.035
 1875SOL     OW 6523   6.525   5.653   6.919
 1875SOL    HW1 6524   6.579   5.604   6.988
 1875SOL    HW2 6525   6.428   5.640   6.938
 1876SOL     OW 6526   5.552   6.514   6.413
 1876SOL    HW1 6527   5.507   6.538   6.327
 1876SOL    HW2 6528   5.647   6.488   6.395
 1877SOL     OW 6529   0.389   1.315   2.532
 1877SOL    HW1 6530   0.365   1.296   2.437
 1877SOL    HW2 6531   0.446   1.241   2.568
 1878SOL     OW 6532   0.517   4.600   3.523
 1878SOL    HW1 6533   0.599   4.626   3.472
 1878SOL    HW2 6534   0.536   4.521   3.581
 1879SOL     OW 6535   3.391   5.566   5.133
 1879SOL    HW1 6536   3.308   5.535   5.088
 1879SOL    HW2 6537   3.374   5.578   5.231
 1880SOL     OW 6538   6.814   2.141   3.296
 1880SOL    HW1 6539   6.810   2.240   3.305
 1880SOL    HW2 6540   6.793   2.098   3.384
 1881SOL     OW 6541   1.011   2.381   3.951
 1881SOL    HW1 6542   1.038   2.411   3.859
 1881SOL    HW2 6543   0.947   2.305   3.943
 1882SOL     OW 6544   1.216   6.184   6.895
 1882SOL    HW1 6545   1.203   6.095   6.938
 1882SOL    HW2 6546   1.207   6.256   6.964
 1883SOL     OW 6547   1.345   3.896   3.137
 1883SOL    HW1 6548   1.253   3.880   3.175
 1883SOL    HW2 6549   1.412   3.845   3.191
 1884SOL     OW 6550   3.125   1.061   0.430
 1884SOL    HW1 6551   3.059   1.101   0.366
 1884SOL    HW2 6552   3.214   1.106   0.418
 1885SOL     OW 6553   0.119   2.741   0.816
 1885SOL    HW1 6554   0.179   2.664   0.794
 1885SOL    HW2 6555   0.170   2.827   0.806
 1886SOL     OW 6556   2.013   1.759   6.681
 1886SOL    HW1 6557   2.110   1.755   6.654
 1886SOL    HW2 6558   1.975   1.667   6.681
 1887SOL     OW 6559   0.883   5.806   5.374
 1887SOL    HW1 6560   0.943   5.852   5.440
 1887SOL    HW2 6561   0.920   5.818   5.281
 1888SOL     OW 6562   2.054   1.772   5.816
 1888SOL    HW1 6563   2.135   1.822   5.787
 1888SOL    HW2 6564   2.080   1.678   5.840
 1889SOL     OW 6565   4.132   2.842   0.084
 1889SOL    HW1 6566   4.197   2.790   0.141
 1889SOL    HW2 6567   4.091   2.780   0.017
 1890SOL     OW 6568   0.601   5.682   6.420
 1890SOL    HW1 6569   0.622   5.718   6.329
 1890SOL    HW2 6570   0.546   5.599   6.410
 1891SOL     OW 6571   5.387   3.587   5.526
 1891SOL    HW1 6572   5.322   3.648   5.482
 1891SOL    HW2 6573   5.480   3.623   5.514
 1892SOL     OW 6574   3.837   5.700   1.551
 1892SOL    HW1 6575   3.753   5.692   1.498
 1892SOL    HW2 6576   3.901   5.628   1.524
 1893SOL     OW 6577   3.737   2.104   3.748
 1893SOL    HW1 6578   3.775   2.014   3.728
 1893SOL    HW2 6579   3.744   2.122   3.847
 1894SOL     OW 6580   4.431   3.881   1.624
 1894SOL    HW1 6581   4.512   3.833   1.657
 1894SOL    HW2 6582   4.349   3.832   1.654
 1895SOL     OW 6583   6.326   0.905   2.630
 1895SOL    HW1 6584   6.268   0.984   2.607
 1895SOL    HW2 6585   6.385   0.929   2.707
 1896SOL     OW 6586   6.160   1.685   4.463
 1896SOL    HW1 6587   6.189   1.682   4.559
 1896SOL    HW2 6588   6.207   1.614   4.412
 1897SOL     OW 6589   6.103   5.135   3.468
 1897SOL    HW1 6590   6.161   5.196   3.414
 1897SOL    HW2 6591   6.126   5.146   3.565
 1898SOL     OW 6592   5.471   5.746   0.929
 1898SOL    HW1 6593   5.544   5.793   0.880
 1898SOL    HW2 6594   5.488   5.749   1.027
 1899SOL     OW 6595   0.353   3.102   3.094
 1899SOL    HW1 6596   0.425   3.114   3.161
 1899SOL    HW2 6597   0.348   3.006   3.067
 1900SOL     OW 6598   1.373   6.194   5.773
 1900SOL    HW1 6599   1.437   6.158   5.841
 1900SOL    HW2 6600   1.320   6.269   5.814
 1901SOL     OW 6601   1.676   0.423   0.104
 1901SOL    HW1 6602   1.579   0.441   0.123
 1901SOL    HW2 6603   1.725   0.510   0.098
 1902SOL     OW 6604   0.738   3.250   4.121
 1902SOL    HW1 6605   0.721   3.153   4.104
 1902SOL    HW2 6606   0.655   3.292   4.159
 1903SOL     OW 6607   6.589   4.059   3.226
 1903SOL    HW1 6608   6.653   4.102   3.163
 1903SOL    HW2 6609   6.617   4.077   3.320
 1904SOL     OW 6610   0.379   0.177   4.291
 1904SOL    HW1 6611   0.390   0.274   4.269
 1904SOL    HW2 6612   0.461   0.127   4.261
 1905SOL     OW 6613   0.059   2.359   4.055
 1905SOL    HW1 6614   0.053   2.399   4.146
 1905SOL    HW2 6615   0.152   2.370   4.020
 1906SOL     OW 6616   2.101   6.615   6.124
 1906SOL    HW1 6617   2.101   6.688   6.057
 1906SOL    HW2 6618   2.161   6.541   6.093
 1907SOL     OW 6619   3.131   6.666   3.158
 1907SOL    HW1 6620   3.130   6.635   3.063
 1907SOL    HW2 6621   3.221   6.705   3.179
 1908SOL     OW 6622   4.281   1.255   5.953
 1908SOL    HW1 6623   4.239   1.340   5.983
 1908SOL    HW2 6624   4.364   1.275   5.901
 1909SOL     OW 6625   2.292   4.535   4.830
 1909SOL    HW1 6626   2.221   4.484   4.879
 1909SOL    HW2 6627   2.303   4.625   4.872
 1910SOL     OW 6628   5.137   2.378   6.075
 1910SOL    HW1 6629   5.046   2.371   6.033
 1910SOL    HW2 6630   5.174   2.286   6.089
 1911SOL     OW 6631   6.401   2.356   5.116
 1911SOL    HW1 6632   6.499   2.367   5.098
 1911SOL    HW2 6633   6.370   2.428   5.178
 1912SOL     OW 6634   2.903   6.902   2.312
 1912SOL    HW1 6635   2.911   6.982   2.371
 1912SOL    HW2 6636   2.954   6.826   2.352
 1913SOL     OW 6637   2.074   5.885   5.331
 1913SOL    HW1 6638   2.094   5.788   5.348
 1913SOL    HW2 6639   2.025   5.894   5.244
 1914SOL     OW 6640   2.384   2.712   6.252
 1914SOL    HW1 6641   2.353   2.768   6.174
 1914SOL    HW2 6642   2.460   2.758   6.298
 1915SOL     OW 6643   4.205   0.437   6.020
 1915SOL    HW1 6644   4.203   0.389   5.933
 1915SOL    HW2 6645   4.226   0.372   6.093
 1916SOL     OW 6646   3.622   5.723   1.891
 1916SOL    HW1 6647   3.583   5.660   1.823
 1916SOL    HW2 6648   3.561   5.727   1.970
 1917SOL     OW 6649   3.022   3.716   4.508
 1917SOL    HW1 6650   3.016   3.680   4.601
 1917SOL    HW2 6651   3.057   3.810   4.510
 1918SOL     OW 6652   5.831   6.182   5.991
 1918SOL    HW1 6653   5.861   6.197   5.897
 1918SOL    HW2 6654   5.889   6.235   6.053
 1919SOL     OW 6655   0.824   6.308   2.328
 1919SOL    HW1 6656   0.777   6.227   2.363
 1919SOL    HW2 6657   0.902   6.280   2.272
 1920SOL     OW 6658   0.408   5.199   3.399
 1920SOL    HW1 6659   0.503   5.170   3.385
 1920SOL    HW2 6660   0.389   5.205   3.497
 1921SOL     OW 6661   1.386   6.181   6.651
 1921SOL    HW1 6662   1.452   6.257   6.653
 1921SOL    HW2 6663   1.333   6.181   6.736
 1922SOL     OW 6664   3.994   3.110   1.630
 1922SOL    HW1 6665   4.002   3.045   1.555
 1922SOL    HW2 6666   3.966   3.063   1.713
 1923SOL     OW 6667   2.289   1.005   0.946
 1923SOL    HW1 6668   2.290   0.927   1.009
 1923SOL    HW2 6669   2.285   1.090   0.999
 1924SOL     OW 6670   6.569   4.511   1.850
 1924SOL    HW1 6671   6.483   4.561   1.862
 1924SOL    HW2 6672   6.623   4.554   1.777
 1925SOL     OW 6673   3.311   3.916   1.842
 1925SOL    HW1 6674   3.260   3.857   1.780
 1925SOL    HW2 6675   3.248   3.959   1.907
 1926SOL     OW 6676   1.238   0.095   4.498
 1926SOL    HW1 6677   1.193   0.016   4.455
 1926SOL    HW2 6678   1.335   0.096   4.473
 1927SOL     OW 6679   4.189   3.683   6.866
 1927SOL    HW1 6680   4.198   3.702   6.964
 1927SOL    HW2 6681   4.279   3.685   6.823
 1928SOL     OW 6682   6.844   3.490   5.670
 1928SOL    HW1 6683   6.793   3.404   5.666
 1928SOL    HW2 6684   6.939   3.473   5.646
 1929SOL     OW 6685   1.356   6.305   1.430
 1929SOL    HW1 6686   1.260   6.284   1.409
 1929SOL    HW2 6687   1.370   6.404   1.423
 1930SOL     OW 6688   6.347   4.538   6.501
 1930SOL    HW1 6689   6.262   4.588   6.482
 1930SOL    HW2 6690   6.346   4.506   6.596
 1931SOL     OW 6691   0.317   3.841   3.258
 1931SOL    HW1 6692   0.256   3.908   3.299
 1931SOL    HW2 6693   0.306   3.842   3.158
 1932SOL     OW 6694   4.878   3.641   2.142
 1932SOL    HW1 6695   4.836   3.689   2.218
 1932SOL    HW2 6696   4.895   3.705   2.067
 1933SOL     OW 6697   3.166   4.142   0.652
 1933SOL    HW1 6698   3.225   4.097   0.719
 1933SOL    HW2 6699   3.131   4.227   0.690
 1934SOL     OW 6700   0.804   0.251   5.684
 1934SOL    HW1 6701   0.810   0.348   5.661
 1934SOL    HW2 6702   0.764   0.201   5.607
 1935SOL     OW 6703   2.240   6.944   4.141
 1935SOL    HW1 6704   2.309   7.006   4.180
 1935SOL    HW2 6705   2.157   6.996   4.122
 1936SOL     OW 6706   5.559   6.005   4.656
 1936SOL    HW1 6707   5.628   6.006   4.728
 1936SOL    HW2 6708   5.471   6.035   4.693
 1937SOL     OW 6709   4.227   6.921   1.685
 1937SOL    HW1 6710   4.241   6.943   1.781
 1937SOL    HW2 6711   4.129   6.916   1.666
 1938SOL     OW 6712   3.577   1.213   3.564
 1938SOL    HW1 6713   3.504   1.259   3.514
 1938SOL    HW2 6714   3.555   1.213   3.662
 1939SOL     OW 6715   1.460   0.831   3.759
 1939SOL    HW1 6716   1.545   0.884   3.757
 1939SOL    HW2 6717   1.391   0.881   3.811
 1940SOL     OW 6718   5.531   5.606   6.950
 1940SOL    HW1 6719   5.501   5.511   6.945
 1940SOL    HW2 6720   5.618   5.611   6.999
 1941SOL     OW 6721   6.096   3.966   3.212
 1941SOL    HW1 6722   6.168   3.993   3.147
 1941SOL    HW2 6723   6.015   3.936   3.162
 1942SOL     OW 6724   6.141   5.600   2.065
 1942SOL    HW1 6725   6.179   5.687   2.096
 1942SOL    HW2 6726   6.182   5.525   2.117
 1943SOL     OW 6727   2.786   5.425   2.752
 1943SOL    HW1 6728   2.781   5.491   2.826
 1943SOL    HW2 6729   2.820   5.338   2.787
 1944SOL     OW 6730   5.624   1.643   6.430
 1944SOL    HW1 6731   5.610   1.729   6.380
 1944SOL    HW2 6732   5.536   1.602   6.452
 1945SOL     OW 6733   4.713   5.271   3.134
 1945SOL    HW1 6734   4.797   5.325   3.138
 1945SOL    HW2 6735   4.642   5.324   3.088
 1946SOL     OW 6736   1.577   0.235   1.028
 1946SOL    HW1 6737   1.519   0.297   1.080
 1946SOL    HW2 6738   1.595   0.272   0.937
 1947SOL     OW 6739   5.675   6.351   4.738
 1947SOL    HW1 6740   5.732   6.427   4.769
 1947SOL    HW2 6741   5.625   6.377   4.655
 1948SOL     OW 6742   0.042   5.070   4.476
 1948SOL    HW1 6743   0.071   5.146   4.533
 1948SOL    HW2 6744   0.020   5.103   4.384
 1949SOL     OW 6745   4.324   4.494   6.110
 1949SOL    HW1 6746   4.225   4.489   6.099
 1949SOL    HW2 6747   4.368   4.438   6.041
 1950SOL     OW 6748   3.888   3.827   6.455
 1950SOL    HW1 6749   3.833   3.778   6.387
 1950SOL    HW2 6750   3.884   3.777   6.542
 1951SOL     OW 6751   5.457   2.133   7.025
 1951SOL    HW1 6752   5.426   2.212   0.052
 1951SOL    HW2 6753   5.529   2.161   6.961
 1952SOL     OW 6754   3.740   1.827   0.781
 1952SOL    HW1 6755   3.667   1.773   0.739
 1952SOL    HW2 6756   3.734   1.922   0.750
 1953SOL     OW 6757   6.875   2.416   6.849
 1953SOL    HW1 6758   6.794   2.441   6.796
 1953SOL    HW2 6759   6.846   2.373   6.935
 1954SOL     OW 6760   5.491   1.874   3.535
 1954SOL    HW1 6761   5.401   1.911   3.559
 1954SOL    HW2 6762   5.558   1.949   3.530
 1955SOL     OW 6763   1.716   0.254   2.270
 1955SOL    HW1 6764   1.637   0.299   2.228
 1955SOL    HW2 6765   1.740   0.173   2.217
 1956SOL     OW 6766   5.070   6.172   3.004
 1956SOL    HW1 6767   5.084   6.075   2.983
 1956SOL    HW2 6768   4.973   6.189   3.017
 1957SOL     OW 6769   0.047   6.095   4.739
 1957SOL    HW1 6770   0.121   6.161   4.754
 1957SOL    HW2 6771   0.007   6.109   4.649
 1958SOL     OW 6772   5.494   3.465   4.806
 1958SOL    HW1 6773   5.504   3.563   4.828
 1958SOL    HW2 6774   5.398   3.439   4.816
 1959SOL     OW 6775   0.726   2.788   5.699
 1959SOL    HW1 6776   0.636   2.812   5.662
 1959SOL    HW2 6777   0.733   2.689   5.707
 1960SOL     OW 6778   6.469   4.752   0.688
 1960SOL    HW1 6779   6.506   4.659   0.696
 1960SOL    HW2 6780   6.518   4.812   0.751
 1961SOL     OW 6781   5.956   5.062   4.223
 1961SOL    HW1 6782   5.978   4.983   4.279
 1961SOL    HW2 6783   5.857   5.070   4.213
 1962SOL     OW 6784   1.575   6.200   3.841
 1962SOL    HW1 6785   1.545   6.256   3.918
 1962SOL    HW2 6786   1.642   6.251   3.788
 1963SOL     OW 6787   0.646   0.538   1.984
 1963SOL    HW1 6788   0.633   0.601   1.908
 1963SOL    HW2 6789   0.743   0.517   1.993
 1964SOL     OW 6790   4.732   2.641   1.539
 1964SOL    HW1 6791   4.639   2.604   1.549
 1964SOL    HW2 6792   4.747   2.712   1.608
 1965SOL     OW 6793   0.647   3.436   2.699
 1965SOL    HW1 6794   0.612   3.367   2.762
 1965SOL    HW2 6795   0.716   3.394   2.639
 1966SOL     OW 6796   0.294   4.916   4.508
 1966SOL    HW1 6797   0.249   5.004   4.496
 1966SOL    HW2 6798   0.230   4.842   4.485
 1967SOL     OW 6799   5.005   2.826   5.812
 1967SOL    HW1 6800   4.949   2.765   5.756
 1967SOL    HW2 6801   5.010   2.916   5.768
 1968SOL     OW 6802   2.652   5.772   6.804
 1968SOL    HW1 6803   2.553   5.764   6.820
 1968SOL    HW2 6804   2.682   5.700   6.742
 1969SOL     OW 6805   6.784   2.477   1.729
 1969SOL    HW1 6806   6.811   2.570   1.703
 1969SOL    HW2 6807   6.805   2.462   1.826
 1970SOL     OW 6808   1.688   0.415   5.822
 1970SOL    HW1 6809   1.669   0.510   5.846
 1970SOL    HW2 6810   1.620   0.383   5.756
 1971SOL     OW 6811   6.783   6.983   6.632
 1971SOL    HW1 6812   6.833   6.908   6.675
 1971SOL    HW2 6813   6.784   6.972   6.533
 1972SOL     OW 6814   0.534   3.593   3.504
 1972SOL    HW1 6815   0.558   3.670   3.562
 1972SOL    HW2 6816   0.517   3.512   3.560
 1973SOL     OW 6817   3.571   2.726   1.700
 1973SOL    HW1 6818   3.593   2.804   1.640
 1973SOL    HW2 6819   3.556   2.759   1.793
 1974SOL     OW 6820   6.081   6.155   4.165
 1974SOL    HW1 6821   6.139   6.232   4.190
 1974SOL    HW2 6822   6.003   6.150   4.227
 1975SOL     OW 6823   2.022   0.465   3.937
 1975SOL    HW1 6824   1.952   0.470   3.865
 1975SOL    HW2 6825   2.103   0.516   3.908
 1976SOL     OW 6826   0.440   6.124   0.401
 1976SOL    HW1 6827   0.493   6.106   0.484
 1976SOL    HW2 6828   0.500   6.164   0.331
 1977SOL     OW 6829   0.797   2.871   3.747
 1977SOL    HW1 6830   0.814   2.789   3.802
 1977SOL    HW2 6831   0.699   2.885   3.738
 1978SOL     OW 6832   0.930   1.594   4.396
 1978SOL    HW1 6833   0.982   1.595   4.482
 1978SOL    HW2 6834   0.951   1.677   4.344
 1979SOL     OW 6835   6.891   4.685   5.299
 1979SOL    HW1 6836   6.881   4.748   5.376
 1979SOL    HW2 6837   6.834   4.605   5.314
 1980SOL     OW 6838   3.326   0.470   0.578
 1980SOL    HW1 6839   3.269   0.489   0.658
 1980SOL    HW2 6840   3.304   0.533   0.504
 1981SOL     OW 6841   5.304   2.297   2.574
 1981SOL    HW1 6842   5.307   2.397   2.580
 1981SOL    HW2 6843   5.228   2.262   2.629
 1982SOL     OW 6844   5.965   5.346   5.187
 1982SOL    HW1 6845   5.963   5.325   5.090
 1982SOL    HW2 6846   6.003   5.438   5.201
 1983SOL     OW 6847   1.404   2.440   3.227
 1983SOL    HW1 6848   1.304   2.440   3.224
 1983SOL    HW2 6849   1.440   2.489   3.148
 1984SOL     OW 6850   4.405   1.979   6.192
 1984SOL    HW1 6851   4.355   1.933   6.265
 1984SOL    HW2 6852   4.411   2.077   6.212
 1985SOL     OW 6853   1.149   1.399   2.421
 1985SOL    HW1 6854   1.215   1.375   2.492
 1985SOL    HW2 6855   1.177   1.357   2.335
 1986SOL     OW 6856   1.254   1.715   6.791
 1986SOL    HW1 6857   1.247   1.814   6.784
 1986SOL    HW2 6858   1.338   1.684   6.745
 1987SOL     OW 6859   2.864   3.048   1.714
 1987SOL    HW1 6860   2.887   2.956   1.681
 1987SOL    HW2 6861   2.946   3.091   1.752
 1988SOL     OW 6862   4.775   4.273   0.095
 1988SOL    HW1 6863   4.866   4.237   0.116
 1988SOL    HW2 6864   4.712   4.248   0.168
 1989SOL     OW 6865   2.125   0.348   4.574
 1989SOL    HW1 6866   2.197   0.402   4.530
 1989SOL    HW2 6867   2.115   0.261   4.527
 1990SOL     OW 6868   3.343   0.227   1.818
 1990SOL    HW1 6869   3.437   0.202   1.843
 1990SOL    HW2 6870   3.307   0.159   1.753
 1991SOL     OW 6871   3.720   5.386   5.539
 1991SOL    HW1 6872   3.694   5.432   5.454
 1991SOL    HW2 6873   3.705   5.288   5.530
 1992SOL     OW 6874   3.172   0.161   5.231
 1992SOL    HW1 6875   3.199   0.158   5.327
 1992SOL    HW2 6876   3.157   0.255   5.203
 1993SOL     OW 6877   3.724   3.744   5.223
 1993SOL    HW1 6878   3.682   3.696   5.146
 1993SOL    HW2 6879   3.661   3.812   5.259
 1994SOL     OW 6880   0.635   2.043   2.349
 1994SOL    HW1 6881   0.682   2.128   2.370
 1994SOL    HW2 6882   0.688   1.992   2.281
 1995SOL     OW 6883   6.346   2.224   2.509
 1995SOL    HW1 6884   6.415   2.268   2.450
 1995SOL    HW2 6885   6.279   2.292   2.538
 1996SOL     OW 6886   3.159   2.739   1.168
 1996SOL    HW1 6887   3.244   2.790   1.157
 1996SOL    HW2 6888   3.176   2.641   1.154
 1997SOL     OW 6889   5.924   0.946   5.092
 1997SOL    HW1 6890   6.012   0.898   5.088
 1997SOL    HW2 6891   5.862   0.906   5.025
 1998SOL     OW 6892   2.759   3.792   6.615
 1998SOL    HW1 6893   2.750   3.883   6.654
 1998SOL    HW2 6894   2.738   3.795   6.517
 1999SOL     OW 6895   2.554   0.454   2.171
 1999SOL    HW1 6896   2.615   0.416   2.102
 1999SOL    HW2 6897   2.563   0.401   2.256
 2000SOL     OW 6898   4.086   1.384   4.910
 2000SOL    HW1 6899   4.166   1.389   4.970
 2000SOL    HW2 6900   4.078   1.468   4.857
 2001SOL     OW 6901   3.412   2.249   1.719
 2001SOL    HW1 6902   3.491   2.245   1.780
 2001SOL    HW2 6903   3.416   2.334   1.666
 2002SOL     OW 6904   1.423   6.162   6.189
 2002SOL    HW1 6905   1.389   6.166   6.283
 2002SOL    HW2 6906   1.491   6.233   6.175
 2003SOL     OW 6907   4.972   0.188   3.951
 2003SOL    HW1 6908   4.972   0.101   4.001
 2003SOL    HW2 6909   4.878   0.221   3.942
 2004SOL     OW 6910   4.460   1.129   4.307
 2004SOL    HW1 6911   4.363   1.141   4.289
 2004SOL    HW2 6912   4.513   1.148   4.224
 2005SOL     OW 6913   1.583   5.592   6.597
 2005SOL    HW1 6914   1.511   5.526   6.618
 2005SOL    HW2 6915   1.654   5.548   6.541
 2006SOL     OW 6916   5.009   4.446   3.642
 2006SOL    HW1 6917   5.005   4.412   3.736
 2006SOL    HW2 6918   5.099   4.487   3.626
 2007SOL     OW 6919   5.021   5.282   0.119
 2007SOL    HW1 6920   4.923   5.259   0.120
 2007SOL    HW2 6921   5.053   5.298   0.212
 2008SOL     OW 6922   0.465   5.533   3.589
 2008SOL    HW1 6923   0.370   5.506   3.608
 2008SOL    HW2 6924   0.524   5.501   3.664
 2009SOL     OW 6925   6.364   0.622   1.936
 2009SOL    HW1 6926   6.419   0.702   1.914
 2009SOL    HW2 6927   6.270   0.636   1.905
 2010SOL     OW 6928   1.920   0.971   1.057
 2010SOL    HW1 6929   1.891   0.970   0.962
 2010SOL    HW2 6930   1.965   0.885   1.080
 2011SOL     OW 6931   6.653   2.511   5.072
 2011SOL    HW1 6932   6.673   2.503   5.170
 2011SOL    HW2 6933   6.656   2.607   5.045
 2012SOL     OW 6934   1.000   3.660   1.622
 2012SOL    HW1 6935   0.911   3.682   1.583
 2012SOL    HW2 6936   1.061   3.625   1.551
 2013SOL     OW 6937   5.172   1.744   2.693
 2013SOL    HW1 6938   5.173   1.831   2.744
 2013SOL    HW2 6939   5.242   1.684   2.729
 2014SOL     OW 6940   1.005   5.992   3.137
 2014SOL    HW1 6941   1.023   5.982   3.039
 2014SOL    HW2 6942   0.995   5.901   3.178
 2015SOL     OW 6943   3.175   1.137   6.938
 2015SOL    HW1 6944   3.128   1.177   6.859
 2015SOL    HW2 6945   3.269   1.115   6.914
 2016SOL     OW 6946   0.613   5.495   4.665
 2016SOL    HW1 6947   0.531   5.512   4.610
 2016SOL    HW2 6948   0.607   5.546   4.751
 2017SOL     OW 6949   3.302   6.966   3.543
 2017SOL    HW1 6950   3.383   6.970   3.484
 2017SOL    HW2 6951   3.309   0.012   3.613
 2018SOL     OW 6952   0.067   5.636   5.859
 2018SOL    HW1 6953   0.145   5.585   5.894
 2018SOL    HW2 6954   7.021   5.638   5.929
 2019SOL     OW 6955   5.317   2.762   0.937
 2019SOL    HW1 6956   5.264   2.754   1.021
 2019SOL    HW2 6957   5.305   2.680   0.881
 2020SOL     OW 6958   1.224   5.138   4.972
 2020SOL    HW1 6959   1.205   5.108   4.879
 2020SOL    HW2 6960   1.156   5.099   5.035
 2021SOL     OW 6961   1.935   0.254   2.908
 2021SOL    HW1 6962   2.016   0.268   2.851
 2021SOL    HW2 6963   1.909   0.341   2.950
 2022SOL     OW 6964   1.771   3.676   1.992
 2022SOL    HW1 6965   1.717   3.754   1.961
 2022SOL    HW2 6966   1.794   3.688   2.089
 2023SOL     OW 6967   0.045   1.596   0.052
 2023SOL    HW1 6968   6.996   1.587   7.011
 2023SOL    HW2 6969   0.006   1.608   0.144
 2024SOL     OW 6970   0.002   0.976   2.790
 2024SOL    HW1 6971   0.016   0.880   2.767
 2024SOL    HW2 6972   0.063   1.032   2.733
 2025SOL     OW 6973   1.820   2.206   1.818
 2025SOL    HW1 6974   1.881   2.276   1.781
 2025SOL    HW2 6975   1.767   2.245   1.893
 2026SOL     OW 6976   1.867   2.080   6.007
 2026SOL    HW1 6977   1.932   2.016   5.966
 2026SOL    HW2 6978   1.858   2.060   6.105
 2027SOL     OW 6979   0.837   0.805   1.638
 2027SOL    HW1 6980   0.914   0.830   1.697
 2027SOL    HW2 6981   0.866   0.808   1.543
 2028SOL     OW 6982   3.672   1.469   0.516
 2028SOL    HW1 6983   3.603   1.489   0.446
 2028SOL    HW2 6984   3.698   1.554   0.561
 2029SOL     OW 6985   0.875   0.561   6.645
 2029SOL    HW1 6986   0.784   0.576   6.606
 2029SOL    HW2 6987   0.933   0.640   6.625
 2030SOL     OW 6988   1.729   2.421   3.306
 2030SOL    HW1 6989   1.675   2.345   3.270
 2030SOL    HW2 6990   1.671   2.483   3.358
 2031SOL     OW 6991   5.680   5.956   1.892
 2031SOL    HW1 6992   5.674   6.055   1.880
 2031SOL    HW2 6993   5.606   5.926   1.952
 2032SOL     OW 6994   5.352   6.061   0.956
 2032SOL    HW1 6995   5.330   6.001   0.879
 2032SOL    HW2 6996   5.320   6.153   0.937
 2033SOL     OW 6997   4.329   4.628   6.353
 2033SOL    HW1 6998   4.302   4.560   6.422
 2033SOL    HW2 6999   4.338   4.583   6.264
 2034SOL     OW 7000   1.791   6.247   3.684
 2034SOL    HW1 7001   1.812   6.149   3.683
 2034SOL    HW2 7002   1.872   6.298   3.713
 2035SOL     OW 7003   6.818   2.143   2.563
 2035SOL    HW1 7004   6.786   2.048   2.566
 2035SOL    HW2 7005   6.914   2.145   2.534
 2036SOL     OW 7006   0.312   5.642   1.645
 2036SOL    HW1 7007   0.408   5.666   1.637
 2036SOL    HW2 7008   0.256   5.724   1.636
 2037SOL     OW 7009   6.360   2.517   6.092
 2037SOL    HW1 7010   6.326   2.489   6.181
 2037SOL    HW2 7011   6.451   2.479   6.077
 2038SOL     OW 7012   0.750   2.003   6.671
 2038SOL    HW1 7013   0.687   1.956   6.609
 2038SOL    HW2 7014   0.701   2.033   6.753
 2039SOL     OW 7015   0.360   5.849   3.086
 2039SOL    HW1 7016   0.458   5.828   3.088
 2039SOL    HW2 7017   0.334   5.879   2.995
 2040SOL     OW 7018   3.782   2.974   4.440
 2040SOL    HW1 7019   3.711   2.976   4.370
 2040SOL    HW2 7020   3.871   2.962   4.396
 2041SOL     OW 7021   6.166   5.364   6.635
 2041SOL    HW1 7022   6.253   5.409   6.616
 2041SOL    HW2 7023   6.164   5.274   6.592
 2042SOL     OW 7024   5.864   5.458   0.398
 2042SOL    HW1 7025   5.829   5.376   0.354
 2042SOL    HW2 7026   5.940   5.495   0.344
 2043SOL     OW 7027   6.507   5.150   2.070
 2043SOL    HW1 7028   6.601   5.116   2.082
 2043SOL    HW2 7029   6.503   5.246   2.095
 2044SOL     OW 7030   5.453   0.277   1.832
 2044SOL    HW1 7031   5.548   0.248   1.842
 2044SOL    HW2 7032   5.421   0.314   1.919
 2045SOL     OW 7033   1.372   4.280   5.218
 2045SOL    HW1 7034   1.279   4.244   5.225
 2045SOL    HW2 7035   1.373   4.376   5.247
 2046SOL     OW 7036   6.578   0.993   4.113
 2046SOL    HW1 7037   6.570   0.991   4.212
 2046SOL    HW2 7038   6.616   1.081   4.084
 2047SOL     OW 7039   4.553   1.821   0.759
 2047SOL    HW1 7040   4.590   1.732   0.734
 2047SOL    HW2 7041   4.453   1.815   0.768
 2048SOL     OW 7042   3.503   6.505   6.960
 2048SOL    HW1 7043   3.554   6.536   0.015
 2048SOL    HW2 7044   3.540   6.548   6.878
 2049SOL     OW 7045   4.678   2.357   6.895
 2049SOL    HW1 7046   4.762   2.331   6.846
 2049SOL    HW2 7047   4.692   2.445   6.940
 2050SOL     OW 7048   5.926   2.909   3.511
 2050SOL    HW1 7049   5.853   2.887   3.575
 2050SOL    HW2 7050   5.985   2.829   3.498
 2051SOL     OW 7051   6.969   4.696   6.443
 2051SOL    HW1 7052   6.994   4.679   6.348
 2051SOL    HW2 7053   6.986   4.791   6.466
 2052SOL     OW 7054   0.422   3.071   6.755
 2052SOL    HW1 7055   0.338   3.051   6.705
 2052SOL    HW2 7056   0.483   3.125   6.698
 2053SOL     OW 7057   6.380   0.636   0.885
 2053SOL    HW1 7058   6.349   0.731   0.891
 2053SOL    HW2 7059   6.360   0.600   0.793
 2054SOL     OW 7060   5.644   3.360   1.257
 2054SOL    HW1 7061   5.653   3.417   1.176
 2054SOL    HW2 7062   5.556   3.377   1.301
 2055SOL     OW 7063   5.654   3.297   2.792
 2055SOL    HW1 7064   5.577   3.233   2.789
 2055SOL    HW2 7065   5.689   3.302   2.886
 2056SOL     OW 7066   1.889   1.517   2.419
 2056SOL    HW1 7067   1.948   1.531   2.339
 2056SOL    HW2 7068   1.942   1.536   2.502
 2057SOL     OW 7069   5.744   2.445   3.927
 2057SOL    HW1 7070   5.667   2.506   3.946
 2057SOL    HW2 7071   5.766   2.448   3.830
 2058SOL     OW 7072   1.122   1.623   2.998
 2058SOL    HW1 7073   1.068   1.542   3.022
 2058SOL    HW2 7074   1.116   1.639   2.900
 2059SOL     OW 7075   2.014   6.725   6.597
 2059SOL    HW1 7076   1.927   6.770   6.576
 2059SOL    HW2 7077   2.086   6.764   6.539
 2060SOL     OW 7078   6.935   4.270   0.845
 2060SOL    HW1 7079   6.983   4.263   0.932
 2060SOL    HW2 7080   6.836   4.276   0.862
 2061SOL     OW 7081   0.494   1.429   2.761
 2061SOL    HW1 7082   0.439   1.400   2.683
 2061SOL    HW2 7083   0.567   1.489   2.730
 2062SOL     OW 7084   5.476   0.457   3.142
 2062SOL    HW1 7085   5.400   0.391   3.138
 2062SOL    HW2 7086   5.538   0.431   3.216
 2063SOL     OW 7087   0.710   0.826   0.029
 2063SOL    HW1 7088   0.779   0.768   0.070
 2063SOL    HW2 7089   0.619   0.797   0.058
 2064SOL     OW 7090   1.035   1.903   5.894
 2064SOL    HW1 7091   1.098   1.934   5.823
 2064SOL    HW2 7092   1.017   1.806   5.883
 2065SOL     OW 7093   6.030   3.994   2.073
 2065SOL    HW1 7094   6.004   3.951   2.159
 2065SOL    HW2 7095   5.988   4.084   2.067
 2066SOL     OW 7096   0.834   5.303   4.038
 2066SOL    HW1 7097   0.815   5.392   4.080
 2066SOL    HW2 7098   0.905   5.314   3.968
 2067SOL     OW 7099   0.197   6.673   0.931
 2067SOL    HW1 7100   0.266   6.620   0.981
 2067SOL    HW2 7101   0.106   6.642   0.958
 2068SOL     OW 7102   1.522   1.336   5.227
 2068SOL    HW1 7103   1.621   1.327   5.240
 2068SOL    HW2 7104   1.499   1.326   5.130
 2069SOL     OW 7105   0.141   2.641   3.227
 2069SOL    HW1 7106   0.057   2.623   3.177
 2069SOL    HW2 7107   0.177   2.555   3.264
 2070SOL     OW 7108   1.799   6.846   2.695
 2070SOL    HW1 7109   1.705   6.881   2.689
 2070SOL    HW2 7110   1.863   6.922   2.706
 2071SOL     OW 7111   0.244   6.256   4.783
 2071SOL    HW1 7112   0.289   6.280   4.697
 2071SOL    HW2 7113   0.305   6.199   4.838
 2072SOL     OW 7114   4.140   6.169   1.656
 2072SOL    HW1 7115   4.209   6.232   1.691
 2072SOL    HW2 7116   4.181   6.108   1.588
 2073SOL     OW 7117   3.911   6.847   4.372
 2073SOL    HW1 7118   3.846   6.916   4.402
 2073SOL    HW2 7119   3.947   6.798   4.451
 2074SOL     OW 7120   0.537   2.196   6.722
 2074SOL    HW1 7121   0.562   2.181   6.626
 2074SOL    HW2 7122   0.480   2.277   6.730
 2075SOL     OW 7123   5.077   2.505   1.305
 2075SOL    HW1 7124   5.136   2.507   1.386
 2075SOL    HW2 7125   5.066   2.410   1.275
 2076SOL     OW 7126   5.019   6.240   6.919
 2076SOL    HW1 7127   5.006   6.273   7.013
 2076SOL    HW2 7128   5.081   6.303   6.870
 2077SOL     OW 7129   5.073   2.597   1.967
 2077SOL    HW1 7130   5.015   2.542   2.027
 2077SOL    HW2 7131   5.116   2.670   2.019
 2078SOL     OW 7132   2.528   6.011   6.160
 2078SOL    HW1 7133   2.620   6.052   6.158
 2078SOL    HW2 7134   2.534   5.918   6.198
 2079SOL     OW 7135   5.771   1.317   3.492
 2079SOL    HW1 7136   5.716   1.235   3.475
 2079SOL    HW2 7137   5.830   1.334   3.413
 2080SOL     OW 7138   2.368   1.333   4.858
 2080SOL    HW1 7139   2.298   1.358   4.925
 2080SOL    HW2 7140   2.387   1.412   4.799
 2081SOL     OW 7141   1.345   5.797   5.110
 2081SOL    HW1 7142   1.396   5.872   5.153
 2081SOL    HW2 7143   1.313   5.826   5.020
 2082SOL     OW 7144   5.834   0.459   2.272
 2082SOL    HW1 7145   5.782   0.376   2.291
 2082SOL    HW2 7146   5.854   0.506   2.357
 2083SOL     OW 7147   4.050   4.334   6.489
 2083SOL    HW1 7148   3.950   4.338   6.495
 2083SOL    HW2 7149   4.077   4.294   6.402
 2084SOL     OW 7150   6.923   3.700   3.903
 2084SOL    HW1 7151   6.965   3.767   3.841
 2084SOL    HW2 7152   6.844   3.742   3.948
 2085SOL     OW 7153   5.317   0.814   0.010
 2085SOL    HW1 7154   5.341   0.906   0.042
 2085SOL    HW2 7155   5.237   0.819   6.976
 2086SOL     OW 7156   2.777   5.882   5.973
 2086SOL    HW1 7157   2.780   5.972   6.015
 2086SOL    HW2 7158   2.704   5.879   5.905
 2087SOL     OW 7159   4.651   6.728   1.715
 2087SOL    HW1 7160   4.715   6.687   1.780
 2087SOL    HW2 7161   4.567   6.753   1.762
 2088SOL     OW 7162   2.892   5.261   0.556
 2088SOL    HW1 7163   2.946   5.185   0.593
 2088SOL    HW2 7164   2.926   5.284   0.465
 2089SOL     OW 7165   4.169   1.619   0.057
 2089SOL    HW1 7166   4.260   1.653   0.030
 2089SOL    HW2 7167   4.165   1.520   0.042
 2090SOL     OW 7168   3.982   3.351   4.632
 2090SOL    HW1 7169   3.986   3.363   4.533
 2090SOL    HW2 7170   4.043   3.416   4.676
 2091SOL     OW 7171   0.268   6.464   7.009
 2091SOL    HW1 7172   0.176   6.426   7.018
 2091SOL    HW2 7173   0.318   6.450   0.069
 2092SOL     OW 7174   4.989   5.705   0.812
 2092SOL    HW1 7175   4.934   5.623   0.797
 2092SOL    HW2 7176   5.086   5.681   0.806
 2093SOL     OW 7177   1.941   2.101   1.261
 2093SOL    HW1 7178   1.989   2.181   1.224
 2093SOL    HW2 7179   2.004   2.047   1.317
 2094SOL     OW 7180   6.119   1.505   1.525
 2094SOL    HW1 7181   6.046   1.456   1.476
 2094SOL    HW2 7182   6.083   1.591   1.560
 2095SOL     OW 7183   5.837   0.476   3.807
 2095SOL    HW1 7184   5.791   0.518   3.728
 2095SOL    HW2 7185   5.839   0.541   3.883
 2096SOL     OW 7186   4.860   3.960   2.637
 2096SOL    HW1 7187   4.849   4.049   2.682
 2096SOL    HW2 7188   4.878   3.890   2.707
 2097SOL     OW 7189   1.153   2.870   6.837
 2097SOL    HW1 7190   1.058   2.837   6.836
 2097SOL    HW2 7191   1.208   2.815   6.774
 2098SOL     OW 7192   3.693   5.382   3.588
 2098SOL    HW1 7193   3.663   5.432   3.669
 2098SOL    HW2 7194   3.613   5.353   3.535
 2099SOL     OW 7195   2.366   2.276   4.855
 2099SOL    HW1 7196   2.321   2.361   4.883
 2099SOL    HW2 7197   2.404   2.287   4.763
 2100SOL     OW 7198   3.622   3.989   6.181
 2100SOL    HW1 7199   3.555   4.011   6.111
 2100SOL    HW2 7200   3.669   3.904   6.158
 2101SOL     OW 7201   1.553   6.403   2.519
 2101SOL    HW1 7202   1.507   6.376   2.434
 2101SOL    HW2 7203   1.636   6.349   2.530
 2102SOL     OW 7204   0.634   5.104   1.950
 2102SOL    HW1 7205   0.553   5.158   1.974
 2102SOL    HW2 7206   0.711   5.134   2.006
 2103SOL     OW 7207   3.039   3.708   6.553
 2103SOL    HW1 7208   3.097   3.643   6.603
 2103SOL    HW2 7209   2.972   3.658   6.499
 2104SOL     OW 7210   1.053   3.379   6.750
 2104SOL    HW1 7211   1.088   3.285   6.746
 2104SOL    HW2 7212   1.126   3.443   6.727
 2105SOL     OW 7213   5.592   5.243   3.924
 2105SOL    HW1 7214   5.631   5.187   3.851
 2105SOL    HW2 7215   5.643   5.328   3.933
 2106SOL     OW 7216   4.383   4.784   0.315
 2106SOL    HW1 7217   4.352   4.873   0.350
 2106SOL    HW2 7218   4.479   4.790   0.288
 2107SOL     OW 7219   4.187   2.598   5.675
 2107SOL    HW1 7220   4.088   2.581   5.683
 2107SOL    HW2 7221   4.207   2.632   5.583
 2108SOL     OW 7222   6.814   6.478   5.956
 2108SOL    HW1 7223   6.721   6.515   5.949
 2108SOL    HW2 7224   6.811   6.379   5.942
 2109SOL     OW 7225   5.256   6.467   3.618
 2109SOL    HW1 7226   5.356   6.474   3.627
 2109SOL    HW2 7227   5.216   6.558   3.623
 2110SOL     OW 7228   3.078   3.500   5.929
 2110SOL    HW1 7229   3.126   3.440   5.864
 2110SOL    HW2 7230   2.985   3.515   5.897
 2111SOL     OW 7231   0.347   1.662   6.776
 2111SOL    HW1 7232   0.381   1.569   6.786
 2111SOL    HW2 7233   0.269   1.663   6.714
 2112SOL     OW 7234   4.377   1.862   1.262
 2112SOL    HW1 7235   4.350   1.929   1.332
 2112SOL    HW2 7236   4.297   1.814   1.228
 2113SOL     OW 7237   1.014   0.135   3.860
 2113SOL    HW1 7238   0.934   0.084   3.889
 2113SOL    HW2 7239   0.986   0.217   3.810
 2114SOL     OW 7240   1.761   2.666   0.293
 2114SOL    HW1 7241   1.856   2.635   0.284
 2114SOL    HW2 7242   1.752   2.723   0.374
 2115SOL     OW 7243   2.042   4.443   3.026
 2115SOL    HW1 7244   2.124   4.426   2.972
 2115SOL    HW2 7245   2.045   4.388   3.110
 2116SOL     OW 7246   0.031   4.742   3.429
 2116SOL    HW1 7247   6.982   4.689   3.390
 2116SOL    HW2 7248   7.024   4.832   3.456
 2117SOL     OW 7249   0.273   4.916   1.019
 2117SOL    HW1 7250   0.368   4.885   1.011
 2117SOL    HW2 7251   0.233   4.924   0.927
 2118SOL     OW 7252   0.199   3.598   2.393
 2118SOL    HW1 7253   0.249   3.658   2.455
 2118SOL    HW2 7254   0.253   3.583   2.311
 2119SOL     OW 7255   2.433   5.570   0.892
 2119SOL    HW1 7256   2.505   5.631   0.859
 2119SOL    HW2 7257   2.416   5.588   0.988
 2120SOL     OW 7258   6.724   5.359   3.835
 2120SOL    HW1 7259   6.703   5.454   3.857
 2120SOL    HW2 7260   6.645   5.317   3.791
 2121SOL     OW 7261   1.042   4.549   5.789
 2121SOL    HW1 7262   1.111   4.567   5.719
 2121SOL    HW2 7263   1.003   4.636   5.820
 2122SOL     OW 7264   5.892   4.241   5.620
 2122SOL    HW1 7265   5.928   4.252   5.527
 2122SOL    HW2 7266   5.873   4.145   5.637
 2123SOL     OW 7267   0.387   4.614   2.572
 2123SOL    HW1 7268   0.296   4.594   2.537
 2123SOL    HW2 7269   0.401   4.566   2.658
 2124SOL     OW 7270   2.363   1.146   1.779
 2124SOL    HW1 7271   2.400   1.236   1.755
 2124SOL    HW2 7272   2.268   1.139   1.748
 2125SOL     OW 7273   1.461   0.167   0.359
 2125SOL    HW1 7274   1.422   0.126   0.441
 2125SOL    HW2 7275   1.488   0.095   0.295
 2126SOL     OW 7276   3.055   0.577   1.083
 2126SOL    HW1 7277   3.061   0.513   1.007
 2126SOL    HW2 7278   3.115   0.656   1.065
 2127SOL     OW 7279   5.963   3.303   4.608
 2127SOL    HW1 7280   6.029   3.275   4.538
 2127SOL    HW2 7281   5.912   3.383   4.576
 2128SOL     OW 7282   6.888   3.668   4.696
 2128SOL    HW1 7283   6.952   3.710   4.761
 2128SOL    HW2 7284   6.837   3.740   4.650
 2129SOL     OW 7285   4.389   3.116   5.338
 2129SOL    HW1 7286   4.347   3.027   5.358
 2129SOL    HW2 7287   4.431   3.152   5.421
 2130SOL     OW 7288   5.104   0.327   2.796
 2130SOL    HW1 7289   5.082   0.262   2.723
 2130SOL    HW2 7290   5.093   0.420   2.762
 2131SOL     OW 7291   6.824   0.763   1.238
 2131SOL    HW1 7292   6.911   0.737   1.196
 2131SOL    HW2 7293   6.777   0.830   1.180
 2132SOL     OW 7294   4.470   2.542   1.599
 2132SOL    HW1 7295   4.443   2.469   1.538
 2132SOL    HW2 7296   4.470   2.509   1.693
 2133SOL     OW 7297   2.845   2.892   5.792
 2133SOL    HW1 7298   2.871   2.816   5.733
 2133SOL    HW2 7299   2.912   2.900   5.866
 2134SOL     OW 7300   0.605   2.398   0.818
 2134SOL    HW1 7301   0.521   2.409   0.764
 2134SOL    HW2 7302   0.684   2.419   0.760
 2135SOL     OW 7303   0.823   4.292   4.627
 2135SOL    HW1 7304   0.894   4.276   4.695
 2135SOL    HW2 7305   0.827   4.219   4.558
 2136SOL     OW 7306   2.463   5.049   2.623
 2136SOL    HW1 7307   2.495   5.124   2.565
 2136SOL    HW2 7308   2.363   5.052   2.630
 2137SOL     OW 7309   2.879   5.127   5.616
 2137SOL    HW1 7310   2.853   5.196   5.549
 2137SOL    HW2 7311   2.964   5.082   5.587
 2138SOL     OW 7312   5.771   0.128   2.601
 2138SOL    HW1 7313   5.806   0.053   2.656
 2138SOL    HW2 7314   5.781   0.105   2.504
 2139SOL     OW 7315   3.956   0.599   4.125
 2139SOL    HW1 7316   3.995   0.624   4.214
 2139SOL    HW2 7317   3.868   0.554   4.139
 2140SOL     OW 7318   3.014   6.152   4.088
 2140SOL    HW1 7319   3.004   6.191   4.179
 2140SOL    HW2 7320   3.043   6.057   4.095
 2141SOL     OW 7321   6.377   2.987   2.162
 2141SOL    HW1 7322   6.288   2.945   2.144
 2141SOL    HW2 7323   6.394   3.060   2.096
 2142SOL     OW 7324   0.270   1.661   3.360
 2142SOL    HW1 7325   0.235   1.674   3.267
 2142SOL    HW2 7326   0.263   1.747   3.410
 2143SOL     OW 7327   2.067   4.906   0.917
 2143SOL    HW1 7328   2.053   4.818   0.961
 2143SOL    HW2 7329   1.983   4.960   0.921
 2144SOL     OW 7330   0.699   5.200   4.713
 2144SOL    HW1 7331   0.793   5.192   4.743
 2144SOL    HW2 7332   0.672   5.297   4.712
 2145SOL     OW 7333   4.270   6.754   4.134
 2145SOL    HW1 7334   4.280   6.700   4.051
 2145SOL    HW2 7335   4.189   6.811   4.128
 2146SOL     OW 7336   2.342   2.281   1.065
 2146SOL    HW1 7337   2.394   2.280   1.151
 2146SOL    HW2 7338   2.245   2.291   1.086
 2147SOL     OW 7339   6.436   1.425   6.815
 2147SOL    HW1 7340   6.517   1.369   6.829
 2147SOL    HW2 7341   6.452   1.489   6.740
 2148SOL     OW 7342   6.783   3.533   6.446
 2148SOL    HW1 7343   6.783   3.593   6.366
 2148SOL    HW2 7344   6.690   3.523   6.481
 2149SOL     OW 7345   1.706   1.341   1.231
 2149SOL    HW1 7346   1.615   1.380   1.245
 2149SOL    HW2 7347   1.763   1.358   1.312
 2150SOL     OW 7348   2.676   2.055   1.682
 2150SOL    HW1 7349   2.667   1.956   1.683
 2150SOL    HW2 7350   2.741   2.083   1.753
 2151SOL     OW 7351   0.953   6.489   6.586
 2151SOL    HW1 7352   0.871   6.540   6.612
 2151SOL    HW2 7353   0.950   6.398   6.626
 2152SOL     OW 7354   4.381   4.860   2.625
 2152SOL    HW1 7355   4.376   4.928   2.552
 2152SOL    HW2 7356   4.288   4.839   2.657
 2153SOL     OW 7357   5.160   1.711   1.900
 2153SOL    HW1 7358   5.172   1.762   1.814
 2153SOL    HW2 7359   5.161   1.613   1.881
 2154SOL     OW 7360   2.558   0.106   4.083
 2154SOL    HW1 7361   2.519   0.100   4.174
 2154SOL    HW2 7362   2.614   0.025   4.065
 2155SOL     OW 7363   4.253   6.699   1.240
 2155SOL    HW1 7364   4.204   6.632   1.296
 2155SOL    HW2 7365   4.203   6.714   1.155
 2156SOL     OW 7366   6.875   0.210   4.910
 2156SOL    HW1 7367   6.803   0.141   4.902
 2156SOL    HW2 7368   6.964   0.167   4.907
 2157SOL     OW 7369   4.920   5.810   3.832
 2157SOL    HW1 7370   4.845   5.855   3.880
 2157SOL    HW2 7371   4.975   5.878   3.784
 2158SOL     OW 7372   3.832   5.684   0.650
 2158SOL    HW1 7373   3.808   5.652   0.558
 2158SOL    HW2 7374   3.793   5.622   0.718
 2159SOL     OW 7375   1.601   0.328   5.334
 2159SOL    HW1 7376   1.567   0.299   5.245
 2159SOL    HW2 7377   1.542   0.400   5.370
 2160SOL     OW 7378   5.171   4.979   6.373
 2160SOL    HW1 7379   5.257   4.947   6.332
 2160SOL    HW2 7380   5.183   5.072   6.407
 2161SOL     OW 7381   6.740   4.089   1.913
 2161SOL    HW1 7382   6.745   4.055   1.819
 2161SOL    HW2 7383   6.831   4.085   1.955
 2162SOL     OW 7384   2.544   6.792   2.805
 2162SOL    HW1 7385   2.581   6.870   2.754
 2162SOL    HW2 7386   2.540   6.712   2.744
 2163SOL     OW 7387   1.694   4.325   0.725
 2163SOL    HW1 7388   1.623   4.316   0.655
 2163SOL    HW2 7389   1.776   4.275   0.697
 2164SOL     OW 7390   2.481   2.306   6.747
 2164SOL    HW1 7391   2.408   2.241   6.724
 2164SOL    HW2 7392   2.455   2.358   6.828
 2165SOL     OW 7393   0.802   2.240   3.877
 2165SOL    HW1 7394   0.747   2.267   3.798
 2165SOL    HW2 7395   0.749   2.178   3.935
 2166SOL     OW 7396   0.506   3.693   4.556
 2166SOL    HW1 7397   0.566   3.613   4.546
 2166SOL    HW2 7398   0.510   3.747   4.472
 2167SOL     OW 7399   0.503   3.289   3.887
 2167SOL    HW1 7400   0.407   3.317   3.899
 2167SOL    HW2 7401   0.524   3.216   3.952
 2168SOL     OW 7402   1.111   1.583   2.706
 2168SOL    HW1 7403   1.099   1.669   2.656
 2168SOL    HW2 7404   1.046   1.515   2.671
 2169SOL     OW 7405   0.214   0.590   1.038
 2169SOL    HW1 7406   0.267   0.627   0.962
 2169SOL    HW2 7407   0.226   0.491   1.044
 2170SOL     OW 7408   6.547   4.235   5.081
 2170SOL    HW1 7409   6.552   4.148   5.032
 2170SOL    HW2 7410   6.597   4.227   5.168
 2171SOL     OW 7411   0.898   5.283   1.432
 2171SOL    HW1 7412   0.897   5.335   1.346
 2171SOL    HW2 7413   0.977   5.223   1.433
 2172SOL     OW 7414   2.084   2.124   5.793
 2172SOL    HW1 7415   2.063   2.210   5.745
 2172SOL    HW2 7416   2.147   2.143   5.868
 2173SOL     OW 7417   4.584   0.275   5.628
 2173SOL    HW1 7418   4.666   0.321   5.661
 2173SOL    HW2 7419   4.519   0.343   5.594
 2174SOL     OW 7420   6.536   6.483   5.195
 2174SOL    HW1 7421   6.567   6.534   5.275
 2174SOL    HW2 7422   6.615   6.442   5.149
 2175SOL     OW 7423   1.513   3.227   4.686
 2175SOL    HW1 7424   1.564   3.195   4.765
 2175SOL    HW2 7425   1.551   3.187   4.602
 2176SOL     OW 7426   4.915   1.561   1.379
 2176SOL    HW1 7427   4.874   1.608   1.301
 2176SOL    HW2 7428   4.906   1.618   1.461
 2177SOL     OW 7429   6.574   0.535   2.391
 2177SOL    HW1 7430   6.629   0.477   2.331
 2177SOL    HW2 7431   6.501   0.578   2.338
 2178SOL     OW 7432   1.393   1.385   2.539
 2178SOL    HW1 7433   1.403   1.484   2.529
 2178SOL    HW2 7434   1.467   1.338   2.490
 2179SOL     OW 7435   1.854   3.330   6.295
 2179SOL    HW1 7436   1.921   3.328   6.221
 2179SOL    HW2 7437   1.792   3.252   6.286
 2180SOL     OW 7438   1.345   3.037   2.386
 2180SOL    HW1 7439   1.291   2.986   2.319
 2180SOL    HW2 7440   1.438   3.000   2.389
 2181SOL     OW 7441   4.753   4.966   4.228
 2181SOL    HW1 7442   4.797   4.969   4.138
 2181SOL    HW2 7443   4.659   4.998   4.220
 2182SOL     OW 7444   0.982   5.005   3.681
 2182SOL    HW1 7445   1.067   4.957   3.702
 2182SOL    HW2 7446   1.001   5.102   3.666
 2183SOL     OW 7447   2.449   4.163   0.019
 2183SOL    HW1 7448   2.364   4.114   0.043
 2183SOL    HW2 7449   2.527   4.102   0.032
 2184SOL     OW 7450   4.326   6.873   6.220
 2184SOL    HW1 7451   4.415   6.830   6.233
 2184SOL    HW2 7452   4.338   6.968   6.193
 2185SOL     OW 7453   1.144   1.264   6.506
 2185SOL    HW1 7454   1.084   1.342   6.495
 2185SOL    HW2 7455   1.155   1.217   6.418
 2186SOL     OW 7456   6.368   5.788   6.525
 2186SOL    HW1 7457   6.298   5.830   6.583
 2186SOL    HW2 7458   6.374   5.691   6.545
 2187SOL     OW 7459   0.029   6.487   2.402
 2187SOL    HW1 7460   6.969   6.488   2.453
 2187SOL    HW2 7461   0.013   6.452   2.310
 2188SOL     OW 7462   1.680   5.166   5.712
 2188SOL    HW1 7463   1.731   5.180   5.627
 2188SOL    HW2 7464   1.744   5.162   5.789
 2189SOL     OW 7465   1.730   0.436   1.934
 2189SOL    HW1 7466   1.740   0.418   1.836
 2189SOL    HW2 7467   1.805   0.392   1.984
 2190SOL     OW 7468   6.642   2.957   1.924
 2190SOL    HW1 7469   6.719   2.992   1.870
 2190SOL    HW2 7470   6.594   3.034   1.966
 2191SOL     OW 7471   2.481   1.323   5.522
 2191SOL    HW1 7472   2.572   1.294   5.491
 2191SOL    HW2 7473   2.474   1.423   5.513
 2192SOL     OW 7474   5.338   0.587   2.853
 2192SOL    HW1 7475   5.272   0.527   2.808
 2192SOL    HW2 7476   5.353   0.557   2.947
 2193SOL     OW 7477   7.009   0.413   6.314
 2193SOL    HW1 7478   0.020   0.500   6.349
 2193SOL    HW2 7479   7.026   0.341   6.380
 2194SOL     OW 7480   1.459   3.852   6.323
 2194SOL    HW1 7481   1.438   3.946   6.297
 2194SOL    HW2 7482   1.528   3.852   6.396
 2195SOL     OW 7483   0.002   6.316   5.430
 2195SOL    HW1 7484   7.003   6.413   5.439
 2195SOL    HW2 7485   0.052   6.288   5.511
 2196SOL     OW 7486   2.973   6.373   4.607
 2196SOL    HW1 7487   3.031   6.455   4.599
 2196SOL    HW2 7488   2.882   6.400   4.638
 2197SOL     OW 7489   2.960   3.481   6.399
 2197SOL    HW1 7490   2.996   3.412   6.336
 2197SOL    HW2 7491   2.965   3.447   6.493
 2198SOL     OW 7492   6.464   0.149   1.209
 2198SOL    HW1 7493   6.508   0.120   1.293
 2198SOL    HW2 7494   6.518   0.118   1.130
 2199SOL     OW 7495   5.224   7.025   4.540
 2199SOL    HW1 7496   5.195   7.013   4.635
 2199SOL    HW2 7497   5.265   6.940   4.506
 2200SOL     OW 7498   2.206   1.440   3.791
 2200SOL    HW1 7499   2.242   1.453   3.883
 2200SOL    HW2 7500   2.224   1.521   3.736
 2201SOL     OW 7501   6.311   2.733   2.827
 2201SOL    HW1 7502   6.307   2.830   2.850
 2201SOL    HW2 7503   6.219   2.697   2.814
 2202SOL     OW 7504   3.354   5.886   1.874
 2202SOL    HW1 7505   3.374   5.873   1.971
 2202SOL    HW2 7506   3.430   5.934   1.830
 2203SOL     OW 7507   2.830   3.231   1.151
 2203SOL    HW1 7508   2.851   3.327   1.169
 2203SOL    HW2 7509   2.827   3.181   1.238
 2204SOL     OW 7510   4.295   2.586   0.946
 2204SOL    HW1 7511   4.288   2.568   1.044
 2204SOL    HW2 7512   4.356   2.518   0.904
 2205SOL     OW 7513   1.244   0.226   0.117
 2205SOL    HW1 7514   1.271   0.183   0.031
 2205SOL    HW2 7515   1.320   0.281   0.152
 2206SOL     OW 7516   2.412   4.766   5.681
 2206SOL    HW1 7517   2.401   4.670   5.657
 2206SOL    HW2 7518   2.492   4.803   5.634
 2207SOL     OW 7519   3.616   4.357   0.056
 2207SOL    HW1 7520   3.536   4.313   0.098
 2207SOL    HW2 7521   3.659   4.293   7.018
 2208SOL     OW 7522   0.960   5.061   2.753
 2208SOL    HW1 7523   0.876   5.082   2.703
 2208SOL    HW2 7524   0.949   5.084   2.849
 2209SOL     OW 7525   2.727   6.797   4.792
 2209SOL    HW1 7526   2.764   6.705   4.777
 2209SOL    HW2 7527   2.641   6.806   4.741
 2210SOL     OW 7528   6.797   5.297   3.090
 2210SOL    HW1 7529   6.822   5.341   3.003
 2210SOL    HW2 7530   6.770   5.367   3.156
 2211SOL     OW 7531   6.461   0.795   0.268
 2211SOL    HW1 7532   6.434   0.700   0.283
 2211SOL    HW2 7533   6.437   0.849   0.349
 2212SOL     OW 7534   1.631   5.674   0.338
 2212SOL    HW1 7535   1.719   5.649   0.381
 2212SOL    HW2 7536   1.588   5.592   0.301
 2213SOL     OW 7537   3.956   2.486   5.647
 2213SOL    HW1 7538   3.944   2.442   5.558
 2213SOL    HW2 7539   3.942   2.420   5.720
 2214SOL     OW 7540   2.996   3.316   5.020
 2214SOL    HW1 7541   2.919   3.381   5.014
 2214SOL    HW2 7542   3.005   3.268   4.934
 2215SOL     OW 7543   5.832   0.761   6.780
 2215SOL    HW1 7544   5.849   0.842   6.836
 2215SOL    HW2 7545   5.750   0.776   6.724
 2216SOL     OW 7546   0.447   0.129   6.091
 2216SOL    HW1 7547   0.502   0.212   6.099
 2216SOL    HW2 7548   0.351   0.150   6.108
 2217SOL     OW 7549   4.609   0.280   2.782
 2217SOL    HW1 7550   4.579   0.353   2.843
 2217SOL    HW2 7551   4.660   0.319   2.706
 2218SOL     OW 7552   6.822   5.155   0.219
 2218SOL    HW1 7553   6.902   5.206   0.190
 2218SOL    HW2 7554   6.815   5.071   0.165
 2219SOL     OW 7555   5.899   1.634   1.036
 2219SOL    HW1 7556   5.805   1.599   1.039
 2219SOL    HW2 7557   5.953   1.578   0.973
 2220SOL     OW 7558   1.761   5.657   5.911
 2220SOL    HW1 7559   1.717   5.640   5.823
 2220SOL    HW2 7560   1.754   5.575   5.968
 2221SOL     OW 7561   6.425   1.320   4.988
 2221SOL    HW1 7562   6.454   1.358   5.076
 2221SOL    HW2 7563   6.446   1.385   4.915
 2222SOL     OW 7564   6.117   0.421   0.870
 2222SOL    HW1 7565   6.087   0.349   0.808
 2222SOL    HW2 7566   6.199   0.392   0.918
 2223SOL     OW 7567   5.690   0.813   6.280
 2223SOL    HW1 7568   5.762   0.771   6.225
 2223SOL    HW2 7569   5.631   0.742   6.318
 2224SOL     OW 7570   6.146   3.829   1.135
 2224SOL    HW1 7571   6.159   3.735   1.165
 2224SOL    HW2 7572   6.056   3.839   1.093
 2225SOL     OW 7573   6.085   6.751   3.614
 2225SOL    HW1 7574   6.077   6.825   3.547
 2225SOL    HW2 7575   6.109   6.666   3.567
 2226SOL     OW 7576   3.559   5.332   1.199
 2226SOL    HW1 7577   3.512   5.379   1.124
 2226SOL    HW2 7578   3.648   5.299   1.167
 2227SOL     OW 7579   5.301   2.285   1.128
 2227SOL    HW1 7580   5.322   2.218   1.199
 2227SOL    HW2 7581   5.202   2.295   1.120
 2228SOL     OW 7582   3.764   4.915   0.324
 2228SOL    HW1 7583   3.681   4.946   0.278
 2228SOL    HW2 7584   3.742   4.836   0.383
 2229SOL     OW 7585   3.801   2.862   5.202
 2229SOL    HW1 7586   3.722   2.835   5.146
 2229SOL    HW2 7587   3.833   2.952   5.173
 2230SOL     OW 7588   5.436   6.562   0.839
 2230SOL    HW1 7589   5.532   6.587   0.837
 2230SOL    HW2 7590   5.398   6.579   0.930
 2231SOL     OW 7591   0.015   0.666   0.369
 2231SOL    HW1 7592   6.955   0.614   0.372
 2231SOL    HW2 7593   7.022   0.764   0.376
 2232SOL     OW 7594   1.370   1.445   4.966
 2232SOL    HW1 7595   1.292   1.449   4.903
 2232SOL    HW2 7596   1.437   1.379   4.932
 2233SOL     OW 7597   2.571   2.855   0.692
 2233SOL    HW1 7598   2.607   2.831   0.783
 2233SOL    HW2 7599   2.479   2.892   0.702
 2234SOL     OW 7600   3.541   1.295   1.036
 2234SOL    HW1 7601   3.524   1.355   0.958
 2234SOL    HW2 7602   3.517   1.201   1.012
 2235SOL     OW 7603   2.546   0.028   1.647
 2235SOL    HW1 7604   2.486   0.059   1.572
 2235SOL    HW2 7605   2.513   6.966   1.682
 2236SOL     OW 7606   1.806   3.689   5.900
 2236SOL    HW1 7607   1.893   3.649   5.872
 2236SOL    HW2 7608   1.823   3.775   5.948
 2237SOL     OW 7609   5.888   4.453   4.268
 2237SOL    HW1 7610   5.947   4.376   4.242
 2237SOL    HW2 7611   5.935   4.509   4.336
 2238SOL     OW 7612   4.601   5.310   2.595
 2238SOL    HW1 7613   4.564   5.369   2.523
 2238SOL    HW2 7614   4.613   5.218   2.560
 2239SOL     OW 7615   4.546   5.882   3.807
 2239SOL    HW1 7616   4.449   5.894   3.825
 2239SOL    HW2 7617   4.585   5.818   3.873
 2240SOL     OW 7618   3.434   5.224   2.574
 2240SOL    HW1 7619   3.437   5.324   2.584
 2240SOL    HW2 7620   3.351   5.198   2.525
 2241SOL     OW 7621   6.808   6.498   2.200
 2241SOL    HW1 7622   6.833   6.438   2.124
 2241SOL    HW2 7623   6.730   6.458   2.249
 2242SOL     OW 7624   4.908   3.157   2.239
 2242SOL    HW1 7625   4.848   3.102   2.181
 2242SOL    HW2 7626   4.939   3.237   2.188
 2243SOL     OW 7627   1.747   6.845   6.878
 2243SOL    HW1 7628   1.655   6.832   6.840
 2243SOL    HW2 7629   1.783   6.934   6.850
 2244SOL     OW 7630   3.202   6.865   1.859
 2244SOL    HW1 7631   3.160   6.893   1.772
 2244SOL    HW2 7632   3.134   6.820   1.916
 2245SOL     OW 7633   0.885   1.637   1.422
 2245SOL    HW1 7634   0.822   1.572   1.380
 2245SOL    HW2 7635   0.948   1.671   1.353
 2246SOL     OW 7636   2.300   0.434   4.276
 2246SOL    HW1 7637   2.286   0.507   4.343
 2246SOL    HW2 7638   2.386   0.387   4.296
 2247SOL     OW 7639   3.002   3.280   2.973
 2247SOL    HW1 7640   2.917   3.243   3.011
 2247SOL    HW2 7641   3.051   3.331   3.044
 2248SOL     OW 7642   6.627   3.957   5.001
 2248SOL    HW1 7643   6.621   3.861   5.030
 2248SOL    HW2 7644   6.608   3.963   4.903
 2249SOL     OW 7645   5.536   6.844   3.889
 2249SOL    HW1 7646   5.594   6.780   3.840
 2249SOL    HW2 7647   5.443   6.807   3.897
 2250SOL     OW 7648   2.912   3.868   4.969
 2250SOL    HW1 7649   2.962   3.954   4.959
 2250SOL    HW2 7650   2.865   3.847   4.883
 2251SOL     OW 7651   5.516   6.989   6.545
 2251SOL    HW1 7652   5.534   6.924   6.619
 2251SOL    HW2 7653   5.559   6.956   6.461
 2252SOL     OW 7654   5.040   1.450   3.239
 2252SOL    HW1 7655   4.980   1.507   3.182
 2252SOL    HW2 7656   5.121   1.503   3.265
 2253SOL     OW 7657   0.102   3.186   6.949
 2253SOL    HW1 7658   0.195   3.221   6.942
 2253SOL    HW2 7659   0.037   3.262   6.943
 2254SOL     OW 7660   3.328   2.878   4.014
 2254SOL    HW1 7661   3.251   2.941   4.004
 2254SOL    HW2 7662   3.330   2.815   3.937
 2255SOL     OW 7663   3.913   3.503   5.827
 2255SOL    HW1 7664   3.947   3.560   5.752
 2255SOL    HW2 7665   3.948   3.538   5.914
 2256SOL     OW 7666   5.507   6.085   2.213
 2256SOL    HW1 7667   5.408   6.074   2.204
 2256SOL    HW2 7668   5.551   5.996   2.204
 2257SOL     OW 7669   0.868   1.608   4.718
 2257SOL    HW1 7670   0.875   1.517   4.759
 2257SOL    HW2 7671   0.776   1.621   4.682
 2258SOL     OW 7672   1.341   5.525   5.125
 2258SOL    HW1 7673   1.333   5.623   5.143
 2258SOL    HW2 7674   1.406   5.511   5.051
 2259SOL     OW 7675   5.804   2.902   5.390
 2259SOL    HW1 7676   5.814   2.841   5.468
 2259SOL    HW2 7677   5.782   2.995   5.422
 2260SOL     OW 7678   0.205   3.923   1.363
 2260SOL    HW1 7679   0.161   3.961   1.281
 2260SOL    HW2 7680   0.181   3.827   1.372
 2261SOL     OW 7681   6.435   5.172   0.645
 2261SOL    HW1 7682   6.356   5.111   0.641
 2261SOL    HW2 7683   6.410   5.257   0.692
 2262SOL     OW 7684   5.991   0.263   2.961
 2262SOL    HW1 7685   6.003   0.178   3.013
 2262SOL    HW2 7686   5.897   0.267   2.927
 2263SOL     OW 7687   2.783   5.850   0.012
 2263SOL    HW1 7688   2.722   5.833   6.960
 2263SOL    HW2 7689   2.781   5.771   0.074
 2264SOL     OW 7690   3.187   5.699   6.442
 2264SOL    HW1 7691   3.257   5.721   6.510
 2264SOL    HW2 7692   3.217   5.619   6.390
 2265SOL     OW 7693   1.831   0.835   4.541
 2265SOL    HW1 7694   1.800   0.741   4.548
 2265SOL    HW2 7695   1.919   0.839   4.494
 2266SOL     OW 7696   5.299   1.613   6.725
 2266SOL    HW1 7697   5.346   1.701   6.729
 2266SOL    HW2 7698   5.231   1.608   6.799
 2267SOL     OW 7699   4.888   3.312   5.081
 2267SOL    HW1 7700   4.857   3.407   5.070
 2267SOL    HW2 7701   4.858   3.277   5.169
 2268SOL     OW 7702   5.773   4.133   5.934
 2268SOL    HW1 7703   5.762   4.147   5.836
 2268SOL    HW2 7704   5.823   4.210   5.974
 2269SOL     OW 7705   0.692   4.353   5.683
 2269SOL    HW1 7706   0.697   4.428   5.750
 2269SOL    HW2 7707   0.741   4.380   5.600
 2270SOL     OW 7708   3.954   2.665   6.482
 2270SOL    HW1 7709   3.980   2.715   6.400
 2270SOL    HW2 7710   4.015   2.690   6.558
 2271SOL     OW 7711   5.756   4.435   0.089
 2271SOL    HW1 7712   5.732   4.359   0.029
 2271SOL    HW2 7713   5.712   4.519   0.057
 2272SOL     OW 7714   5.639   1.512   0.084
 2272SOL    HW1 7715   5.731   1.551   0.089
 2272SOL    HW2 7716   5.601   1.525   7.018
 2273SOL     OW 7717   1.664   1.323   2.414
 2273SOL    HW1 7718   1.722   1.404   2.420
 2273SOL    HW2 7719   1.661   1.277   2.502
 2274SOL     OW 7720   0.690   1.258   5.771
 2274SOL    HW1 7721   0.779   1.279   5.731
 2274SOL    HW2 7722   0.699   1.183   5.836
 2275SOL     OW 7723   5.818   6.723   3.624
 2275SOL    HW1 7724   5.912   6.698   3.645
 2275SOL    HW2 7725   5.761   6.710   3.705
 2276SOL     OW 7726   2.502   5.568   1.762
 2276SOL    HW1 7727   2.464   5.574   1.855
 2276SOL    HW2 7728   2.519   5.472   1.738
 2277SOL     OW 7729   3.403   4.038   4.140
 2277SOL    HW1 7730   3.332   4.091   4.187
 2277SOL    HW2 7731   3.374   4.019   4.046
 2278SOL     OW 7732   5.863   3.545   4.539
 2278SOL    HW1 7733   5.791   3.587   4.594
 2278SOL    HW2 7734   5.939   3.609   4.530
 2279SOL     OW 7735   6.059   0.112   5.384
 2279SOL    HW1 7736   6.134   0.072   5.331
 2279SOL    HW2 7737   6.007   0.175   5.326
 2280SOL     OW 7738   6.867   0.316   4.607
 2280SOL    HW1 7739   6.917   0.230   4.610
 2280SOL    HW2 7740   6.770   0.298   4.589
 2281SOL     OW 7741   3.568   0.642   2.223
 2281SOL    HW1 7742   3.632   0.641   2.299
 2281SOL    HW2 7743   3.556   0.548   2.188
 2282SOL     OW 7744   5.806   6.681   5.507
 2282SOL    HW1 7745   5.872   6.615   5.470
 2282SOL    HW2 7746   5.830   6.702   5.602
 2283SOL     OW 7747   1.503   0.190   1.796
 2283SOL    HW1 7748   1.532   0.271   1.848
 2283SOL    HW2 7749   1.575   0.165   1.731
 2284SOL     OW 7750   1.458   3.015   6.727
 2284SOL    HW1 7751   1.377   3.073   6.736
 2284SOL    HW2 7752   1.521   3.055   6.660
 2285SOL     OW 7753   1.403   2.830   0.546
 2285SOL    HW1 7754   1.496   2.847   0.578
 2285SOL    HW2 7755   1.340   2.894   0.591
 2286SOL     OW 7756   5.836   0.083   3.320
 2286SOL    HW1 7757   5.743   0.047   3.334
 2286SOL    HW2 7758   5.891   0.067   3.402
 2287SOL     OW 7759   2.163   0.216   4.040
 2287SOL    HW1 7760   2.123   0.293   3.991
 2287SOL    HW2 7761   2.256   0.239   4.068
 2288SOL     OW 7762   6.038   5.455   3.447
 2288SOL    HW1 7763   6.025   5.400   3.530
 2288SOL    HW2 7764   6.012   5.550   3.465
 2289SOL     OW 7765   0.489   4.964   0.652
 2289SOL    HW1 7766   0.470   5.062   0.657
 2289SOL    HW2 7767   0.409   4.917   0.613
 2290SOL     OW 7768   0.918   3.314   0.673
 2290SOL    HW1 7769   0.849   3.383   0.651
 2290SOL    HW2 7770   0.880   3.223   0.660
 2291SOL     OW 7771   2.000   2.377   5.695
 2291SOL    HW1 7772   2.014   2.470   5.660
 2291SOL    HW2 7773   1.902   2.356   5.697
 2292SOL     OW 7774   1.147   1.683   4.619
 2292SOL    HW1 7775   1.102   1.609   4.669
 2292SOL    HW2 7776   1.100   1.769   4.637
 2293SOL     OW 7777   5.139   6.643   0.982
 2293SOL    HW1 7778   5.180   6.660   1.072
 2293SOL    HW2 7779   5.082   6.720   0.957
 2294SOL     OW 7780   3.289   0.514   6.876
 2294SOL    HW1 7781   3.226   0.495   6.952
 2294SOL    HW2 7782   3.353   0.586   6.904
 2295SOL     OW 7783   0.381   2.087   2.448
 2295SOL    HW1 7784   0.474   2.078   2.414
 2295SOL    HW2 7785   0.383   2.128   2.540
 2296SOL     OW 7786   3.949   5.393   0.414
 2296SOL    HW1 7787   4.025   5.415   0.475
 2296SOL    HW2 7788   3.919   5.299   0.430
 2297SOL     OW 7789   3.649   4.203   5.098
 2297SOL    HW1 7790   3.603   4.289   5.119
 2297SOL    HW2 7791   3.580   4.130   5.090
 2298SOL     OW 7792   3.910   3.002   1.864
 2298SOL    HW1 7793   3.943   2.923   1.812
 2298SOL    HW2 7794   3.867   2.970   1.948
 2299SOL     OW 7795   4.810   6.610   6.173
 2299SOL    HW1 7796   4.715   6.627   6.146
 2299SOL    HW2 7797   4.825   6.512   6.179
 2300SOL     OW 7798   2.685   4.724   1.764
 2300SOL    HW1 7799   2.740   4.688   1.839
 2300SOL    HW2 7800   2.622   4.653   1.732
 2301SOL     OW 7801   3.164   3.087   3.189
 2301SOL    HW1 7802   3.070   3.109   3.162
 2301SOL    HW2 7803   3.214   3.172   3.207
 2302SOL     OW 7804   3.594   6.977   1.434
 2302SOL    HW1 7805   3.682   7.020   1.416
 2302SOL    HW2 7806   3.521   0.018   1.418
 2303SOL     OW 7807   1.925   3.212   6.563
 2303SOL    HW1 7808   2.007   3.251   6.604
 2303SOL    HW2 7809   1.890   3.273   6.493
 2304SOL     OW 7810   4.074   0.157   3.763
 2304SOL    HW1 7811   4.069   0.176   3.861
 2304SOL    HW2 7812   4.041   0.236   3.712
 2305SOL     OW 7813   2.809   6.572   2.792
 2305SOL    HW1 7814   2.795   6.632   2.713
 2305SOL    HW2 7815   2.768   6.482   2.774
 2306SOL     OW 7816   2.609   4.975   1.654
 2306SOL    HW1 7817   2.625   4.878   1.673
 2306SOL    HW2 7818   2.558   5.015   1.731
 2307SOL     OW 7819   1.074   3.736   2.932
 2307SOL    HW1 7820   1.071   3.830   2.967
 2307SOL    HW2 7821   1.142   3.731   2.859
 2308SOL     OW 7822   1.295   6.830   0.113
 2308SOL    HW1 7823   1.299   6.917   0.066
 2308SOL    HW2 7824   1.352   6.763   0.066
 2309SOL     OW 7825   3.005   6.724   6.674
 2309SOL    HW1 7826   2.969   6.637   6.708
 2309SOL    HW2 7827   3.029   6.715   6.578
 2310SOL     OW 7828   5.391   6.527   1.127
 2310SOL    HW1 7829   5.464   6.467   1.159
 2310SOL    HW2 7830   5.414   6.622   1.149
 2311SOL     OW 7831   2.545   6.102   1.919
 2311SOL    HW1 7832   2.551   6.195   1.882
 2311SOL    HW2 7833   2.587   6.099   2.010
 2312SOL     OW 7834   3.324   6.210   3.885
 2312SOL    HW1 7835   3.401   6.171   3.834
 2312SOL    HW2 7836   3.322   6.309   3.871
 2313SOL     OW 7837   5.284   5.327   1.830
 2313SOL    HW1 7838   5.351   5.270   1.877
 2313SOL    HW2 7839   5.243   5.392   1.895
 2314SOL     OW 7840   5.694   0.577   5.006
 2314SOL    HW1 7841   5.705   0.674   4.983
 2314SOL    HW2 7842   5.771   0.525   4.970
 2315SOL     OW 7843   5.172   3.731   5.383
 2315SOL    HW1 7844   5.233   3.811   5.379
 2315SOL    HW2 7845   5.102   3.739   5.313
 2316SOL     OW 7846   3.324   0.589   4.665
 2316SOL    HW1 7847   3.362   0.621   4.579
 2316SOL    HW2 7848   3.258   0.515   4.647
 2317SOL     OW 7849   6.095   6.211   3.229
 2317SOL    HW1 7850   6.153   6.252   3.158
 2317SOL    HW2 7851   6.033   6.280   3.265
 2318SOL     OW 7852   2.173   2.969   4.691
 2318SOL    HW1 7853   2.075   2.951   4.693
 2318SOL    HW2 7854   2.196   3.020   4.608
 2319SOL     OW 7855   3.128   5.415   4.622
 2319SOL    HW1 7856   3.215   5.446   4.660
 2319SOL    HW2 7857   3.135   5.410   4.522
 2320SOL     OW 7858   0.875   2.982   4.574
 2320SOL    HW1 7859   0.921   3.070   4.566
 2320SOL    HW2 7860   0.776   2.995   4.561
 2321SOL     OW 7861   1.860   5.000   0.459
 2321SOL    HW1 7862   1.764   5.025   0.445
 2321SOL    HW2 7863   1.882   5.003   0.556
 2322SOL     OW 7864   1.847   4.165   3.276
 2322SOL    HW1 7865   1.791   4.142   3.196
 2322SOL    HW2 7866   1.881   4.081   3.318
 2323SOL     OW 7867   3.345   4.763   1.755
 2323SOL    HW1 7868   3.430   4.720   1.785
 2323SOL    HW2 7869   3.339   4.758   1.655
 2324SOL     OW 7870   6.432   5.720   0.273
 2324SOL    HW1 7871   6.448   5.627   0.308
 2324SOL    HW2 7872   6.515   5.752   0.227
 2325SOL     OW 7873   1.064   4.312   1.376
 2325SOL    HW1 7874   0.985   4.270   1.332
 2325SOL    HW2 7875   1.032   4.381   1.441
 2326SOL     OW 7876   2.501   6.087   6.606
 2326SOL    HW1 7877   2.488   6.177   6.566
 2326SOL    HW2 7878   2.595   6.080   6.642
 2327SOL     OW 7879   6.567   1.753   3.630
 2327SOL    HW1 7880   6.549   1.662   3.667
 2327SOL    HW2 7881   6.661   1.758   3.597
 2328SOL     OW 7882   1.548   1.392   2.900
 2328SOL    HW1 7883   1.474   1.329   2.923
 2328SOL    HW2 7884   1.620   1.385   2.969
 2329SOL     OW 7885   1.582   4.417   4.748
 2329SOL    HW1 7886   1.583   4.335   4.805
 2329SOL    HW2 7887   1.662   4.416   4.688
 2330SOL     OW 7888   0.188   3.382   1.887
 2330SOL    HW1 7889   0.217   3.418   1.976
 2330SOL    HW2 7890   0.259   3.322   1.850
 2331SOL     OW 7891   4.013   5.178   6.684
 2331SOL    HW1 7892   3.995   5.264   6.732
 2331SOL    HW2 7893   4.091   5.133   6.726
 2332SOL     OW 7894   6.158   0.804   5.097
 2332SOL    HW1 7895   6.110   0.816   5.184
 2332SOL    HW2 7896   6.186   0.709   5.087
 2333SOL     OW 7897   0.111   4.517   2.522
 2333SOL    HW1 7898   0.078   4.484   2.611
 2333SOL    HW2 7899   0.033   4.534   2.462
 2334SOL     OW 7900   1.651   0.680   6.654
 2334SOL    HW1 7901   1.657   0.588   6.693
 2334SOL    HW2 7902   1.703   0.744   6.710
 2335SOL     OW 7903   6.647   1.239   4.299
 2335SOL    HW1 7904   6.643   1.236   4.199
 2335SOL    HW2 7905   6.673   1.331   4.329
 2336SOL     OW 7906   3.851   1.896   4.552
 2336SOL    HW1 7907   3.817   1.882   4.459
 2336SOL    HW2 7908   3.819   1.985   4.586
 2337SOL     OW 7909   4.322   0.492   1.601
 2337SOL    HW1 7910   4.304   0.541   1.687
 2337SOL    HW2 7911   4.371   0.552   1.538
 2338SOL     OW 7912   0.477   2.998   5.091
 2338SOL    HW1 7913   0.521   2.980   5.179
 2338SOL    HW2 7914   0.538   2.973   5.016
 2339SOL     OW 7915   2.979   3.210   3.635
 2339SOL    HW1 7916   2.998   3.287   3.696
 2339SOL    HW2 7917   3.033   3.131   3.663
 2340SOL     OW 7918   6.748   4.569   6.572
 2340SOL    HW1 7919   6.825   4.617   6.531
 2340SOL    HW2 7920   6.723   4.491   6.516
 2341SOL     OW 7921   3.429   4.974   2.022
 2341SOL    HW1 7922   3.463   5.067   2.011
 2341SOL    HW2 7923   3.496   4.909   1.985
 2342SOL     OW 7924   0.964   6.497   5.498
 2342SOL    HW1 7925   0.954   6.478   5.596
 2342SOL    HW2 7926   0.908   6.432   5.446
 2343SOL     OW 7927   1.902   5.474   3.022
 2343SOL    HW1 7928   1.833   5.546   3.021
 2343SOL    HW2 7929   1.991   5.513   2.998
 2344SOL     OW 7930   1.204   5.768   0.126
 2344SOL    HW1 7931   1.232   5.796   0.218
 2344SOL    HW2 7932   1.217   5.669   0.117
 2345SOL     OW 7933   3.144   5.444   5.095
 2345SOL    HW1 7934   3.078   5.478   5.027
 2345SOL    HW2 7935   3.095   5.409   5.175
 2346SOL     OW 7936   3.969   3.157   5.431
 2346SOL    HW1 7937   3.958   3.156   5.331
 2346SOL    HW2 7938   3.881   3.181   5.473
 2347SOL     OW 7939   3.469   2.259   1.144
 2347SOL    HW1 7940   3.503   2.253   1.050
 2347SOL    HW2 7941   3.465   2.168   1.184
 2348SOL     OW 7942   2.505   6.791   4.148
 2348SOL    HW1 7943   2.415   6.829   4.128
 2348SOL    HW2 7944   2.571   6.824   4.080
 2349SOL     OW 7945   0.693   4.622   6.009
 2349SOL    HW1 7946   0.657   4.685   5.940
 2349SOL    HW2 7947   0.621   4.600   6.074
 2350SOL     OW 7948   5.919   0.352   6.548
 2350SOL    HW1 7949   5.857   0.274   6.537
 2350SOL    HW2 7950   6.010   0.326   6.514
 2351SOL     OW 7951   2.913   5.271   4.111
 2351SOL    HW1 7952   2.878   5.192   4.062
 2351SOL    HW2 7953   2.950   5.337   4.046
 2352SOL     OW 7954   0.551   4.233   2.588
 2352SOL    HW1 7955   0.647   4.232   2.615
 2352SOL    HW2 7956   0.542   4.272   2.497
 2353SOL     OW 7957   3.455   4.791   5.954
 2353SOL    HW1 7958   3.483   4.803   6.049
 2353SOL    HW2 7959   3.365   4.833   5.941
 2354SOL     OW 7960   3.110   1.544   5.950
 2354SOL    HW1 7961   3.116   1.617   6.018
 2354SOL    HW2 7962   3.193   1.544   5.894
 2355SOL     OW 7963   2.055   5.601   0.152
 2355SOL    HW1 7964   1.980   5.661   0.126
 2355SOL    HW2 7965   2.101   5.567   0.069
 2356SOL     OW 7966   1.534   3.125   6.474
 2356SOL    HW1 7967   1.567   3.206   6.523
 2356SOL    HW2 7968   1.496   3.153   6.385
 2357SOL     OW 7969   4.626   0.079   2.969
 2357SOL    HW1 7970   4.666   7.020   2.936
 2357SOL    HW2 7971   4.640   0.151   2.902
 2358SOL     OW 7972   4.094   4.858   5.029
 2358SOL    HW1 7973   4.047   4.837   4.944
 2358SOL    HW2 7974   4.064   4.796   5.101
 2359SOL     OW 7975   6.437   0.154   5.560
 2359SOL    HW1 7976   6.471   0.244   5.532
 2359SOL    HW2 7977   6.488   0.082   5.514
 2360SOL     OW 7978   5.299   4.078   0.130
 2360SOL    HW1 7979   5.341   4.046   0.215
 2360SOL    HW2 7980   5.287   4.001   0.068
 2361SOL     OW 7981   2.659   0.870   5.162
 2361SOL    HW1 7982   2.740   0.929   5.156
 2361SOL    HW2 7983   2.646   0.841   5.257
 2362SOL     OW 7984   2.460   6.508   4.132
 2362SOL    HW1 7985   2.381   6.477   4.184
 2362SOL    HW2 7986   2.493   6.594   4.170
 2363SOL     OW 7987   4.511   2.566   5.151
 2363SOL    HW1 7988   4.583   2.567   5.082
 2363SOL    HW2 7989   4.521   2.646   5.211
 2364SOL     OW 7990   1.141   2.148   2.964
 2364SOL    HW1 7991   1.224   2.109   2.925
 2364SOL    HW2 7992   1.079   2.074   2.992
 2365SOL     OW 7993   5.979   2.588   6.619
 2365SOL    HW1 7994   5.967   2.495   6.655
 2365SOL    HW2 7995   5.953   2.590   6.523
 2366SOL     OW 7996   2.319   5.151   6.695
 2366SOL    HW1 7997   2.256   5.162   6.618
 2366SOL    HW2 7998   2.342   5.055   6.705
 2367SOL     OW 7999   2.359   4.160   0.638
 2367SOL    HW1 8000   2.297   4.169   0.561
 2367SOL    HW2 8001   2.436   4.101   0.612
 2368SOL     OW 8002   4.388   0.837   3.999
 2368SOL    HW1 8003   4.378   0.741   3.970
 2368SOL    HW2 8004   4.311   0.861   4.060
 2369SOL     OW 8005   1.713   1.894   5.717
 2369SOL    HW1 8006   1.753   1.803   5.728
 2369SOL    HW2 8007   1.636   1.904   5.780
 2370SOL     OW 8008   4.877   3.767   0.237
 2370SOL    HW1 8009   4.788   3.795   0.201
 2370SOL    HW2 8010   4.947   3.832   0.207
 2371SOL     OW 8011   0.180   6.992   2.490
 2371SOL    HW1 8012   0.272   6.955   2.489
 2371SOL    HW2 8013   0.131   6.957   2.570
 2372SOL     OW 8014   0.251   2.897   2.813
 2372SOL    HW1 8015   0.288   2.883   2.722
 2372SOL    HW2 8016   0.316   2.866   2.882
 2373SOL     OW 8017   0.504   1.786   6.953
 2373SOL    HW1 8018   0.501   1.885   6.939
 2373SOL    HW2 8019   0.442   1.742   6.888
 2374SOL     OW 8020   6.311   1.125   3.013
 2374SOL    HW1 8021   6.291   1.074   3.097
 2374SOL    HW2 8022   6.255   1.208   3.009
 2375SOL     OW 8023   2.936   6.581   4.834
 2375SOL    HW1 8024   3.008   6.596   4.765
 2375SOL    HW2 8025   2.868   6.518   4.797
 2376SOL     OW 8026   6.994   2.121   4.766
 2376SOL    HW1 8027   6.923   2.155   4.704
 2376SOL    HW2 8028   6.996   2.178   4.848
 2377SOL     OW 8029   3.189   4.130   3.158
 2377SOL    HW1 8030   3.163   4.101   3.250
 2377SOL    HW2 8031   3.160   4.225   3.143
 2378SOL     OW 8032   4.939   1.635   0.509
 2378SOL    HW1 8033   5.005   1.678   0.571
 2378SOL    HW2 8034   4.922   1.541   0.538
 2379SOL     OW 8035   5.871   1.782   6.834
 2379SOL    HW1 8036   5.855   1.738   6.922
 2379SOL    HW2 8037   5.784   1.797   6.788
 2380SOL     OW 8038   0.590   1.157   0.106
 2380SOL    HW1 8039   0.582   1.238   0.165
 2380SOL    HW2 8040   0.632   1.082   0.158
 2381SOL     OW 8041   2.192   4.053   4.590
 2381SOL    HW1 8042   2.222   4.106   4.669
 2381SOL    HW2 8043   2.211   3.956   4.605
 2382SOL     OW 8044   2.443   4.425   3.486
 2382SOL    HW1 8045   2.535   4.408   3.452
 2382SOL    HW2 8046   2.419   4.521   3.471
 2383SOL     OW 8047   5.254   6.621   1.507
 2383SOL    HW1 8048   5.208   6.639   1.594
 2383SOL    HW2 8049   5.347   6.659   1.511
 2384SOL     OW 8050   5.641   0.556   2.860
 2384SOL    HW1 8051   5.730   0.576   2.819
 2384SOL    HW2 8052   5.575   0.625   2.830
 2385SOL     OW 8053   1.191   6.789   1.232
 2385SOL    HW1 8054   1.110   6.827   1.278
 2385SOL    HW2 8055   1.168   6.699   1.194
 2386SOL     OW 8056   6.187   5.728   4.564
 2386SOL    HW1 8057   6.144   5.804   4.513
 2386SOL    HW2 8058   6.145   5.642   4.535
 2387SOL     OW 8059   1.271   1.971   3.482
 2387SOL    HW1 8060   1.278   1.901   3.553
 2387SOL    HW2 8061   1.236   1.930   3.398
 2388SOL     OW 8062   0.677   2.652   4.448
 2388SOL    HW1 8063   0.691   2.665   4.350
 2388SOL    HW2 8064   0.589   2.609   4.464
 2389SOL     OW 8065   4.832   3.794   2.849
 2389SOL    HW1 8066   4.733   3.798   2.854
 2389SOL    HW2 8067   4.870   3.789   2.941
 2390SOL     OW 8068   3.963   3.947   2.794
 2390SOL    HW1 8069   3.973   3.978   2.699
 2390SOL    HW2 8070   4.011   3.860   2.806
 2391SOL     OW 8071   4.927   4.586   5.874
 2391SOL    HW1 8072   4.987   4.551   5.803
 2391SOL    HW2 8073   4.980   4.643   5.938
 2392SOL     OW 8074   4.261   6.575   5.003
 2392SOL    HW1 8075   4.341   6.607   5.054
 2392SOL    HW2 8076   4.289   6.553   4.909
 2393SOL     OW 8077   5.706   3.838   5.981
 2393SOL    HW1 8078   5.676   3.908   6.044
 2393SOL    HW2 8079   5.627   3.800   5.932
 2394SOL     OW 8080   1.166   3.451   4.592
 2394SOL    HW1 8081   1.260   3.471   4.621
 2394SOL    HW2 8082   1.161   3.452   4.492
 2395SOL     OW 8083   5.377   2.690   6.304
 2395SOL    HW1 8084   5.359   2.694   6.403
 2395SOL    HW2 8085   5.454   2.750   6.282
 2396SOL     OW 8086   3.916   4.472   1.392
 2396SOL    HW1 8087   3.819   4.462   1.416
 2396SOL    HW2 8088   3.956   4.546   1.445
 2397SOL     OW 8089   0.173   4.288   6.728
 2397SOL    HW1 8090   0.224   4.288   6.642
 2397SOL    HW2 8091   0.095   4.226   6.720
 2398SOL     OW 8092   2.675   3.329   0.126
 2398SOL    HW1 8093   2.586   3.284   0.135
 2398SOL    HW2 8094   2.737   3.295   0.196
 2399SOL     OW 8095   4.541   1.791   1.844
 2399SOL    HW1 8096   4.460   1.781   1.902
 2399SOL    HW2 8097   4.520   1.760   1.752
 2400SOL     OW 8098   3.110   4.070   0.406
 2400SOL    HW1 8099   3.012   4.069   0.388
 2400SOL    HW2 8100   3.127   4.109   0.496
 2401SOL     OW 8101   4.179   6.014   6.242
 2401SOL    HW1 8102   4.120   6.016   6.162
 2401SOL    HW2 8103   4.124   6.026   6.324
 2402SOL     OW 8104   6.880   0.648   3.273
 2402SOL    HW1 8105   6.905   0.652   3.370
 2402SOL    HW2 8106   6.793   0.695   3.259
 2403SOL     OW 8107   2.166   2.393   6.869
 2403SOL    HW1 8108   2.173   2.356   6.777
 2403SOL    HW2 8109   2.253   2.382   6.917
 2404SOL     OW 8110   3.627   1.056   0.723
 2404SOL    HW1 8111   3.692   1.131   0.727
 2404SOL    HW2 8112   3.583   1.054   0.633
 2405SOL     OW 8113   3.878   3.403   2.715
 2405SOL    HW1 8114   3.792   3.374   2.672
 2405SOL    HW2 8115   3.871   3.498   2.744
 2406SOL     OW 8116   3.050   6.523   2.521
 2406SOL    HW1 8117   3.054   6.457   2.595
 2406SOL    HW2 8118   2.982   6.494   2.453
 2407SOL     OW 8119   5.578   1.698   2.116
 2407SOL    HW1 8120   5.505   1.729   2.056
 2407SOL    HW2 8121   5.618   1.614   2.078
 2408SOL     OW 8122   3.522   5.198   3.164
 2408SOL    HW1 8123   3.538   5.231   3.258
 2408SOL    HW2 8124   3.582   5.121   3.145
 2409SOL     OW 8125   1.713   4.454   2.077
 2409SOL    HW1 8126   1.629   4.417   2.116
 2409SOL    HW2 8127   1.791   4.429   2.135
 2410SOL     OW 8128   3.787   2.687   5.926
 2410SOL    HW1 8129   3.700   2.714   5.885
 2410SOL    HW2 8130   3.860   2.746   5.892
 2411SOL     OW 8131   3.805   5.451   5.003
 2411SOL    HW1 8132   3.842   5.482   5.091
 2411SOL    HW2 8133   3.717   5.407   5.017
 2412SOL     OW 8134   4.864   5.382   1.114
 2412SOL    HW1 8135   4.854   5.367   1.212
 2412SOL    HW2 8136   4.923   5.461   1.098
 2413SOL     OW 8137   6.338   2.453   0.863
 2413SOL    HW1 8138   6.353   2.380   0.929
 2413SOL    HW2 8139   6.239   2.469   0.852
 2414SOL     OW 8140   5.098   4.282   2.703
 2414SOL    HW1 8141   5.121   4.327   2.617
 2414SOL    HW2 8142   5.097   4.183   2.689
 2415SOL     OW 8143   0.044   0.209   2.337
 2415SOL    HW1 8144   6.998   0.209   2.406
 2415SOL    HW2 8145   0.035   0.129   2.278
 2416SOL     OW 8146   4.295   1.976   5.451
 2416SOL    HW1 8147   4.198   1.994   5.469
 2416SOL    HW2 8148   4.337   1.934   5.531
 2417SOL     OW 8149   3.531   2.891   5.827
 2417SOL    HW1 8150   3.598   2.963   5.845
 2417SOL    HW2 8151   3.548   2.852   5.736
 2418SOL     OW 8152   3.043   3.228   4.200
 2418SOL    HW1 8153   2.997   3.298   4.145
 2418SOL    HW2 8154   3.012   3.236   4.295
 2419SOL     OW 8155   0.349   6.788   4.839
 2419SOL    HW1 8156   0.302   6.749   4.919
 2419SOL    HW2 8157   0.377   6.882   4.861
 2420SOL     OW 8158   2.937   1.272   2.346
 2420SOL    HW1 8159   2.963   1.345   2.283
 2420SOL    HW2 8160   2.882   1.309   2.421
 2421SOL     OW 8161   2.647   2.077   4.876
 2421SOL    HW1 8162   2.574   2.079   4.944
 2421SOL    HW2 8163   2.712   2.151   4.894
 2422SOL     OW 8164   5.647   1.486   0.981
 2422SOL    HW1 8165   5.574   1.551   1.002
 2422SOL    HW2 8166   5.607   1.396   0.963
 2423SOL     OW 8167   1.396   6.339   2.786
 2423SOL    HW1 8168   1.436   6.325   2.695
 2423SOL    HW2 8169   1.299   6.364   2.775
 2424SOL     OW 8170   5.966   6.880   6.066
 2424SOL    HW1 8171   5.948   6.966   6.020
 2424SOL    HW2 8172   6.015   6.818   6.005
 2425SOL     OW 8173   5.538   0.855   3.639
 2425SOL    HW1 8174   5.586   0.805   3.566
 2425SOL    HW2 8175   5.601   0.869   3.716
 2426SOL     OW 8176   0.817   6.213   5.131
 2426SOL    HW1 8177   0.915   6.232   5.135
 2426SOL    HW2 8178   0.774   6.271   5.062
 2427SOL     OW 8179   5.838   6.209   5.705
 2427SOL    HW1 8180   5.746   6.198   5.670
 2427SOL    HW2 8181   5.876   6.296   5.673
 2428SOL     OW 8182   6.075   0.283   2.427
 2428SOL    HW1 8183   6.146   0.232   2.380
 2428SOL    HW2 8184   6.107   0.376   2.445
 2429SOL     OW 8185   5.445   5.342   3.403
 2429SOL    HW1 8186   5.450   5.440   3.425
 2429SOL    HW2 8187   5.450   5.289   3.488
 2430SOL     OW 8188   6.089   1.628   1.242
 2430SOL    HW1 8189   6.019   1.657   1.177
 2430SOL    HW2 8190   6.071   1.534   1.270
 2431SOL     OW 8191   4.241   0.859   2.532
 2431SOL    HW1 8192   4.239   0.958   2.522
 2431SOL    HW2 8193   4.307   0.820   2.467
 2432SOL     OW 8194   3.300   6.635   2.677
 2432SOL    HW1 8195   3.330   6.586   2.758
 2432SOL    HW2 8196   3.200   6.631   2.670
 2433SOL     OW 8197   3.652   0.862   1.216
 2433SOL    HW1 8198   3.667   0.942   1.275
 2433SOL    HW2 8199   3.734   0.845   1.162
 2434SOL     OW 8200   3.928   1.175   5.618
 2434SOL    HW1 8201   4.009   1.153   5.673
 2434SOL    HW2 8202   3.936   1.268   5.582
 2435SOL     OW 8203   4.636   4.421   6.913
 2435SOL    HW1 8204   4.680   4.482   6.848
 2435SOL    HW2 8205   4.686   4.424   7.000
 2436SOL     OW 8206   1.332   5.333   0.961
 2436SOL    HW1 8207   1.416   5.353   0.911
 2436SOL    HW2 8208   1.262   5.402   0.939
 2437SOL     OW 8209   5.138   6.513   6.499
 2437SOL    HW1 8210   5.053   6.562   6.518
 2437SOL    HW2 8211   5.117   6.425   6.458
 2438SOL     OW 8212   3.172   0.753   6.758
 2438SOL    HW1 8213   3.199   0.676   6.816
 2438SOL    HW2 8214   3.094   0.800   6.799
 2439SOL     OW 8215   1.775   4.266   6.524
 2439SOL    HW1 8216   1.685   4.245   6.562
 2439SOL    HW2 8217   1.775   4.359   6.486
 2440SOL     OW 8218   4.729   6.195   5.488
 2440SOL    HW1 8219   4.685   6.242   5.565
 2440SOL    HW2 8220   4.828   6.191   5.504
 2441SOL     OW 8221   0.629   1.221   0.753
 2441SOL    HW1 8222   0.685   1.271   0.818
 2441SOL    HW2 8223   0.553   1.177   0.802
 2442SOL     OW 8224   0.898   3.496   6.092
 2442SOL    HW1 8225   0.979   3.447   6.058
 2442SOL    HW2 8226   0.867   3.560   6.021
 2443SOL     OW 8227   4.109   5.305   6.020
 2443SOL    HW1 8228   4.067   5.387   6.058
 2443SOL    HW2 8229   4.207   5.306   6.038
 2444SOL     OW 8230   2.896   4.165   6.168
 2444SOL    HW1 8231   2.963   4.105   6.125
 2444SOL    HW2 8232   2.865   4.234   6.103
 2445SOL     OW 8233   6.970   1.448   1.157
 2445SOL    HW1 8234   6.889   1.392   1.173
 2445SOL    HW2 8235   7.021   1.459   1.242
 2446SOL     OW 8236   6.190   4.623   3.963
 2446SOL    HW1 8237   6.252   4.626   4.041
 2446SOL    HW2 8238   6.126   4.547   3.974
 2447SOL     OW 8239   2.263   2.676   0.834
 2447SOL    HW1 8240   2.178   2.622   0.833
 2447SOL    HW2 8241   2.329   2.635   0.771
 2448SOL     OW 8242   0.392   0.824   4.626
 2448SOL    HW1 8243   0.357   0.815   4.719
 2448SOL    HW2 8244   0.411   0.920   4.606
 2449SOL     OW 8245   6.936   4.694   0.373
 2449SOL    HW1 8246   6.869   4.662   0.440
 2449SOL    HW2 8247   6.988   4.617   0.338
 2450SOL     OW 8248   2.459   4.667   3.391
 2450SOL    HW1 8249   2.555   4.664   3.366
 2450SOL    HW2 8250   2.403   4.682   3.309
 2451SOL     OW 8251   1.467   1.351   3.771
 2451SOL    HW1 8252   1.447   1.449   3.762
 2451SOL    HW2 8253   1.491   1.313   3.682
 2452SOL     OW 8254   1.801   3.915   2.842
 2452SOL    HW1 8255   1.756   3.829   2.863
 2452SOL    HW2 8256   1.822   3.919   2.745
 2453SOL     OW 8257   6.396   4.835   1.264
 2453SOL    HW1 8258   6.419   4.852   1.360
 2453SOL    HW2 8259   6.373   4.739   1.252
 2454SOL     OW 8260   2.995   0.679   1.620
 2454SOL    HW1 8261   3.026   0.721   1.534
 2454SOL    HW2 8262   3.033   0.587   1.627
 2455SOL     OW 8263   5.130   6.196   0.369
 2455SOL    HW1 8264   5.035   6.217   0.348
 2455SOL    HW2 8265   5.174   6.276   0.409
 2456SOL     OW 8266   5.236   6.125   1.681
 2456SOL    HW1 8267   5.258   6.201   1.620
 2456SOL    HW2 8268   5.313   6.060   1.682
 2457SOL     OW 8269   5.611   6.477   0.610
 2457SOL    HW1 8270   5.525   6.438   0.643
 2457SOL    HW2 8271   5.670   6.403   0.576
 2458SOL     OW 8272   2.338   5.984   3.365
 2458SOL    HW1 8273   2.339   6.029   3.276
 2458SOL    HW2 8274   2.381   6.043   3.433
 2459SOL     OW 8275   2.056   6.681   0.742
 2459SOL    HW1 8276   2.122   6.728   0.684
 2459SOL    HW2 8277   1.978   6.741   0.760
 2460SOL     OW 8278   2.360   0.795   1.563
 2460SOL    HW1 8279   2.332   0.735   1.488
 2460SOL    HW2 8280   2.297   0.784   1.640
 2461SOL     OW 8281   6.265   0.869   2.233
 2461SOL    HW1 8282   6.176   0.856   2.190
 2461SOL    HW2 8283   6.328   0.911   2.168
 2462SOL     OW 8284   2.621   5.629   0.157
 2462SOL    HW1 8285   2.555   5.691   0.115
 2462SOL    HW2 8286   2.594   5.534   0.137
 2463SOL     OW 8287   6.354   2.233   4.133
 2463SOL    HW1 8288   6.309   2.202   4.217
 2463SOL    HW2 8289   6.368   2.332   4.138
 2464SOL     OW 8290   0.891   4.562   0.678
 2464SOL    HW1 8291   0.941   4.476   0.683
 2464SOL    HW2 8292   0.812   4.558   0.738
 2465SOL     OW 8293   0.140   5.839   1.603
 2465SOL    HW1 8294   0.126   5.938   1.595
 2465SOL    HW2 8295   0.132   5.797   1.513
 2466SOL     OW 8296   4.049   1.534   2.520
 2466SOL    HW1 8297   4.000   1.542   2.433
 2466SOL    HW2 8298   4.099   1.619   2.537
 2467SOL     OW 8299   6.130   1.698   5.915
 2467SOL    HW1 8300   6.217   1.745   5.928
 2467SOL    HW2 8301   6.086   1.732   5.832
 2468SOL     OW 8302   0.003   5.994   2.050
 2468SOL    HW1 8303   6.996   6.069   1.993
 2468SOL    HW2 8304   0.017   5.912   1.994
 2469SOL     OW 8305   3.205   4.031   5.835
 2469SOL    HW1 8306   3.166   4.080   5.756
 2469SOL    HW2 8307   3.182   3.934   5.829
 2470SOL     OW 8308   2.980   4.396   5.789
 2470SOL    HW1 8309   2.940   4.343   5.864
 2470SOL    HW2 8310   2.965   4.493   5.806
 2471SOL     OW 8311   0.918   6.563   1.532
 2471SOL    HW1 8312   0.972   6.593   1.454
 2471SOL    HW2 8313   0.965   6.588   1.617
 2472SOL     OW 8314   5.861   1.362   4.677
 2472SOL    HW1 8315   5.785   1.427   4.689
 2472SOL    HW2 8316   5.824   1.271   4.660
 2473SOL     OW 8317   1.643   5.035   4.761
 2473SOL    HW1 8318   1.704   5.031   4.840
 2473SOL    HW2 8319   1.634   4.944   4.720
 2474SOL     OW 8320   6.561   5.054   6.209
 2474SOL    HW1 8321   6.623   5.040   6.132
 2474SOL    HW2 8322   6.584   4.991   6.283
 2475SOL     OW 8323   4.216   2.323   0.713
 2475SOL    HW1 8324   4.254   2.371   0.633
 2475SOL    HW2 8325   4.264   2.354   0.795
 2476SOL     OW 8326   0.981   1.896   3.926
 2476SOL    HW1 8327   0.952   1.988   3.953
 2476SOL    HW2 8328   1.045   1.861   3.994
 2477SOL     OW 8329   6.118   6.239   1.517
 2477SOL    HW1 8330   6.040   6.209   1.462
 2477SOL    HW2 8331   6.191   6.171   1.510
 2478SOL     OW 8332   5.930   6.246   2.564
 2478SOL    HW1 8333   5.879   6.300   2.496
 2478SOL    HW2 8334   5.954   6.305   2.641
 2479SOL     OW 8335   0.251   3.093   1.724
 2479SOL    HW1 8336   0.260   3.077   1.626
 2479SOL    HW2 8337   0.153   3.100   1.747
 2480SOL     OW 8338   6.885   2.722   0.854
 2480SOL    HW1 8339   6.982   2.737   0.840
 2480SOL    HW2 8340   6.846   2.797   0.908
 2481SOL     OW 8341   3.577   5.856   0.968
 2481SOL    HW1 8342   3.623   5.883   1.053
 2481SOL    HW2 8343   3.627   5.892   0.890
 2482SOL     OW 8344   4.521   3.267   5.587
 2482SOL    HW1 8345   4.522   3.322   5.671
 2482SOL    HW2 8346   4.522   3.329   5.508
 2483SOL     OW 8347   1.757   0.662   0.456
 2483SOL    HW1 8348   1.672   0.710   0.476
 2483SOL    HW2 8349   1.827   0.690   0.522
 2484SOL     OW 8350   1.930   0.428   1.007
 2484SOL    HW1 8351   1.878   0.442   0.922
 2484SOL    HW2 8352   2.026   0.449   0.991
 2485SOL     OW 8353   6.265   5.026   2.079
 2485SOL    HW1 8354   6.354   5.069   2.070
 2485SOL    HW2 8355   6.257   4.952   2.012
 2486SOL     OW 8356   1.934   5.898   3.877
 2486SOL    HW1 8357   1.960   5.913   3.782
 2486SOL    HW2 8358   2.009   5.924   3.938
 2487SOL     OW 8359   4.301   6.349   0.138
 2487SOL    HW1 8360   4.239   6.416   0.180
 2487SOL    HW2 8361   4.291   6.261   0.185
 2488SOL     OW 8362   2.871   4.096   1.255
 2488SOL    HW1 8363   2.910   4.004   1.252
 2488SOL    HW2 8364   2.820   4.113   1.170
 2489SOL     OW 8365   2.319   6.024   5.313
 2489SOL    HW1 8366   2.351   6.093   5.247
 2489SOL    HW2 8367   2.232   5.987   5.282
 2490SOL     OW 8368   0.217   5.116   0.471
 2490SOL    HW1 8369   0.119   5.136   0.475
 2490SOL    HW2 8370   0.269   5.201   0.464
 2491SOL     OW 8371   2.482   5.846   2.446
 2491SOL    HW1 8372   2.482   5.782   2.523
 2491SOL    HW2 8373   2.518   5.934   2.476
 2492SOL     OW 8374   4.549   3.566   6.176
 2492SOL    HW1 8375   4.466   3.602   6.219
 2492SOL    HW2 8376   4.557   3.468   6.194
 2493SOL     OW 8377   5.509   0.939   2.791
 2493SOL    HW1 8378   5.495   0.848   2.753
 2493SOL    HW2 8379   5.605   0.949   2.817
 2494SOL     OW 8380   4.572   2.527   2.545
 2494SOL    HW1 8381   4.557   2.580   2.462
 2494SOL    HW2 8382   4.562   2.586   2.625
 2495SOL     OW 8383   5.063   1.294   5.469
 2495SOL    HW1 8384   5.155   1.309   5.432
 2495SOL    HW2 8385   5.005   1.371   5.444
 2496SOL     OW 8386   1.072   5.335   0.558
 2496SOL    HW1 8387   1.080   5.354   0.656
 2496SOL    HW2 8388   1.001   5.267   0.543
 2497SOL     OW 8389   6.676   1.448   0.727
 2497SOL    HW1 8390   6.588   1.475   0.687
 2497SOL    HW2 8391   6.731   1.529   0.745
 2498SOL     OW 8392   2.064   3.213   3.296
 2498SOL    HW1 8393   1.977   3.252   3.266
 2498SOL    HW2 8394   2.103   3.158   3.223
 2499SOL     OW 8395   5.768   0.764   4.655
 2499SOL    HW1 8396   5.705   0.807   4.590
 2499SOL    HW2 8397   5.862   0.784   4.628
 2500SOL     OW 8398   4.904   3.198   6.300
 2500SOL    HW1 8399   4.926   3.281   6.350
 2500SOL    HW2 8400   4.985   3.168   6.248
 2501SOL     OW 8401   5.859   4.345   6.797
 2501SOL    HW1 8402   5.784   4.319   6.858
 2501SOL    HW2 8403   5.840   4.435   6.757
 2502SOL     OW 8404   2.253   6.499   3.275
 2502SOL    HW1 8405   2.222   6.559   3.202
 2502SOL    HW2 8406   2.179   6.437   3.302
 2503SOL     OW 8407   3.747   5.781   5.846
 2503SOL    HW1 8408   3.816   5.821   5.907
 2503SOL    HW2 8409   3.793   5.722   5.779
 2504SOL     OW 8410   2.011   4.669   4.898
 2504SOL    HW1 8411   1.912   4.664   4.886
 2504SOL    HW2 8412   2.048   4.576   4.898
 2505SOL     OW 8413   4.020   5.516   4.284
 2505SOL    HW1 8414   3.979   5.604   4.260
 2505SOL    HW2 8415   4.036   5.513   4.382
 2506SOL     OW 8416   6.539   3.363   6.101
 2506SOL    HW1 8417   6.475   3.345   6.026
 2506SOL    HW2 8418   6.526   3.457   6.134
 2507SOL     OW 8419   6.412   5.457   0.286
 2507SOL    HW1 8420   6.475   5.413   0.351
 2507SOL    HW2 8421   6.321   5.419   0.298
 2508SOL     OW 8422   2.964   1.911   2.248
 2508SOL    HW1 8423   3.009   1.931   2.162
 2508SOL    HW2 8424   2.967   1.991   2.308
 2509SOL     OW 8425   5.776   2.796   2.350
 2509SOL    HW1 8426   5.823   2.762   2.432
 2509SOL    HW2 8427   5.822   2.761   2.269
 2510SOL     OW 8428   3.088   5.088   0.624
 2510SOL    HW1 8429   3.129   5.001   0.652
 2510SOL    HW2 8430   3.089   5.152   0.701
 2511SOL     OW 8431   1.264   1.051   5.138
 2511SOL    HW1 8432   1.235   1.012   5.050
 2511SOL    HW2 8433   1.362   1.038   5.149
 2512SOL     OW 8434   4.884   4.011   4.847
 2512SOL    HW1 8435   4.983   4.030   4.848
 2512SOL    HW2 8436   4.869   3.916   4.822
 2513SOL     OW 8437   1.448   2.327   6.429
 2513SOL    HW1 8438   1.368   2.269   6.419
 2513SOL    HW2 8439   1.421   2.423   6.425
 2514SOL     OW 8440   0.604   1.386   4.427
 2514SOL    HW1 8441   0.599   1.463   4.490
 2514SOL    HW2 8442   0.515   1.370   4.385
 2515SOL     OW 8443   1.253   6.559   0.336
 2515SOL    HW1 8444   1.191   6.630   0.369
 2515SOL    HW2 8445   1.324   6.542   0.404
 2516SOL     OW 8446   6.049   6.530   3.370
 2516SOL    HW1 8447   6.069   6.624   3.345
 2516SOL    HW2 8448   6.129   6.490   3.415
 2517SOL     OW 8449   2.715   4.250   6.347
 2517SOL    HW1 8450   2.789   4.227   6.284
 2517SOL    HW2 8451   2.725   4.345   6.376
 2518SOL     OW 8452   2.313   2.675   6.544
 2518SOL    HW1 8453   2.334   2.673   6.446
 2518SOL    HW2 8454   2.244   2.745   6.561
 2519SOL     OW 8455   4.909   4.643   4.567
 2519SOL    HW1 8456   4.852   4.658   4.486
 2519SOL    HW2 8457   4.938   4.547   4.569
 2520SOL     OW 8458   2.602   3.172   0.982
 2520SOL    HW1 8459   2.638   3.128   0.900
 2520SOL    HW2 8460   2.677   3.193   1.045
 2521SOL     OW 8461   0.112   6.897   5.594
 2521SOL    HW1 8462   0.050   6.969   5.626
 2521SOL    HW2 8463   0.173   6.870   5.668
 2522SOL     OW 8464   1.245   2.793   4.532
 2522SOL    HW1 8465   1.214   2.713   4.480
 2522SOL    HW2 8466   1.295   2.854   4.471
 2523SOL     OW 8467   6.992   3.532   0.355
 2523SOL    HW1 8468   0.022   3.602   0.398
 2523SOL    HW2 8469   0.018   3.489   0.280
 2524SOL     OW 8470   1.222   6.521   4.241
 2524SOL    HW1 8471   1.180   6.444   4.192
 2524SOL    HW2 8472   1.275   6.576   4.177
 2525SOL     OW 8473   0.936   4.515   4.524
 2525SOL    HW1 8474   1.026   4.475   4.506
 2525SOL    HW2 8475   0.887   4.460   4.591
 2526SOL     OW 8476   0.275   2.154   4.206
 2526SOL    HW1 8477   0.215   2.221   4.250
 2526SOL    HW2 8478   0.250   2.145   4.109
 2527SOL     OW 8479   5.769   6.236   4.992
 2527SOL    HW1 8480   5.750   6.276   4.903
 2527SOL    HW2 8481   5.695   6.174   5.018
 2528SOL     OW 8482   6.343   5.121   0.316
 2528SOL    HW1 8483   6.294   5.036   0.337
 2528SOL    HW2 8484   6.441   5.106   0.332
 2529SOL     OW 8485   4.743   6.060   4.678
 2529SOL    HW1 8486   4.785   6.150   4.674
 2529SOL    HW2 8487   4.661   6.058   4.621
 2530SOL     OW 8488   1.141   6.233   3.441
 2530SOL    HW1 8489   1.231   6.189   3.430
 2530SOL    HW2 8490   1.098   6.243   3.351
 2531SOL     OW 8491   5.000   0.830   5.157
 2531SOL    HW1 8492   5.093   0.801   5.180
 2531SOL    HW2 8493   4.976   0.910   5.212
 2532SOL     OW 8494   1.414   5.395   0.262
 2532SOL    HW1 8495   1.362   5.379   0.178
 2532SOL    HW2 8496   1.511   5.401   0.241
 2533SOL     OW 8497   5.181   7.025   5.160
 2533SOL    HW1 8498   5.082   7.021   5.141
 2533SOL    HW2 8499   5.228   0.043   5.083
 2534SOL     OW 8500   2.133   0.546   3.660
 2534SOL    HW1 8501   2.099   0.453   3.651
 2534SOL    HW2 8502   2.219   0.546   3.711
 2535SOL     OW 8503   1.702   1.536   3.912
 2535SOL    HW1 8504   1.703   1.581   3.823
 2535SOL    HW2 8505   1.673   1.601   3.982
 2536SOL     OW 8506   6.425   1.143   4.456
 2536SOL    HW1 8507   6.334   1.182   4.444
 2536SOL    HW2 8508   6.493   1.203   4.413
 2537SOL     OW 8509   4.391   5.980   1.088
 2537SOL    HW1 8510   4.489   5.970   1.071
 2537SOL    HW2 8511   4.352   5.891   1.112
 2538SOL     OW 8512   1.750   4.626   4.894
 2538SOL    HW1 8513   1.713   4.534   4.879
 2538SOL    HW2 8514   1.675   4.690   4.910
 2539SOL     OW 8515   4.142   0.027   5.356
 2539SOL    HW1 8516   4.085   0.109   5.349
 2539SOL    HW2 8517   4.112   6.986   5.287
 2540SOL     OW 8518   5.562   1.289   2.518
 2540SOL    HW1 8519   5.576   1.327   2.426
 2540SOL    HW2 8520   5.649   1.257   2.555
 2541SOL     OW 8521   1.252   0.001   5.377
 2541SOL    HW1 8522   1.300   0.050   5.303
 2541SOL    HW2 8523   1.166   0.048   5.397
 2542SOL     OW 8524   3.853   1.873   4.098
 2542SOL    HW1 8525   3.872   1.800   4.033
 2542SOL    HW2 8526   3.831   1.957   4.049
 2543SOL     OW 8527   1.080   0.614   2.830
 2543SOL    HW1 8528   1.037   0.603   2.740
 2543SOL    HW2 8529   1.094   0.711   2.848
 2544SOL     OW 8530   0.399   5.304   1.405
 2544SOL    HW1 8531   0.344   5.349   1.476
 2544SOL    HW2 8532   0.486   5.274   1.445
 2545SOL     OW 8533   1.576   1.667   1.518
 2545SOL    HW1 8534   1.667   1.686   1.482
 2545SOL    HW2 8535   1.513   1.740   1.489
 2546SOL     OW 8536   6.159   3.884   1.809
 2546SOL    HW1 8537   6.126   3.915   1.898
 2546SOL    HW2 8538   6.240   3.827   1.822
 2547SOL     OW 8539   5.726   4.365   0.385
 2547SOL    HW1 8540   5.663   4.437   0.415
 2547SOL    HW2 8541   5.724   4.359   0.285
 2548SOL     OW 8542   0.386   0.218   5.092
 2548SOL    HW1 8543   0.359   0.313   5.105
 2548SOL    HW2 8544   0.421   0.182   5.179
 2549SOL     OW 8545   1.823   2.446   2.249
 2549SOL    HW1 8546   1.836   2.420   2.345
 2549SOL    HW2 8547   1.782   2.537   2.245
 2550SOL     OW 8548   5.499   0.166   6.911
 2550SOL    HW1 8549   5.585   0.162   6.861
 2550SOL    HW2 8550   5.427   0.122   6.857
 2551SOL     OW 8551   3.563   5.532   0.074
 2551SOL    HW1 8552   3.550   5.468   0.149
 2551SOL    HW2 8553   3.592   5.483   7.018
 2552SOL     OW 8554   1.896   4.872   6.973
 2552SOL    HW1 8555   1.905   4.772   6.966
 2552SOL    HW2 8556   1.987   4.914   6.963
 2553SOL     OW 8557   3.843   2.126   6.135
 2553SOL    HW1 8558   3.798   2.065   6.070
 2553SOL    HW2 8559   3.788   2.208   6.148
 2554SOL     OW 8560   1.749   5.659   0.597
 2554SOL    HW1 8561   1.834   5.639   0.647
 2554SOL    HW2 8562   1.672   5.651   0.660
 2555SOL     OW 8563   6.106   6.638   6.043
 2555SOL    HW1 8564   6.142   6.711   6.102
 2555SOL    HW2 8565   6.102   6.552   6.095
 2556SOL     OW 8566   3.234   6.658   1.407
 2556SOL    HW1 8567   3.240   6.695   1.314
 2556SOL    HW2 8568   3.145   6.615   1.420
 2557SOL     OW 8569   3.479   0.657   6.983
 2557SOL    HW1 8570   3.478   0.617   0.049
 2557SOL    HW2 8571   3.566   0.632   6.938
 2558SOL     OW 8572   5.514   4.526   6.095
 2558SOL    HW1 8573   5.416   4.545   6.104
 2558SOL    HW2 8574   5.541   4.458   6.163
 2559SOL     OW 8575   0.032   3.378   3.195
 2559SOL    HW1 8576   7.004   3.295   3.181
 2559SOL    HW2 8577   0.114   3.374   3.139
 2560SOL     OW 8578   5.119   3.581   3.354
 2560SOL    HW1 8579   5.147   3.591   3.450
 2560SOL    HW2 8580   5.023   3.609   3.345
 2561SOL     OW 8581   3.158   0.990   4.575
 2561SOL    HW1 8582   3.207   0.931   4.511
 2561SOL    HW2 8583   3.208   1.076   4.586
 2562SOL     OW 8584   3.373   6.127   3.222
 2562SOL    HW1 8585   3.472   6.119   3.234
 2562SOL    HW2 8586   3.329   6.125   3.312
 2563SOL     OW 8587   2.544   1.516   6.835
 2563SOL    HW1 8588   2.623   1.545   6.890
 2563SOL    HW2 8589   2.518   1.590   6.773
 2564SOL     OW 8590   2.238   0.652   0.023
 2564SOL    HW1 8591   2.288   0.566   0.039
 2564SOL    HW2 8592   2.291   0.709   6.985
 2565SOL     OW 8593   0.568   1.408   6.669
 2565SOL    HW1 8594   0.643   1.344   6.654
 2565SOL    HW2 8595   0.527   1.392   6.759
 2566SOL     OW 8596   3.146   0.415   1.685
 2566SOL    HW1 8597   3.222   0.353   1.705
 2566SOL    HW2 8598   3.090   0.427   1.767
 2567SOL     OW 8599   1.242   0.512   0.376
 2567SOL    HW1 8600   1.288   0.479   0.458
 2567SOL    HW2 8601   1.185   0.591   0.400
 2568SOL     OW 8602   2.949   6.260   1.154
 2568SOL    HW1 8603   2.859   6.246   1.193
 2568SOL    HW2 8604   3.017   6.268   1.228
 2569SOL     OW 8605   2.079   1.162   1.208
 2569SOL    HW1 8606   2.025   1.112   1.141
 2569SOL    HW2 8607   2.075   1.260   1.188
 2570SOL     OW 8608   4.965   5.986   6.919
 2570SOL    HW1 8609   4.981   5.928   6.838
 2570SOL    HW2 8610   4.995   6.079   6.900
 2571SOL     OW 8611   3.437   2.878   3.720
 2571SOL    HW1 8612   3.413   2.824   3.640
 2571SOL    HW2 8613   3.523   2.926   3.703
 2572SOL     OW 8614   2.649   5.517   1.537
 2572SOL    HW1 8615   2.653   5.425   1.577
 2572SOL    HW2 8616   2.691   5.582   1.600
 2573SOL     OW 8617   6.864   2.118   4.243
 2573SOL    HW1 8618   6.926   2.097   4.168
 2573SOL    HW2 8619   6.889   2.206   4.284
 2574SOL     OW 8620   6.686   3.158   1.300
 2574SOL    HW1 8621   6.731   3.246   1.287
 2574SOL    HW2 8622   6.670   3.115   1.211
 2575SOL     OW 8623   5.166   3.933   0.574
 2575SOL    HW1 8624   5.244   3.936   0.637
 2575SOL    HW2 8625   5.189   3.875   0.496
 2576SOL     OW 8626   2.464   0.071   3.809
 2576SOL    HW1 8627   2.495   0.068   3.904
 2576SOL    HW2 8628   2.520   0.136   3.758
 2577SOL     OW 8629   3.738   0.536   3.486
 2577SOL    HW1 8630   3.736   0.443   3.447
 2577SOL    HW2 8631   3.793   0.595   3.428
 2578SOL     OW 8632   4.707   2.313   4.750
 2578SOL    HW1 8633   4.736   2.218   4.743
 2578SOL    HW2 8634   4.609   2.317   4.770
 2579SOL     OW 8635   0.648   1.703   6.128
 2579SOL    HW1 8636   0.648   1.617   6.078
 2579SOL    HW2 8637   0.570   1.759   6.098
 2580SOL     OW 8638   1.297   2.344   6.067
 2580SOL    HW1 8639   1.259   2.278   6.002
 2580SOL    HW2 8640   1.384   2.309   6.103
 2581SOL     OW 8641   5.520   5.678   1.754
 2581SOL    HW1 8642   5.460   5.675   1.834
 2581SOL    HW2 8643   5.490   5.609   1.688
 2582SOL     OW 8644   1.338   5.454   2.657
 2582SOL    HW1 8645   1.308   5.544   2.627
 2582SOL    HW2 8646   1.261   5.391   2.657
 2583SOL     OW 8647   0.922   0.328   1.189
 2583SOL    HW1 8648   0.860   0.366   1.258
 2583SOL    HW2 8649   0.907   0.229   1.182
 2584SOL     OW 8650   3.017   6.429   0.780
 2584SOL    HW1 8651   3.028   6.470   0.871
 2584SOL    HW2 8652   2.970   6.341   0.789
 2585SOL     OW 8653   3.061   0.032   0.935
 2585SOL    HW1 8654   3.148   7.011   0.919
 2585SOL    HW2 8655   3.016   7.016   1.014
 2586SOL     OW 8656   6.019   0.890   4.645
 2586SOL    HW1 8657   6.082   0.897   4.722
 2586SOL    HW2 8658   5.983   0.981   4.624
 2587SOL     OW 8659   6.357   0.403   4.645
 2587SOL    HW1 8660   6.288   0.336   4.672
 2587SOL    HW2 8661   6.441   0.356   4.618
 2588SOL     OW 8662   5.459   0.692   1.315
 2588SOL    HW1 8663   5.403   0.753   1.372
 2588SOL    HW2 8664   5.452   0.720   1.220
 2589SOL     OW 8665   6.652   0.184   5.834
 2589SOL    HW1 8666   6.603   0.255   5.782
 2589SOL    HW2 8667   6.715   0.137   5.773
 2590SOL     OW 8668   3.767   6.860   2.607
 2590SOL    HW1 8669   3.695   6.877   2.674
 2590SOL    HW2 8670   3.794   6.764   2.611
 2591SOL     OW 8671   4.899   6.555   1.288
 2591SOL    HW1 8672   4.906   6.558   1.188
 2591SOL    HW2 8673   4.964   6.488   1.324
 2592SOL     OW 8674   3.094   5.233   1.426
 2592SOL    HW1 8675   3.019   5.293   1.398
 2592SOL    HW2 8676   3.131   5.264   1.514
 2593SOL     OW 8677   3.461   6.844   2.770
 2593SOL    HW1 8678   3.471   6.923   2.708
 2593SOL    HW2 8679   3.403   6.775   2.727
 2594SOL     OW 8680   0.277   0.600   6.425
 2594SOL    HW1 8681   0.307   0.505   6.432
 2594SOL    HW2 8682   0.342   0.652   6.370
 2595SOL     OW 8683   6.823   3.282   5.142
 2595SOL    HW1 8684   6.899   3.226   5.107
 2595SOL    HW2 8685   6.737   3.233   5.130
 2596SOL     OW 8686   3.885   2.160   1.817
 2596SOL    HW1 8687   3.832   2.180   1.734
 2596SOL    HW2 8688   3.830   2.181   1.897
 2597SOL     OW 8689   2.765   3.078   0.771
 2597SOL    HW1 8690   2.818   3.077   0.686
 2597SOL    HW2 8691   2.731   2.985   0.789
 2598SOL     OW 8692   6.624   2.817   4.573
 2598SOL    HW1 8693   6.706   2.777   4.614
 2598SOL    HW2 8694   6.551   2.749   4.572
 2599SOL     OW 8695   3.552   6.056   5.693
 2599SOL    HW1 8696   3.572   5.963   5.662
 2599SOL    HW2 8697   3.501   6.105   5.622
 2600SOL     OW 8698   4.881   3.908   3.504
 2600SOL    HW1 8699   4.945   3.876   3.573
 2600SOL    HW2 8700   4.831   3.831   3.466
 2601SOL     OW 8701   3.004   2.507   6.005
 2601SOL    HW1 8702   3.042   2.452   6.081
 2601SOL    HW2 8703   3.079   2.534   5.944
 2602SOL     OW 8704   6.711   4.712   4.718
 2602SOL    HW1 8705   6.655   4.695   4.637
 2602SOL    HW2 8706   6.670   4.785   4.772
 2603SOL     OW 8707   2.361   2.457   1.866
 2603SOL    HW1 8708   2.449   2.413   1.884
 2603SOL    HW2 8709   2.375   2.555   1.852
 2604SOL     OW 8710   5.419   0.210   0.775
 2604SOL    HW1 8711   5.371   0.268   0.842
 2604SOL    HW2 8712   5.359   0.137   0.745
 2605SOL     OW 8713   4.341   4.628   3.541
 2605SOL    HW1 8714   4.409   4.563   3.505
 2605SOL    HW2 8715   4.335   4.619   3.640
 2606SOL     OW 8716   6.722   3.915   0.965
 2606SOL    HW1 8717   6.747   3.839   1.027
 2606SOL    HW2 8718   6.804   3.967   0.943
 2607SOL     OW 8719   1.618   1.579   4.504
 2607SOL    HW1 8720   1.688   1.514   4.534
 2607SOL    HW2 8721   1.661   1.668   4.485
 2608SOL     OW 8722   5.102   0.491   1.889
 2608SOL    HW1 8723   5.148   0.504   1.977
 2608SOL    HW2 8724   5.011   0.451   1.905
 2609SOL     OW 8725   0.717   2.695   2.248
 2609SOL    HW1 8726   0.807   2.709   2.290
 2609SOL    HW2 8727   0.648   2.688   2.320
 2610SOL     OW 8728   0.024   5.668   4.767
 2610SOL    HW1 8729   0.014   5.614   4.684
 2610SOL    HW2 8730   6.970   5.728   4.778
 2611SOL     OW 8731   5.714   6.218   0.939
 2611SOL    HW1 8732   5.713   6.224   0.839
 2611SOL    HW2 8733   5.621   6.226   0.974
 2612SOL     OW 8734   5.992   6.268   4.656
 2612SOL    HW1 8735   6.027   6.245   4.747
 2612SOL    HW2 8736   5.940   6.353   4.662
 2613SOL     OW 8737   3.658   6.440   2.153
 2613SOL    HW1 8738   3.715   6.410   2.076
 2613SOL    HW2 8739   3.575   6.383   2.156
 2614SOL     OW 8740   6.520   6.918   5.452
 2614SOL    HW1 8741   6.618   6.911   5.433
 2614SOL    HW2 8742   6.469   6.866   5.384
 2615SOL     OW 8743   5.339   5.623   4.113
 2615SOL    HW1 8744   5.423   5.674   4.132
 2615SOL    HW2 8745   5.361   5.526   4.103
 2616SOL     OW 8746   3.900   3.687   3.875
 2616SOL    HW1 8747   3.911   3.765   3.936
 2616SOL    HW2 8748   3.981   3.629   3.879
 2617SOL     OW 8749   3.474   4.906   1.318
 2617SOL    HW1 8750   3.499   4.955   1.234
 2617SOL    HW2 8751   3.467   4.971   1.394
 2618SOL     OW 8752   0.159   6.608   2.805
 2618SOL    HW1 8753   0.215   6.629   2.725
 2618SOL    HW2 8754   0.216   6.604   2.886
 2619SOL     OW 8755   4.483   1.653   2.330
 2619SOL    HW1 8756   4.532   1.566   2.328
 2619SOL    HW2 8757   4.388   1.639   2.302
 2620SOL     OW 8758   1.678   5.416   3.438
 2620SOL    HW1 8759   1.759   5.448   3.389
 2620SOL    HW2 8760   1.629   5.350   3.380
 2621SOL     OW 8761   0.611   5.590   3.202
 2621SOL    HW1 8762   0.677   5.648   3.153
 2621SOL    HW2 8763   0.589   5.632   3.290
 2622SOL     OW 8764   1.788   3.065   6.156
 2622SOL    HW1 8765   1.689   3.069   6.142
 2622SOL    HW2 8766   1.835   3.095   6.073
 2623SOL     OW 8767   3.763   1.185   4.197
 2623SOL    HW1 8768   3.826   1.121   4.154
 2623SOL    HW2 8769   3.802   1.277   4.196
 2624SOL     OW 8770   6.306   3.136   2.689
 2624SOL    HW1 8771   6.310   3.235   2.702
 2624SOL    HW2 8772   6.221   3.112   2.642
 2625SOL     OW 8773   1.738   3.107   5.798
 2625SOL    HW1 8774   1.755   3.134   5.703
 2625SOL    HW2 8775   1.695   3.017   5.800
 2626SOL     OW 8776   1.144   6.303   4.100
 2626SOL    HW1 8777   1.045   6.290   4.100
 2626SOL    HW2 8778   1.188   6.232   4.045
 2627SOL     OW 8779   0.173   1.088   4.914
 2627SOL    HW1 8780   0.099   1.153   4.897
 2627SOL    HW2 8781   0.143   0.996   4.890
 2628SOL     OW 8782   3.718   6.349   6.629
 2628SOL    HW1 8783   3.806   6.345   6.581
 2628SOL    HW2 8784   3.646   6.371   6.563
 2629SOL     OW 8785   3.788   3.760   1.856
 2629SOL    HW1 8786   3.854   3.693   1.888
 2629SOL    HW2 8787   3.816   3.852   1.884
 2630SOL     OW 8788   3.623   2.051   2.262
 2630SOL    HW1 8789   3.641   2.092   2.351
 2630SOL    HW2 8790   3.653   2.113   2.190
 2631SOL     OW 8791   5.089   6.737   4.200
 2631SOL    HW1 8792   5.077   6.706   4.294
 2631SOL    HW2 8793   5.091   6.657   4.139
 2632SOL     OW 8794   3.336   2.465   0.124
 2632SOL    HW1 8795   3.401   2.413   0.069
 2632SOL    HW2 8796   3.317   2.553   0.080
 2633SOL     OW 8797   5.655   2.460   6.509
 2633SOL    HW1 8798   5.619   2.540   6.558
 2633SOL    HW2 8799   5.605   2.379   6.539
 2634SOL     OW 8800   1.715   4.359   2.442
 2634SOL    HW1 8801   1.641   4.292   2.443
 2634SOL    HW2 8802   1.776   4.343   2.520
 2635SOL     OW 8803   5.531   6.442   4.488
 2635SOL    HW1 8804   5.554   6.539   4.481
 2635SOL    HW2 8805   5.517   6.404   4.397
 2636SOL     OW 8806   6.080   0.668   7.021
 2636SOL    HW1 8807   6.102   0.608   0.073
 2636SOL    HW2 8808   6.109   0.624   6.936
 2637SOL     OW 8809   6.640   0.809   3.307
 2637SOL    HW1 8810   6.678   0.896   3.339
 2637SOL    HW2 8811   6.625   0.814   3.208
 2638SOL     OW 8812   5.982   6.867   1.618
 2638SOL    HW1 8813   6.050   6.851   1.690
 2638SOL    HW2 8814   6.002   6.808   1.540
 2639SOL     OW 8815   6.166   6.892   2.020
 2639SOL    HW1 8816   6.181   6.858   1.927
 2639SOL    HW2 8817   6.081   6.946   2.023
 2640SOL     OW 8818   6.985   6.322   5.157
 2640SOL    HW1 8819   7.014   6.309   5.251
 2640SOL    HW2 8820   0.028   6.376   5.108
 2641SOL     OW 8821   5.716   3.191   0.370
 2641SOL    HW1 8822   5.627   3.229   0.395
 2641SOL    HW2 8823   5.751   3.136   0.446
 2642SOL     OW 8824   5.784   0.961   4.198
 2642SOL    HW1 8825   5.826   0.959   4.107
 2642SOL    HW2 8826   5.687   0.985   4.189
 2643SOL     OW 8827   6.860   5.450   2.860
 2643SOL    HW1 8828   6.958   5.441   2.843
 2643SOL    HW2 8829   6.812   5.458   2.773
 2644SOL     OW 8830   0.775   4.678   5.235
 2644SOL    HW1 8831   0.683   4.649   5.207
 2644SOL    HW2 8832   0.836   4.599   5.235
 2645SOL     OW 8833   4.659   0.113   4.965
 2645SOL    HW1 8834   4.595   0.140   4.892
 2645SOL    HW2 8835   4.634   0.160   5.050
 2646SOL     OW 8836   5.872   0.012   6.315
 2646SOL    HW1 8837   5.952   0.018   6.374
 2646SOL    HW2 8838   5.900   0.018   6.219
 2647SOL     OW 8839   4.903   0.672   0.736
 2647SOL    HW1 8840   4.863   0.592   0.691
 2647SOL    HW2 8841   4.994   0.650   0.769
 2648SOL     OW 8842   6.253   6.869   2.752
 2648SOL    HW1 8843   6.315   6.871   2.830
 2648SOL    HW2 8844   6.201   6.954   2.748
 2649SOL     OW 8845   4.011   1.420   5.891
 2649SOL    HW1 8846   4.071   1.376   5.825
 2649SOL    HW2 8847   3.922   1.373   5.892
 2650SOL     OW 8848   0.333   5.157   4.030
 2650SOL    HW1 8849   0.324   5.057   4.032
 2650SOL    HW2 8850   0.424   5.181   3.994
 2651SOL     OW 8851   1.045   1.406   1.128
 2651SOL    HW1 8852   1.018   1.476   1.062
 2651SOL    HW2 8853   1.135   1.370   1.104
 2652SOL     OW 8854   3.506   2.875   3.320
 2652SOL    HW1 8855   3.601   2.843   3.327
 2652SOL    HW2 8856   3.498   2.941   3.245
 2653SOL     OW 8857   5.331   6.952   5.754
 2653SOL    HW1 8858   5.286   6.893   5.686
 2653SOL    HW2 8859   5.272   6.962   5.834
 2654SOL     OW 8860   5.305   3.383   6.345
 2654SOL    HW1 8861   5.282   3.412   6.252
 2654SOL    HW2 8862   5.304   3.463   6.406
 2655SOL     OW 8863   3.812   5.298   4.518
 2655SOL    HW1 8864   3.775   5.226   4.576
 2655SOL    HW2 8865   3.751   5.377   4.520
 2656SOL     OW 8866   5.427   4.911   4.111
 2656SOL    HW1 8867   5.446   4.836   4.175
 2656SOL    HW2 8868   5.334   4.944   4.125
 2657SOL     OW 8869   2.340   3.988   6.125
 2657SOL    HW1 8870   2.415   4.050   6.103
 2657SOL    HW2 8871   2.330   3.982   6.224
 2658SOL     OW 8872   6.120   4.689   6.474
 2658SOL    HW1 8873   6.083   4.726   6.559
 2658SOL    HW2 8874   6.142   4.764   6.412
 2659SOL     OW 8875   6.605   2.369   4.853
 2659SOL    HW1 8876   6.643   2.436   4.916
 2659SOL    HW2 8877   6.629   2.277   4.884
 2660SOL     OW 8878   0.032   2.329   1.688
 2660SOL    HW1 8879   0.009   2.313   1.784
 2660SOL    HW2 8880   0.080   2.416   1.679
 2661SOL     OW 8881   2.774   6.729   1.108
 2661SOL    HW1 8882   2.730   6.653   1.156
 2661SOL    HW2 8883   2.707   6.800   1.089
 2662SOL     OW 8884   3.999   6.660   4.588
 2662SOL    HW1 8885   3.968   6.630   4.678
 2662SOL    HW2 8886   4.028   6.581   4.534
 2663SOL     OW 8887   2.233   4.458   1.528
 2663SOL    HW1 8888   2.190   4.466   1.438
 2663SOL    HW2 8889   2.176   4.503   1.597
 2664SOL     OW 8890   3.496   3.636   3.611
 2664SOL    HW1 8891   3.410   3.640   3.662
 2664SOL    HW2 8892   3.516   3.542   3.587
 2665SOL     OW 8893   3.514   1.527   4.488
 2665SOL    HW1 8894   3.549   1.494   4.400
 2665SOL    HW2 8895   3.444   1.463   4.521
 2666SOL     OW 8896   4.567   4.418   1.173
 2666SOL    HW1 8897   4.544   4.348   1.240
 2666SOL    HW2 8898   4.666   4.431   1.171
 2667SOL     OW 8899   1.354   5.994   4.855
 2667SOL    HW1 8900   1.404   6.081   4.852
 2667SOL    HW2 8901   1.407   5.924   4.807
 2668SOL     OW 8902   6.482   3.652   4.337
 2668SOL    HW1 8903   6.519   3.580   4.395
 2668SOL    HW2 8904   6.394   3.624   4.299
 2669SOL     OW 8905   3.658   4.924   5.807
 2669SOL    HW1 8906   3.573   4.878   5.831
 2669SOL    HW2 8907   3.716   4.862   5.754
 2670SOL     OW 8908   6.954   1.049   6.810
 2670SOL    HW1 8909   6.894   1.070   6.732
 2670SOL    HW2 8910   6.944   1.120   6.880
 2671SOL     OW 8911   2.304   3.615   6.894
 2671SOL    HW1 8912   2.316   3.531   6.947
 2671SOL    HW2 8913   2.390   3.639   6.849
 2672SOL     OW 8914   1.474   5.704   0.003
 2672SOL    HW1 8915   1.429   5.790   0.029
 2672SOL    HW2 8916   1.555   5.724   6.974
 2673SOL     OW 8917   5.230   2.606   3.894
 2673SOL    HW1 8918   5.204   2.605   3.797
 2673SOL    HW2 8919   5.328   2.588   3.902
 2674SOL     OW 8920   1.855   4.552   4.372
 2674SOL    HW1 8921   1.879   4.627   4.433
 2674SOL    HW2 8922   1.935   4.492   4.360
 2675SOL     OW 8923   1.235   4.446   5.472
 2675SOL    HW1 8924   1.220   4.363   5.526
 2675SOL    HW2 8925   1.333   4.467   5.470
 2676SOL     OW 8926   4.632   1.455   2.802
 2676SOL    HW1 8927   4.635   1.552   2.825
 2676SOL    HW2 8928   4.687   1.438   2.720
 2677SOL     OW 8929   2.770   4.846   1.469
 2677SOL    HW1 8930   2.730   4.909   1.535
 2677SOL    HW2 8931   2.860   4.816   1.502
 2678SOL     OW 8932   1.010   4.744   0.178
 2678SOL    HW1 8933   0.961   4.683   0.240
 2678SOL    HW2 8934   1.006   4.708   0.085
 2679SOL     OW 8935   3.918   5.131   0.869
 2679SOL    HW1 8936   3.947   5.217   0.828
 2679SOL    HW2 8937   3.956   5.124   0.961
 2680SOL     OW 8938   1.953   1.601   0.438
 2680SOL    HW1 8939   1.933   1.624   0.534
 2680SOL    HW2 8940   1.883   1.640   0.379
 2681SOL     OW 8941   1.662   3.647   4.176
 2681SOL    HW1 8942   1.563   3.653   4.188
 2681SOL    HW2 8943   1.690   3.702   4.098
 2682SOL     OW 8944   5.791   3.014   1.828
 2682SOL    HW1 8945   5.862   3.082   1.846
 2682SOL    HW2 8946   5.704   3.047   1.864
 2683SOL     OW 8947   1.141   4.812   1.186
 2683SOL    HW1 8948   1.069   4.882   1.192
 2683SOL    HW2 8949   1.115   4.733   1.242
 2684SOL     OW 8950   4.107   5.918   2.691
 2684SOL    HW1 8951   4.158   5.847   2.642
 2684SOL    HW2 8952   4.137   6.008   2.660
 2685SOL     OW 8953   6.570   0.033   4.418
 2685SOL    HW1 8954   6.501   0.009   4.487
 2685SOL    HW2 8955   6.537   0.008   4.327
 2686SOL     OW 8956   1.512   2.215   4.076
 2686SOL    HW1 8957   1.563   2.221   4.162
 2686SOL    HW2 8958   1.516   2.303   4.029
 2687SOL     OW 8959   3.997   5.072   2.955
 2687SOL    HW1 8960   3.955   5.137   2.892
 2687SOL    HW2 8961   4.091   5.053   2.925
 2688SOL     OW 8962   3.950   5.679   5.678
 2688SOL    HW1 8963   4.045   5.654   5.695
 2688SOL    HW2 8964   3.934   5.683   5.580
 2689SOL     OW 8965   1.574   1.755   4.064
 2689SOL    HW1 8966   1.543   1.820   4.134
 2689SOL    HW2 8967   1.516   1.763   3.983
 2690SOL     OW 8968   4.146   3.361   3.546
 2690SOL    HW1 8969   4.116   3.291   3.611
 2690SOL    HW2 8970   4.094   3.445   3.563
 2691SOL     OW 8971   2.077   5.649   1.864
 2691SOL    HW1 8972   2.055   5.556   1.892
 2691SOL    HW2 8973   1.996   5.692   1.824
 2692SOL     OW 8974   6.275   5.782   4.107
 2692SOL    HW1 8975   6.317   5.696   4.078
 2692SOL    HW2 8976   6.262   5.841   4.028
 2693SOL     OW 8977   2.182   4.712   2.947
 2693SOL    HW1 8978   2.173   4.619   2.910
 2693SOL    HW2 8979   2.269   4.751   2.915
 2694SOL     OW 8980   3.087   0.423   3.278
 2694SOL    HW1 8981   3.103   0.419   3.179
 2694SOL    HW2 8982   3.146   0.493   3.318
 2695SOL     OW 8983   4.767   1.914   2.586
 2695SOL    HW1 8984   4.807   1.942   2.673
 2695SOL    HW2 8985   4.838   1.876   2.527
 2696SOL     OW 8986   3.786   2.591   5.314
 2696SOL    HW1 8987   3.702   2.565   5.363
 2696SOL    HW2 8988   3.784   2.690   5.298
 2697SOL     OW 8989   4.047   2.218   3.880
 2697SOL    HW1 8990   4.131   2.190   3.926
 2697SOL    HW2 8991   4.062   2.219   3.781
 2698SOL     OW 8992   1.158   4.646   0.589
 2698SOL    HW1 8993   1.225   4.612   0.655
 2698SOL    HW2 8994   1.067   4.609   0.612
 2699SOL     OW 8995   3.638   5.353   0.275
 2699SOL    HW1 8996   3.585   5.283   0.322
 2699SOL    HW2 8997   3.735   5.332   0.281
 2700SOL     OW 8998   1.946   3.632   2.551
 2700SOL    HW1 8999   2.022   3.570   2.530
 2700SOL    HW2 9000   1.910   3.612   2.642
 2701SOL     OW 9001   3.833   6.941   6.370
 2701SOL    HW1 9002   3.896   7.017   6.356
 2701SOL    HW2 9003   3.798   6.910   6.282
 2702SOL     OW 9004   6.262   2.228   3.216
 2702SOL    HW1 9005   6.322   2.147   3.214
 2702SOL    HW2 9006   6.241   2.256   3.122
 2703SOL     OW 9007   2.665   0.876   2.901
 2703SOL    HW1 9008   2.764   0.887   2.892
 2703SOL    HW2 9009   2.619   0.945   2.845
 2704SOL     OW 9010   1.866   5.721   1.482
 2704SOL    HW1 9011   1.886   5.777   1.563
 2704SOL    HW2 9012   1.918   5.757   1.404
 2705SOL     OW 9013   7.007   5.193   4.219
 2705SOL    HW1 9014   0.021   5.196   4.127
 2705SOL    HW2 9015   6.965   5.103   4.233
 2706SOL     OW 9016   6.901   0.921   2.022
 2706SOL    HW1 9017   6.933   0.992   1.959
 2706SOL    HW2 9018   6.901   0.957   2.115
 2707SOL     OW 9019   2.141   0.291   6.146
 2707SOL    HW1 9020   2.106   0.227   6.215
 2707SOL    HW2 9021   2.172   0.240   6.066
 2708SOL     OW 9022   2.701   2.489   1.796
 2708SOL    HW1 9023   2.793   2.452   1.804
 2708SOL    HW2 9024   2.653   2.480   1.884
 2709SOL     OW 9025   4.960   6.463   1.033
 2709SOL    HW1 9026   5.027   6.534   1.016
 2709SOL    HW2 9027   4.947   6.408   0.951
 2710SOL     OW 9028   6.674   3.897   2.624
 2710SOL    HW1 9029   6.722   3.977   2.588
 2710SOL    HW2 9030   6.741   3.834   2.664
 2711SOL     OW 9031   1.793   0.392   2.516
 2711SOL    HW1 9032   1.792   0.483   2.474
 2711SOL    HW2 9033   1.700   0.367   2.544
 2712SOL     OW 9034   3.232   4.831   6.898
 2712SOL    HW1 9035   3.176   4.755   6.864
 2712SOL    HW2 9036   3.183   4.879   6.971
 2713SOL     OW 9037   1.894   2.656   4.836
 2713SOL    HW1 9038   1.937   2.571   4.805
 2713SOL    HW2 9039   1.866   2.647   4.931
 2714SOL     OW 9040   5.413   1.840   6.749
 2714SOL    HW1 9041   5.502   1.884   6.747
 2714SOL    HW2 9042   5.355   1.886   6.817
 2715SOL     OW 9043   6.012   0.719   0.359
 2715SOL    HW1 9044   6.058   0.660   0.292
 2715SOL    HW2 9045   6.076   0.739   0.433
 2716SOL     OW 9046   0.054   5.703   1.374
 2716SOL    HW1 9047   0.009   5.624   1.416
 2716SOL    HW2 9048   7.018   5.744   1.306
 2717SOL     OW 9049   1.031   5.704   1.983
 2717SOL    HW1 9050   0.946   5.707   2.036
 2717SOL    HW2 9051   1.017   5.652   1.899
 2718SOL     OW 9052   2.427   4.369   4.086
 2718SOL    HW1 9053   2.503   4.362   4.022
 2718SOL    HW2 9054   2.392   4.277   4.107
 2719SOL     OW 9055   4.311   5.096   2.204
 2719SOL    HW1 9056   4.228   5.151   2.199
 2719SOL    HW2 9057   4.290   5.006   2.244
 2720SOL     OW 9058   1.813   5.918   3.334
 2720SOL    HW1 9059   1.782   6.008   3.302
 2720SOL    HW2 9060   1.875   5.878   3.266
 2721SOL     OW 9061   2.481   0.552   4.874
 2721SOL    HW1 9062   2.463   0.490   4.798
 2721SOL    HW2 9063   2.519   0.501   4.951
 2722SOL     OW 9064   6.866   5.731   3.203
 2722SOL    HW1 9065   6.951   5.724   3.150
 2722SOL    HW2 9066   6.810   5.649   3.187
 2723SOL     OW 9067   1.977   1.119   5.694
 2723SOL    HW1 9068   1.996   1.041   5.634
 2723SOL    HW2 9069   2.039   1.116   5.773
 2724SOL     OW 9070   3.192   5.921   5.704
 2724SOL    HW1 9071   3.194   5.883   5.611
 2724SOL    HW2 9072   3.149   5.855   5.766
 2725SOL     OW 9073   5.632   4.763   3.333
 2725SOL    HW1 9074   5.570   4.704   3.281
 2725SOL    HW2 9075   5.634   4.854   3.292
 2726SOL     OW 9076   4.712   5.054   1.678
 2726SOL    HW1 9077   4.640   4.995   1.714
 2726SOL    HW2 9078   4.684   5.149   1.685
 2727SOL     OW 9079   0.908   4.734   3.165
 2727SOL    HW1 9080   0.937   4.700   3.075
 2727SOL    HW2 9081   0.877   4.829   3.156
 2728SOL     OW 9082   3.094   0.403   4.621
 2728SOL    HW1 9083   3.046   0.377   4.704
 2728SOL    HW2 9084   3.037   0.383   4.541
 2729SOL     OW 9085   6.963   6.021   2.328
 2729SOL    HW1 9086   7.004   6.041   2.239
 2729SOL    HW2 9087   7.002   6.082   2.397
 2730SOL     OW 9088   2.234   7.014   1.000
 2730SOL    HW1 9089   2.218   6.987   1.095
 2730SOL    HW2 9090   2.149   0.022   0.960
 2731SOL     OW 9091   2.772   3.711   1.318
 2731SOL    HW1 9092   2.767   3.774   1.395
 2731SOL    HW2 9093   2.691   3.653   1.317
 2732SOL     OW 9094   5.873   3.234   2.390
 2732SOL    HW1 9095   5.816   3.197   2.316
 2732SOL    HW2 9096   5.968   3.205   2.377
 2733SOL     OW 9097   0.733   6.736   5.426
 2733SOL    HW1 9098   0.711   6.640   5.409
 2733SOL    HW2 9099   0.687   6.794   5.358
 2734SOL     OW 9100   1.529   5.670   3.425
 2734SOL    HW1 9101   1.567   5.591   3.377
 2734SOL    HW2 9102   1.577   5.682   3.512
 2735SOL     OW 9103   0.291   3.790   2.620
 2735SOL    HW1 9104   0.210   3.788   2.679
 2735SOL    HW2 9105   0.328   3.883   2.618
 2736SOL     OW 9106   4.887   0.737   4.925
 2736SOL    HW1 9107   4.801   0.782   4.900
 2736SOL    HW2 9108   4.906   0.753   5.021
 2737SOL     OW 9109   3.199   3.195   6.457
 2737SOL    HW1 9110   3.128   3.145   6.409
 2737SOL    HW2 9111   3.203   3.289   6.422
 2738SOL     OW 9112   5.089   5.679   4.193
 2738SOL    HW1 9113   5.172   5.634   4.162
 2738SOL    HW2 9114   5.089   5.774   4.162
 2739SOL     OW 9115   5.723   4.140   0.761
 2739SOL    HW1 9116   5.699   4.043   0.771
 2739SOL    HW2 9117   5.722   4.184   0.851
 2740SOL     OW 9118   6.033   2.355   2.342
 2740SOL    HW1 9119   6.097   2.324   2.272
 2740SOL    HW2 9120   5.947   2.382   2.299
 2741SOL     OW 9121   0.085   1.764   5.783
 2741SOL    HW1 9122   0.133   1.703   5.721
 2741SOL    HW2 9123   7.012   1.755   5.768
 2742SOL     OW 9124   1.448   5.598   6.185
 2742SOL    HW1 9125   1.362   5.616   6.233
 2742SOL    HW2 9126   1.461   5.668   6.113
 2743SOL     OW 9127   5.996   5.867   1.274
 2743SOL    HW1 9128   6.061   5.895   1.204
 2743SOL    HW2 9129   5.952   5.948   1.312
 2744SOL     OW 9130   4.639   1.746   6.586
 2744SOL    HW1 9131   4.663   1.756   6.683
 2744SOL    HW2 9132   4.540   1.742   6.576
 2745SOL     OW 9133   2.085   6.175   0.565
 2745SOL    HW1 9134   2.081   6.187   0.664
 2745SOL    HW2 9135   2.169   6.127   0.540
 2746SOL     OW 9136   1.961   3.226   4.761
 2746SOL    HW1 9137   2.028   3.284   4.715
 2746SOL    HW2 9138   1.908   3.177   4.693
 2747SOL     OW 9139   5.681   4.805   5.071
 2747SOL    HW1 9140   5.607   4.737   5.077
 2747SOL    HW2 9141   5.696   4.846   5.161
 2748SOL     OW 9142   2.943   1.204   2.925
 2748SOL    HW1 9143   3.018   1.152   2.966
 2748SOL    HW2 9144   2.934   1.292   2.971
 2749SOL     OW 9145   5.698   4.875   4.344
 2749SOL    HW1 9146   5.673   4.913   4.254
 2749SOL    HW2 9147   5.765   4.802   4.332
 2750SOL     OW 9148   0.745   4.857   1.784
 2750SOL    HW1 9149   0.675   4.927   1.797
 2750SOL    HW2 9150   0.747   4.795   1.862
 2751SOL     OW 9151   1.772   6.912   0.694
 2751SOL    HW1 9152   1.701   6.851   0.658
 2751SOL    HW2 9153   1.825   6.950   0.618
 2752SOL     OW 9154   4.685   5.986   5.315
 2752SOL    HW1 9155   4.625   6.011   5.240
 2752SOL    HW2 9156   4.665   6.043   5.395
 2753SOL     OW 9157   3.054   5.623   6.181
 2753SOL    HW1 9158   3.059   5.713   6.138
 2753SOL    HW2 9159   3.127   5.565   6.147
 2754SOL     OW 9160   0.178   0.001   4.237
 2754SOL    HW1 9161   0.237   0.059   4.293
 2754SOL    HW2 9162   0.087   0.042   4.231
 2755SOL     OW 9163   2.719   6.695   3.446
 2755SOL    HW1 9164   2.760   6.732   3.363
 2755SOL    HW2 9165   2.619   6.702   3.441
 2756SOL     OW 9166   6.171   4.305   4.248
 2756SOL    HW1 9167   6.259   4.320   4.293
 2756SOL    HW2 9168   6.113   4.386   4.259
 2757SOL     OW 9169   3.515   2.014   6.403
 2757SOL    HW1 9170   3.592   1.951   6.391
 2757SOL    HW2 9171   3.533   2.099   6.355
 2758SOL     OW 9172   5.107   5.547   3.462
 2758SOL    HW1 9173   5.034   5.608   3.493
 2758SOL    HW2 9174   5.179   5.543   3.531
 2759SOL     OW 9175   3.514   4.485   5.623
 2759SOL    HW1 9176   3.433   4.446   5.666
 2759SOL    HW2 9177   3.511   4.469   5.524
 2760SOL     OW 9178   6.169   6.029   2.317
 2760SOL    HW1 9179   6.134   6.110   2.271
 2760SOL    HW2 9180   6.155   6.039   2.416
 2761SOL     OW 9181   0.952   4.396   3.589
 2761SOL    HW1 9182   0.860   4.357   3.584
 2761SOL    HW2 9183   0.966   4.459   3.513
 2762SOL     OW 9184   1.047   2.276   6.854
 2762SOL    HW1 9185   1.092   2.310   6.772
 2762SOL    HW2 9186   1.038   2.350   6.921
 2763SOL     OW 9187   5.086   1.768   5.901
 2763SOL    HW1 9188   5.064   1.811   5.989
 2763SOL    HW2 9189   5.155   1.823   5.854
 2764SOL     OW 9190   0.551   4.399   3.295
 2764SOL    HW1 9191   0.502   4.335   3.236
 2764SOL    HW2 9192   0.601   4.349   3.365
 2765SOL     OW 9193   6.479   0.176   0.287
 2765SOL    HW1 9194   6.560   0.233   0.302
 2765SOL    HW2 9195   6.456   0.128   0.371
 2766SOL     OW 9196   4.213   1.146   6.940
 2766SOL    HW1 9197   4.222   1.132   6.841
 2766SOL    HW2 9198   4.247   1.066   6.988
 2767SOL     OW 9199   6.042   5.662   6.369
 2767SOL    HW1 9200   6.108   5.687   6.299
 2767SOL    HW2 9201   6.071   5.698   6.457
 2768SOL     OW 9202   3.690   0.105   0.661
 2768SOL    HW1 9203   3.611   0.092   0.721
 2768SOL    HW2 9204   3.774   0.083   0.712
 2769SOL     OW 9205   2.008   4.081   5.756
 2769SOL    HW1 9206   2.025   4.136   5.838
 2769SOL    HW2 9207   2.059   4.119   5.679
 2770SOL     OW 9208   3.491   6.580   5.994
 2770SOL    HW1 9209   3.514   6.526   6.075
 2770SOL    HW2 9210   3.530   6.536   5.913
 2771SOL     OW 9211   5.417   6.477   3.931
 2771SOL    HW1 9212   5.366   6.557   3.899
 2771SOL    HW2 9213   5.360   6.395   3.921
 2772SOL     OW 9214   3.779   0.744   2.637
 2772SOL    HW1 9215   3.874   0.737   2.608
 2772SOL    HW2 9216   3.762   0.837   2.670
 2773SOL     OW 9217   0.005   3.180   4.465
 2773SOL    HW1 9218   6.960   3.251   4.469
 2773SOL    HW2 9219   6.992   3.096   4.427
 2774SOL     OW 9220   5.403   2.311   3.164
 2774SOL    HW1 9221   5.338   2.334   3.237
 2774SOL    HW2 9222   5.404   2.384   3.096
 2775SOL     OW 9223   0.336   3.558   4.127
 2775SOL    HW1 9224   0.342   3.597   4.036
 2775SOL    HW2 9225   0.283   3.473   4.124
 2776SOL     OW 9226   5.208   5.626   0.335
 2776SOL    HW1 9227   5.255   5.678   0.264
 2776SOL    HW2 9228   5.127   5.677   0.365
 2777SOL     OW 9229   2.653   2.132   5.784
 2777SOL    HW1 9230   2.589   2.138   5.860
 2777SOL    HW2 9231   2.700   2.044   5.787
 2778SOL     OW 9232   2.936   5.665   6.552
 2778SOL    HW1 9233   3.024   5.659   6.506
 2778SOL    HW2 9234   2.871   5.716   6.494
 2779SOL     OW 9235   5.720   6.409   1.497
 2779SOL    HW1 9236   5.803   6.426   1.549
 2779SOL    HW2 9237   5.643   6.400   1.560
 2780SOL     OW 9238   0.325   0.894   6.110
 2780SOL    HW1 9239   0.308   0.984   6.151
 2780SOL    HW2 9240   0.244   0.837   6.120
 2781SOL     OW 9241   6.814   0.850   2.471
 2781SOL    HW1 9242   6.883   0.782   2.447
 2781SOL    HW2 9243   6.723   0.815   2.447
 2782SOL     OW 9244   4.437   0.929   5.642
 2782SOL    HW1 9245   4.346   0.889   5.651
 2782SOL    HW2 9246   4.502   0.876   5.696
 2783SOL     OW 9247   6.435   3.468   1.451
 2783SOL    HW1 9248   6.397   3.421   1.530
 2783SOL    HW2 9249   6.381   3.550   1.432
 2784SOL     OW 9250   3.007   1.452   2.179
 2784SOL    HW1 9251   3.106   1.457   2.191
 2784SOL    HW2 9252   2.980   1.507   2.100
 2785SOL     OW 9253   4.789   2.595   1.278
 2785SOL    HW1 9254   4.886   2.585   1.255
 2785SOL    HW2 9255   4.781   2.613   1.376
 2786SOL     OW 9256   6.669   5.495   0.944
 2786SOL    HW1 9257   6.741   5.502   0.875
 2786SOL    HW2 9258   6.584   5.532   0.908
 2787SOL     OW 9259   6.236   5.689   6.145
 2787SOL    HW1 9260   6.304   5.754   6.110
 2787SOL    HW2 9261   6.267   5.596   6.127
 2788SOL     OW 9262   3.233   6.607   5.810
 2788SOL    HW1 9263   3.172   6.584   5.885
 2788SOL    HW2 9264   3.328   6.592   5.838
 2789SOL     OW 9265   1.295   2.853   3.596
 2789SOL    HW1 9266   1.288   2.947   3.629
 2789SOL    HW2 9267   1.319   2.793   3.672
 2790SOL     OW 9268   2.593   5.035   0.550
 2790SOL    HW1 9269   2.616   5.111   0.489
 2790SOL    HW2 9270   2.652   4.957   0.529
 2791SOL     OW 9271   0.220   4.374   2.288
 2791SOL    HW1 9272   0.171   4.392   2.373
 2791SOL    HW2 9273   0.276   4.292   2.299
 2792SOL     OW 9274   3.137   0.820   5.017
 2792SOL    HW1 9275   3.106   0.763   5.093
 2792SOL    HW2 9276   3.229   0.854   5.036
 2793SOL     OW 9277   3.930   4.089   1.276
 2793SOL    HW1 9278   3.914   3.993   1.254
 2793SOL    HW2 9279   3.931   4.100   1.376
 2794SOL     OW 9280   6.755   1.136   6.619
 2794SOL    HW1 9281   6.752   1.232   6.645
 2794SOL    HW2 9282   6.701   1.123   6.535
 2795SOL     OW 9283   0.508   4.777   0.952
 2795SOL    HW1 9284   0.503   4.677   0.961
 2795SOL    HW2 9285   0.593   4.802   0.905
 2796SOL     OW 9286   0.582   5.944   5.411
 2796SOL    HW1 9287   0.673   5.903   5.421
 2796SOL    HW2 9288   0.513   5.883   5.450
 2797SOL     OW 9289   5.759   5.958   4.829
 2797SOL    HW1 9290   5.832   5.898   4.797
 2797SOL    HW2 9291   5.779   5.986   4.923
 2798SOL     OW 9292   6.331   6.750   2.309
 2798SOL    HW1 9293   6.342   6.753   2.408
 2798SOL    HW2 9294   6.298   6.660   2.282
 2799SOL     OW 9295   4.844   5.653   5.601
 2799SOL    HW1 9296   4.824   5.723   5.670
 2799SOL    HW2 9297   4.917   5.685   5.541
 2800SOL     OW 9298   5.889   0.404   0.147
 2800SOL    HW1 9299   5.868   0.400   0.244
 2800SOL    HW2 9300   5.844   0.483   0.106
 2801SOL     OW 9301   0.464   5.212   6.306
 2801SOL    HW1 9302   0.423   5.153   6.375
 2801SOL    HW2 9303   0.486   5.158   6.225
 2802SOL     OW 9304   6.156   6.714   5.652
 2802SOL    HW1 9305   6.089   6.665   5.708
 2802SOL    HW2 9306   6.237   6.656   5.639
 2803SOL     OW 9307   3.410   3.124   6.282
 2803SOL    HW1 9308   3.338   3.136   6.351
 2803SOL    HW2 9309   3.369   3.119   6.191
 2804SOL     OW 9310   0.273   2.925   3.860
 2804SOL    HW1 9311   0.265   3.014   3.815
 2804SOL    HW2 9312   0.189   2.874   3.848
 2805SOL     OW 9313   4.789   3.408   1.840
 2805SOL    HW1 9314   4.835   3.338   1.785
 2805SOL    HW2 9315   4.812   3.394   1.936
 2806SOL     OW 9316   2.018   3.641   6.172
 2806SOL    HW1 9317   2.009   3.547   6.138
 2806SOL    HW2 9318   2.107   3.678   6.143
 2807SOL     OW 9319   3.097   0.373   2.996
 2807SOL    HW1 9320   3.015   0.329   2.959
 2807SOL    HW2 9321   3.145   0.420   2.923
 2808SOL     OW 9322   6.585   5.620   0.596
 2808SOL    HW1 9323   6.527   5.701   0.610
 2808SOL    HW2 9324   6.669   5.647   0.550
 2809SOL     OW 9325   5.335   4.649   1.901
 2809SOL    HW1 9326   5.401   4.688   1.966
 2809SOL    HW2 9327   5.346   4.693   1.812
 2810SOL     OW 9328   2.405   6.170   3.537
 2810SOL    HW1 9329   2.348   6.159   3.619
 2810SOL    HW2 9330   2.406   6.266   3.509
 2811SOL     OW 9331   0.773   0.466   2.394
 2811SOL    HW1 9332   0.726   0.535   2.340
 2811SOL    HW2 9333   0.826   0.511   2.466
 2812SOL     OW 9334   0.266   2.996   0.826
 2812SOL    HW1 9335   0.326   2.948   0.762
 2812SOL    HW2 9336   0.305   2.994   0.917
 2813SOL     OW 9337   0.761   1.857   1.168
 2813SOL    HW1 9338   0.689   1.788   1.169
 2813SOL    HW2 9339   0.821   1.844   1.247
 2814SOL     OW 9340   2.332   4.243   6.771
 2814SOL    HW1 9341   2.335   4.313   6.700
 2814SOL    HW2 9342   2.384   4.275   6.851
 2815SOL     OW 9343   0.251   5.983   5.167
 2815SOL    HW1 9344   0.211   5.958   5.255
 2815SOL    HW2 9345   0.182   6.028   5.110
 2816SOL     OW 9346   6.796   6.230   5.836
 2816SOL    HW1 9347   6.762   6.145   5.876
 2816SOL    HW2 9348   6.732   6.262   5.766
 2817SOL     OW 9349   4.008   0.352   1.836
 2817SOL    HW1 9350   3.947   0.411   1.888
 2817SOL    HW2 9351   3.956   0.304   1.765
 2818SOL     OW 9352   1.842   0.874   1.416
 2818SOL    HW1 9353   1.915   0.910   1.358
 2818SOL    HW2 9354   1.800   0.949   1.467
 2819SOL     OW 9355   0.996   0.001   0.933
 2819SOL    HW1 9356   1.025   0.091   0.900
 2819SOL    HW2 9357   0.924   0.013   1.002
 2820SOL     OW 9358   0.718   2.422   2.207
 2820SOL    HW1 9359   0.729   2.521   2.200
 2820SOL    HW2 9360   0.693   2.385   2.118
 2821SOL     OW 9361   3.585   4.935   6.596
 2821SOL    HW1 9362   3.663   4.942   6.659
 2821SOL    HW2 9363   3.596   4.855   6.538
 2822SOL     OW 9364   3.890   2.942   0.987
 2822SOL    HW1 9365   3.957   2.957   1.059
 2822SOL    HW2 9366   3.857   3.031   0.953
 2823SOL     OW 9367   4.838   0.892   0.376
 2823SOL    HW1 9368   4.752   0.879   0.425
 2823SOL    HW2 9369   4.825   0.868   0.279
 2824SOL     OW 9370   1.206   4.139   6.019
 2824SOL    HW1 9371   1.243   4.155   5.928
 2824SOL    HW2 9372   1.206   4.041   6.039
 2825SOL     OW 9373   5.109   0.751   6.595
 2825SOL    HW1 9374   5.037   0.750   6.526
 2825SOL    HW2 9375   5.175   0.824   6.574
 2826SOL     OW 9376   1.152   3.296   6.304
 2826SOL    HW1 9377   1.145   3.259   6.396
 2826SOL    HW2 9378   1.170   3.222   6.239
 2827SOL     OW 9379   6.976   1.017   6.212
 2827SOL    HW1 9380   6.908   1.087   6.234
 2827SOL    HW2 9381   0.034   1.036   6.263
 2828SOL     OW 9382   1.178   3.611   1.412
 2828SOL    HW1 9383   1.264   3.620   1.462
 2828SOL    HW2 9384   1.196   3.574   1.321
 2829SOL     OW 9385   3.106   4.030   3.389
 2829SOL    HW1 9386   3.136   4.039   3.483
 2829SOL    HW2 9387   3.033   3.961   3.384
 2830SOL     OW 9388   4.390   5.387   5.752
 2830SOL    HW1 9389   4.461   5.442   5.707
 2830SOL    HW2 9390   4.346   5.328   5.685
 2831SOL     OW 9391   6.966   2.351   2.385
 2831SOL    HW1 9392   0.035   2.376   2.364
 2831SOL    HW2 9393   6.909   2.433   2.384
 2832SOL     OW 9394   0.670   3.154   1.112
 2832SOL    HW1 9395   0.572   3.139   1.123
 2832SOL    HW2 9396   0.713   3.165   1.202
 2833SOL     OW 9397   2.327   1.061   2.055
 2833SOL    HW1 9398   2.379   0.995   2.000
 2833SOL    HW2 9399   2.377   1.148   2.058
 2834SOL     OW 9400   4.439   6.226   5.083
 2834SOL    HW1 9401   4.410   6.144   5.034
 2834SOL    HW2 9402   4.519   6.265   5.037
 2835SOL     OW 9403   1.023   6.006   0.899
 2835SOL    HW1 9404   1.108   5.995   0.950
 2835SOL    HW2 9405   1.014   6.100   0.867
 2836SOL     OW 9406   3.513   0.025   3.339
 2836SOL    HW1 9407   3.557   7.015   3.421
 2836SOL    HW2 9408   3.487   0.121   3.353
 2837SOL     OW 9409   5.806   4.388   2.262
 2837SOL    HW1 9410   5.828   4.439   2.345
 2837SOL    HW2 9411   5.752   4.446   2.201
 2838SOL     OW 9412   5.199   3.800   6.199
 2838SOL    HW1 9413   5.296   3.810   6.220
 2838SOL    HW2 9414   5.160   3.889   6.176
 2839SOL     OW 9415   6.071   2.959   4.454
 2839SOL    HW1 9416   5.973   2.968   4.468
 2839SOL    HW2 9417   6.116   3.047   4.472
 2840SOL     OW 9418   0.722   6.084   2.468
 2840SOL    HW1 9419   0.652   6.047   2.407
 2840SOL    HW2 9420   0.680   6.107   2.556
 2841SOL     OW 9421   6.187   2.446   1.229
 2841SOL    HW1 9422   6.243   2.513   1.182
 2841SOL    HW2 9423   6.225   2.354   1.214
 2842SOL     OW 9424   1.347   6.161   4.469
 2842SOL    HW1 9425   1.408   6.123   4.400
 2842SOL    HW2 9426   1.358   6.261   4.470
 2843SOL     OW 9427   2.166   3.125   2.855
 2843SOL    HW1 9428   2.167   3.225   2.853
 2843SOL    HW2 9429   2.203   3.093   2.942
 2844SOL     OW 9430   5.001   4.872   1.105
 2844SOL    HW1 9431   5.068   4.857   1.033
 2844SOL    HW2 9432   4.943   4.949   1.082
 2845SOL     OW 9433   4.771   2.943   3.517
 2845SOL    HW1 9434   4.716   2.954   3.434
 2845SOL    HW2 9435   4.824   3.026   3.533
 2846SOL     OW 9436   4.934   0.713   0.156
 2846SOL    HW1 9437   5.028   0.702   0.187
 2846SOL    HW2 9438   4.920   0.660   0.071
 2847SOL     OW 9439   4.610   4.316   2.274
 2847SOL    HW1 9440   4.637   4.234   2.324
 2847SOL    HW2 9441   4.587   4.291   2.180
 2848SOL     OW 9442   0.721   3.019   4.930
 2848SOL    HW1 9443   0.771   2.943   4.889
 2848SOL    HW2 9444   0.694   3.083   4.859
 2849SOL     OW 9445   3.555   0.617   2.901
 2849SOL    HW1 9446   3.625   0.626   2.830
 2849SOL    HW2 9447   3.599   0.613   2.991
 2850SOL     OW 9448   2.639   6.670   3.077
 2850SOL    HW1 9449   2.671   6.661   2.983
 2850SOL    HW2 9450   2.653   6.764   3.108
 2851SOL     OW 9451   4.576   3.412   0.781
 2851SOL    HW1 9452   4.600   3.498   0.735
 2851SOL    HW2 9453   4.492   3.375   0.741
 2852SOL     OW 9454   6.408   4.342   6.324
 2852SOL    HW1 9455   6.347   4.264   6.335
 2852SOL    HW2 9456   6.377   4.417   6.383
 2853SOL     OW 9457   0.166   3.758   7.020
 2853SOL    HW1 9458   0.075   3.719   7.009
 2853SOL    HW2 9459   0.178   3.789   0.089
 2854SOL     OW 9460   2.941   1.013   6.630
 2854SOL    HW1 9461   2.918   0.978   6.721
 2854SOL    HW2 9462   2.862   1.001   6.569
 2855SOL     OW 9463   1.770   1.854   4.739
 2855SOL    HW1 9464   1.676   1.854   4.773
 2855SOL    HW2 9465   1.769   1.841   4.640
 2856SOL     OW 9466   1.461   4.209   3.190
 2856SOL    HW1 9467   1.418   4.264   3.262
 2856SOL    HW2 9468   1.403   4.130   3.169
 2857SOL     OW 9469   0.172   3.188   0.390
 2857SOL    HW1 9470   0.176   3.188   0.490
 2857SOL    HW2 9471   0.083   3.154   0.360
 2858SOL     OW 9472   4.915   5.678   2.920
 2858SOL    HW1 9473   4.909   5.676   3.020
 2858SOL    HW2 9474   4.902   5.586   2.885
 2859SOL     OW 9475   5.105   6.032   1.150
 2859SOL    HW1 9476   5.110   6.026   1.051
 2859SOL    HW2 9477   5.138   6.121   1.180
 2860SOL     OW 9478   1.438   6.048   1.591
 2860SOL    HW1 9479   1.383   5.967   1.614
 2860SOL    HW2 9480   1.397   6.094   1.512
 2861SOL     OW 9481   3.728   5.081   6.317
 2861SOL    HW1 9482   3.790   5.115   6.246
 2861SOL    HW2 9483   3.723   4.981   6.312
 2862SOL     OW 9484   4.264   3.314   1.319
 2862SOL    HW1 9485   4.191   3.351   1.377
 2862SOL    HW2 9486   4.308   3.237   1.366
 2863SOL     OW 9487   5.699   0.296   5.410
 2863SOL    HW1 9488   5.731   0.378   5.364
 2863SOL    HW2 9489   5.718   0.303   5.508
 2864SOL     OW 9490   3.812   3.338   1.791
 2864SOL    HW1 9491   3.725   3.311   1.832
 2864SOL    HW2 9492   3.868   3.257   1.774
 2865SOL     OW 9493   4.915   6.307   4.623
 2865SOL    HW1 9494   4.932   6.313   4.524
 2865SOL    HW2 9495   4.981   6.364   4.671
 2866SOL     OW 9496   5.286   4.491   6.409
 2866SOL    HW1 9497   5.368   4.444   6.440
 2866SOL    HW2 9498   5.293   4.588   6.428
 2867SOL     OW 9499   6.363   6.458   1.698
 2867SOL    HW1 9500   6.383   6.418   1.609
 2867SOL    HW2 9501   6.297   6.401   1.746
 2868SOL     OW 9502   1.588   1.393   5.701
 2868SOL    HW1 9503   1.652   1.327   5.662
 2868SOL    HW2 9504   1.593   1.479   5.650
 2869SOL     OW 9505   5.198   6.398   4.271
 2869SOL    HW1 9506   5.296   6.404   4.253
 2869SOL    HW2 9507   5.158   6.321   4.221
 2870SOL     OW 9508   1.377   1.790   1.148
 2870SOL    HW1 9509   1.353   1.705   1.101
 2870SOL    HW2 9510   1.330   1.793   1.236
 2871SOL     OW 9511   6.378   1.580   1.731
 2871SOL    HW1 9512   6.324   1.641   1.674
 2871SOL    HW2 9513   6.318   1.513   1.774
 2872SOL     OW 9514   2.277   2.037   2.353
 2872SOL    HW1 9515   2.359   2.093   2.353
 2872SOL    HW2 9516   2.294   1.953   2.405
 2873SOL     OW 9517   1.025   5.964   1.401
 2873SOL    HW1 9518   0.949   5.992   1.459
 2873SOL    HW2 9519   1.032   6.027   1.323
 2874SOL     OW 9520   2.849   0.270   2.901
 2874SOL    HW1 9521   2.810   0.333   2.833
 2874SOL    HW2 9522   2.834   0.176   2.872
 2875SOL     OW 9523   2.894   0.032   2.776
 2875SOL    HW1 9524   2.855   6.981   2.725
 2875SOL    HW2 9525   2.935   7.024   2.861
 2876SOL     OW 9526   1.814   6.140   1.905
 2876SOL    HW1 9527   1.738   6.124   1.842
 2876SOL    HW2 9528   1.820   6.237   1.927
 2877SOL     OW 9529   1.880   1.655   5.607
 2877SOL    HW1 9530   1.931   1.569   5.601
 2877SOL    HW2 9531   1.943   1.731   5.621
 2878SOL     OW 9532   3.572   2.827   5.046
 2878SOL    HW1 9533   3.524   2.763   4.986
 2878SOL    HW2 9534   3.550   2.806   5.141
 2879SOL     OW 9535   4.583   4.366   5.932
 2879SOL    HW1 9536   4.590   4.466   5.930
 2879SOL    HW2 9537   4.671   4.326   5.908
 2880SOL     OW 9538   0.946   1.852   4.316
 2880SOL    HW1 9539   0.980   1.929   4.370
 2880SOL    HW2 9540   0.846   1.858   4.309
 2881SOL     OW 9541   3.305   6.044   6.840
 2881SOL    HW1 9542   3.287   5.964   6.898
 2881SOL    HW2 9543   3.288   6.020   6.744
 2882SOL     OW 9544   4.699   6.117   0.557
 2882SOL    HW1 9545   4.709   6.122   0.458
 2882SOL    HW2 9546   4.645   6.195   0.589
 2883SOL     OW 9547   5.858   6.327   3.377
 2883SOL    HW1 9548   5.918   6.405   3.398
 2883SOL    HW2 9549   5.818   6.339   3.287
 2884SOL     OW 9550   6.662   5.432   2.654
 2884SOL    HW1 9551   6.703   5.358   2.601
 2884SOL    HW2 9552   6.704   5.519   2.628
 2885SOL     OW 9553   1.543   3.568   3.106
 2885SOL    HW1 9554   1.617   3.569   3.174
 2885SOL    HW2 9555   1.574   3.612   3.022
 2886SOL     OW 9556   2.481   4.610   6.343
 2886SOL    HW1 9557   2.516   4.681   6.404
 2886SOL    HW2 9558   2.515   4.627   6.250
 2887SOL     OW 9559   0.410   6.347   4.586
 2887SOL    HW1 9560   0.440   6.442   4.595
 2887SOL    HW2 9561   0.382   6.330   4.491
 2888SOL     OW 9562   6.847   6.412   0.284
 2888SOL    HW1 9563   6.775   6.398   0.216
 2888SOL    HW2 9564   6.913   6.479   0.250
 2889SOL     OW 9565   2.950   6.973   3.041
 2889SOL    HW1 9566   2.928   6.932   3.129
 2889SOL    HW2 9567   3.030   0.005   3.050
 2890SOL     OW 9568   1.868   6.069   1.244
 2890SOL    HW1 9569   1.772   6.086   1.268
 2890SOL    HW2 9570   1.907   6.151   1.203
 2891SOL     OW 9571   0.007   3.498   2.557
 2891SOL    HW1 9572   0.055   3.559   2.494
 2891SOL    HW2 9573   0.074   3.448   2.612
 2892SOL     OW 9574   6.261   3.874   0.818
 2892SOL    HW1 9575   6.319   3.809   0.867
 2892SOL    HW2 9576   6.279   3.967   0.851
 2893SOL     OW 9577   0.451   5.948   4.729
 2893SOL    HW1 9578   0.540   5.907   4.708
 2893SOL    HW2 9579   0.398   5.958   4.645
 2894SOL     OW 9580   1.137   4.502   2.131
 2894SOL    HW1 9581   1.211   4.440   2.105
 2894SOL    HW2 9582   1.086   4.530   2.050
 2895SOL     OW 9583   3.578   0.098   6.298
 2895SOL    HW1 9584   3.588   0.125   6.393
 2895SOL    HW2 9585   3.571   0.179   6.240
 2896SOL     OW 9586   6.045   6.624   5.346
 2896SOL    HW1 9587   6.140   6.649   5.363
 2896SOL    HW2 9588   5.998   6.702   5.303
 2897SOL     OW 9589   3.159   5.187   2.898
 2897SOL    HW1 9590   3.122   5.142   2.816
 2897SOL    HW2 9591   3.085   5.231   2.948
 2898SOL     OW 9592   6.098   4.218   2.507
 2898SOL    HW1 9593   6.180   4.258   2.549
 2898SOL    HW2 9594   6.125   4.144   2.446
 2899SOL     OW 9595   6.785   2.163   1.059
 2899SOL    HW1 9596   6.828   2.230   0.998
 2899SOL    HW2 9597   6.823   2.173   1.151
 2900SOL     OW 9598   3.228   3.665   6.915
 2900SOL    HW1 9599   3.168   3.730   6.962
 2900SOL    HW2 9600   3.323   3.684   6.939
 2901SOL     OW 9601   1.751   4.497   3.335
 2901SOL    HW1 9602   1.749   4.427   3.407
 2901SOL    HW2 9603   1.729   4.455   3.247
 2902SOL     OW 9604   0.675   5.611   3.927
 2902SOL    HW1 9605   0.755   5.627   3.984
 2902SOL    HW2 9606   0.604   5.677   3.950
 2903SOL     OW 9607   4.516   5.895   0.499
 2903SOL    HW1 9608   4.462   5.888   0.583
 2903SOL    HW2 9609   4.607   5.856   0.514
 2904SOL     OW 9610   2.593   4.667   5.009
 2904SOL    HW1 9611   2.689   4.639   5.017
 2904SOL    HW2 9612   2.536   4.610   5.068
 2905SOL     OW 9613   1.214   4.662   2.354
 2905SOL    HW1 9614   1.141   4.716   2.397
 2905SOL    HW2 9615   1.174   4.589   2.299
 2906SOL     OW 9616   5.464   6.299   2.768
 2906SOL    HW1 9617   5.451   6.200   2.764
 2906SOL    HW2 9618   5.397   6.338   2.831
 2907SOL     OW 9619   0.846   0.585   3.560
 2907SOL    HW1 9620   0.822   0.543   3.472
 2907SOL    HW2 9621   0.784   0.552   3.631
 2908SOL     OW 9622   4.996   0.002   3.381
 2908SOL    HW1 9623   5.009   0.098   3.406
 2908SOL    HW2 9624   5.031   7.012   3.288
 2909SOL     OW 9625   1.361   5.616   2.344
 2909SOL    HW1 9626   1.294   5.556   2.301
 2909SOL    HW2 9627   1.313   5.690   2.392
 2910SOL     OW 9628   6.857   1.245   3.843
 2910SOL    HW1 9629   6.860   1.158   3.794
 2910SOL    HW2 9630   6.802   1.235   3.926
 2911SOL     OW 9631   6.569   4.661   3.781
 2911SOL    HW1 9632   6.663   4.642   3.753
 2911SOL    HW2 9633   6.528   4.577   3.818
 2912SOL     OW 9634   6.957   6.445   0.720
 2912SOL    HW1 9635   0.001   6.497   0.672
 2912SOL    HW2 9636   6.879   6.430   0.660
 2913SOL     OW 9637   1.489   4.569   1.513
 2913SOL    HW1 9638   1.449   4.477   1.518
 2913SOL    HW2 9639   1.484   4.612   1.603
 2914SOL     OW 9640   5.389   4.315   0.332
 2914SOL    HW1 9641   5.422   4.238   0.278
 2914SOL    HW2 9642   5.467   4.361   0.375
 2915SOL     OW 9643   3.370   2.122   2.846
 2915SOL    HW1 9644   3.366   2.085   2.753
 2915SOL    HW2 9645   3.450   2.083   2.893
 2916SOL     OW 9646   2.339   5.310   0.926
 2916SOL    HW1 9647   2.346   5.407   0.906
 2916SOL    HW2 9648   2.259   5.294   0.984
 2917SOL     OW 9649   2.609   0.241   3.636
 2917SOL    HW1 9650   2.561   0.211   3.554
 2917SOL    HW2 9651   2.602   0.340   3.645
 2918SOL     OW 9652   6.184   4.288   1.264
 2918SOL    HW1 9653   6.097   4.244   1.288
 2918SOL    HW2 9654   6.256   4.253   1.323
 2919SOL     OW 9655   0.653   5.916   4.295
 2919SOL    HW1 9656   0.653   5.928   4.395
 2919SOL    HW2 9657   0.568   5.870   4.267
 2920SOL     OW 9658   2.043   0.487   1.980
 2920SOL    HW1 9659   2.025   0.585   1.985
 2920SOL    HW2 9660   2.012   0.443   2.064
 2921SOL     OW 9661   6.866   0.078   5.686
 2921SOL    HW1 9662   6.890   0.048   5.779
 2921SOL    HW2 9663   6.917   0.160   5.663
 2922SOL     OW 9664   4.538   0.671   3.279
 2922SOL    HW1 9665   4.566   0.585   3.322
 2922SOL    HW2 9666   4.450   0.658   3.232
 2923SOL     OW 9667   6.437   4.659   5.024
 2923SOL    HW1 9668   6.396   4.715   4.953
 2923SOL    HW2 9669   6.515   4.707   5.065
 2924SOL     OW 9670   6.609   2.172   5.286
 2924SOL    HW1 9671   6.538   2.102   5.299
 2924SOL    HW2 9672   6.586   2.252   5.341
 2925SOL     OW 9673   5.467   0.930   6.035
 2925SOL    HW1 9674   5.458   1.017   5.987
 2925SOL    HW2 9675   5.503   0.947   6.127
 2926SOL     OW 9676   0.471   2.027   5.087
 2926SOL    HW1 9677   0.550   1.967   5.076
 2926SOL    HW2 9678   0.387   1.972   5.087
 2927SOL     OW 9679   1.912   2.887   1.540
 2927SOL    HW1 9680   1.855   2.843   1.609
 2927SOL    HW2 9681   2.005   2.851   1.546
 2928SOL     OW 9682   6.356   1.888   0.234
 2928SOL    HW1 9683   6.369   1.975   0.280
 2928SOL    HW2 9684   6.279   1.895   0.170
 2929SOL     OW 9685   1.483   2.489   4.782
 2929SOL    HW1 9686   1.495   2.398   4.822
 2929SOL    HW2 9687   1.544   2.498   4.703
 2930SOL     OW 9688   6.374   5.830   4.756
 2930SOL    HW1 9689   6.412   5.764   4.821
 2930SOL    HW2 9690   6.308   5.784   4.697
 2931SOL     OW 9691   4.272   4.472   6.577
 2931SOL    HW1 9692   4.324   4.425   6.648
 2931SOL    HW2 9693   4.200   4.412   6.543
 2932SOL     OW 9694   0.083   6.369   1.188
 2932SOL    HW1 9695   0.109   6.281   1.150
 2932SOL    HW2 9696   0.058   6.432   1.114
 2933SOL     OW 9697   0.936   0.097   1.462
 2933SOL    HW1 9698   0.873   0.162   1.504
 2933SOL    HW2 9699   1.030   0.126   1.480
 2934SOL     OW 9700   4.143   3.271   0.954
 2934SOL    HW1 9701   4.239   3.251   0.936
 2934SOL    HW2 9702   4.115   3.228   1.040
 2935SOL     OW 9703   0.606   2.235   6.458
 2935SOL    HW1 9704   0.579   2.302   6.389
 2935SOL    HW2 9705   0.705   2.219   6.453
 2936SOL     OW 9706   4.559   0.290   0.460
 2936SOL    HW1 9707   4.490   0.347   0.504
 2936SOL    HW2 9708   4.573   0.322   0.366
 2937SOL     OW 9709   4.321   5.570   1.783
 2937SOL    HW1 9710   4.371   5.655   1.801
 2937SOL    HW2 9711   4.225   5.580   1.809
 2938SOL     OW 9712   6.310   6.170   6.578
 2938SOL    HW1 9713   6.247   6.098   6.551
 2938SOL    HW2 9714   6.378   6.184   6.506
 2939SOL     OW 9715   0.434   5.531   1.969
 2939SOL    HW1 9716   0.423   5.499   1.875
 2939SOL    HW2 9717   0.388   5.618   1.980
 2940SOL     OW 9718   5.804   6.127   4.242
 2940SOL    HW1 9719   5.766   6.050   4.192
 2940SOL    HW2 9720   5.787   6.115   4.340
 2941SOL     OW 9721   1.897   3.293   3.492
 2941SOL    HW1 9722   1.981   3.251   3.458
 2941SOL    HW2 9723   1.821   3.266   3.432
 2942SOL     OW 9724   2.478   1.262   6.792
 2942SOL    HW1 9725   2.383   1.246   6.818
 2942SOL    HW2 9726   2.508   1.351   6.826
 2943SOL     OW 9727   6.015   4.441   3.305
 2943SOL    HW1 9728   6.101   4.483   3.332
 2943SOL    HW2 9729   5.948   4.451   3.379
 2944SOL     OW 9730   2.684   6.380   4.162
 2944SOL    HW1 9731   2.683   6.283   4.184
 2944SOL    HW2 9732   2.594   6.408   4.128
 2945SOL     OW 9733   5.090   4.581   1.490
 2945SOL    HW1 9734   5.106   4.554   1.585
 2945SOL    HW2 9735   5.035   4.511   1.444
 2946SOL     OW 9736   3.015   3.974   6.029
 2946SOL    HW1 9737   3.049   3.885   6.060
 2946SOL    HW2 9738   3.086   4.020   5.976
 2947SOL     OW 9739   6.161   6.199   0.802
 2947SOL    HW1 9740   6.064   6.216   0.822
 2947SOL    HW2 9741   6.191   6.260   0.729
 2948SOL     OW 9742   6.001   4.766   3.114
 2948SOL    HW1 9743   6.012   4.806   3.205
 2948SOL    HW2 9744   5.911   4.722   3.108
 2949SOL     OW 9745   0.924   6.456   0.739
 2949SOL    HW1 9746   0.955   6.551   0.734
 2949SOL    HW2 9747   0.840   6.451   0.793
 2950SOL     OW 9748   4.630   4.805   2.743
 2950SOL    HW1 9749   4.550   4.850   2.704
 2950SOL    HW2 9750   4.684   4.763   2.670
 2951SOL     OW 9751   5.720   0.619   1.600
 2951SOL    HW1 9752   5.637   0.563   1.607
 2951SOL    HW2 9753   5.739   0.640   1.504
 2952SOL     OW 9754   5.978   0.914   3.988
 2952SOL    HW1 9755   6.001   1.006   3.956
 2952SOL    HW2 9756   6.060   0.870   4.025
 2953SOL     OW 9757   0.387   6.158   2.961
 2953SOL    HW1 9758   0.387   6.092   2.886
 2953SOL    HW2 9759   0.479   6.167   2.998
 2954SOL     OW 9760   1.248   4.521   6.429
 2954SOL    HW1 9761   1.319   4.524   6.500
 2954SOL    HW2 9762   1.168   4.573   6.460
 2955SOL     OW 9763   1.287   4.042   0.115
 2955SOL    HW1 9764   1.188   4.055   0.115
 2955SOL    HW2 9765   1.309   3.953   0.154
 2956SOL     OW 9766   6.447   4.466   3.947
 2956SOL    HW1 9767   6.383   4.392   3.926
 2956SOL    HW2 9768   6.404   4.528   4.012
 2957SOL     OW 9769   3.034   4.827   1.584
 2957SOL    HW1 9770   3.127   4.824   1.550
 2957SOL    HW2 9771   3.032   4.796   1.679
 2958SOL     OW 9772   1.886   4.707   3.037
 2958SOL    HW1 9773   1.873   4.731   3.133
 2958SOL    HW2 9774   1.943   4.625   3.031
 2959SOL     OW 9775   5.537   2.672   2.752
 2959SOL    HW1 9776   5.603   2.744   2.733
 2959SOL    HW2 9777   5.482   2.655   2.669
 2960SOL     OW 9778   3.872   0.769   0.436
 2960SOL    HW1 9779   3.866   0.865   0.462
 2960SOL    HW2 9780   3.963   0.751   0.397
 2961SOL     OW 9781   5.990   4.641   2.787
 2961SOL    HW1 9782   6.051   4.662   2.863
 2961SOL    HW2 9783   5.911   4.702   2.790
 2962SOL     OW 9784   6.118   6.568   2.233
 2962SOL    HW1 9785   6.077   6.559   2.142
 2962SOL    HW2 9786   6.068   6.635   2.287
 2963SOL     OW 9787   0.612   0.611   5.558
 2963SOL    HW1 9788   0.595   0.709   5.568
 2963SOL    HW2 9789   0.617   0.588   5.461
 2964SOL     OW 9790   0.411   2.636   6.850
 2964SOL    HW1 9791   0.474   2.592   6.785
 2964SOL    HW2 9792   0.460   2.707   6.900
 2965SOL     OW 9793   0.832   0.499   4.667
 2965SOL    HW1 9794   0.835   0.501   4.567
 2965SOL    HW2 9795   0.759   0.560   4.699
 2966SOL     OW 9796   4.516   5.363   3.578
 2966SOL    HW1 9797   4.459   5.336   3.501
 2966SOL    HW2 9798   4.612   5.362   3.550
 2967SOL     OW 9799   6.543   0.702   5.409
 2967SOL    HW1 9800   6.534   0.796   5.374
 2967SOL    HW2 9801   6.613   0.654   5.357
 2968SOL     OW 9802   2.205   2.547   1.219
 2968SOL    HW1 9803   2.302   2.559   1.241
 2968SOL    HW2 9804   2.168   2.634   1.185
 2969SOL     OW 9805   5.348   3.833   4.117
 2969SOL    HW1 9806   5.379   3.756   4.061
 2969SOL    HW2 9807   5.405   3.840   4.199
 2970SOL     OW 9808   2.592   2.853   5.372
 2970SOL    HW1 9809   2.692   2.860   5.378
 2970SOL    HW2 9810   2.557   2.924   5.310
 2971SOL     OW 9811   5.394   4.015   0.374
 2971SOL    HW1 9812   5.316   4.014   0.437
 2971SOL    HW2 9813   5.477   3.990   0.424
 2972SOL     OW 9814   6.173   5.127   6.494
 2972SOL    HW1 9815   6.140   5.055   6.433
 2972SOL    HW2 9816   6.271   5.140   6.480
 2973SOL     OW 9817   5.210   6.597   2.013
 2973SOL    HW1 9818   5.201   6.511   2.064
 2973SOL    HW2 9819   5.170   6.672   2.067
 2974SOL     OW 9820   6.089   4.838   3.407
 2974SOL    HW1 9821   5.999   4.796   3.424
 2974SOL    HW2 9822   6.091   4.929   3.447
 2975SOL     OW 9823   4.782   4.683   4.117
 2975SOL    HW1 9824   4.771   4.596   4.165
 2975SOL    HW2 9825   4.780   4.758   4.183
 2976SOL     OW 9826   4.794   2.073   2.811
 2976SOL    HW1 9827   4.778   2.060   2.909
 2976SOL    HW2 9828   4.814   2.169   2.793
 2977SOL     OW 9829   0.586   0.290   1.868
 2977SOL    HW1 9830   0.661   0.239   1.912
 2977SOL    HW2 9831   0.601   0.388   1.880
 2978SOL     OW 9832   4.771   4.270   6.233
 2978SOL    HW1 9833   4.843   4.244   6.169
 2978SOL    HW2 9834   4.767   4.370   6.240
 2979SOL     OW 9835   3.234   1.448   4.802
 2979SOL    HW1 9836   3.242   1.422   4.899
 2979SOL    HW2 9837   3.197   1.541   4.796
 2980SOL     OW 9838   4.098   4.192   6.246
 2980SOL    HW1 9839   4.045   4.108   6.236
 2980SOL    HW2 9840   4.087   4.249   6.164
 2981SOL     OW 9841   1.912   1.231   0.768
 2981SOL    HW1 9842   2.009   1.206   0.778
 2981SOL    HW2 9843   1.888   1.301   0.835
 2982SOL     OW 9844   1.500   6.607   2.686
 2982SOL    HW1 9845   1.498   6.527   2.626
 2982SOL    HW2 9846   1.514   6.690   2.631
 2983SOL     OW 9847   6.576   3.007   6.873
 2983SOL    HW1 9848   6.600   3.008   6.776
 2983SOL    HW2 9849   6.484   3.044   6.885
 2984SOL     OW 9850   6.329   5.157   0.046
 2984SOL    HW1 9851   6.334   5.152   0.145
 2984SOL    HW2 9852   6.245   5.205   0.019
 2985SOL     OW 9853   0.644   6.909   4.424
 2985SOL    HW1 9854   0.699   6.840   4.471
 2985SOL    HW2 9855   0.554   6.871   4.403
 2986SOL     OW 9856   3.288   4.075   2.724
 2986SOL    HW1 9857   3.188   4.066   2.723
 2986SOL    HW2 9858   3.319   4.087   2.818
 2987SOL     OW 9859   0.669   2.091   4.360
 2987SOL    HW1 9860   0.633   2.183   4.345
 2987SOL    HW2 9861   0.661   2.068   4.457
 2988SOL     OW 9862   1.091   0.989   1.108
 2988SOL    HW1 9863   1.112   1.001   1.012
 2988SOL    HW2 9864   1.016   1.050   1.134
 2989SOL     OW 9865   5.217   3.475   4.742
 2989SOL    HW1 9866   5.136   3.502   4.794
 2989SOL    HW2 9867   5.189   3.411   4.669
 2990SOL     OW 9868   5.251   2.072   4.389
 2990SOL    HW1 9869   5.326   2.106   4.332
 2990SOL    HW2 9870   5.249   1.972   4.384
 2991SOL     OW 9871   5.768   3.337   0.954
 2991SOL    HW1 9872   5.861   3.303   0.943
 2991SOL    HW2 9873   5.768   3.420   1.009
 2992SOL     OW 9874   0.648   4.023   4.729
 2992SOL    HW1 9875   0.693   4.091   4.788
 2992SOL    HW2 9876   0.717   3.967   4.684
 2993SOL     OW 9877   1.079   4.766   6.903
 2993SOL    HW1 9878   1.100   4.852   6.856
 2993SOL    HW2 9879   1.160   4.733   6.951
 2994SOL     OW 9880   4.426   5.684   6.845
 2994SOL    HW1 9881   4.440   5.732   6.758
 2994SOL    HW2 9882   4.360   5.734   6.900
 2995SOL     OW 9883   4.351   0.391   0.646
 2995SOL    HW1 9884   4.276   0.457   0.650
 2995SOL    HW2 9885   4.327   0.310   0.700
 2996SOL     OW 9886   1.456   2.095   4.969
 2996SOL    HW1 9887   1.444   2.167   5.037
 2996SOL    HW2 9888   1.514   2.129   4.895
 2997SOL     OW 9889   4.846   0.493   3.526
 2997SOL    HW1 9890   4.841   0.592   3.531
 2997SOL    HW2 9891   4.897   0.458   3.605
 2998SOL     OW 9892   2.483   0.502   3.435
 2998SOL    HW1 9893   2.494   0.492   3.533
 2998SOL    HW2 9894   2.569   0.482   3.389
 2999SOL     OW 9895   3.160   4.518   6.899
 2999SOL    HW1 9896   3.196   4.527   6.992
 2999SOL    HW2 9897   3.186   4.429   6.862
 3000SOL     OW 9898   3.178   3.317   5.478
 3000SOL    HW1 9899   3.098   3.376   5.466
 3000SOL    HW2 9900   3.246   3.340   5.408
 3001SOL     OW 9901   5.909   1.199   6.306
 3001SOL    HW1 9902   5.867   1.109   6.306
 3001SOL    HW2 9903   5.975   1.206   6.382
 3002SOL     OW 9904   2.857   1.241   1.212
 3002SOL    HW1 9905   2.814   1.154   1.186
 3002SOL    HW2 9906   2.955   1.235   1.195
 3003SOL     OW 9907   0.879   5.971   0.490
 3003SOL    HW1 9908   0.966   5.988   0.536
 3003SOL    HW2 9909   0.889   5.892   0.429
 3004SOL     OW 9910   2.803   4.745   4.126
 3004SOL    HW1 9911   2.761   4.715   4.040
 3004SOL    HW2 9912   2.895   4.780   4.108
 3005SOL     OW 9913   1.066   3.057   5.373
 3005SOL    HW1 9914   1.012   2.979   5.403
 3005SOL    HW2 9915   1.131   3.082   5.444
 3006SOL     OW 9916   5.747   1.823   5.515
 3006SOL    HW1 9917   5.790   1.908   5.548
 3006SOL    HW2 9918   5.683   1.789   5.584
 3007SOL     OW 9919   5.178   5.475   6.972
 3007SOL    HW1 9920   5.157   5.400   0.008
 3007SOL    HW2 9921   5.178   5.562   7.022
 3008SOL     OW 9922   4.269   1.759   6.049
 3008SOL    HW1 9923   4.186   1.751   5.995
 3008SOL    HW2 9924   4.289   1.855   6.067
 3009SOL     OW 9925   7.007   2.862   3.309
 3009SOL    HW1 9926   0.033   2.791   3.261
 3009SOL    HW2 9927   6.916   2.826   3.331
 3010SOL     OW 9928   4.369   5.357   6.049
 3010SOL    HW1 9929   4.418   5.281   6.005
 3010SOL    HW2 9930   4.424   5.441   6.041
 3011SOL     OW 9931   6.384   0.010   1.485
 3011SOL    HW1 9932   6.367   0.045   1.578
 3011SOL    HW2 9933   6.370   6.937   1.484
 3012SOL     OW 9934   2.917   3.406   6.679
 3012SOL    HW1 9935   2.870   3.485   6.718
 3012SOL    HW2 9936   2.860   3.324   6.687
 3013SOL     OW 9937   0.165   6.171   3.724
 3013SOL    HW1 9938   0.157   6.123   3.637
 3013SOL    HW2 9939   0.074   6.200   3.755
 3014SOL     OW 9940   5.186   0.766   5.742
 3014SOL    HW1 9941   5.196   0.683   5.686
 3014SOL    HW2 9942   5.218   0.747   5.835
 3015SOL     OW 9943   1.668   0.883   0.084
 3015SOL    HW1 9944   1.691   0.961   0.142
 3015SOL    HW2 9945   1.583   0.841   0.116
 3016SOL     OW 9946   3.114   6.828   4.110
 3016SOL    HW1 9947   3.111   6.924   4.137
 3016SOL    HW2 9948   3.038   6.809   4.047
 3017SOL     OW 9949   6.586   5.737   1.579
 3017SOL    HW1 9950   6.579   5.742   1.679
 3017SOL    HW2 9951   6.546   5.651   1.548
 3018SOL     OW 9952   3.495   6.644   0.541
 3018SOL    HW1 9953   3.410   6.680   0.581
 3018SOL    HW2 9954   3.483   6.633   0.443
 3019SOL     OW 9955   1.312   6.560   6.671
 3019SOL    HW1 9956   1.384   6.579   6.604
 3019SOL    HW2 9957   1.226   6.600   6.639
 3020SOL     OW 9958   5.408   3.261   6.743
 3020SOL    HW1 9959   5.459   3.176   6.752
 3020SOL    HW2 9960   5.315   3.248   6.776
 3021SOL     OW 9961   3.460   6.419   4.535
 3021SOL    HW1 9962   3.454   6.363   4.618
 3021SOL    HW2 9963   3.409   6.375   4.462
 3022SOL     OW 9964   3.908   5.786   3.413
 3022SOL    HW1 9965   3.910   5.691   3.445
 3022SOL    HW2 9966   3.864   5.789   3.323
 3023SOL     OW 9967   4.176   6.521   2.759
 3023SOL    HW1 9968   4.253   6.560   2.810
 3023SOL    HW2 9969   4.157   6.429   2.795
 3024SOL     OW 9970   0.085   6.222   5.817
 3024SOL    HW1 9971   7.012   6.211   5.807
 3024SOL    HW2 9972   0.108   6.232   5.914
 3025SOL     OW 9973   4.001   5.917   0.563
 3025SOL    HW1 9974   3.966   5.824   0.574
 3025SOL    HW2 9975   4.083   5.929   0.620
 3026SOL     OW 9976   5.644   0.866   1.014
 3026SOL    HW1 9977   5.615   0.939   1.076
 3026SOL    HW2 9978   5.649   0.902   0.921
 3027SOL     OW 9979   4.790   1.692   1.895
 3027SOL    HW1 9980   4.805   1.599   1.860
 3027SOL    HW2 9981   4.696   1.719   1.877
 3028SOL     OW 9982   2.260   3.759   6.524
 3028SOL    HW1 9983   2.234   3.786   6.617
 3028SOL    HW2 9984   2.180   3.759   6.465
 3029SOL     OW 9985   0.909   2.589   4.215
 3029SOL    HW1 9986   0.871   2.525   4.281
 3029SOL    HW2 9987   1.000   2.559   4.187
 3030SOL     OW 9988   1.627   4.285   1.478
 3030SOL    HW1 9989   1.724   4.309   1.479
 3030SOL    HW2 9990   1.586   4.315   1.392
 3031SOL     OW 9991   1.296   5.460   1.282
 3031SOL    HW1 9992   1.304   5.361   1.286
 3031SOL    HW2 9993   1.320   5.499   1.371
 3032SOL     OW 9994   1.580   6.924   3.245
 3032SOL    HW1 9995   1.576   6.962   3.338
 3032SOL    HW2 9996   1.574   6.998   3.178
 3033SOL     OW 9997   6.515   2.962   4.008
 3033SOL    HW1 9998   6.531   2.898   3.932
 3033SOL    HW2 9999   6.436   2.932   4.061
 3034SOL     OW10000   0.623   5.898   3.704
 3034SOL    HW110001   0.590   5.937   3.790
 3034SOL    HW210002   0.600   5.801   3.700
 3035SOL     OW10003   1.487   2.679   6.187
 3035SOL    HW110004   1.573   2.637   6.217
 3035SOL    HW210005   1.413   2.613   6.198
 3036SOL     OW10006   1.595   2.058   6.409
 3036SOL    HW110007   1.523   1.991   6.428
 3036SOL    HW210008   1.580   2.140   6.465
 3037SOL     OW10009   0.651   4.964   5.915
 3037SOL    HW110010   0.564   4.967   5.964
 3037SOL    HW210011   0.638   4.925   5.824
 3038SOL     OW10012   5.239   5.359   6.227
 3038SOL    HW110013   5.276   5.449   6.252
 3038SOL    HW210014   5.256   5.294   6.301
 3039SOL     OW10015   6.190   3.182   0.461
 3039SOL    HW110016   6.172   3.256   0.526
 3039SOL    HW210017   6.288   3.160   0.461
 3040SOL     OW10018   3.661   3.985   5.771
 3040SOL    HW110019   3.602   4.002   5.692
 3040SOL    HW210020   3.755   4.008   5.749
 3041SOL     OW10021   1.791   4.004   4.740
 3041SOL    HW110022   1.810   3.916   4.784
 3041SOL    HW210023   1.698   4.032   4.762
 3042SOL     OW10024   0.491   4.882   3.313
 3042SOL    HW110025   0.495   4.978   3.283
 3042SOL    HW210026   0.478   4.879   3.412
 3043SOL     OW10027   2.597   3.212   0.586
 3043SOL    HW110028   2.571   3.290   0.642
 3043SOL    HW210029   2.624   3.136   0.645
 3044SOL     OW10030   3.593   3.225   4.804
 3044SOL    HW110031   3.647   3.305   4.777
 3044SOL    HW210032   3.576   3.168   4.724
 3045SOL     OW10033   5.062   1.182   3.279
 3045SOL    HW110034   5.066   1.279   3.252
 3045SOL    HW210035   4.968   1.157   3.301
 3046SOL     OW10036   5.374   5.582   0.557
 3046SOL    HW110037   5.321   5.599   0.474
 3046SOL    HW210038   5.403   5.486   0.560
 3047SOL     OW10039   6.258   0.239   0.158
 3047SOL    HW110040   6.200   0.216   0.236
 3047SOL    HW210041   6.354   0.230   0.184
 3048SOL     OW10042   4.534   3.143   1.156
 3048SOL    HW110043   4.631   3.133   1.132
 3048SOL    HW210044   4.511   3.079   1.230
 3049SOL     OW10045   1.036   0.756   4.198
 3049SOL    HW110046   0.979   0.713   4.127
 3049SOL    HW210047   1.078   0.685   4.254
 3050SOL     OW10048   2.864   2.492   1.538
 3050SOL    HW110049   2.947   2.438   1.552
 3050SOL    HW210050   2.787   2.448   1.584
 3051SOL     OW10051   3.240   6.805   5.280
 3051SOL    HW110052   3.303   6.842   5.212
 3051SOL    HW210053   3.227   6.707   5.263
 3052SOL     OW10054   5.927   6.180   2.188
 3052SOL    HW110055   5.837   6.225   2.184
 3052SOL    HW210056   5.992   6.243   2.231
 3053SOL     OW10057   2.008   4.007   0.173
 3053SOL    HW110058   1.950   4.000   0.254
 3053SOL    HW210059   1.977   4.083   0.116
 3054SOL     OW10060   5.530   1.284   3.259
 3054SOL    HW110061   5.603   1.292   3.190
 3054SOL    HW210062   5.445   1.255   3.214
 3055SOL     OW10063   6.285   6.511   6.345
 3055SOL    HW110064   6.345   6.530   6.423
 3055SOL    HW210065   6.191   6.537   6.369
 3056SOL     OW10066   5.035   2.072   6.069
 3056SOL    HW110067   4.956   2.100   6.124
 3056SOL    HW210068   5.005   2.055   5.975
 3057SOL     OW10069   5.397   5.886   3.510
 3057SOL    HW110070   5.419   5.983   3.495
 3057SOL    HW210071   5.342   5.853   3.434
 3058SOL     OW10072   5.872   4.199   0.539
 3058SOL    HW110073   5.817   4.179   0.620
 3058SOL    HW210074   5.823   4.264   0.481
 3059SOL     OW10075   2.291   2.670   4.412
 3059SOL    HW110076   2.354   2.593   4.417
 3059SOL    HW210077   2.301   2.716   4.324
 3060SOL     OW10078   3.176   4.902   5.943
 3060SOL    HW110079   3.151   4.817   5.897
 3060SOL    HW210080   3.115   4.917   6.020
 3061SOL     OW10081   5.277   5.026   5.570
 3061SOL    HW110082   5.225   5.110   5.559
 3061SOL    HW210083   5.375   5.045   5.558
 3062SOL     OW10084   4.114   4.499   1.709
 3062SOL    HW110085   4.016   4.489   1.727
 3062SOL    HW210086   4.152   4.411   1.681
 3063SOL     OW10087   0.534   4.272   1.274
 3063SOL    HW110088   0.444   4.248   1.309
 3063SOL    HW210089   0.561   4.361   1.311
 3064SOL     OW10090   3.871   2.409   6.922
 3064SOL    HW110091   3.867   2.309   6.922
 3064SOL    HW210092   3.861   2.443   6.829
 3065SOL     OW10093   1.143   0.854   6.829
 3065SOL    HW110094   1.158   0.941   6.783
 3065SOL    HW210095   1.206   0.785   6.794
 3066SOL     OW10096   4.726   5.355   5.333
 3066SOL    HW110097   4.743   5.359   5.432
 3066SOL    HW210098   4.709   5.447   5.298
 3067SOL     OW10099   2.691   1.514   6.469
 3067SOL    HW110100   2.765   1.448   6.458
 3067SOL    HW210101   2.720   1.587   6.531
 3068SOL     OW10102   0.655   1.503   1.369
 3068SOL    HW110103   0.630   1.483   1.463
 3068SOL    HW210104   0.589   1.566   1.329
 3069SOL     OW10105   5.200   6.965   3.192
 3069SOL    HW110106   5.140   6.930   3.119
 3069SOL    HW210107   5.221   6.891   3.256
 3070SOL     OW10108   2.964   1.448   6.879
 3070SOL    HW110109   2.947   1.385   6.954
 3070SOL    HW210110   3.005   1.399   6.802
 3071SOL     OW10111   0.128   3.412   3.463
 3071SOL    HW110112   0.225   3.387   3.462
 3071SOL    HW210113   0.093   3.414   3.369
 3072SOL     OW10114   1.913   5.876   0.124
 3072SOL    HW110115   1.829   5.903   0.170
 3072SOL    HW210116   1.987   5.868   0.191
 3073SOL     OW10117   6.514   4.843   0.405
 3073SOL    HW110118   6.529   4.815   0.499
 3073SOL    HW210119   6.546   4.936   0.392
 3074SOL     OW10120   1.285   3.791   0.658
 3074SOL    HW110121   1.351   3.717   0.647
 3074SOL    HW210122   1.201   3.770   0.608
 3075SOL     OW10123   2.573   5.159   3.733
 3075SOL    HW110124   2.604   5.253   3.747
 3075SOL    HW210125   2.524   5.128   3.814
 3076SOL     OW10126   0.417   1.689   5.063
 3076SOL    HW110127   0.473   1.731   4.992
 3076SOL    HW210128   0.327   1.665   5.025
 3077SOL     OW10129   6.298   3.716   1.510
 3077SOL    HW110130   6.349   3.734   1.594
 3077SOL    HW210131   6.213   3.668   1.533
 3078SOL     OW10132   6.379   3.115   1.714
 3078SOL    HW110133   6.427   3.124   1.801
 3078SOL    HW210134   6.408   3.031   1.669
 3079SOL     OW10135   2.254   2.519   4.914
 3079SOL    HW110136   2.218   2.513   5.007
 3079SOL    HW210137   2.251   2.613   4.882
 3080SOL     OW10138   4.263   4.861   1.235
 3080SOL    HW110139   4.304   4.926   1.299
 3080SOL    HW210140   4.202   4.800   1.284
 3081SOL     OW10141   1.344   4.129   0.396
 3081SOL    HW110142   1.322   4.151   0.301
 3081SOL    HW210143   1.266   4.153   0.455
 3082SOL     OW10144   3.525   5.319   4.205
 3082SOL    HW110145   3.625   5.318   4.197
 3082SOL    HW210146   3.488   5.236   4.164
 3083SOL     OW10147   2.417   5.654   2.707
 3083SOL    HW110148   2.475   5.594   2.652
 3083SOL    HW210149   2.373   5.601   2.779
 3084SOL     OW10150   0.793   3.643   3.228
 3084SOL    HW110151   0.710   3.607   3.270
 3084SOL    HW210152   0.791   3.743   3.231
 3085SOL     OW10153   4.497   5.061   0.695
 3085SOL    HW110154   4.487   5.149   0.742
 3085SOL    HW210155   4.439   4.993   0.739
 3086SOL     OW10156   5.985   1.092   6.938
 3086SOL    HW110157   5.902   1.039   6.921
 3086SOL    HW210158   6.006   1.090   0.010
 3087SOL     OW10159   2.528   6.612   1.882
 3087SOL    HW110160   2.533   6.515   1.859
 3087SOL    HW210161   2.489   6.623   1.973
 3088SOL     OW10162   0.307   2.846   5.396
 3088SOL    HW110163   0.214   2.844   5.358
 3088SOL    HW210164   0.372   2.811   5.329
 3089SOL     OW10165   5.031   0.700   4.616
 3089SOL    HW110166   4.973   0.621   4.636
 3089SOL    HW210167   4.974   0.778   4.590
 3090SOL     OW10168   1.001   1.359   1.439
 3090SOL    HW110169   1.100   1.361   1.457
 3090SOL    HW210170   0.985   1.370   1.341
 3091SOL     OW10171   1.054   1.532   0.685
 3091SOL    HW110172   0.961   1.499   0.667
 3091SOL    HW210173   1.118   1.455   0.676
 3092SOL     OW10174   5.356   6.752   2.221
 3092SOL    HW110175   5.440   6.790   2.258
 3092SOL    HW210176   5.297   6.722   2.296
 3093SOL     OW10177   5.742   5.543   6.378
 3093SOL    HW110178   5.775   5.513   6.289
 3093SOL    HW210179   5.793   5.624   6.408
 3094SOL     OW10180   2.641   0.982   5.575
 3094SOL    HW110181   2.635   1.061   5.515
 3094SOL    HW210182   2.642   0.898   5.520
 3095SOL     OW10183   2.646   3.202   5.352
 3095SOL    HW110184   2.591   3.249   5.421
 3095SOL    HW210185   2.590   3.136   5.303
 3096SOL     OW10186   0.683   3.606   5.009
 3096SOL    HW110187   0.602   3.573   5.059
 3096SOL    HW210188   0.654   3.652   4.925
 3097SOL     OW10189   6.072   2.325   6.593
 3097SOL    HW110190   6.151   2.264   6.581
 3097SOL    HW210191   6.043   2.360   6.504
 3098SOL     OW10192   2.014   1.556   2.201
 3098SOL    HW110193   2.087   1.489   2.187
 3098SOL    HW210194   2.041   1.643   2.160
 3099SOL     OW10195   0.822   6.413   3.942
 3099SOL    HW110196   0.790   6.439   3.851
 3099SOL    HW210197   0.841   6.314   3.943
 3100SOL     OW10198   6.153   6.390   3.040
 3100SOL    HW110199   6.125   6.479   3.075
 3100SOL    HW210200   6.126   6.381   2.944
 3101SOL     OW10201   4.287   6.652   5.842
 3101SOL    HW110202   4.347   6.713   5.894
 3101SOL    HW210203   4.219   6.612   5.904
 3102SOL     OW10204   0.462   5.678   0.433
 3102SOL    HW110205   0.416   5.675   0.344
 3102SOL    HW210206   0.443   5.594   0.483
 3103SOL     OW10207   3.615   0.111   1.108
 3103SOL    HW110208   3.595   0.206   1.086
 3103SOL    HW210209   3.695   0.107   1.168
 3104SOL     OW10210   4.694   0.379   6.245
 3104SOL    HW110211   4.734   0.414   6.161
 3104SOL    HW210212   4.664   0.284   6.231
 3105SOL     OW10213   5.054   3.175   0.284
 3105SOL    HW110214   5.036   3.272   0.266
 3105SOL    HW210215   5.118   3.167   0.361
 3106SOL     OW10216   5.730   0.858   4.917
 3106SOL    HW110217   5.656   0.924   4.920
 3106SOL    HW210218   5.742   0.824   4.824
 3107SOL     OW10219   4.565   1.461   5.071
 3107SOL    HW110220   4.626   1.475   4.993
 3107SOL    HW210221   4.483   1.517   5.060
 3108SOL     OW10222   2.422   4.514   4.597
 3108SOL    HW110223   2.391   4.500   4.691
 3108SOL    HW210224   2.479   4.595   4.593
 3109SOL     OW10225   6.390   0.054   4.184
 3109SOL    HW110226   6.351   0.040   4.092
 3109SOL    HW210227   6.316   0.073   4.248
 3110SOL     OW10228   2.292   4.672   3.839
 3110SOL    HW110229   2.267   4.609   3.765
 3110SOL    HW210230   2.272   4.630   3.927
 3111SOL     OW10231   6.614   4.957   4.860
 3111SOL    HW110232   6.703   4.941   4.903
 3111SOL    HW210233   6.563   5.023   4.914
 3112SOL     OW10234   3.926   2.720   0.392
 3112SOL    HW110235   3.898   2.688   0.483
 3112SOL    HW210236   3.846   2.752   0.342
 3113SOL     OW10237   2.578   6.092   2.730
 3113SOL    HW110238   2.484   6.105   2.697
 3113SOL    HW210239   2.581   6.010   2.788
 3114SOL     OW10240   3.691   1.596   0.154
 3114SOL    HW110241   3.691   1.573   0.056
 3114SOL    HW210242   3.604   1.566   0.194
 3115SOL     OW10243   4.228   4.409   5.381
 3115SOL    HW110244   4.244   4.444   5.289
 3115SOL    HW210245   4.168   4.472   5.431
 3116SOL     OW10246   0.069   2.354   0.943
 3116SOL    HW110247   0.144   2.400   0.896
 3116SOL    HW210248   0.101   2.317   1.030
 3117SOL     OW10249   4.936   2.054   5.803
 3117SOL    HW110250   4.883   1.986   5.754
 3117SOL    HW210251   4.889   2.142   5.800
 3118SOL     OW10252   1.615   0.506   2.868
 3118SOL    HW110253   1.606   0.407   2.855
 3118SOL    HW210254   1.687   0.524   2.935
 3119SOL     OW10255   3.836   2.743   5.589
 3119SOL    HW110256   3.846   2.643   5.589
 3119SOL    HW210257   3.907   2.783   5.532
 3120SOL     OW10258   3.009   0.288   4.860
 3120SOL    HW110259   3.051   0.200   4.883
 3120SOL    HW210260   2.959   0.323   4.939
 3121SOL     OW10261   4.936   1.993   4.446
 3121SOL    HW110262   4.950   2.083   4.403
 3121SOL    HW210263   5.024   1.945   4.449
 3122SOL     OW10264   4.418   4.561   4.194
 3122SOL    HW110265   4.473   4.513   4.126
 3122SOL    HW210266   4.362   4.630   4.148
 3123SOL     OW10267   1.991   1.699   3.347
 3123SOL    HW110268   2.032   1.786   3.319
 3123SOL    HW210269   2.005   1.631   3.275
 3124SOL     OW10270   5.265   6.393   4.911
 3124SOL    HW110271   5.281   6.417   5.007
 3124SOL    HW210272   5.276   6.294   4.899
 3125SOL     OW10273   0.973   2.855   5.076
 3125SOL    HW110274   0.924   2.848   5.163
 3125SOL    HW210275   0.910   2.836   5.000
 3126SOL     OW10276   5.678   5.727   4.577
 3126SOL    HW110277   5.644   5.673   4.654
 3126SOL    HW210278   5.658   5.824   4.594
 3127SOL     OW10279   0.850   2.326   4.494
 3127SOL    HW110280   0.847   2.296   4.589
 3127SOL    HW210281   0.759   2.317   4.453
 3128SOL     OW10282   3.394   7.007   0.469
 3128SOL    HW110283   3.408   6.985   0.565
 3128SOL    HW210284   3.331   0.059   0.462
 3129SOL     OW10285   5.061   3.047   1.057
 3129SOL    HW110286   5.137   3.033   1.121
 3129SOL    HW210287   4.990   3.102   1.101
 3130SOL     OW10288   1.844   3.840   1.273
 3130SOL    HW110289   1.912   3.913   1.260
 3130SOL    HW210290   1.884   3.768   1.330
 3131SOL     OW10291   0.081   3.759   1.886
 3131SOL    HW110292   0.046   3.837   1.834
 3131SOL    HW210293   0.152   3.790   1.949
 3132SOL     OW10294   3.731   4.647   0.451
 3132SOL    HW110295   3.793   4.585   0.403
 3132SOL    HW210296   3.653   4.596   0.487
 3133SOL     OW10297   3.698   0.272   3.403
 3133SOL    HW110298   3.663   0.299   3.313
 3133SOL    HW210299   3.754   0.190   3.393
 3134SOL     OW10300   3.155   4.924   2.020
 3134SOL    HW110301   3.143   4.866   1.939
 3134SOL    HW210302   3.252   4.938   2.037
 3135SOL     OW10303   5.468   6.895   6.150
 3135SOL    HW110304   5.413   6.978   6.163
 3135SOL    HW210305   5.542   6.893   6.217
 3136SOL     OW10306   6.218   1.176   2.593
 3136SOL    HW110307   6.206   1.267   2.633
 3136SOL    HW210308   6.139   1.154   2.536
 3137SOL     OW10309   6.453   0.042   0.529
 3137SOL    HW110310   6.531   0.049   0.591
 3137SOL    HW210311   6.384   7.007   0.570
 3138SOL     OW10312   5.555   5.819   4.010
 3138SOL    HW110313   5.621   5.883   3.970
 3138SOL    HW210314   5.544   5.740   3.951
 3139SOL     OW10315   2.511   4.776   1.383
 3139SOL    HW110316   2.605   4.801   1.405
 3139SOL    HW210317   2.453   4.793   1.463
 3140SOL     OW10318   5.977   6.559   5.801
 3140SOL    HW110319   6.032   6.585   5.881
 3140SOL    HW210320   5.891   6.609   5.802
 3141SOL     OW10321   0.473   2.344   0.021
 3141SOL    HW110322   0.388   2.303   0.055
 3141SOL    HW210323   0.465   2.361   6.948
 3142SOL     OW10324   4.622   0.737   2.584
 3142SOL    HW110325   4.625   0.741   2.684
 3142SOL    HW210326   4.714   0.727   2.548
 3143SOL     OW10327   6.089   2.103   0.420
 3143SOL    HW110328   6.092   2.005   0.399
 3143SOL    HW210329   6.062   2.153   0.338
 3144SOL     OW10330   4.492   3.780   6.494
 3144SOL    HW110331   4.471   3.799   6.590
 3144SOL    HW210332   4.583   3.817   6.472
 3145SOL     OW10333   2.837   6.603   1.820
 3145SOL    HW110334   2.849   6.545   1.901
 3145SOL    HW210335   2.747   6.646   1.823
 3146SOL     OW10336   0.614   1.071   4.827
 3146SOL    HW110337   0.579   1.014   4.901
 3146SOL    HW210338   0.712   1.056   4.816
 3147SOL     OW10339   3.535   5.202   6.688
 3147SOL    HW110340   3.530   5.103   6.680
 3147SOL    HW210341   3.581   5.240   6.608
 3148SOL     OW10342   0.531   6.709   2.976
 3148SOL    HW110343   0.471   6.646   2.928
 3148SOL    HW210344   0.479   6.761   3.043
 3149SOL     OW10345   3.178   1.419   0.262
 3149SOL    HW110346   3.142   1.468   0.342
 3149SOL    HW210347   3.108   1.415   0.191
 3150SOL     OW10348   6.376   6.041   5.058
 3150SOL    HW110349   6.455   6.065   5.001
 3150SOL    HW210350   6.368   5.942   5.064
 3151SOL     OW10351   6.379   1.753   5.990
 3151SOL    HW110352   6.377   1.816   6.068
 3151SOL    HW210353   6.464   1.701   5.992
 3152SOL     OW10354   1.605   3.864   6.562
 3152SOL    HW110355   1.565   3.928   6.629
 3152SOL    HW210356   1.610   3.773   6.603
 3153SOL     OW10357   6.620   5.081   0.365
 3153SOL    HW110358   6.607   5.145   0.441
 3153SOL    HW210359   6.686   5.120   0.300
 3154SOL     OW10360   5.981   1.260   1.692
 3154SOL    HW110361   5.901   1.255   1.633
 3154SOL    HW210362   5.957   1.232   1.785
 3155SOL     OW10363   6.191   4.809   0.204
 3155SOL    HW110364   6.122   4.882   0.207
 3155SOL    HW210365   6.150   4.723   0.232
 3156SOL     OW10366   3.609   4.147   2.267
 3156SOL    HW110367   3.622   4.148   2.168
 3156SOL    HW210368   3.698   4.140   2.312
 3157SOL     OW10369   1.181   2.043   5.141
 3157SOL    HW110370   1.236   1.975   5.093
 3157SOL    HW210371   1.228   2.131   5.138
 3158SOL     OW10372   2.835   2.361   5.797
 3158SOL    HW110373   2.786   2.274   5.806
 3158SOL    HW210374   2.855   2.397   5.889
 3159SOL     OW10375   4.498   6.882   0.746
 3159SOL    HW110376   4.404   6.903   0.775
 3159SOL    HW210377   4.530   6.955   0.685
 3160SOL     OW10378   2.242   0.022   5.473
 3160SOL    HW110379   2.238   6.951   5.499
 3160SOL    HW210380   2.160   0.068   5.506
 3161SOL     OW10381   1.961   2.732   2.506
 3161SOL    HW110382   1.930   2.754   2.599
 3161SOL    HW210383   2.000   2.814   2.464
 3162SOL     OW10384   2.121   5.386   6.942
 3162SOL    HW110385   2.052   5.433   6.887
 3162SOL    HW210386   2.208   5.382   6.893
 3163SOL     OW10387   4.491   3.524   0.310
 3163SOL    HW110388   4.461   3.477   0.227
 3163SOL    HW210389   4.454   3.617   0.310
 3164SOL     OW10390   2.927   5.756   2.521
 3164SOL    HW110391   2.885   5.844   2.542
 3164SOL    HW210392   2.981   5.764   2.438
 3165SOL     OW10393   0.548   5.212   0.295
 3165SOL    HW110394   0.519   5.125   0.255
 3165SOL    HW210395   0.645   5.207   0.320
 3166SOL     OW10396   4.167   1.151   4.303
 3166SOL    HW110397   4.123   1.237   4.326
 3166SOL    HW210398   4.186   1.101   4.388
 3167SOL     OW10399   4.954   4.094   0.244
 3167SOL    HW110400   5.012   4.165   0.284
 3167SOL    HW210401   4.904   4.046   0.317
 3168SOL     OW10402   4.763   2.861   1.214
 3168SOL    HW110403   4.792   2.769   1.240
 3168SOL    HW210404   4.744   2.863   1.116
 3169SOL     OW10405   1.447   4.776   2.359
 3169SOL    HW110406   1.352   4.745   2.354
 3169SOL    HW210407   1.505   4.718   2.301
 3170SOL     OW10408   3.794   6.239   2.775
 3170SOL    HW110409   3.751   6.197   2.696
 3170SOL    HW210410   3.823   6.332   2.751
 3171SOL     OW10411   5.234   3.120   2.202
 3171SOL    HW110412   5.317   3.093   2.153
 3171SOL    HW210413   5.226   3.219   2.203
 3172SOL     OW10414   0.033   4.708   6.849
 3172SOL    HW110415   6.966   4.713   6.886
 3172SOL    HW210416   0.037   4.634   6.781
 3173SOL     OW10417   2.806   1.745   6.608
 3173SOL    HW110418   2.764   1.812   6.548
 3173SOL    HW210419   2.905   1.759   6.609
 3174SOL     OW10420   2.537   2.471   6.015
 3174SOL    HW110421   2.549   2.498   5.919
 3174SOL    HW210422   2.439   2.466   6.036
 3175SOL     OW10423   6.815   1.354   3.196
 3175SOL    HW110424   6.729   1.303   3.195
 3175SOL    HW210425   6.827   1.401   3.109
 3176SOL     OW10426   0.070   3.803   4.835
 3176SOL    HW110427   0.114   3.873   4.891
 3176SOL    HW210428   0.139   3.759   4.777
 3177SOL     OW10429   5.344   4.212   3.237
 3177SOL    HW110430   5.369   4.121   3.273
 3177SOL    HW210431   5.366   4.216   3.139
 3178SOL     OW10432   5.549   1.864   0.087
 3178SOL    HW110433   5.517   1.951   0.048
 3178SOL    HW210434   5.471   1.815   0.126
 3179SOL     OW10435   1.432   1.796   2.385
 3179SOL    HW110436   1.378   1.879   2.374
 3179SOL    HW210437   1.398   1.744   2.464
 3180SOL     OW10438   5.576   6.523   6.872
 3180SOL    HW110439   5.672   6.546   6.888
 3180SOL    HW210440   5.570   6.434   6.826
 3181SOL     OW10441   0.126   1.457   4.406
 3181SOL    HW110442   0.170   1.528   4.352
 3181SOL    HW210443   0.169   1.369   4.387
 3182SOL     OW10444   3.223   0.152   0.756
 3182SOL    HW110445   3.136   0.118   0.791
 3182SOL    HW210446   3.217   0.161   0.656
 3183SOL     OW10447   4.587   4.848   2.326
 3183SOL    HW110448   4.664   4.798   2.365
 3183SOL    HW210449   4.615   4.888   2.238
 3184SOL     OW10450   0.508   2.126   3.811
 3184SOL    HW110451   0.526   2.124   3.713
 3184SOL    HW210452   0.474   2.037   3.840
 3185SOL     OW10453   6.620   6.522   5.478
 3185SOL    HW110454   6.595   6.433   5.517
 3185SOL    HW210455   6.716   6.540   5.496
 3186SOL     OW10456   1.808   0.723   6.899
 3186SOL    HW110457   1.854   0.643   6.938
 3186SOL    HW210458   1.787   0.789   6.971
 3187SOL     OW10459   3.655   5.323   2.274
 3187SOL    HW110460   3.614   5.317   2.365
 3187SOL    HW210461   3.585   5.306   2.205
 3188SOL     OW10462   1.996   5.250   5.047
 3188SOL    HW110463   2.036   5.205   4.968
 3188SOL    HW210464   1.918   5.306   5.018
 3189SOL     OW10465   2.163   0.853   0.465
 3189SOL    HW110466   2.136   0.859   0.369
 3189SOL    HW210467   2.236   0.919   0.484
 3190SOL     OW10468   6.377   5.491   5.880
 3190SOL    HW110469   6.329   5.483   5.793
 3190SOL    HW210470   6.327   5.441   5.951
 3191SOL     OW10471   4.470   5.628   2.150
 3191SOL    HW110472   4.414   5.571   2.211
 3191SOL    HW210473   4.464   5.723   2.178
 3192SOL     OW10474   0.227   2.760   1.485
 3192SOL    HW110475   0.200   2.839   1.429
 3192SOL    HW210476   0.326   2.756   1.492
 3193SOL     OW10477   3.926   0.998   5.237
 3193SOL    HW110478   3.955   1.047   5.154
 3193SOL    HW210479   4.007   0.974   5.290
 3194SOL     OW10480   1.008   1.274   5.626
 3194SOL    HW110481   0.990   1.176   5.635
 3194SOL    HW210482   1.100   1.287   5.588
 3195SOL     OW10483   0.576   1.501   1.917
 3195SOL    HW110484   0.576   1.552   2.003
 3195SOL    HW210485   0.613   1.409   1.933
 3196SOL     OW10486   6.700   0.879   5.927
 3196SOL    HW110487   6.794   0.896   5.897
 3196SOL    HW210488   6.694   0.786   5.963
 3197SOL     OW10489   2.827   6.713   5.575
 3197SOL    HW110490   2.871   6.726   5.486
 3197SOL    HW210491   2.885   6.750   5.647
 3198SOL     OW10492   6.322   2.080   3.897
 3198SOL    HW110493   6.224   2.098   3.907
 3198SOL    HW210494   6.369   2.100   3.983
 3199SOL     OW10495   5.389   5.091   2.933
 3199SOL    HW110496   5.327   5.019   2.904
 3199SOL    HW210497   5.358   5.130   3.020
 3200SOL     OW10498   6.479   3.235   3.966
 3200SOL    HW110499   6.493   3.138   3.949
 3200SOL    HW210500   6.527   3.289   3.897
 3201SOL     OW10501   6.435   4.570   3.237
 3201SOL    HW110502   6.409   4.574   3.141
 3201SOL    HW210503   6.354   4.579   3.295
 3202SOL     OW10504   1.211   5.130   0.817
 3202SOL    HW110505   1.267   5.194   0.868
 3202SOL    HW210506   1.125   5.115   0.864
 3203SOL     OW10507   4.682   0.788   1.464
 3203SOL    HW110508   4.722   0.820   1.550
 3203SOL    HW210509   4.709   0.693   1.447
 3204SOL     OW10510   2.888   1.857   3.386
 3204SOL    HW110511   2.960   1.877   3.320
 3204SOL    HW210512   2.880   1.758   3.398
 3205SOL     OW10513   5.445   3.547   5.911
 3205SOL    HW110514   5.392   3.502   5.840
 3205SOL    HW210515   5.448   3.489   5.992
 3206SOL     OW10516   2.837   3.080   1.387
 3206SOL    HW110517   2.826   3.090   1.486
 3206SOL    HW210518   2.776   3.008   1.354
 3207SOL     OW10519   0.860   0.850   5.863
 3207SOL    HW110520   0.770   0.818   5.895
 3207SOL    HW210521   0.931   0.789   5.899
 3208SOL     OW10522   5.989   5.364   6.255
 3208SOL    HW110523   5.928   5.427   6.208
 3208SOL    HW210524   6.012   5.400   6.346
 3209SOL     OW10525   3.864   5.568   5.250
 3209SOL    HW110526   3.867   5.667   5.232
 3209SOL    HW210527   3.945   5.541   5.302
 3210SOL     OW10528   0.260   5.031   1.387
 3210SOL    HW110529   0.239   5.108   1.447
 3210SOL    HW210530   0.352   5.041   1.350
 3211SOL     OW10531   1.583   4.593   0.841
 3211SOL    HW110532   1.628   4.621   0.756
 3211SOL    HW210533   1.539   4.504   0.827
 3212SOL     OW10534   3.431   0.030   2.575
 3212SOL    HW110535   3.517   0.064   2.613
 3212SOL    HW210536   3.369   0.107   2.557
 3213SOL     OW10537   1.765   0.507   6.197
 3213SOL    HW110538   1.791   0.602   6.212
 3213SOL    HW210539   1.846   0.449   6.202
 3214SOL     OW10540   4.737   6.760   3.828
 3214SOL    HW110541   4.641   6.734   3.817
 3214SOL    HW210542   4.766   6.813   3.749
 3215SOL     OW10543   0.631   3.434   0.261
 3215SOL    HW110544   0.701   3.503   0.279
 3215SOL    HW210545   0.605   3.436   0.165
 3216SOL     OW10546   5.671   5.203   1.201
 3216SOL    HW110547   5.762   5.166   1.219
 3216SOL    HW210548   5.678   5.281   1.140
 3217SOL     OW10549   0.107   5.383   2.819
 3217SOL    HW110550   0.140   5.370   2.726
 3217SOL    HW210551   0.136   5.306   2.876
 3218SOL     OW10552   5.640   2.291   3.507
 3218SOL    HW110553   5.709   2.285   3.435
 3218SOL    HW210554   5.648   2.212   3.568
 3219SOL     OW10555   6.901   1.180   5.200
 3219SOL    HW110556   6.989   1.139   5.222
 3219SOL    HW210557   6.854   1.205   5.285
 3220SOL     OW10558   0.488   5.793   6.667
 3220SOL    HW110559   0.533   5.733   6.601
 3220SOL    HW210560   0.399   5.755   6.690
 3221SOL     OW10561   3.874   0.164   2.625
 3221SOL    HW110562   3.789   0.144   2.674
 3221SOL    HW210563   3.867   0.129   2.531
 3222SOL     OW10564   2.686   1.284   3.175
 3222SOL    HW110565   2.776   1.327   3.167
 3222SOL    HW210566   2.659   1.281   3.272
 3223SOL     OW10567   1.985   6.441   0.649
 3223SOL    HW110568   2.017   6.533   0.672
 3223SOL    HW210569   2.030   6.410   0.566
 3224SOL     OW10570   5.397   2.477   5.302
 3224SOL    HW110571   5.464   2.412   5.266
 3224SOL    HW210572   5.414   2.494   5.399
 3225SOL     OW10573   4.246   1.331   4.620
 3225SOL    HW110574   4.171   1.380   4.665
 3225SOL    HW210575   4.313   1.302   4.688
 3226SOL     OW10576   1.704   0.066   2.072
 3226SOL    HW110577   1.655   7.011   2.039
 3226SOL    HW210578   1.752   0.109   1.996
 3227SOL     OW10579   3.579   2.372   6.429
 3227SOL    HW110580   3.665   2.341   6.469
 3227SOL    HW210581   3.560   2.465   6.461
 3228SOL     OW10582   0.305   3.910   0.442
 3228SOL    HW110583   0.364   3.966   0.383
 3228SOL    HW210584   0.330   3.814   0.433
 3229SOL     OW10585   3.142   0.866   5.482
 3229SOL    HW110586   3.213   0.882   5.413
 3229SOL    HW210587   3.178   0.804   5.552
 3230SOL     OW10588   2.106   5.740   6.386
 3230SOL    HW110589   2.140   5.779   6.471
 3230SOL    HW210590   2.179   5.687   6.342
 3231SOL     OW10591   3.207   1.035   2.559
 3231SOL    HW110592   3.302   1.015   2.582
 3231SOL    HW210593   3.202   1.126   2.517
 3232SOL     OW10594   3.755   5.874   3.655
 3232SOL    HW110595   3.782   5.870   3.559
 3232SOL    HW210596   3.668   5.826   3.667
 3233SOL     OW10597   6.614   2.943   0.770
 3233SOL    HW110598   6.691   2.960   0.831
 3233SOL    HW210599   6.588   3.029   0.725
 3234SOL     OW10600   1.945   2.774   0.034
 3234SOL    HW110601   1.884   2.696   0.022
 3234SOL    HW210602   1.899   2.845   0.086
 3235SOL     OW10603   6.215   5.818   1.661
 3235SOL    HW110604   6.167   5.755   1.601
 3235SOL    HW210605   6.293   5.772   1.703
 3236SOL     OW10606   2.241   3.781   0.316
 3236SOL    HW110607   2.313   3.718   0.285
 3236SOL    HW210608   2.279   3.873   0.323
 3237SOL     OW10609   6.432   1.816   4.176
 3237SOL    HW110610   6.469   1.907   4.158
 3237SOL    HW210611   6.332   1.819   4.168
 3238SOL     OW10612   6.132   5.324   0.364
 3238SOL    HW110613   6.045   5.286   0.396
 3238SOL    HW210614   6.201   5.252   0.360
 3239SOL     OW10615   6.849   0.090   3.864
 3239SOL    HW110616   6.782   0.048   3.803
 3239SOL    HW210617   6.934   0.037   3.861
 3240SOL     OW10618   0.102   0.751   6.248
 3240SOL    HW110619   0.006   0.735   6.270
 3240SOL    HW210620   0.159   0.717   6.323
 3241SOL     OW10621   4.780   1.939   6.438
 3241SOL    HW110622   4.731   1.872   6.493
 3241SOL    HW210623   4.768   1.918   6.341
 3242SOL     OW10624   4.872   4.030   6.062
 3242SOL    HW110625   4.834   4.039   5.970
 3242SOL    HW210626   4.817   3.966   6.115
 3243SOL     OW10627   4.866   5.037   6.972
 3243SOL    HW110628   4.867   5.079   6.882
 3243SOL    HW210629   4.945   4.978   6.983
 3244SOL     OW10630   5.450   6.232   0.029
 3244SOL    HW110631   5.478   6.220   6.960
 3244SOL    HW210632   5.410   6.323   0.041
 3245SOL     OW10633   4.990   2.576   4.226
 3245SOL    HW110634   4.956   2.647   4.164
 3245SOL    HW210635   4.989   2.488   4.179
 3246SOL     OW10636   6.745   0.156   3.033
 3246SOL    HW110637   6.688   0.081   3.068
 3246SOL    HW210638   6.708   0.243   3.066
 3247SOL     OW10639   6.944   4.804   2.742
 3247SOL    HW110640   6.998   4.814   2.826
 3247SOL    HW210641   6.855   4.846   2.755
 3248SOL     OW10642   5.438   2.848   2.075
 3248SOL    HW110643   5.448   2.760   2.029
 3248SOL    HW210644   5.489   2.918   2.026
 3249SOL     OW10645   3.950   3.793   4.227
 3249SOL    HW110646   3.851   3.782   4.214
 3249SOL    HW210647   3.974   3.770   4.321
 3250SOL     OW10648   4.958   6.225   3.655
 3250SOL    HW110649   4.914   6.275   3.581
 3250SOL    HW210650   5.056   6.240   3.652
 3251SOL     OW10651   2.846   1.271   4.376
 3251SOL    HW110652   2.877   1.192   4.430
 3251SOL    HW210653   2.747   1.275   4.378
 3252SOL     OW10654   3.127   1.365   2.761
 3252SOL    HW110655   3.073   1.290   2.798
 3252SOL    HW210656   3.066   1.435   2.723
 3253SOL     OW10657   4.472   3.804   1.368
 3253SOL    HW110658   4.461   3.840   1.461
 3253SOL    HW210659   4.405   3.732   1.352
 3254SOL     OW10660   5.008   6.827   6.186
 3254SOL    HW110661   4.938   6.755   6.194
 3254SOL    HW210662   5.089   6.800   6.237
 3255SOL     OW10663   5.797   5.940   0.964
 3255SOL    HW110664   5.880   5.885   0.954
 3255SOL    HW210665   5.820   6.036   0.949
 3256SOL     OW10666   4.445   2.315   1.394
 3256SOL    HW110667   4.526   2.280   1.346
 3256SOL    HW210668   4.364   2.264   1.364
 3257SOL     OW10669   3.080   2.074   2.051
 3257SOL    HW110670   3.169   2.080   2.006
 3257SOL    HW210671   3.031   2.160   2.038
 3258SOL     OW10672   3.251   5.393   3.201
 3258SOL    HW110673   3.167   5.374   3.250
 3258SOL    HW210674   3.244   5.356   3.108
 3259SOL     OW10675   5.228   4.889   4.518
 3259SOL    HW110676   5.135   4.903   4.483
 3259SOL    HW210677   5.253   4.793   4.509
 3260SOL     OW10678   1.750   4.056   2.298
 3260SOL    HW110679   1.754   4.063   2.198
 3260SOL    HW210680   1.661   4.088   2.330
 3261SOL     OW10681   5.172   0.546   2.186
 3261SOL    HW110682   5.232   0.612   2.230
 3261SOL    HW210683   5.225   0.466   2.159
 3262SOL     OW10684   3.902   2.205   2.479
 3262SOL    HW110685   3.809   2.182   2.506
 3262SOL    HW210686   3.905   2.227   2.381
 3263SOL     OW10687   3.535   1.209   3.829
 3263SOL    HW110688   3.504   1.303   3.846
 3263SOL    HW210689   3.541   1.160   3.916
 3264SOL     OW10690   1.833   5.081   0.718
 3264SOL    HW110691   1.806   5.176   0.730
 3264SOL    HW210692   1.932   5.074   0.712
 3265SOL     OW10693   5.809   5.929   5.798
 3265SOL    HW110694   5.825   5.922   5.897
 3265SOL    HW210695   5.821   6.024   5.769
 3266SOL     OW10696   2.820   4.563   0.016
 3266SOL    HW110697   2.751   4.512   0.068
 3266SOL    HW210698   2.791   4.572   6.947
 3267SOL     OW10699   3.556   0.386   2.045
 3267SOL    HW110700   3.514   0.434   1.968
 3267SOL    HW210701   3.563   0.289   2.025
 3268SOL     OW10702   0.993   4.858   1.629
 3268SOL    HW110703   0.918   4.847   1.694
 3268SOL    HW210704   0.977   4.799   1.550
 3269SOL     OW10705   0.523   5.145   2.288
 3269SOL    HW110706   0.495   5.196   2.206
 3269SOL    HW210707   0.613   5.176   2.318
 3270SOL     OW10708   1.875   2.857   6.328
 3270SOL    HW110709   1.866   2.894   6.420
 3270SOL    HW210710   1.830   2.917   6.262
 3271SOL     OW10711   6.643   3.449   1.729
 3271SOL    HW110712   6.623   3.360   1.687
 3271SOL    HW210713   6.708   3.436   1.804
 3272SOL     OW10714   3.453   4.644   6.867
 3272SOL    HW110715   3.398   4.718   6.906
 3272SOL    HW210716   3.392   4.570   6.839
 3273SOL     OW10717   5.141   4.749   5.989
 3273SOL    HW110718   5.078   4.812   6.034
 3273SOL    HW210719   5.195   4.798   5.921
 3274SOL     OW10720   6.059   0.195   0.716
 3274SOL    HW110721   5.990   0.178   0.646
 3274SOL    HW210722   6.054   0.125   0.787
 3275SOL     OW10723   4.439   1.053   0.845
 3275SOL    HW110724   4.497   0.992   0.900
 3275SOL    HW210725   4.486   1.140   0.832
 3276SOL     OW10726   4.449   6.758   0.182
 3276SOL    HW110727   4.461   6.707   0.267
 3276SOL    HW210728   4.539   6.773   0.139
 3277SOL     OW10729   3.134   1.215   1.166
 3277SOL    HW110730   3.143   1.308   1.130
 3277SOL    HW210731   3.133   1.150   1.091
 3278SOL     OW10732   0.227   0.282   5.919
 3278SOL    HW110733   0.207   0.211   5.987
 3278SOL    HW210734   0.310   0.331   5.946
 3279SOL     OW10735   4.700   6.612   1.014
 3279SOL    HW110736   4.691   6.607   1.114
 3279SOL    HW210737   4.778   6.556   0.985
 3280SOL     OW10738   5.051   4.374   4.137
 3280SOL    HW110739   5.075   4.459   4.183
 3280SOL    HW210740   5.018   4.307   4.204
 3281SOL     OW10741   0.144   4.647   1.115
 3281SOL    HW110742   0.172   4.738   1.086
 3281SOL    HW210743   0.131   4.589   1.035
 3282SOL     OW10744   0.295   3.750   5.237
 3282SOL    HW110745   0.361   3.704   5.296
 3282SOL    HW210746   0.323   3.845   5.221
 3283SOL     OW10747   4.066   1.130   1.267
 3283SOL    HW110748   4.110   1.041   1.273
 3283SOL    HW210749   4.117   1.189   1.205
 3284SOL     OW10750   0.958   5.273   4.826
 3284SOL    HW110751   1.046   5.294   4.785
 3284SOL    HW210752   0.972   5.220   4.910
 3285SOL     OW10753   5.829   1.870   4.867
 3285SOL    HW110754   5.836   1.771   4.873
 3285SOL    HW210755   5.790   1.906   4.953
 3286SOL     OW10756   3.334   2.596   1.706
 3286SOL    HW110757   3.412   2.658   1.702
 3286SOL    HW210758   3.331   2.542   1.621
 3287SOL     OW10759   0.526   0.200   0.183
 3287SOL    HW110760   0.478   0.125   0.231
 3287SOL    HW210761   0.602   0.162   0.131
 3288SOL     OW10762   1.603   6.612   0.880
 3288SOL    HW110763   1.664   6.662   0.941
 3288SOL    HW210764   1.524   6.669   0.858
 3289SOL     OW10765   2.647   1.954   6.489
 3289SOL    HW110766   2.556   1.981   6.521
 3289SOL    HW210767   2.703   2.036   6.476
 3290SOL     OW10768   0.128   5.505   0.789
 3290SOL    HW110769   0.113   5.509   0.690
 3290SOL    HW210770   0.043   5.479   0.834
 3291SOL     OW10771   3.679   0.650   5.665
 3291SOL    HW110772   3.647   0.569   5.714
 3291SOL    HW210773   3.702   0.625   5.571
 3292SOL     OW10774   6.963   1.211   0.985
 3292SOL    HW110775   0.004   1.137   0.985
 3292SOL    HW210776   6.999   1.288   1.038
 3293SOL     OW10777   6.797   4.913   1.736
 3293SOL    HW110778   6.786   4.932   1.639
 3293SOL    HW210779   6.707   4.911   1.780
 3294SOL     OW10780   5.516   1.828   5.684
 3294SOL    HW110781   5.443   1.762   5.667
 3294SOL    HW210782   5.479   1.905   5.737
 3295SOL     OW10783   1.740   3.187   0.935
 3295SOL    HW110784   1.786   3.275   0.926
 3295SOL    HW210785   1.804   3.114   0.911
 3296SOL     OW10786   6.951   0.550   4.643
 3296SOL    HW110787   6.936   0.452   4.638
 3296SOL    HW210788   6.926   0.583   4.734
 3297SOL     OW10789   3.443   1.714   4.929
 3297SOL    HW110790   3.361   1.728   4.873
 3297SOL    HW210791   3.508   1.788   4.910
 3298SOL     OW10792   6.671   2.808   5.720
 3298SOL    HW110793   6.613   2.776   5.794
 3298SOL    HW210794   6.708   2.899   5.742
 3299SOL     OW10795   4.490   6.001   3.090
 3299SOL    HW110796   4.478   6.097   3.064
 3299SOL    HW210797   4.560   5.959   3.032
 3300SOL     OW10798   1.918   0.505   5.648
 3300SOL    HW110799   1.937   0.597   5.681
 3300SOL    HW210800   1.837   0.469   5.694
 3301SOL     OW10801   1.612   3.934   3.270
 3301SOL    HW110802   1.632   3.988   3.188
 3301SOL    HW210803   1.555   3.988   3.331
 3302SOL     OW10804   1.705   4.384   6.924
 3302SOL    HW110805   1.623   4.436   6.948
 3302SOL    HW210806   1.786   4.440   6.941
 3303SOL     OW10807   3.679   3.321   0.409
 3303SOL    HW110808   3.590   3.280   0.387
 3303SOL    HW210809   3.707   3.293   0.501
 3304SOL     OW10810   2.153   5.116   6.031
 3304SOL    HW110811   2.177   5.195   6.087
 3304SOL    HW210812   2.187   5.130   5.938
 3305SOL     OW10813   3.391   0.513   1.850
 3305SOL    HW110814   3.353   0.421   1.857
 3305SOL    HW210815   3.329   0.578   1.893
 3306SOL     OW10816   1.178   5.977   5.749
 3306SOL    HW110817   1.207   5.898   5.802
 3306SOL    HW210818   1.258   6.023   5.710
 3307SOL     OW10819   1.028   6.871   5.785
 3307SOL    HW110820   1.066   6.813   5.857
 3307SOL    HW210821   0.976   6.946   5.827
 3308SOL     OW10822   3.781   5.124   1.199
 3308SOL    HW110823   3.706   5.082   1.148
 3308SOL    HW210824   3.864   5.070   1.186
 3309SOL     OW10825   5.777   4.443   3.559
 3309SOL    HW110826   5.687   4.486   3.569
 3309SOL    HW210827   5.765   4.347   3.533
 3310SOL     OW10828   0.209   4.248   4.715
 3310SOL    HW110829   0.248   4.168   4.669
 3310SOL    HW210830   0.210   4.325   4.652
 3311SOL     OW10831   3.443   3.109   1.100
 3311SOL    HW110832   3.365   3.171   1.096
 3311SOL    HW210833   3.411   3.017   1.124
 3312SOL     OW10834   4.002   2.885   5.859
 3312SOL    HW110835   4.051   2.904   5.944
 3312SOL    HW210836   4.067   2.860   5.787
 3313SOL     OW10837   0.575   0.597   3.332
 3313SOL    HW110838   0.539   0.634   3.246
 3313SOL    HW210839   0.641   0.525   3.311
 3314SOL     OW10840   2.919   0.429   2.338
 3314SOL    HW110841   3.016   0.449   2.351
 3314SOL    HW210842   2.865   0.510   2.359
 3315SOL     OW10843   0.435   4.885   5.370
 3315SOL    HW110844   0.427   4.802   5.314
 3315SOL    HW210845   0.463   4.962   5.313
 3316SOL     OW10846   3.727   1.209   5.268
 3316SOL    HW110847   3.789   1.135   5.293
 3316SOL    HW210848   3.778   1.279   5.217
 3317SOL     OW10849   5.594   2.113   2.409
 3317SOL    HW110850   5.497   2.095   2.425
 3317SOL    HW210851   5.606   2.209   2.384
 3318SOL     OW10852   2.071   0.582   6.438
 3318SOL    HW110853   2.162   0.542   6.424
 3318SOL    HW210854   2.024   0.534   6.512
 3319SOL     OW10855   6.281   0.007   3.057
 3319SOL    HW110856   6.229   0.049   3.132
 3319SOL    HW210857   6.378   0.003   3.082
 3320SOL     OW10858   6.559   0.475   0.131
 3320SOL    HW110859   6.649   0.478   0.174
 3320SOL    HW210860   6.563   0.417   0.049
 3321SOL     OW10861   6.052   1.425   0.905
 3321SOL    HW110862   5.986   1.363   0.862
 3321SOL    HW210863   6.142   1.412   0.864
 3322SOL     OW10864   6.828   3.009   0.929
 3322SOL    HW110865   6.884   3.090   0.944
 3322SOL    HW210866   6.756   3.005   0.998
 3323SOL     OW10867   2.523   1.586   0.813
 3323SOL    HW110868   2.516   1.631   0.902
 3323SOL    HW210869   2.609   1.535   0.808
 3324SOL     OW10870   4.373   5.222   5.026
 3324SOL    HW110871   4.282   5.179   5.032
 3324SOL    HW210872   4.417   5.219   5.116
 3325SOL     OW10873   0.387   3.366   6.311
 3325SOL    HW110874   0.352   3.275   6.333
 3325SOL    HW210875   0.319   3.416   6.256
 3326SOL     OW10876   4.838   1.499   2.122
 3326SOL    HW110877   4.788   1.573   2.078
 3326SOL    HW210878   4.816   1.412   2.078
 3327SOL     OW10879   2.233   5.848   1.415
 3327SOL    HW110880   2.140   5.837   1.378
 3327SOL    HW210881   2.230   5.835   1.514
 3328SOL     OW10882   3.417   1.966   1.178
 3328SOL    HW110883   3.464   1.941   1.263
 3328SOL    HW210884   3.439   1.899   1.107
 3329SOL     OW10885   6.546   0.047   5.133
 3329SOL    HW110886   6.580   0.141   5.133
 3329SOL    HW210887   6.448   0.047   5.152
 3330SOL     OW10888   6.340   3.576   2.214
 3330SOL    HW110889   6.325   3.630   2.297
 3330SOL    HW210890   6.336   3.637   2.134
 3331SOL     OW10891   2.588   2.588   1.165
 3331SOL    HW110892   2.522   2.651   1.125
 3331SOL    HW210893   2.600   2.609   1.262
 3332SOL     OW10894   5.710   5.739   0.284
 3332SOL    HW110895   5.634   5.733   0.349
 3332SOL    HW210896   5.732   5.835   0.268
 3333SOL     OW10897   4.473   5.082   6.366
 3333SOL    HW110898   4.469   5.116   6.460
 3333SOL    HW210899   4.403   5.012   6.353
 3334SOL     OW10900   3.058   3.383   1.573
 3334SOL    HW110901   3.095   3.291   1.560
 3334SOL    HW210902   3.127   3.450   1.543
 3335SOL     OW10903   4.487   5.840   5.504
 3335SOL    HW110904   4.515   5.755   5.549
 3335SOL    HW210905   4.512   5.837   5.408
 3336SOL     OW10906   3.090   4.993   5.541
 3336SOL    HW110907   3.150   5.042   5.478
 3336SOL    HW210908   3.116   4.897   5.545
 3337SOL     OW10909   3.310   2.428   1.469
 3337SOL    HW110910   3.245   2.489   1.424
 3337SOL    HW210911   3.272   2.335   1.472
 3338SOL     OW10912   6.046   3.305   1.297
 3338SOL    HW110913   6.119   3.243   1.327
 3338SOL    HW210914   5.964   3.252   1.275
 3339SOL     OW10915   0.014   6.372   0.002
 3339SOL    HW110916   0.025   6.462   0.044
 3339SOL    HW210917   6.977   6.316   0.057
 3340SOL     OW10918   3.810   6.986   1.837
 3340SOL    HW110919   3.742   6.913   1.837
 3340SOL    HW210920   3.849   6.995   1.929
 3341SOL     OW10921   1.086   6.827   3.733
 3341SOL    HW110922   1.098   6.898   3.803
 3341SOL    HW210923   1.059   6.742   3.777
 3342SOL     OW10924   2.174   0.088   3.785
 3342SOL    HW110925   2.270   0.075   3.758
 3342SOL    HW210926   2.171   0.126   3.878
 3343SOL     OW10927   4.836   3.090   0.142
 3343SOL    HW110928   4.918   3.109   0.196
 3343SOL    HW210929   4.793   3.176   0.115
 3344SOL     OW10930   5.617   4.140   4.909
 3344SOL    HW110931   5.678   4.102   4.978
 3344SOL    HW210932   5.528   4.159   4.950
 3345SOL     OW10933   2.506   3.809   5.993
 3345SOL    HW110934   2.595   3.853   6.004
 3345SOL    HW210935   2.436   3.862   6.041
 3346SOL     OW10936   1.139   1.029   1.945
 3346SOL    HW110937   1.203   1.106   1.940
 3346SOL    HW210938   1.128   1.001   2.041
 3347SOL     OW10939   6.772   4.489   3.705
 3347SOL    HW110940   6.812   4.409   3.750
 3347SOL    HW210941   6.829   4.515   3.627
 3348SOL     OW10942   3.256   2.934   3.410
 3348SOL    HW110943   3.224   2.986   3.331
 3348SOL    HW210944   3.332   2.875   3.382
 3349SOL     OW10945   0.412   4.527   4.440
 3349SOL    HW110946   0.504   4.518   4.478
 3349SOL    HW210947   0.377   4.437   4.413
 3350SOL     OW10948   1.318   1.628   6.415
 3350SOL    HW110949   1.318   1.565   6.493
 3350SOL    HW210950   1.335   1.577   6.331
 3351SOL     OW10951   5.012   0.753   2.085
 3351SOL    HW110952   5.064   0.677   2.125
 3351SOL    HW210953   4.916   0.744   2.110
 3352SOL     OW10954   0.019   3.387   0.120
 3352SOL    HW110955   6.997   3.301   0.138
 3352SOL    HW210956   0.112   3.382   0.154
 3353SOL     OW10957   1.537   6.859   2.042
 3353SOL    HW110958   1.488   6.844   1.956
 3353SOL    HW210959   1.568   6.771   2.078
 3354SOL     OW10960   0.027   2.701   3.894
 3354SOL    HW110961   0.063   2.618   3.851
 3354SOL    HW210962   0.087   2.729   3.969
 3355SOL     OW10963   1.021   1.426   0.187
 3355SOL    HW110964   1.082   1.354   0.156
 3355SOL    HW210965   1.053   1.514   0.150
 3356SOL     OW10966   2.706   2.977   0.381
 3356SOL    HW110967   2.624   3.011   0.426
 3356SOL    HW210968   2.723   2.883   0.410
 3357SOL     OW10969   2.317   4.816   1.615
 3357SOL    HW110970   2.267   4.867   1.545
 3357SOL    HW210971   2.271   4.729   1.633
 3358SOL     OW10972   4.655   6.175   1.883
 3358SOL    HW110973   4.598   6.143   1.959
 3358SOL    HW210974   4.733   6.226   1.919
 3359SOL     OW10975   0.193   0.608   3.559
 3359SOL    HW110976   0.252   0.687   3.575
 3359SOL    HW210977   0.216   0.566   3.471
 3360SOL     OW10978   0.202   1.034   1.066
 3360SOL    HW110979   0.175   1.096   1.138
 3360SOL    HW210980   0.157   0.945   1.079
 3361SOL     OW10981   6.799   5.036   2.836
 3361SOL    HW110982   6.890   5.061   2.871
 3361SOL    HW210983   6.736   5.028   2.913
 3362SOL     OW10984   2.976   1.270   5.011
 3362SOL    HW110985   2.997   1.201   4.942
 3362SOL    HW210986   3.058   1.325   5.029
 3363SOL     OW10987   0.305   0.335   6.305
 3363SOL    HW110988   0.404   0.325   6.309
 3363SOL    HW210989   0.262   0.245   6.302
 3364SOL     OW10990   0.819   5.061   5.564
 3364SOL    HW110991   0.882   5.096   5.633
 3364SOL    HW210992   0.728   5.052   5.604
 3365SOL     OW10993   0.412   2.575   4.376
 3365SOL    HW110994   0.455   2.572   4.286
 3365SOL    HW210995   0.399   2.671   4.404
 3366SOL     OW10996   6.167   0.816   4.435
 3366SOL    HW110997   6.118   0.854   4.513
 3366SOL    HW210998   6.264   0.810   4.456
 3367SOL     OW10999   2.151   2.792   1.634
 3367SOL    HW111000   2.127   2.777   1.730
 3367SOL    HW211001   2.234   2.848   1.628
 3368SOL     OW11002   0.028   5.560   6.627
 3368SOL    HW111003   7.004   5.573   6.541
 3368SOL    HW211004   0.123   5.533   6.607
 3369SOL     OW11005   3.285   1.934   6.610
 3369SOL    HW111006   3.367   1.941   6.553
 3369SOL    HW211007   3.313   1.930   6.706
 3370SOL     OW11008   6.333   6.305   5.178
 3370SOL    HW111009   6.415   6.361   5.185
 3370SOL    HW211010   6.358   6.212   5.150
 3371SOL     OW11011   1.334   4.427   2.989
 3371SOL    HW111012   1.396   4.356   2.955
 3371SOL    HW211013   1.245   4.387   3.009
 3372SOL     OW11014   0.567   1.653   2.149
 3372SOL    HW111015   0.665   1.636   2.140
 3372SOL    HW211016   0.538   1.637   2.243
 3373SOL     OW11017   6.777   1.509   4.091
 3373SOL    HW111018   6.871   1.476   4.080
 3373SOL    HW211019   6.778   1.609   4.100
 3374SOL     OW11020   3.480   5.669   4.786
 3374SOL    HW111021   3.578   5.663   4.801
 3374SOL    HW211022   3.448   5.583   4.746
 3375SOL     OW11023   4.288   4.694   4.716
 3375SOL    HW111024   4.188   4.694   4.716
 3375SOL    HW211025   4.321   4.640   4.793
 3376SOL     OW11026   4.064   3.695   2.760
 3376SOL    HW111027   4.120   3.629   2.709
 3376SOL    HW211028   3.999   3.646   2.818
 3377SOL     OW11029   0.603   6.165   4.624
 3377SOL    HW111030   0.605   6.133   4.719
 3377SOL    HW211031   0.532   6.235   4.615
 3378SOL     OW11032   6.582   0.814   1.636
 3378SOL    HW111033   6.531   0.757   1.572
 3378SOL    HW211034   6.679   0.814   1.610
 3379SOL     OW11035   0.493   4.623   6.191
 3379SOL    HW111036   0.487   4.720   6.168
 3379SOL    HW211037   0.440   4.606   6.274
 3380SOL     OW11038   6.632   5.577   6.318
 3380SOL    HW111039   6.564   5.604   6.387
 3380SOL    HW211040   6.620   5.633   6.236
 3381SOL     OW11041   1.825   2.000   0.316
 3381SOL    HW111042   1.813   2.075   0.382
 3381SOL    HW211043   1.827   2.038   0.223
 3382SOL     OW11044   0.751   1.606   0.598
 3382SOL    HW111045   0.685   1.588   0.525
 3382SOL    HW211046   0.709   1.667   0.666
 3383SOL     OW11047   5.517   5.027   2.326
 3383SOL    HW111048   5.490   4.933   2.305
 3383SOL    HW211049   5.570   5.065   2.250
 3384SOL     OW11050   3.292   2.979   4.924
 3384SOL    HW111051   3.244   2.958   5.009
 3384SOL    HW211052   3.389   2.994   4.943
 3385SOL     OW11053   0.128   3.897   3.918
 3385SOL    HW111054   0.096   3.899   4.013
 3385SOL    HW211055   0.222   3.931   3.913
 3386SOL     OW11056   6.015   3.686   5.758
 3386SOL    HW111057   6.091   3.679   5.694
 3386SOL    HW211058   5.929   3.683   5.708
 3387SOL     OW11059   2.322   1.320   2.832
 3387SOL    HW111060   2.250   1.273   2.781
 3387SOL    HW211061   2.301   1.418   2.836
 3388SOL     OW11062   5.253   3.591   1.307
 3388SOL    HW111063   5.237   3.516   1.243
 3388SOL    HW211064   5.351   3.597   1.327
 3389SOL     OW11065   4.685   4.465   4.354
 3389SOL    HW111066   4.712   4.466   4.451
 3389SOL    HW211067   4.604   4.522   4.342
 3390SOL     OW11068   4.851   3.705   5.778
 3390SOL    HW111069   4.920   3.707   5.850
 3390SOL    HW211070   4.761   3.729   5.815
 3391SOL     OW11071   5.012   1.925   4.818
 3391SOL    HW111072   5.094   1.868   4.817
 3391SOL    HW211073   5.034   2.015   4.857
 3392SOL     OW11074   2.730   1.002   3.646
 3392SOL    HW111075   2.664   0.948   3.699
 3392SOL    HW211076   2.694   1.094   3.633
 3393SOL     OW11077   6.567   6.491   0.859
 3393SOL    HW111078   6.633   6.565   0.844
 3393SOL    HW211079   6.474   6.526   0.846
 3394SOL     OW11080   5.918   3.640   1.258
 3394SOL    HW111081   6.015   3.631   1.235
 3394SOL    HW211082   5.895   3.577   1.332
 3395SOL     OW11083   6.751   2.845   4.160
 3395SOL    HW111084   6.768   2.784   4.083
 3395SOL    HW211085   6.666   2.895   4.145
 3396SOL     OW11086   0.064   2.964   3.557
 3396SOL    HW111087   0.033   2.998   3.468
 3396SOL    HW211088   0.107   2.874   3.546
 3397SOL     OW11089   2.965   1.129   5.529
 3397SOL    HW111090   2.971   1.041   5.577
 3397SOL    HW211091   3.016   1.123   5.443
 3398SOL     OW11092   1.158   6.707   4.446
 3398SOL    HW111093   1.131   6.665   4.359
 3398SOL    HW211094   1.115   6.658   4.522
 3399SOL     OW11095   4.984   4.330   3.892
 3399SOL    HW111096   4.995   4.362   3.986
 3399SOL    HW211097   4.908   4.265   3.888
 3400SOL     OW11098   4.277   1.354   5.534
 3400SOL    HW111099   4.295   1.326   5.628
 3400SOL    HW211100   4.338   1.429   5.509
 3401SOL     OW11101   0.273   3.903   0.901
 3401SOL    HW111102   0.248   3.940   0.811
 3401SOL    HW211103   0.316   3.974   0.955
 3402SOL     OW11104   4.749   5.909   0.978
 3402SOL    HW111105   4.841   5.874   0.962
 3402SOL    HW211106   4.690   5.834   1.009
 3403SOL     OW11107   3.788   0.628   4.755
 3403SOL    HW111108   3.884   0.651   4.739
 3403SOL    HW211109   3.731   0.709   4.739
 3404SOL     OW11110   3.812   1.275   0.731
 3404SOL    HW111111   3.865   1.356   0.756
 3404SOL    HW211112   3.802   1.270   0.632
 3405SOL     OW11113   6.510   3.338   4.904
 3405SOL    HW111114   6.417   3.359   4.935
 3405SOL    HW211115   6.566   3.421   4.910
 3406SOL     OW11116   1.462   4.274   1.744
 3406SOL    HW111117   1.554   4.312   1.751
 3406SOL    HW211118   1.463   4.197   1.680
 3407SOL     OW11119   1.734   5.001   1.392
 3407SOL    HW111120   1.756   5.017   1.296
 3407SOL    HW211121   1.693   4.910   1.403
 3408SOL     OW11122   4.689   4.264   4.137
 3408SOL    HW111123   4.768   4.207   4.160
 3408SOL    HW211124   4.658   4.313   4.219
 3409SOL     OW11125   3.549   6.684   5.390
 3409SOL    HW111126   3.528   6.762   5.330
 3409SOL    HW211127   3.593   6.717   5.473
 3410SOL     OW11128   5.958   6.396   6.731
 3410SOL    HW111129   6.000   6.330   6.792
 3410SOL    HW211130   6.023   6.424   6.660
 3411SOL     OW11131   6.855   3.042   2.228
 3411SOL    HW111132   6.840   2.987   2.146
 3411SOL    HW211133   6.781   3.026   2.294
 3412SOL     OW11134   4.463   2.894   6.748
 3412SOL    HW111135   4.365   2.914   6.744
 3412SOL    HW211136   4.514   2.973   6.713
 3413SOL     OW11137   4.361   1.335   2.758
 3413SOL    HW111138   4.446   1.375   2.793
 3413SOL    HW211139   4.355   1.353   2.660
 3414SOL     OW11140   2.501   1.117   5.198
 3414SOL    HW111141   2.530   1.189   5.136
 3414SOL    HW211142   2.536   1.029   5.166
 3415SOL     OW11143   1.307   4.403   4.869
 3415SOL    HW111144   1.399   4.424   4.835
 3415SOL    HW211145   1.310   4.317   4.921
 3416SOL     OW11146   6.423   4.683   6.283
 3416SOL    HW111147   6.330   4.693   6.248
 3416SOL    HW211148   6.421   4.634   6.370
 3417SOL     OW11149   6.364   6.097   2.740
 3417SOL    HW111150   6.423   6.121   2.817
 3417SOL    HW211151   6.283   6.048   2.774
 3418SOL     OW11152   4.545   0.478   4.769
 3418SOL    HW111153   4.495   0.549   4.720
 3418SOL    HW211154   4.642   0.481   4.744
 3419SOL     OW11155   3.163   5.660   5.849
 3419SOL    HW111156   3.262   5.661   5.834
 3419SOL    HW211157   3.124   5.576   5.809
 3420SOL     OW11158   5.467   2.348   3.751
 3420SOL    HW111159   5.536   2.339   3.679
 3420SOL    HW211160   5.448   2.258   3.791
 3421SOL     OW11161   6.329   0.205   6.003
 3421SOL    HW111162   6.288   0.155   6.079
 3421SOL    HW211163   6.314   0.156   5.917
 3422SOL     OW11164   2.369   6.725   1.228
 3422SOL    HW111165   2.383   6.710   1.130
 3422SOL    HW211166   2.381   6.639   1.277
 3423SOL     OW11167   2.136   0.134   0.436
 3423SOL    HW111168   2.189   0.137   0.352
 3423SOL    HW211169   2.192   0.164   0.513
 3424SOL     OW11170   3.504   0.388   2.416
 3424SOL    HW111171   3.577   0.455   2.427
 3424SOL    HW211172   3.545   0.297   2.408
 3425SOL     OW11173   4.866   4.420   2.451
 3425SOL    HW111174   4.817   4.334   2.460
 3425SOL    HW211175   4.928   4.416   2.373
 3426SOL     OW11176   3.477   2.898   0.165
 3426SOL    HW111177   3.475   2.979   0.223
 3426SOL    HW211178   3.491   2.925   0.070
 3427SOL     OW11179   6.637   6.352   0.094
 3427SOL    HW111180   6.608   6.402   0.013
 3427SOL    HW211181   6.706   6.284   0.069
 3428SOL     OW11182   3.942   4.722   1.579
 3428SOL    HW111183   3.910   4.762   1.665
 3428SOL    HW211184   3.988   4.792   1.524
 3429SOL     OW11185   0.487   1.522   0.042
 3429SOL    HW111186   0.499   1.608   7.018
 3429SOL    HW211187   0.474   1.447   7.002
 3430SOL     OW11188   0.458   6.939   6.278
 3430SOL    HW111189   0.488   6.990   6.198
 3430SOL    HW211190   0.432   6.847   6.251
 3431SOL     OW11191   2.623   6.684   0.812
 3431SOL    HW111192   2.606   6.781   0.797
 3431SOL    HW211193   2.720   6.664   0.794
 3432SOL     OW11194   2.753   2.420   6.169
 3432SOL    HW111195   2.666   2.423   6.121
 3432SOL    HW211196   2.826   2.454   6.109
 3433SOL     OW11197   1.710   0.067   6.398
 3433SOL    HW111198   1.714   0.105   6.305
 3433SOL    HW211199   1.653   0.126   6.455
 3434SOL     OW11200   3.742   2.507   1.106
 3434SOL    HW111201   3.717   2.411   1.105
 3434SOL    HW211202   3.731   2.546   1.014
 3435SOL     OW11203   0.316   2.100   2.165
 3435SOL    HW111204   0.340   2.191   2.132
 3435SOL    HW211205   0.314   2.100   2.265
 3436SOL     OW11206   4.145   6.482   5.225
 3436SOL    HW111207   4.185   6.536   5.151
 3436SOL    HW211208   4.214   6.419   5.261
 3437SOL     OW11209   4.436   0.516   6.328
 3437SOL    HW111210   4.432   0.509   6.428
 3437SOL    HW211211   4.506   0.453   6.293
 3438SOL     OW11212   1.309   2.576   6.441
 3438SOL    HW111213   1.237   2.598   6.375
 3438SOL    HW211214   1.315   2.650   6.509
 3439SOL     OW11215   2.500   0.478   5.140
 3439SOL    HW111216   2.453   0.535   5.207
 3439SOL    HW211217   2.596   0.467   5.167
 3440SOL     OW11218   4.927   3.589   1.196
 3440SOL    HW111219   4.832   3.621   1.197
 3440SOL    HW211220   4.939   3.517   1.263
 3441SOL     OW11221   5.280   0.696   3.340
 3441SOL    HW111222   5.257   0.624   3.404
 3441SOL    HW211223   5.375   0.725   3.353
 3442SOL     OW11224   2.737   4.980   2.627
 3442SOL    HW111225   2.761   4.883   2.625
 3442SOL    HW211226   2.639   4.990   2.609
 3443SOL     OW11227   5.760   0.749   2.518
 3443SOL    HW111228   5.699   0.703   2.583
 3443SOL    HW211229   5.854   0.719   2.535
 3444SOL     OW11230   5.418   4.729   6.967
 3444SOL    HW111231   5.406   4.708   6.870
 3444SOL    HW211232   5.392   4.649   7.021
 3445SOL     OW11233   6.040   4.347   3.984
 3445SOL    HW111234   5.959   4.287   3.984
 3445SOL    HW211235   6.121   4.292   4.002
 3446SOL     OW11236   6.295   0.970   3.275
 3446SOL    HW111237   6.231   0.907   3.318
 3446SOL    HW211238   6.278   1.063   3.309
 3447SOL     OW11239   4.818   4.704   0.934
 3447SOL    HW111240   4.869   4.772   0.986
 3447SOL    HW211241   4.763   4.749   0.864
 3448SOL     OW11242   3.484   0.018   0.830
 3448SOL    HW111243   3.535   7.023   0.914
 3448SOL    HW211244   3.422   0.095   0.847
 3449SOL     OW11245   5.328   6.256   3.037
 3449SOL    HW111246   5.234   6.224   3.033
 3449SOL    HW211247   5.333   6.351   3.004
 3450SOL     OW11248   0.946   2.775   0.788
 3450SOL    HW111249   1.001   2.748   0.866
 3450SOL    HW211250   0.969   2.719   0.709
 3451SOL     OW11251   0.287   5.414   3.260
 3451SOL    HW111252   0.294   5.471   3.342
 3451SOL    HW211253   0.292   5.318   3.286
 3452SOL     OW11254   5.912   1.596   0.100
 3452SOL    HW111255   5.927   1.589   0.199
 3452SOL    HW211256   5.991   1.560   0.052
 3453SOL     OW11257   6.584   5.960   5.451
 3453SOL    HW111258   6.657   5.969   5.383
 3453SOL    HW211259   6.624   5.935   5.540
 3454SOL     OW11260   1.933   0.279   5.919
 3454SOL    HW111261   1.885   0.360   5.887
 3454SOL    HW211262   1.994   0.303   5.995
 3455SOL     OW11263   1.618   3.115   4.441
 3455SOL    HW111264   1.715   3.109   4.465
 3455SOL    HW211265   1.590   3.030   4.396
 3456SOL     OW11266   5.395   6.360   1.872
 3456SOL    HW111267   5.438   6.437   1.919
 3456SOL    HW211268   5.426   6.357   1.777
 3457SOL     OW11269   2.450   5.419   4.112
 3457SOL    HW111270   2.456   5.342   4.050
 3457SOL    HW211271   2.502   5.400   4.195
 3458SOL     OW11272   5.273   6.795   0.041
 3458SOL    HW111273   5.224   6.871   7.024
 3458SOL    HW211274   5.325   6.830   0.119
 3459SOL     OW11275   6.976   4.373   3.498
 3459SOL    HW111276   0.010   4.340   3.571
 3459SOL    HW211277   6.980   4.310   3.421
 3460SOL     OW11278   3.094   3.600   0.649
 3460SOL    HW111279   3.078   3.698   0.654
 3460SOL    HW211280   3.024   3.552   0.700
 3461SOL     OW11281   4.765   5.562   3.771
 3461SOL    HW111282   4.672   5.592   3.750
 3461SOL    HW211283   4.818   5.640   3.803
 3462SOL     OW11284   6.397   3.751   2.017
 3462SOL    HW111285   6.493   3.765   1.991
 3462SOL    HW211286   6.368   3.823   2.081
 3463SOL     OW11287   1.132   3.296   2.631
 3463SOL    HW111288   1.222   3.255   2.644
 3463SOL    HW211289   1.093   3.320   2.720
 3464SOL     OW11290   6.037   2.352   6.901
 3464SOL    HW111291   6.050   2.263   6.945
 3464SOL    HW211292   6.075   2.349   6.809
 3465SOL     OW11293   1.300   3.314   2.171
 3465SOL    HW111294   1.314   3.221   2.207
 3465SOL    HW211295   1.234   3.362   2.228
 3466SOL     OW11296   6.466   5.005   5.742
 3466SOL    HW111297   6.546   5.032   5.688
 3466SOL    HW211298   6.493   4.931   5.804
 3467SOL     OW11299   1.617   1.601   0.603
 3467SOL    HW111300   1.545   1.659   0.565
 3467SOL    HW211301   1.706   1.633   0.572
 3468SOL     OW11302   5.828   1.473   2.981
 3468SOL    HW111303   5.884   1.505   3.056
 3468SOL    HW211304   5.766   1.546   2.952
 3469SOL     OW11305   5.125   0.609   4.949
 3469SOL    HW111306   5.105   0.528   5.004
 3469SOL    HW211307   5.040   0.659   4.931
 3470SOL     OW11308   0.267   2.754   2.331
 3470SOL    HW111309   0.215   2.668   2.326
 3470SOL    HW211310   0.310   2.772   2.243
 3471SOL     OW11311   4.580   4.460   3.498
 3471SOL    HW111312   4.567   4.411   3.412
 3471SOL    HW211313   4.619   4.399   3.566
 3472SOL     OW11314   3.583   1.212   1.765
 3472SOL    HW111315   3.613   1.117   1.757
 3472SOL    HW211316   3.490   1.220   1.728
 3473SOL     OW11317   5.836   3.147   2.641
 3473SOL    HW111318   5.798   3.205   2.713
 3473SOL    HW211319   5.836   3.197   2.555
 3474SOL     OW11320   0.065   4.107   2.793
 3474SOL    HW111321   0.114   4.097   2.707
 3474SOL    HW211322   7.012   4.167   2.780
 3475SOL     OW11323   0.844   4.583   4.857
 3475SOL    HW111324   0.883   4.666   4.818
 3475SOL    HW211325   0.915   4.512   4.862
 3476SOL     OW11326   1.830   1.938   2.469
 3476SOL    HW111327   1.786   1.868   2.413
 3476SOL    HW211328   1.870   1.896   2.550
 3477SOL     OW11329   0.917   4.086   0.976
 3477SOL    HW111330   0.895   4.031   0.895
 3477SOL    HW211331   1.015   4.108   0.975
 3478SOL     OW11332   2.727   6.264   6.927
 3478SOL    HW111333   2.658   6.323   6.886
 3478SOL    HW211334   2.734   6.179   6.875
 3479SOL     OW11335   0.762   1.044   3.038
 3479SOL    HW111336   0.740   1.046   3.135
 3479SOL    HW211337   0.722   1.124   2.992
 3480SOL     OW11338   0.643   6.481   5.390
 3480SOL    HW111339   0.671   6.470   5.485
 3480SOL    HW211340   0.548   6.452   5.380
 3481SOL     OW11341   5.473   0.750   0.373
 3481SOL    HW111342   5.523   0.664   0.363
 3481SOL    HW211343   5.440   0.759   0.467
 3482SOL     OW11344   6.084   1.650   2.376
 3482SOL    HW111345   6.028   1.567   2.383
 3482SOL    HW211346   6.047   1.709   2.304
 3483SOL     OW11347   5.387   1.985   2.752
 3483SOL    HW111348   5.364   1.962   2.658
 3483SOL    HW211349   5.478   1.951   2.774
 3484SOL     OW11350   1.356   2.981   0.020
 3484SOL    HW111351   1.437   2.931   0.051
 3484SOL    HW211352   1.303   2.922   6.985
 3485SOL     OW11353   1.081   2.146   4.449
 3485SOL    HW111354   1.001   2.206   4.451
 3485SOL    HW211355   1.155   2.191   4.399
 3486SOL     OW11356   1.411   0.390   3.784
 3486SOL    HW111357   1.355   0.363   3.705
 3486SOL    HW211358   1.438   0.309   3.836
 3487SOL     OW11359   6.394   2.300   0.249
 3487SOL    HW111360   6.336   2.373   0.286
 3487SOL    HW211361   6.411   2.232   0.320
 3488SOL     OW11362   5.833   0.941   5.351
 3488SOL    HW111363   5.855   1.020   5.408
 3488SOL    HW211364   5.853   0.961   5.256
 3489SOL     OW11365   3.834   0.015   2.109
 3489SOL    HW111366   3.914   0.073   2.112
 3489SOL    HW211367   3.805   7.019   2.202
 3490SOL     OW11368   3.605   4.383   1.457
 3490SOL    HW111369   3.586   4.469   1.408
 3490SOL    HW211370   3.555   4.383   1.544
 3491SOL     OW11371   4.056   3.069   6.082
 3491SOL    HW111372   3.978   3.080   6.144
 3491SOL    HW211373   4.044   3.127   6.002
 3492SOL     OW11374   6.130   4.306   0.533
 3492SOL    HW111375   6.191   4.286   0.610
 3492SOL    HW211376   6.039   4.269   0.552
 3493SOL     OW11377   6.001   3.980   4.080
 3493SOL    HW111378   6.013   4.008   4.175
 3493SOL    HW211379   5.915   4.018   4.045
 3494SOL     OW11380   2.708   0.846   2.166
 3494SOL    HW111381   2.748   0.937   2.173
 3494SOL    HW211382   2.609   0.852   2.177
 3495SOL     OW11383   6.800   4.288   2.212
 3495SOL    HW111384   6.895   4.272   2.185
 3495SOL    HW211385   6.771   4.378   2.180
 3496SOL     OW11386   6.033   5.424   0.734
 3496SOL    HW111387   6.036   5.522   0.713
 3496SOL    HW211388   5.960   5.406   0.800
 3497SOL     OW11389   2.353   1.446   4.037
 3497SOL    HW111390   2.348   1.545   4.055
 3497SOL    HW211391   2.431   1.407   4.086
 3498SOL     OW11392   3.393   1.054   2.183
 3498SOL    HW111393   3.316   1.000   2.148
 3498SOL    HW211394   3.379   1.072   2.280
 3499SOL     OW11395   6.149   4.543   4.457
 3499SOL    HW111396   6.125   4.565   4.552
 3499SOL    HW211397   6.244   4.569   4.440
 3500SOL     OW11398   1.812   3.309   3.176
 3500SOL    HW111399   1.812   3.387   3.114
 3500SOL    HW211400   1.730   3.311   3.233
 3501SOL     OW11401   3.318   0.058   5.716
 3501SOL    HW111402   3.232   0.085   5.760
 3501SOL    HW211403   3.345   6.993   5.749
 3502SOL     OW11404   6.842   2.749   1.659
 3502SOL    HW111405   6.840   2.848   1.672
 3502SOL    HW211406   6.815   2.727   1.566
 3503SOL     OW11407   6.237   6.325   5.446
 3503SOL    HW111408   6.286   6.243   5.474
 3503SOL    HW211409   6.235   6.330   5.346
 3504SOL     OW11410   2.317   0.619   2.238
 3504SOL    HW111411   2.394   0.560   2.210
 3504SOL    HW211412   2.233   0.564   2.240
 3505SOL     OW11413   5.159   4.335   5.404
 3505SOL    HW111414   5.215   4.407   5.445
 3505SOL    HW211415   5.109   4.372   5.326
 3506SOL     OW11416   5.490   4.605   5.033
 3506SOL    HW111417   5.530   4.539   5.097
 3506SOL    HW211418   5.433   4.556   4.967
 3507SOL     OW11419   3.090   0.531   0.762
 3507SOL    HW111420   3.016   0.482   0.809
 3507SOL    HW211421   3.079   0.629   0.777
 3508SOL     OW11422   2.039   1.220   6.087
 3508SOL    HW111423   1.990   1.137   6.059
 3508SOL    HW211424   1.976   1.297   6.086
 3509SOL     OW11425   5.824   6.851   6.906
 3509SOL    HW111426   5.738   6.852   6.959
 3509SOL    HW211427   5.827   6.769   6.850
 3510SOL     OW11428   1.686   0.838   1.769
 3510SOL    HW111429   1.626   0.791   1.704
 3510SOL    HW211430   1.665   0.808   1.862
 3511SOL     OW11431   1.985   4.310   1.757
 3511SOL    HW111432   2.054   4.382   1.763
 3511SOL    HW211433   2.013   4.233   1.814
 3512SOL     OW11434   0.277   4.328   0.745
 3512SOL    HW111435   0.244   4.234   0.748
 3512SOL    HW211436   0.325   4.344   0.659
 3513SOL     OW11437   5.903   2.094   0.600
 3513SOL    HW111438   5.898   1.998   0.628
 3513SOL    HW211439   5.980   2.106   0.538
 3514SOL     OW11440   7.024   0.812   1.772
 3514SOL    HW111441   0.055   0.882   1.728
 3514SOL    HW211442   6.949   0.855   1.822
 3515SOL     OW11443   4.771   6.152   3.058
 3515SOL    HW111444   4.711   6.084   3.017
 3515SOL    HW211445   4.784   6.132   3.155
 3516SOL     OW11446   4.420   6.561   0.690
 3516SOL    HW111447   4.367   6.504   0.753
 3516SOL    HW211448   4.412   6.657   0.717
 3517SOL     OW11449   6.792   1.058   1.420
 3517SOL    HW111450   6.773   0.961   1.438
 3517SOL    HW211451   6.766   1.112   1.500
 3518SOL     OW11452   5.395   2.749   5.229
 3518SOL    HW111453   5.378   2.665   5.280
 3518SOL    HW211454   5.491   2.753   5.201
 3519SOL     OW11455   1.487   0.285   5.681
 3519SOL    HW111456   1.483   0.220   5.605
 3519SOL    HW211457   1.400   0.333   5.689
 3520SOL     OW11458   3.402   6.266   0.057
 3520SOL    HW111459   3.428   6.349   0.008
 3520SOL    HW211460   3.310   6.238   0.029
 3521SOL     OW11461   4.483   2.805   0.002
 3521SOL    HW111462   4.539   2.876   0.045
 3521SOL    HW211463   4.453   2.835   6.937
 3522SOL     OW11464   0.296   5.700   0.208
 3522SOL    HW111465   0.226   5.771   0.206
 3522SOL    HW211466   0.316   5.671   0.114
 3523SOL     OW11467   1.380   4.625   5.054
 3523SOL    HW111468   1.339   4.562   4.987
 3523SOL    HW211469   1.408   4.574   5.135
 3524SOL     OW11470   5.197   2.047   2.064
 3524SOL    HW111471   5.204   1.955   2.101
 3524SOL    HW211472   5.159   2.108   2.133
 3525SOL     OW11473   6.576   3.410   3.793
 3525SOL    HW111474   6.584   3.404   3.694
 3525SOL    HW211475   6.528   3.494   3.818
 3526SOL     OW11476   1.974   6.950   3.646
 3526SOL    HW111477   2.008   6.969   3.554
 3526SOL    HW211478   2.033   6.995   3.713
 3527SOL     OW11479   5.937   3.716   6.524
 3527SOL    HW111480   5.890   3.629   6.510
 3527SOL    HW211481   5.946   3.764   6.437
 3528SOL     OW11482   1.510   6.483   5.431
 3528SOL    HW111483   1.591   6.515   5.482
 3528SOL    HW211484   1.447   6.559   5.419
 3529SOL     OW11485   3.941   6.958   1.053
 3529SOL    HW111486   3.915   6.998   0.965
 3529SOL    HW211487   4.005   6.883   1.038
 3530SOL     OW11488   6.392   5.599   0.851
 3530SOL    HW111489   6.396   5.662   0.929
 3530SOL    HW211490   6.380   5.651   0.767
 3531SOL     OW11491   5.384   2.112   0.450
 3531SOL    HW111492   5.398   2.108   0.549
 3531SOL    HW211493   5.439   2.186   0.411
 3532SOL     OW11494   2.580   0.197   1.893
 3532SOL    HW111495   2.559   0.184   1.989
 3532SOL    HW211496   2.598   0.108   1.850
 3533SOL     OW11497   0.340   1.273   2.271
 3533SOL    HW111498   0.278   1.347   2.244
 3533SOL    HW211499   0.295   1.185   2.254
 3534SOL     OW11500   0.928   1.775   0.471
 3534SOL    HW111501   0.957   1.743   0.381
 3534SOL    HW211502   0.878   1.701   0.517
 3535SOL     OW11503   1.962   5.393   6.166
 3535SOL    HW111504   1.934   5.489   6.172
 3535SOL    HW211505   2.059   5.386   6.189
 3536SOL     OW11506   3.281   1.437   2.980
 3536SOL    HW111507   3.240   1.424   2.890
 3536SOL    HW211508   3.308   1.533   2.991
 3537SOL     OW11509   2.109   5.703   2.687
 3537SOL    HW111510   2.063   5.711   2.598
 3537SOL    HW211511   2.198   5.659   2.675
 3538SOL     OW11512   2.160   6.373   5.349
 3538SOL    HW111513   2.155   6.291   5.406
 3538SOL    HW211514   2.160   6.347   5.253
 3539SOL     OW11515   3.742   3.273   5.572
 3539SOL    HW111516   3.757   3.237   5.664
 3539SOL    HW211517   3.723   3.371   5.578
 3540SOL     OW11518   1.894   2.906   4.749
 3540SOL    HW111519   1.825   2.938   4.815
 3540SOL    HW211520   1.917   2.811   4.769
 3541SOL     OW11521   2.122   2.687   5.905
 3541SOL    HW111522   2.144   2.649   5.815
 3541SOL    HW211523   2.190   2.756   5.930
 3542SOL     OW11524   1.282   5.624   3.574
 3542SOL    HW111525   1.278   5.532   3.536
 3542SOL    HW211526   1.344   5.680   3.520
 3543SOL     OW11527   0.441   2.591   4.905
 3543SOL    HW111528   0.453   2.522   4.976
 3543SOL    HW211529   0.518   2.588   4.841
 3544SOL     OW11530   1.858   4.179   6.174
 3544SOL    HW111531   1.788   4.249   6.160
 3544SOL    HW211532   1.893   4.186   6.267
 3545SOL     OW11533   4.357   5.466   6.620
 3545SOL    HW111534   4.341   5.565   6.621
 3545SOL    HW211535   4.275   5.420   6.587
 3546SOL     OW11536   1.768   4.729   3.987
 3546SOL    HW111537   1.743   4.641   4.028
 3546SOL    HW211538   1.706   4.800   4.019
 3547SOL     OW11539   5.910   4.857   3.701
 3547SOL    HW111540   5.897   4.777   3.642
 3547SOL    HW211541   5.998   4.849   3.748
 3548SOL     OW11542   5.550   1.471   6.158
 3548SOL    HW111543   5.503   1.525   6.088
 3548SOL    HW211544   5.646   1.497   6.161
 3549SOL     OW11545   6.417   4.633   5.654
 3549SOL    HW111546   6.490   4.583   5.607
 3549SOL    HW211547   6.365   4.570   5.711
 3550SOL     OW11548   5.097   2.185   2.726
 3550SOL    HW111549   5.015   2.210   2.778
 3550SOL    HW211550   5.138   2.103   2.766
 3551SOL     OW11551   4.007   6.826   2.879
 3551SOL    HW111552   3.933   6.783   2.827
 3551SOL    HW211553   4.091   6.824   2.825
 3552SOL     OW11554   5.133   6.348   1.486
 3552SOL    HW111555   5.197   6.422   1.509
 3552SOL    HW211556   5.156   6.312   1.395
 3553SOL     OW11557   5.702   3.684   1.794
 3553SOL    HW111558   5.735   3.593   1.820
 3553SOL    HW211559   5.780   3.745   1.778
 3554SOL     OW11560   4.018   2.581   1.205
 3554SOL    HW111561   4.050   2.669   1.240
 3554SOL    HW211562   3.919   2.574   1.217
 3555SOL     OW11563   0.949   3.697   3.546
 3555SOL    HW111564   1.027   3.756   3.565
 3555SOL    HW211565   0.967   3.644   3.463
 3556SOL     OW11566   4.077   0.646   4.367
 3556SOL    HW111567   4.173   0.619   4.360
 3556SOL    HW211568   4.051   0.654   4.463
 3557SOL     OW11569   0.499   0.354   3.552
 3557SOL    HW111570   0.492   0.316   3.644
 3557SOL    HW211571   0.515   0.453   3.558
 3558SOL     OW11572   1.487   5.501   0.727
 3558SOL    HW111573   1.446   5.500   0.635
 3558SOL    HW211574   1.432   5.559   0.787
 3559SOL     OW11575   0.937   6.840   4.833
 3559SOL    HW111576   1.010   6.905   4.851
 3559SOL    HW211577   0.880   6.874   4.757
 3560SOL     OW11578   1.223   5.689   1.125
 3560SOL    HW111579   1.251   5.624   1.196
 3560SOL    HW211580   1.135   5.661   1.087
 3561SOL     OW11581   3.812   4.876   5.274
 3561SOL    HW111582   3.897   4.825   5.264
 3561SOL    HW211583   3.832   4.967   5.309
 3562SOL     OW11584   5.291   0.772   4.212
 3562SOL    HW111585   5.311   0.866   4.181
 3562SOL    HW211586   5.310   0.765   4.310
 3563SOL     OW11587   4.978   0.499   1.226
 3563SOL    HW111588   5.016   0.577   1.174
 3563SOL    HW211589   4.901   0.530   1.281
 3564SOL     OW11590   1.436   4.868   4.330
 3564SOL    HW111591   1.503   4.942   4.321
 3564SOL    HW211592   1.483   4.785   4.358
 3565SOL     OW11593   3.736   6.461   4.531
 3565SOL    HW111594   3.648   6.415   4.532
 3565SOL    HW211595   3.758   6.492   4.624
 3566SOL     OW11596   6.567   3.423   6.567
 3566SOL    HW111597   6.499   3.405   6.496
 3566SOL    HW211598   6.525   3.479   6.639
 3567SOL     OW11599   0.997   2.771   0.059
 3567SOL    HW111600   1.006   2.687   0.115
 3567SOL    HW211601   1.068   2.836   0.086
 3568SOL     OW11602   4.904   5.344   3.801
 3568SOL    HW111603   4.850   5.428   3.798
 3568SOL    HW211604   4.891   5.299   3.889
 3569SOL     OW11605   2.771   2.925   6.170
 3569SOL    HW111606   2.712   2.861   6.119
 3569SOL    HW211607   2.850   2.876   6.206
 3570SOL     OW11608   5.713   0.507   4.643
 3570SOL    HW111609   5.631   0.500   4.700
 3570SOL    HW211610   5.755   0.597   4.655
 3571SOL     OW11611   2.214   0.640   4.761
 3571SOL    HW111612   2.286   0.703   4.791
 3571SOL    HW211613   2.133   0.653   4.818
 3572SOL     OW11614   5.521   3.816   2.651
 3572SOL    HW111615   5.516   3.736   2.590
 3572SOL    HW211616   5.474   3.795   2.737
 3573SOL     OW11617   5.835   3.973   2.540
 3573SOL    HW111618   5.836   4.058   2.593
 3573SOL    HW211619   5.842   3.895   2.602
 3574SOL     OW11620   1.384   3.807   0.206
 3574SOL    HW111621   1.354   3.737   0.271
 3574SOL    HW211622   1.473   3.781   0.169
 3575SOL     OW11623   5.144   6.235   1.920
 3575SOL    HW111624   5.167   6.185   1.837
 3575SOL    HW211625   5.198   6.319   1.924
 3576SOL     OW11626   0.899   2.178   0.549
 3576SOL    HW111627   0.916   2.156   0.453
 3576SOL    HW211628   0.801   2.168   0.568
 3577SOL     OW11629   1.853   2.685   6.066
 3577SOL    HW111630   1.857   2.729   6.156
 3577SOL    HW211631   1.943   2.687   6.023
 3578SOL     OW11632   4.621   2.078   1.252
 3578SOL    HW111633   4.622   2.010   1.326
 3578SOL    HW211634   4.676   2.157   1.278
 3579SOL     OW11635   6.873   2.881   2.617
 3579SOL    HW111636   6.829   2.794   2.639
 3579SOL    HW211637   6.919   2.874   2.528
 3580SOL     OW11638   6.600   3.337   0.214
 3580SOL    HW111639   6.592   3.369   0.120
 3580SOL    HW211640   6.655   3.254   0.217
 3581SOL     OW11641   0.797   6.450   2.767
 3581SOL    HW111642   0.767   6.437   2.862
 3581SOL    HW211643   0.784   6.546   2.741
 3582SOL     OW11644   2.273   5.069   5.382
 3582SOL    HW111645   2.240   5.046   5.474
 3582SOL    HW211646   2.199   5.055   5.316
 3583SOL     OW11647   1.335   4.423   0.326
 3583SOL    HW111648   1.260   4.377   0.373
 3583SOL    HW211649   1.328   4.522   0.341
 3584SOL     OW11650   5.540   4.743   5.431
 3584SOL    HW111651   5.480   4.792   5.495
 3584SOL    HW211652   5.608   4.806   5.395
 3585SOL     OW11653   3.418   2.032   4.686
 3585SOL    HW111654   3.418   2.054   4.783
 3585SOL    HW211655   3.451   1.939   4.673
 3586SOL     OW11656   6.963   2.353   4.959
 3586SOL    HW111657   6.991   2.437   4.911
 3586SOL    HW211658   0.014   2.320   5.015
 3587SOL     OW11659   2.836   5.477   6.303
 3587SOL    HW111660   2.848   5.378   6.310
 3587SOL    HW211661   2.925   5.521   6.299
 3588SOL     OW11662   6.660   3.566   4.951
 3588SOL    HW111663   6.656   3.609   5.041
 3588SOL    HW211664   6.627   3.631   4.882
 3589SOL     OW11665   6.308   6.960   6.744
 3589SOL    HW111666   6.240   0.007   6.752
 3589SOL    HW211667   6.275   6.878   6.790
 3590SOL     OW11668   0.403   3.565   0.665
 3590SOL    HW111669   0.469   3.636   0.640
 3590SOL    HW211670   0.394   3.500   0.589
 3591SOL     OW11671   5.319   3.467   0.970
 3591SOL    HW111672   5.368   3.391   1.013
 3591SOL    HW211673   5.221   3.451   0.977
 3592SOL     OW11674   0.368   6.883   2.719
 3592SOL    HW111675   0.274   6.907   2.740
 3592SOL    HW211676   0.423   6.884   2.803
 3593SOL     OW11677   0.856   4.410   5.935
 3593SOL    HW111678   0.924   4.441   5.869
 3593SOL    HW211679   0.799   4.488   5.963
 3594SOL     OW11680   5.237   0.646   3.963
 3594SOL    HW111681   5.180   0.709   3.910
 3594SOL    HW211682   5.252   0.683   4.054
 3595SOL     OW11683   5.960   5.776   6.913
 3595SOL    HW111684   5.898   5.698   6.920
 3595SOL    HW211685   5.954   5.832   6.996
 3596SOL     OW11686   4.498   2.446   3.905
 3596SOL    HW111687   4.566   2.373   3.903
 3596SOL    HW211688   4.544   2.535   3.911
 3597SOL     OW11689   1.875   2.837   5.726
 3597SOL    HW111690   1.938   2.905   5.763
 3597SOL    HW211691   1.804   2.818   5.794
 3598SOL     OW11692   1.910   6.166   5.176
 3598SOL    HW111693   1.906   6.078   5.128
 3598SOL    HW211694   1.817   6.199   5.193
 3599SOL     OW11695   4.179   2.349   7.017
 3599SOL    HW111696   4.135   2.370   0.078
 3599SOL    HW211697   4.252   2.415   6.999
 3600SOL     OW11698   0.975   3.409   1.318
 3600SOL    HW111699   1.061   3.427   1.271
 3600SOL    HW211700   0.961   3.477   1.389
 3601SOL     OW11701   5.428   2.035   5.877
 3601SOL    HW111702   5.421   2.088   5.793
 3601SOL    HW211703   5.378   2.081   5.950
 3602SOL     OW11704   1.751   3.190   0.337
 3602SOL    HW111705   1.706   3.170   0.424
 3602SOL    HW211706   1.698   3.259   0.287
 3603SOL     OW11707   3.759   0.982   5.596
 3603SOL    HW111708   3.829   1.052   5.609
 3603SOL    HW211709   3.705   0.971   5.679
 3604SOL     OW11710   5.886   1.012   3.518
 3604SOL    HW111711   5.879   0.916   3.543
 3604SOL    HW211712   5.810   1.063   3.558
 3605SOL     OW11713   1.152   5.450   4.309
 3605SOL    HW111714   1.234   5.461   4.253
 3605SOL    HW211715   1.081   5.511   4.277
 3606SOL     OW11716   1.534   6.791   2.899
 3606SOL    HW111717   1.503   6.755   2.987
 3606SOL    HW211718   1.538   6.717   2.832
 3607SOL     OW11719   5.546   3.080   1.918
 3607SOL    HW111720   5.532   3.169   1.961
 3607SOL    HW211721   5.462   3.053   1.870
 3608SOL     OW11722   5.214   1.544   3.783
 3608SOL    HW111723   5.163   1.624   3.752
 3608SOL    HW211724   5.300   1.537   3.732
 3609SOL     OW11725   1.794   0.114   4.610
 3609SOL    HW111726   1.821   0.062   4.529
 3609SOL    HW211727   1.723   0.180   4.585
 3610SOL     OW11728   1.669   6.903   5.424
 3610SOL    HW111729   1.760   6.944   5.422
 3610SOL    HW211730   1.601   6.974   5.438
 3611SOL     OW11731   4.256   4.743   4.099
 3611SOL    HW111732   4.161   4.766   4.120
 3611SOL    HW211733   4.301   4.824   4.060
 3612SOL     OW11734   6.532   1.116   6.420
 3612SOL    HW111735   6.499   1.209   6.401
 3612SOL    HW211736   6.475   1.075   6.491
 3613SOL     OW11737   3.963   5.149   1.859
 3613SOL    HW111738   3.952   5.212   1.782
 3613SOL    HW211739   3.882   5.092   1.867
 3614SOL     OW11740   3.113   3.406   6.997
 3614SOL    HW111741   3.179   3.476   6.971
 3614SOL    HW211742   3.042   3.447   0.028
 3615SOL     OW11743   5.666   2.787   6.189
 3615SOL    HW111744   5.759   2.749   6.190
 3615SOL    HW211745   5.619   2.757   6.106
 3616SOL     OW11746   1.629   1.009   6.230
 3616SOL    HW111747   1.630   0.959   6.316
 3616SOL    HW211748   1.715   0.994   6.181
 3617SOL     OW11749   4.260   0.263   6.200
 3617SOL    HW111750   4.329   0.254   6.271
 3617SOL    HW211751   4.236   0.173   6.164
 3618SOL     OW11752   2.759   3.453   5.285
 3618SOL    HW111753   2.684   3.517   5.300
 3618SOL    HW211754   2.722   3.363   5.261
 3619SOL     OW11755   5.480   3.334   0.358
 3619SOL    HW111756   5.482   3.345   0.259
 3619SOL    HW211757   5.386   3.316   0.387
 3620SOL     OW11758   6.300   5.688   5.123
 3620SOL    HW111759   6.207   5.705   5.089
 3620SOL    HW211760   6.333   5.770   5.170
 3621SOL     OW11761   3.355   3.175   4.200
 3621SOL    HW111762   3.298   3.127   4.134
 3621SOL    HW211763   3.450   3.172   4.171
 3622SOL     OW11764   1.194   0.246   0.918
 3622SOL    HW111765   1.125   0.305   0.877
 3622SOL    HW211766   1.284   0.285   0.903
 3623SOL     OW11767   0.093   5.339   5.254
 3623SOL    HW111768   0.140   5.288   5.327
 3623SOL    HW211769   0.080   5.434   5.284
 3624SOL     OW11770   1.464   6.951   2.274
 3624SOL    HW111771   1.502   6.918   2.187
 3624SOL    HW211772   1.388   7.013   2.256
 3625SOL     OW11773   0.057   3.369   6.710
 3625SOL    HW111774   0.151   3.393   6.685
 3625SOL    HW211775   0.047   3.269   6.713
 3626SOL     OW11776   0.544   3.448   4.265
 3626SOL    HW111777   0.480   3.507   4.215
 3626SOL    HW211778   0.496   3.367   4.299
 3627SOL     OW11779   4.815   3.362   1.378
 3627SOL    HW111780   4.718   3.343   1.395
 3627SOL    HW211781   4.870   3.316   1.448
 3628SOL     OW11782   1.753   1.249   2.649
 3628SOL    HW111783   1.793   1.183   2.585
 3628SOL    HW211784   1.802   1.245   2.736
 3629SOL     OW11785   1.389   0.728   4.156
 3629SOL    HW111786   1.475   0.740   4.207
 3629SOL    HW211787   1.376   0.806   4.095
 3630SOL     OW11788   6.366   3.078   3.705
 3630SOL    HW111789   6.413   3.133   3.636
 3630SOL    HW211790   6.433   3.024   3.756
 3631SOL     OW11791   1.711   6.529   3.704
 3631SOL    HW111792   1.738   6.435   3.724
 3631SOL    HW211793   1.718   6.546   3.606
 3632SOL     OW11794   4.772   3.862   0.895
 3632SOL    HW111795   4.764   3.940   0.957
 3632SOL    HW211796   4.867   3.852   0.867
 3633SOL     OW11797   4.278   2.360   5.826
 3633SOL    HW111798   4.209   2.337   5.894
 3633SOL    HW211799   4.248   2.440   5.774
 3634SOL     OW11800   1.925   6.384   6.085
 3634SOL    HW111801   1.932   6.414   5.990
 3634SOL    HW211802   2.003   6.420   6.137
 3635SOL     OW11803   2.041   1.570   0.889
 3635SOL    HW111804   1.970   1.511   0.929
 3635SOL    HW211805   2.120   1.514   0.863
 3636SOL     OW11806   0.155   5.633   1.027
 3636SOL    HW111807   0.099   5.587   1.096
 3636SOL    HW211808   0.142   5.589   0.938
 3637SOL     OW11809   1.197   2.715   0.957
 3637SOL    HW111810   1.218   2.809   0.983
 3637SOL    HW211811   1.261   2.685   0.886
 3638SOL     OW11812   6.968   3.772   2.303
 3638SOL    HW111813   6.986   3.843   2.371
 3638SOL    HW211814   6.932   3.691   2.349
 3639SOL     OW11815   3.908   4.525   5.847
 3639SOL    HW111816   3.940   4.581   5.771
 3639SOL    HW211817   3.876   4.436   5.813
 3640SOL     OW11818   5.056   2.131   0.673
 3640SOL    HW111819   4.972   2.077   0.666
 3640SOL    HW211820   5.112   2.096   0.748
 3641SOL     OW11821   5.324   4.927   1.231
 3641SOL    HW111822   5.333   4.828   1.229
 3641SOL    HW211823   5.285   4.955   1.319
 3642SOL     OW11824   5.552   2.137   6.370
 3642SOL    HW111825   5.574   2.220   6.319
 3642SOL    HW211826   5.572   2.150   6.467
 3643SOL     OW11827   3.987   6.805   5.820
 3643SOL    HW111828   4.044   6.805   5.738
 3643SOL    HW211829   3.920   6.731   5.814
 3644SOL     OW11830   2.967   0.861   1.379
 3644SOL    HW111831   2.876   0.840   1.343
 3644SOL    HW211832   3.032   0.865   1.303
 3645SOL     OW11833   1.649   3.544   4.535
 3645SOL    HW111834   1.580   3.472   4.542
 3645SOL    HW211835   1.605   3.633   4.550
 3646SOL     OW11836   2.047   4.922   4.684
 3646SOL    HW111837   2.054   4.854   4.757
 3646SOL    HW211838   2.022   4.878   4.599
 3647SOL     OW11839   2.433   6.363   6.852
 3647SOL    HW111840   2.382   6.446   6.875
 3647SOL    HW211841   2.400   6.327   6.765
 3648SOL     OW11842   4.908   5.675   3.201
 3648SOL    HW111843   4.823   5.674   3.253
 3648SOL    HW211844   4.959   5.758   3.224
 3649SOL     OW11845   5.621   4.106   0.201
 3649SOL    HW111846   5.580   4.040   0.264
 3649SOL    HW211847   5.713   4.128   0.231
 3650SOL     OW11848   5.378   4.404   0.857
 3650SOL    HW111849   5.431   4.352   0.790
 3650SOL    HW211850   5.283   4.375   0.854
 3651SOL     OW11851   2.124   1.899   5.437
 3651SOL    HW111852   2.098   1.935   5.347
 3651SOL    HW211853   2.056   1.927   5.505
 3652SOL     OW11854   5.849   0.434   2.582
 3652SOL    HW111855   5.894   0.349   2.607
 3652SOL    HW211856   5.751   0.418   2.570
 3653SOL     OW11857   0.955   0.916   2.842
 3653SOL    HW111858   1.054   0.912   2.847
 3653SOL    HW211859   0.923   1.006   2.874
 3654SOL     OW11860   4.602   5.976   0.778
 3654SOL    HW111861   4.638   5.996   0.687
 3654SOL    HW211862   4.678   5.959   0.841
 3655SOL     OW11863   2.883   1.028   4.525
 3655SOL    HW111864   2.979   1.015   4.551
 3655SOL    HW211865   2.826   0.962   4.574
 3656SOL     OW11866   0.949   5.013   1.199
 3656SOL    HW111867   0.960   5.026   1.298
 3656SOL    HW211868   0.859   5.047   1.171
 3657SOL     OW11869   5.164   5.864   5.488
 3657SOL    HW111870   5.073   5.862   5.447
 3657SOL    HW211871   5.156   5.877   5.587
 3658SOL     OW11872   1.693   4.765   6.590
 3658SOL    HW111873   1.734   4.855   6.605
 3658SOL    HW211874   1.690   4.747   6.492
 3659SOL     OW11875   0.476   1.378   6.406
 3659SOL    HW111876   0.439   1.290   6.436
 3659SOL    HW211877   0.526   1.421   6.482
 3660SOL     OW11878   5.971   6.419   5.580
 3660SOL    HW111879   6.034   6.447   5.508
 3660SOL    HW211880   5.974   6.484   5.655
 3661SOL     OW11881   0.134   0.648   4.506
 3661SOL    HW111882   0.058   0.604   4.554
 3661SOL    HW211883   0.114   0.653   4.408
 3662SOL     OW11884   3.680   1.149   4.980
 3662SOL    HW111885   3.663   1.181   5.074
 3662SOL    HW211886   3.737   1.215   4.932
 3663SOL     OW11887   2.405   2.258   6.389
 3663SOL    HW111888   2.335   2.322   6.423
 3663SOL    HW211889   2.492   2.306   6.380
 3664SOL     OW11890   4.043   1.800   2.207
 3664SOL    HW111891   4.045   1.833   2.301
 3664SOL    HW211892   4.054   1.877   2.144
 3665SOL     OW11893   0.428   6.184   5.960
 3665SOL    HW111894   0.408   6.259   5.896
 3665SOL    HW211895   0.378   6.199   6.045
 3666SOL     OW11896   1.088   2.888   3.243
 3666SOL    HW111897   1.073   2.963   3.307
 3666SOL    HW211898   1.129   2.923   3.159
 3667SOL     OW11899   0.793   1.687   3.573
 3667SOL    HW111900   0.830   1.775   3.545
 3667SOL    HW211901   0.868   1.625   3.597
 3668SOL     OW11902   1.185   0.402   1.882
 3668SOL    HW111903   1.216   0.308   1.867
 3668SOL    HW211904   1.093   0.412   1.844
 3669SOL     OW11905   6.316   1.478   4.384
 3669SOL    HW111906   6.382   1.485   4.310
 3669SOL    HW211907   6.253   1.402   4.365
 3670SOL     OW11908   3.293   4.745   1.478
 3670SOL    HW111909   3.240   4.673   1.433
 3670SOL    HW211910   3.371   4.770   1.421
 3671SOL     OW11911   6.748   1.101   2.597
 3671SOL    HW111912   6.751   1.009   2.556
 3671SOL    HW211913   6.837   1.122   2.637
 3672SOL     OW11914   5.639   1.436   2.305
 3672SOL    HW111915   5.551   1.476   2.331
 3672SOL    HW211916   5.629   1.387   2.219
 3673SOL     OW11917   3.928   5.409   6.866
 3673SOL    HW111918   3.943   5.440   6.960
 3673SOL    HW211919   3.942   5.486   6.803
 3674SOL     OW11920   1.069   5.861   6.037
 3674SOL    HW111921   1.100   5.822   5.951
 3674SOL    HW211922   1.147   5.900   6.086
 3675SOL     OW11923   0.058   2.218   3.073
 3675SOL    HW111924   7.005   2.259   3.120
 3675SOL    HW211925   0.055   2.119   3.083
 3676SOL     OW11926   5.075   3.094   3.004
 3676SOL    HW111927   4.978   3.069   2.995
 3676SOL    HW211928   5.106   3.135   2.917
 3677SOL     OW11929   2.143   0.763   5.141
 3677SOL    HW111930   2.103   0.718   5.062
 3677SOL    HW211931   2.118   0.713   5.224
 3678SOL     OW11932   1.160   1.355   4.449
 3678SOL    HW111933   1.211   1.336   4.365
 3678SOL    HW211934   1.078   1.407   4.427
 3679SOL     OW11935   5.828   7.008   3.062
 3679SOL    HW111936   5.823   0.009   3.158
 3679SOL    HW211937   5.749   0.019   3.013
 3680SOL     OW11938   4.846   2.277   3.509
 3680SOL    HW111939   4.883   2.351   3.453
 3680SOL    HW211940   4.860   2.298   3.606
 3681SOL     OW11941   0.777   0.530   6.077
 3681SOL    HW111942   0.778   0.591   6.156
 3681SOL    HW211943   0.848   0.557   6.012
 3682SOL     OW11944   5.003   2.217   1.159
 3682SOL    HW111945   5.031   2.194   1.253
 3682SOL    HW211946   4.925   2.161   1.133
 3683SOL     OW11947   0.074   0.898   4.622
 3683SOL    HW111948   0.057   0.886   4.720
 3683SOL    HW211949   0.121   0.817   4.586
 3684SOL     OW11950   1.894   6.430   6.451
 3684SOL    HW111951   1.988   6.424   6.486
 3684SOL    HW211952   1.838   6.358   6.492
 3685SOL     OW11953   2.892   5.741   5.445
 3685SOL    HW111954   2.803   5.776   5.472
 3685SOL    HW211955   2.889   5.712   5.350
 3686SOL     OW11956   6.549   4.014   3.944
 3686SOL    HW111957   6.483   3.945   3.916
 3686SOL    HW211958   6.544   4.092   3.882
 3687SOL     OW11959   5.248   6.767   3.378
 3687SOL    HW111960   5.201   6.763   3.466
 3687SOL    HW211961   5.277   6.674   3.352
 3688SOL     OW11962   6.111   3.682   0.586
 3688SOL    HW111963   6.163   3.751   0.536
 3688SOL    HW211964   6.014   3.707   0.585
 3689SOL     OW11965   2.271   1.702   5.345
 3689SOL    HW111966   2.260   1.687   5.246
 3689SOL    HW211967   2.203   1.769   5.376
 3690SOL     OW11968   5.201   5.591   1.118
 3690SOL    HW111969   5.206   5.586   1.018
 3690SOL    HW211970   5.293   5.596   1.156
 3691SOL     OW11971   2.511   2.096   6.057
 3691SOL    HW111972   2.552   2.138   6.138
 3691SOL    HW211973   2.414   2.120   6.052
 3692SOL     OW11974   6.966   4.347   6.082
 3692SOL    HW111975   6.902   4.322   6.154
 3692SOL    HW211976   0.027   4.299   6.096
 3693SOL     OW11977   1.087   1.878   2.667
 3693SOL    HW111978   1.108   1.920   2.756
 3693SOL    HW211979   1.005   1.919   2.629
 3694SOL     OW11980   0.940   0.428   1.799
 3694SOL    HW111981   0.874   0.488   1.752
 3694SOL    HW211982   0.908   0.410   1.892
 3695SOL     OW11983   6.691   2.468   2.142
 3695SOL    HW111984   6.630   2.542   2.114
 3695SOL    HW211985   6.761   2.504   2.204
 3696SOL     OW11986   5.477   0.977   5.003
 3696SOL    HW111987   5.513   0.997   5.094
 3696SOL    HW211988   5.423   0.893   5.007
 3697SOL     OW11989   6.042   5.999   3.609
 3697SOL    HW111990   5.956   5.987   3.559
 3697SOL    HW211991   6.039   5.947   3.694
 3698SOL     OW11992   2.159   0.837   3.676
 3698SOL    HW111993   2.173   0.842   3.775
 3698SOL    HW211994   2.108   0.754   3.654
 3699SOL     OW11995   2.491   2.343   3.617
 3699SOL    HW111996   2.558   2.357   3.544
 3699SOL    HW211997   2.470   2.246   3.625
 3700SOL     OW11998   1.640   5.456   5.447
 3700SOL    HW111999   1.679   5.518   5.379
 3700SOL    HW212000   1.547   5.431   5.418
 3701SOL     OW12001   0.520   6.371   2.002
 3701SOL    HW112002   0.611   6.389   1.963
 3701SOL    HW212003   0.470   6.308   1.942
 3702SOL     OW12004   5.131   6.272   4.039
 3702SOL    HW112005   5.217   6.250   3.994
 3702SOL    HW212006   5.058   6.214   4.002
 3703SOL     OW12007   1.049   1.180   6.058
 3703SOL    HW112008   0.967   1.160   6.004
 3703SOL    HW212009   1.130   1.171   6.000
 3704SOL     OW12010   5.044   3.435   0.983
 3704SOL    HW112011   4.956   3.410   0.945
 3704SOL    HW212012   5.031   3.499   1.059
 3705SOL     OW12013   4.955   4.780   3.435
 3705SOL    HW112014   4.959   4.866   3.384
 3705SOL    HW212015   4.860   4.760   3.458
 3706SOL     OW12016   0.574   3.958   7.014
 3706SOL    HW112017   0.501   3.945   6.946
 3706SOL    HW212018   0.661   3.974   6.967
 3707SOL     OW12019   3.563   4.963   4.019
 3707SOL    HW112020   3.554   4.964   3.919
 3707SOL    HW212021   3.505   5.034   4.058
 3708SOL     OW12022   4.418   7.013   1.482
 3708SOL    HW112023   4.351   7.006   1.556
 3708SOL    HW212024   4.468   0.073   1.491
 3709SOL     OW12025   1.892   0.205   1.884
 3709SOL    HW112026   1.848   0.189   1.796
 3709SOL    HW212027   1.985   0.167   1.882
 3710SOL     OW12028   0.462   5.240   5.703
 3710SOL    HW112029   0.398   5.193   5.764
 3710SOL    HW212030   0.536   5.279   5.757
 3711SOL     OW12031   1.774   6.439   4.955
 3711SOL    HW112032   1.757   6.411   5.050
 3711SOL    HW212033   1.854   6.389   4.920
 3712SOL     OW12034   2.414   5.279   6.409
 3712SOL    HW112035   2.467   5.195   6.397
 3712SOL    HW212036   2.403   5.297   6.507
 3713SOL     OW12037   0.159   6.660   5.014
 3713SOL    HW112038   0.064   6.681   4.994
 3713SOL    HW212039   0.171   6.561   5.022
 3714SOL     OW12040   0.906   4.545   6.823
 3714SOL    HW112041   0.852   4.601   6.760
 3714SOL    HW212042   0.991   4.592   6.845
 3715SOL     OW12043   0.397   5.619   2.881
 3715SOL    HW112044   0.311   5.578   2.852
 3715SOL    HW212045   0.456   5.549   2.921
 3716SOL     OW12046   6.144   5.248   4.255
 3716SOL    HW112047   6.213   5.249   4.326
 3716SOL    HW212048   6.086   5.167   4.265
 3717SOL     OW12049   5.023   1.443   0.185
 3717SOL    HW112050   5.060   1.413   0.097
 3717SOL    HW212051   5.079   1.407   0.259
 3718SOL     OW12052   0.526   0.232   6.630
 3718SOL    HW112053   0.606   0.206   6.683
 3718SOL    HW212054   0.485   0.151   6.588
 3719SOL     OW12055   4.279   3.155   6.214
 3719SOL    HW112056   4.320   3.225   6.156
 3719SOL    HW212057   4.196   3.120   6.171
 3720SOL     OW12058   5.346   3.801   0.984
 3720SOL    HW112059   5.435   3.812   1.028
 3720SOL    HW212060   5.341   3.710   0.942
 3721SOL     OW12061   6.753   5.243   6.829
 3721SOL    HW112062   6.688   5.271   6.758
 3721SOL    HW212063   6.703   5.205   6.906
 3722SOL     OW12064   4.406   0.287   1.362
 3722SOL    HW112065   4.325   0.254   1.314
 3722SOL    HW212066   4.378   0.341   1.441
 3723SOL     OW12067   4.203   5.131   0.248
 3723SOL    HW112068   4.270   5.139   0.322
 3723SOL    HW212069   4.168   5.222   0.225
 3724SOL     OW12070   1.501   5.050   5.073
 3724SOL    HW112071   1.539   4.997   5.149
 3724SOL    HW212072   1.401   5.053   5.081
 3725SOL     OW12073   0.296   6.187   6.843
 3725SOL    HW112074   0.287   6.281   6.875
 3725SOL    HW212075   0.304   6.125   6.921
 3726SOL     OW12076   5.318   4.473   4.872
 3726SOL    HW112077   5.251   4.421   4.925
 3726SOL    HW212078   5.282   4.489   4.780
 3727SOL     OW12079   6.816   3.414   4.783
 3727SOL    HW112080   6.749   3.412   4.857
 3727SOL    HW212081   6.844   3.508   4.766
 3728SOL     OW12082   2.949   3.535   0.138
 3728SOL    HW112083   2.864   3.483   0.150
 3728SOL    HW212084   2.927   3.630   0.116
 3729SOL     OW12085   0.582   0.014   4.186
 3729SOL    HW112086   0.533   6.980   4.123
 3729SOL    HW212087   0.619   6.985   4.261
 3730SOL     OW12088   3.955   5.957   5.730
 3730SOL    HW112089   3.898   6.031   5.696
 3730SOL    HW212090   3.931   5.872   5.683
 3731SOL     OW12091   0.522   1.391   0.262
 3731SOL    HW112092   0.594   1.437   0.313
 3731SOL    HW212093   0.516   1.429   0.170
 3732SOL     OW12094   1.605   2.007   0.630
 3732SOL    HW112095   1.546   1.981   0.707
 3732SOL    HW212096   1.700   2.005   0.659
 3733SOL     OW12097   1.562   3.021   3.433
 3733SOL    HW112098   1.539   2.972   3.517
 3733SOL    HW212099   1.544   2.962   3.354
 3734SOL     OW12100   4.121   0.454   1.299
 3734SOL    HW112101   4.093   0.511   1.376
 3734SOL    HW212102   4.060   0.374   1.293
 3735SOL     OW12103   4.373   0.379   2.470
 3735SOL    HW112104   4.398   0.294   2.517
 3735SOL    HW212105   4.420   0.383   2.382
 3736SOL     OW12106   6.657   0.841   1.003
 3736SOL    HW112107   6.580   0.781   0.984
 3736SOL    HW212108   6.734   0.817   0.944
 3737SOL     OW12109   6.013   2.435   4.041
 3737SOL    HW112110   5.913   2.445   4.040
 3737SOL    HW212111   6.047   2.447   4.134
 3738SOL     OW12112   6.103   5.923   0.646
 3738SOL    HW112113   6.142   5.910   0.555
 3738SOL    HW212114   6.097   6.021   0.666
 3739SOL     OW12115   3.113   4.486   1.664
 3739SOL    HW112116   3.071   4.546   1.596
 3739SOL    HW212117   3.053   4.478   1.743
 3740SOL     OW12118   5.721   6.189   0.050
 3740SOL    HW112119   5.623   6.207   0.059
 3740SOL    HW212120   5.737   6.132   6.995
 3741SOL     OW12121   4.995   3.433   6.718
 3741SOL    HW112122   4.939   3.477   6.788
 3741SOL    HW212123   5.038   3.351   6.756
 3742SOL     OW12124   4.757   5.575   0.344
 3742SOL    HW112125   4.793   5.591   0.252
 3742SOL    HW212126   4.663   5.543   0.338
 3743SOL     OW12127   4.845   4.469   1.789
 3743SOL    HW112128   4.777   4.406   1.751
 3743SOL    HW212129   4.835   4.473   1.888
 3744SOL     OW12130   0.808   6.392   1.969
 3744SOL    HW112131   0.866   6.345   2.036
 3744SOL    HW212132   0.839   6.486   1.957
 3745SOL     OW12133   4.846   3.822   2.406
 3745SOL    HW112134   4.826   3.883   2.329
 3745SOL    HW212135   4.840   3.873   2.492
 3746SOL     OW12136   6.943   0.609   3.583
 3746SOL    HW112137   0.015   0.624   3.567
 3746SOL    HW212138   6.917   0.518   3.551
 3747SOL     OW12139   4.786   6.411   5.936
 3747SOL    HW112140   4.705   6.465   5.960
 3747SOL    HW212141   4.841   6.395   6.017
 3748SOL     OW12142   5.901   0.884   1.985
 3748SOL    HW112143   5.875   0.899   1.889
 3748SOL    HW212144   5.857   0.801   2.019
 3749SOL     OW12145   1.676   5.401   2.776
 3749SOL    HW112146   1.688   5.492   2.817
 3749SOL    HW212147   1.627   5.342   2.841
 3750SOL     OW12148   5.670   4.500   0.817
 3750SOL    HW112149   5.721   4.522   0.901
 3750SOL    HW212150   5.576   4.478   0.841
 3751SOL     OW12151   0.456   2.506   1.075
 3751SOL    HW112152   0.469   2.463   1.164
 3751SOL    HW212153   0.528   2.475   1.012
 3752SOL     OW12154   0.382   6.976   6.931
 3752SOL    HW112155   0.343   6.888   6.905
 3752SOL    HW212156   0.482   6.967   6.940
 3753SOL     OW12157   0.419   6.326   5.179
 3753SOL    HW112158   0.391   6.348   5.272
 3753SOL    HW212159   0.480   6.247   5.180
 3754SOL     OW12160   5.456   6.393   1.605
 3754SOL    HW112161   5.444   6.341   1.520
 3754SOL    HW212162   5.442   6.490   1.585
 3755SOL     OW12163   5.758   5.289   4.199
 3755SOL    HW112164   5.666   5.319   4.175
 3755SOL    HW212165   5.810   5.368   4.234
 3756SOL     OW12166   2.288   0.474   6.315
 3756SOL    HW112167   2.268   0.405   6.245
 3756SOL    HW212168   2.340   0.431   6.389
 3757SOL     OW12169   3.494   5.765   5.896
 3757SOL    HW112170   3.482   5.737   5.991
 3757SOL    HW212171   3.587   5.799   5.883
 3758SOL     OW12172   2.087   1.573   4.660
 3758SOL    HW112173   2.133   1.489   4.629
 3758SOL    HW212174   2.020   1.550   4.730
 3759SOL     OW12175   4.566   5.568   5.641
 3759SOL    HW112176   4.563   5.571   5.541
 3759SOL    HW212177   4.658   5.592   5.672
 3760SOL     OW12178   1.324   3.866   3.752
 3760SOL    HW112179   1.387   3.804   3.799
 3760SOL    HW212180   1.347   3.960   3.774
 3761SOL     OW12181   0.815   6.650   5.022
 3761SOL    HW112182   0.856   6.718   4.961
 3761SOL    HW212183   0.824   6.559   4.982
 3762SOL     OW12184   0.914   4.259   6.763
 3762SOL    HW112185   0.995   4.202   6.774
 3762SOL    HW212186   0.936   4.354   6.786
 3763SOL     OW12187   6.801   4.724   6.915
 3763SOL    HW112188   6.756   4.643   6.953
 3763SOL    HW212189   6.739   4.769   6.850
 3764SOL     OW12190   1.932   0.936   4.850
 3764SOL    HW112191   1.888   0.860   4.897
 3764SOL    HW212192   1.923   0.924   4.751
 3765SOL     OW12193   5.071   0.929   2.762
 3765SOL    HW112194   4.973   0.925   2.779
 3765SOL    HW212195   5.119   0.949   2.847
 3766SOL     OW12196   0.865   0.631   4.001
 3766SOL    HW112197   0.870   0.532   4.011
 3766SOL    HW212198   0.769   0.659   4.000
 3767SOL     OW12199   2.383   4.500   0.271
 3767SOL    HW112200   2.361   4.592   0.240
 3767SOL    HW212201   2.426   4.505   0.361
 3768SOL     OW12202   3.769   6.290   6.148
 3768SOL    HW112203   3.808   6.205   6.182
 3768SOL    HW212204   3.679   6.272   6.108
 3769SOL     OW12205   5.615   5.731   5.424
 3769SOL    HW112206   5.690   5.792   5.448
 3769SOL    HW212207   5.531   5.763   5.468
 3770SOL     OW12208   1.967   0.463   6.662
 3770SOL    HW112209   2.031   0.386   6.658
 3770SOL    HW212210   1.993   0.525   6.736
 3771SOL     OW12211   5.487   1.647   0.652
 3771SOL    HW112212   5.443   1.571   0.698
 3771SOL    HW212213   5.436   1.731   0.670
 3772SOL     OW12214   6.289   1.423   0.760
 3772SOL    HW112215   6.339   1.469   0.688
 3772SOL    HW212216   6.350   1.402   0.836
 3773SOL     OW12217   5.681   3.292   5.846
 3773SOL    HW112218   5.633   3.323   5.764
 3773SOL    HW212219   5.630   3.319   5.927
 3774SOL     OW12220   1.127   6.703   6.471
 3774SOL    HW112221   1.055   6.637   6.494
 3774SOL    HW212222   1.106   6.745   6.383
 3775SOL     OW12223   5.544   3.809   2.181
 3775SOL    HW112224   5.497   3.895   2.201
 3775SOL    HW212225   5.638   3.828   2.154
 3776SOL     OW12226   2.683   1.180   1.663
 3776SOL    HW112227   2.629   1.126   1.599
 3776SOL    HW212228   2.755   1.228   1.614
 3777SOL     OW12229   2.571   4.751   4.498
 3777SOL    HW112230   2.602   4.717   4.587
 3777SOL    HW212231   2.570   4.676   4.432
 3778SOL     OW12232   2.033   6.156   2.751
 3778SOL    HW112233   2.034   6.153   2.851
 3778SOL    HW212234   1.962   6.095   2.716
 3779SOL     OW12235   2.695   5.049   6.691
 3779SOL    HW112236   2.770   4.998   6.648
 3779SOL    HW212237   2.608   5.001   6.673
 3780SOL     OW12238   3.706   5.031   4.679
 3780SOL    HW112239   3.661   5.061   4.763
 3780SOL    HW212240   3.775   4.962   4.701
 3781SOL     OW12241   1.947   6.509   4.087
 3781SOL    HW112242   1.887   6.589   4.078
 3781SOL    HW212243   2.022   6.515   4.021
 3782SOL     OW12244   2.725   2.378   4.214
 3782SOL    HW112245   2.766   2.355   4.302
 3782SOL    HW212246   2.637   2.331   4.204
 3783SOL     OW12247   6.764   6.666   4.721
 3783SOL    HW112248   6.848   6.678   4.667
 3783SOL    HW212249   6.709   6.592   4.682
 3784SOL     OW12250   5.130   1.491   2.941
 3784SOL    HW112251   5.092   1.459   2.854
 3784SOL    HW212252   5.096   1.433   3.015
 3785SOL     OW12253   2.132   0.995   7.022
 3785SOL    HW112254   2.099   0.925   0.059
 3785SOL    HW212255   2.062   1.013   6.952
 3786SOL     OW12256   2.664   5.670   3.092
 3786SOL    HW112257   2.760   5.697   3.099
 3786SOL    HW212258   2.606   5.746   3.121
 3787SOL     OW12259   5.529   6.503   3.498
 3787SOL    HW112260   5.581   6.575   3.453
 3787SOL    HW212261   5.592   6.439   3.542
 3788SOL     OW12262   6.429   3.196   3.449
 3788SOL    HW112263   6.516   3.244   3.459
 3788SOL    HW212264   6.383   3.225   3.365
 3789SOL     OW12265   1.700   4.488   4.157
 3789SOL    HW112266   1.743   4.530   4.237
 3789SOL    HW212267   1.601   4.484   4.171
 3790SOL     OW12268   1.950   3.777   5.147
 3790SOL    HW112269   2.011   3.854   5.129
 3790SOL    HW212270   1.885   3.802   5.218
 3791SOL     OW12271   5.783   0.040   0.709
 3791SOL    HW112272   5.847   0.022   0.784
 3791SOL    HW212273   5.702   7.008   0.720
 3792SOL     OW12274   6.833   0.665   4.868
 3792SOL    HW112275   6.902   0.738   4.873
 3792SOL    HW212276   6.759   0.694   4.807
 3793SOL     OW12277   2.485   0.499   2.873
 3793SOL    HW112278   2.463   0.592   2.841
 3793SOL    HW212279   2.418   0.471   2.941
 3794SOL     OW12280   3.715   5.419   1.896
 3794SOL    HW112281   3.781   5.386   1.828
 3794SOL    HW212282   3.634   5.454   1.850
 3795SOL     OW12283   4.013   6.803   6.665
 3795SOL    HW112284   4.022   6.771   6.570
 3795SOL    HW212285   3.926   6.851   6.676
 3796SOL     OW12286   2.255   2.187   1.642
 3796SOL    HW112287   2.172   2.237   1.617
 3796SOL    HW212288   2.331   2.252   1.653
 3797SOL     OW12289   6.472   5.477   2.428
 3797SOL    HW112290   6.465   5.574   2.403
 3797SOL    HW212291   6.531   5.468   2.508
 3798SOL     OW12292   2.706   4.996   3.096
 3798SOL    HW112293   2.608   5.017   3.086
 3798SOL    HW212294   2.759   5.055   3.034
 3799SOL     OW12295   1.255   2.467   4.095
 3799SOL    HW112296   1.175   2.407   4.086
 3799SOL    HW212297   1.280   2.502   4.005
 3800SOL     OW12298   5.233   2.231   5.231
 3800SOL    HW112299   5.267   2.320   5.260
 3800SOL    HW212300   5.139   2.219   5.262
 3801SOL     OW12301   6.399   6.089   5.624
 3801SOL    HW112302   6.460   6.057   5.552
 3801SOL    HW212303   6.373   6.012   5.683
 3802SOL     OW12304   0.570   1.805   4.867
 3802SOL    HW112305   0.663   1.842   4.866
 3802SOL    HW212306   0.546   1.772   4.776
 3803SOL     OW12307   3.728   1.240   2.347
 3803SOL    HW112308   3.684   1.322   2.384
 3803SOL    HW212309   3.755   1.256   2.252
 3804SOL     OW12310   4.823   2.074   4.700
 3804SOL    HW112311   4.834   2.062   4.601
 3804SOL    HW212312   4.861   1.995   4.748
 3805SOL     OW12313   2.890   3.904   1.763
 3805SOL    HW112314   2.956   3.978   1.753
 3805SOL    HW212315   2.914   3.849   1.843
 3806SOL     OW12316   2.490   2.668   0.026
 3806SOL    HW112317   2.583   2.667   7.015
 3806SOL    HW212318   2.424   2.664   6.977
 3807SOL     OW12319   2.383   1.753   4.490
 3807SOL    HW112320   2.471   1.792   4.463
 3807SOL    HW212321   2.354   1.686   4.422
 3808SOL     OW12322   3.346   0.473   2.209
 3808SOL    HW112323   3.410   0.426   2.149
 3808SOL    HW212324   3.381   0.472   2.303
 3809SOL     OW12325   5.682   2.221   6.888
 3809SOL    HW112326   5.701   2.319   6.896
 3809SOL    HW212327   5.754   2.169   6.936
 3810SOL     OW12328   4.015   2.859   5.431
 3810SOL    HW112329   4.032   2.954   5.457
 3810SOL    HW212330   3.945   2.856   5.360
 3811SOL     OW12331   0.571   4.534   4.104
 3811SOL    HW112332   0.655   4.531   4.158
 3811SOL    HW212333   0.523   4.621   4.122
 3812SOL     OW12334   5.693   1.522   5.436
 3812SOL    HW112335   5.756   1.599   5.426
 3812SOL    HW212336   5.745   1.438   5.450
 3813SOL     OW12337   4.297   4.197   0.850
 3813SOL    HW112338   4.357   4.276   0.836
 3813SOL    HW212339   4.347   4.125   0.898
 3814SOL     OW12340   0.384   6.506   1.026
 3814SOL    HW112341   0.401   6.545   1.117
 3814SOL    HW212342   0.387   6.406   1.031
 3815SOL     OW12343   4.870   1.925   0.615
 3815SOL    HW112344   4.948   1.867   0.637
 3815SOL    HW212345   4.785   1.876   0.633
 3816SOL     OW12346   0.212   6.701   1.492
 3816SOL    HW112347   0.184   6.699   1.588
 3816SOL    HW212348   0.159   6.771   1.444
 3817SOL     OW12349   4.753   2.818   4.280
 3817SOL    HW112350   4.782   2.889   4.215
 3817SOL    HW212351   4.733   2.734   4.230
 3818SOL     OW12352   4.499   6.516   1.616
 3818SOL    HW112353   4.410   6.558   1.597
 3818SOL    HW212354   4.550   6.574   1.679
 3819SOL     OW12355   5.578   4.769   0.562
 3819SOL    HW112356   5.668   4.810   0.578
 3819SOL    HW212357   5.524   4.772   0.646
 3820SOL     OW12358   6.258   6.495   3.559
 3820SOL    HW112359   6.250   6.410   3.610
 3820SOL    HW212360   6.351   6.531   3.568
 3821SOL     OW12361   1.546   3.306   2.027
 3821SOL    HW112362   1.462   3.295   2.080
 3821SOL    HW212363   1.530   3.280   1.932
 3822SOL     OW12364   1.212   5.221   2.310
 3822SOL    HW112365   1.218   5.282   2.231
 3822SOL    HW212366   1.196   5.127   2.279
 3823SOL     OW12367   4.225   2.181   5.163
 3823SOL    HW112368   4.156   2.139   5.222
 3823SOL    HW212369   4.183   2.250   5.105
 3824SOL     OW12370   6.157   1.726   5.422
 3824SOL    HW112371   6.212   1.803   5.454
 3824SOL    HW212372   6.192   1.694   5.335
 3825SOL     OW12373   0.166   0.373   7.017
 3825SOL    HW112374   0.151   0.450   6.955
 3825SOL    HW212375   0.236   0.312   6.980
 3826SOL     OW12376   0.373   3.649   0.303
 3826SOL    HW112377   0.367   3.549   0.303
 3826SOL    HW212378   0.463   3.677   0.270
 3827SOL     OW12379   4.041   3.912   1.064
 3827SOL    HW112380   3.969   3.842   1.054
 3827SOL    HW212381   4.072   3.913   1.159
 3828SOL     OW12382   4.474   2.382   0.459
 3828SOL    HW112383   4.547   2.441   0.424
 3828SOL    HW212384   4.512   2.319   0.527
 3829SOL     OW12385   2.244   5.002   3.949
 3829SOL    HW112386   2.185   4.921   3.952
 3829SOL    HW212387   2.189   5.082   3.928
 3830SOL     OW12388   1.082   0.244   5.717
 3830SOL    HW112389   0.998   0.258   5.770
 3830SOL    HW212390   1.155   0.214   5.779
 3831SOL     OW12391   4.513   1.864   2.523
 3831SOL    HW112392   4.502   1.781   2.469
 3831SOL    HW212393   4.609   1.880   2.542
 3832SOL     OW12394   6.684   0.771   1.967
 3832SOL    HW112395   6.681   0.729   1.876
 3832SOL    HW212396   6.774   0.810   1.982
 3833SOL     OW12397   1.030   5.095   6.852
 3833SOL    HW112398   0.998   5.179   6.807
 3833SOL    HW212399   1.033   5.021   6.785
 3834SOL     OW12400   2.857   1.994   6.846
 3834SOL    HW112401   2.813   2.077   6.879
 3834SOL    HW212402   2.800   1.915   6.871
 3835SOL     OW12403   3.367   5.287   5.368
 3835SOL    HW112404   3.464   5.281   5.344
 3835SOL    HW212405   3.320   5.204   5.338
 3836SOL     OW12406   2.012   3.503   5.478
 3836SOL    HW112407   2.006   3.424   5.539
 3836SOL    HW212408   2.015   3.473   5.383
 3837SOL     OW12409   4.613   3.584   0.567
 3837SOL    HW112410   4.561   3.539   0.495
 3837SOL    HW212411   4.704   3.608   0.533
 3838SOL     OW12412   5.349   3.701   4.671
 3838SOL    HW112413   5.326   3.794   4.697
 3838SOL    HW212414   5.281   3.638   4.709
 3839SOL     OW12415   4.892   0.288   4.808
 3839SOL    HW112416   4.982   0.261   4.772
 3839SOL    HW212417   4.838   0.207   4.828
 3840SOL     OW12418   0.779   0.652   5.011
 3840SOL    HW112419   0.863   0.693   4.977
 3840SOL    HW212420   0.800   0.568   5.062
 3841SOL     OW12421   0.432   3.952   5.107
 3841SOL    HW112422   0.494   3.891   5.057
 3841SOL    HW212423   0.348   3.964   5.054
 3842SOL     OW12424   1.102   5.393   0.252
 3842SOL    HW112425   1.103   5.322   0.181
 3842SOL    HW212426   1.023   5.452   0.239
 3843SOL     OW12427   0.383   3.333   0.932
 3843SOL    HW112428   0.453   3.404   0.924
 3843SOL    HW212429   0.401   3.261   0.865
 3844SOL     OW12430   1.255   5.170   5.693
 3844SOL    HW112431   1.348   5.203   5.711
 3844SOL    HW212432   1.249   5.138   5.598
 3845SOL     OW12433   3.177   2.972   2.721
 3845SOL    HW112434   3.189   3.061   2.678
 3845SOL    HW212435   3.111   2.979   2.795
 3846SOL     OW12436   6.934   4.911   4.237
 3846SOL    HW112437   6.933   4.861   4.324
 3846SOL    HW212438   6.857   4.882   4.181
 3847SOL     OW12439   6.059   1.127   6.565
 3847SOL    HW112440   6.113   1.112   6.648
 3847SOL    HW212441   6.008   1.044   6.543
 3848SOL     OW12442   2.155   5.278   2.342
 3848SOL    HW112443   2.125   5.211   2.275
 3848SOL    HW212444   2.078   5.336   2.370
 3849SOL     OW12445   0.395   1.567   5.891
 3849SOL    HW112446   0.362   1.575   5.797
 3849SOL    HW212447   0.353   1.639   5.946
 3850SOL     OW12448   2.600   3.406   1.717
 3850SOL    HW112449   2.690   3.440   1.743
 3850SOL    HW212450   2.530   3.452   1.773
 3851SOL     OW12451   2.191   4.058   2.824
 3851SOL    HW112452   2.254   4.135   2.835
 3851SOL    HW212453   2.217   3.984   2.887
 3852SOL     OW12454   4.509   0.210   4.752
 3852SOL    HW112455   4.514   0.309   4.748
 3852SOL    HW212456   4.422   0.179   4.713
 3853SOL     OW12457   0.663   3.237   2.425
 3853SOL    HW112458   0.736   3.253   2.491
 3853SOL    HW212459   0.575   3.253   2.468
 3854SOL     OW12460   1.118   3.316   3.306
 3854SOL    HW112461   1.181   3.361   3.242
 3854SOL    HW212462   1.067   3.385   3.357
 3855SOL     OW12463   5.888   4.643   6.284
 3855SOL    HW112464   5.879   4.544   6.268
 3855SOL    HW212465   5.971   4.660   6.337
 3856SOL     OW12466   0.190   0.118   6.165
 3856SOL    HW112467   0.200   0.025   6.202
 3856SOL    HW212468   0.093   0.138   6.149
 3857SOL     OW12469   1.362   6.891   4.831
 3857SOL    HW112470   1.435   6.956   4.809
 3857SOL    HW212471   1.363   6.816   4.765
 3858SOL     OW12472   0.798   6.298   6.256
 3858SOL    HW112473   0.732   6.254   6.316
 3858SOL    HW212474   0.782   6.270   6.162
 3859SOL     OW12475   6.621   2.454   3.992
 3859SOL    HW112476   6.560   2.460   3.913
 3859SOL    HW212477   6.580   2.504   4.068
 3860SOL     OW12478   2.453   5.771   4.906
 3860SOL    HW112479   2.543   5.739   4.876
 3860SOL    HW212480   2.451   5.871   4.905
 3861SOL     OW12481   5.561   4.894   1.060
 3861SOL    HW112482   5.594   4.940   1.142
 3861SOL    HW212483   5.502   4.818   1.086
 3862SOL     OW12484   0.025   0.319   6.555
 3862SOL    HW112485   6.977   0.262   6.592
 3862SOL    HW212486   0.061   0.378   6.627
 3863SOL     OW12487   3.272   3.831   0.460
 3863SOL    HW112488   3.232   3.758   0.404
 3863SOL    HW212489   3.242   3.920   0.426
 3864SOL     OW12490   4.093   1.597   6.774
 3864SOL    HW112491   4.044   1.523   6.728
 3864SOL    HW212492   4.111   1.571   6.869
 3865SOL     OW12493   4.081   0.146   2.114
 3865SOL    HW112494   4.127   0.190   2.037
 3865SOL    HW212495   4.147   0.094   2.168
 3866SOL     OW12496   4.078   0.257   0.622
 3866SOL    HW112497   4.090   0.354   0.641
 3866SOL    HW212498   4.127   0.233   0.538
 3867SOL     OW12499   1.952   4.021   3.503
 3867SOL    HW112500   2.012   4.055   3.576
 3867SOL    HW212501   1.877   3.969   3.543
 3868SOL     OW12502   1.901   6.259   1.593
 3868SOL    HW112503   1.807   6.238   1.623
 3868SOL    HW212504   1.958   6.275   1.674
 3869SOL     OW12505   6.922   2.521   3.195
 3869SOL    HW112506   6.881   2.488   3.280
 3869SOL    HW212507   6.855   2.578   3.147
 3870SOL     OW12508   2.833   4.843   6.565
 3870SOL    HW112509   2.888   4.826   6.484
 3870SOL    HW212510   2.860   4.781   6.638
 3871SOL     OW12511   3.163   6.828   2.896
 3871SOL    HW112512   3.244   6.886   2.887
 3871SOL    HW212513   3.120   6.844   2.985
 3872SOL     OW12514   3.879   3.326   1.151
 3872SOL    HW112515   3.888   3.334   1.052
 3872SOL    HW212516   3.804   3.264   1.173
 3873SOL     OW12517   5.407   5.475   1.316
 3873SOL    HW112518   5.347   5.546   1.353
 3873SOL    HW212519   5.356   5.390   1.306
 3874SOL     OW12520   4.380   6.532   6.953
 3874SOL    HW112521   4.317   6.605   6.978
 3874SOL    HW212522   4.356   6.449   7.004
 3875SOL     OW12523   1.468   4.379   2.181
 3875SOL    HW112524   1.477   4.306   2.249
 3875SOL    HW212525   1.396   4.357   2.117
 3876SOL     OW12526   6.234   5.081   5.065
 3876SOL    HW112527   6.144   5.110   5.033
 3876SOL    HW212528   6.230   4.983   5.088
 3877SOL     OW12529   5.790   1.030   2.229
 3877SOL    HW112530   5.699   1.068   2.245
 3877SOL    HW212531   5.801   1.011   2.131
 3878SOL     OW12532   3.479   6.878   6.294
 3878SOL    HW112533   3.561   6.836   6.254
 3878SOL    HW212534   3.496   6.975   6.311
 3879SOL     OW12535   4.598   5.293   1.752
 3879SOL    HW112536   4.509   5.264   1.715
 3879SOL    HW212537   4.586   5.377   1.805
 3880SOL     OW12538   6.000   3.883   2.339
 3880SOL    HW112539   5.959   3.797   2.311
 3880SOL    HW212540   5.957   3.916   2.423
 3881SOL     OW12541   1.828   4.941   1.085
 3881SOL    HW112542   1.889   4.867   1.116
 3881SOL    HW212543   1.748   4.901   1.039
 3882SOL     OW12544   6.041   1.208   6.062
 3882SOL    HW112545   6.007   1.235   6.152
 3882SOL    HW212546   6.083   1.117   6.068
 3883SOL     OW12547   4.776   1.455   3.563
 3883SOL    HW112548   4.733   1.484   3.478
 3883SOL    HW212549   4.755   1.358   3.580
 3884SOL     OW12550   1.929   5.926   5.067
 3884SOL    HW112551   1.860   5.929   4.995
 3884SOL    HW212552   2.015   5.890   5.030
 3885SOL     OW12553   6.957   0.955   4.044
 3885SOL    HW112554   7.023   1.004   3.987
 3885SOL    HW212555   6.898   0.899   3.986
 3886SOL     OW12556   0.037   0.283   5.349
 3886SOL    HW112557   0.086   0.358   5.394
 3886SOL    HW212558   0.103   0.221   5.307
 3887SOL     OW12559   3.856   1.565   5.342
 3887SOL    HW112560   3.897   1.499   5.405
 3887SOL    HW212561   3.834   1.519   5.256
 3888SOL     OW12562   6.296   1.908   0.799
 3888SOL    HW112563   6.250   1.904   0.710
 3888SOL    HW212564   6.307   1.816   0.835
 3889SOL     OW12565   0.731   5.381   6.254
 3889SOL    HW112566   0.719   5.317   6.178
 3889SOL    HW212567   0.644   5.390   6.303
 3890SOL     OW12568   5.459   5.517   2.937
 3890SOL    HW112569   5.403   5.441   2.903
 3890SOL    HW212570   5.529   5.481   2.999
 3891SOL     OW12571   5.396   5.751   5.112
 3891SOL    HW112572   5.361   5.828   5.165
 3891SOL    HW212573   5.487   5.773   5.078
 3892SOL     OW12574   6.053   6.856   3.086
 3892SOL    HW112575   6.128   6.906   3.042
 3892SOL    HW212576   5.966   6.902   3.065
 3893SOL     OW12577   3.069   5.630   4.246
 3893SOL    HW112578   3.159   5.587   4.251
 3893SOL    HW212579   3.010   5.592   4.316
 3894SOL     OW12580   4.648   3.290   0.292
 3894SOL    HW112581   4.598   3.212   0.332
 3894SOL    HW212582   4.595   3.374   0.306
 3895SOL     OW12583   1.440   1.019   5.513
 3895SOL    HW112584   1.392   1.098   5.476
 3895SOL    HW212585   1.388   0.981   5.590
 3896SOL     OW12586   6.912   2.660   5.137
 3896SOL    HW112587   6.942   2.632   5.046
 3896SOL    HW212588   6.895   2.759   5.138
 3897SOL     OW12589   3.600   6.752   2.194
 3897SOL    HW112590   3.536   6.762   2.118
 3897SOL    HW212591   3.616   6.654   2.210
 3898SOL     OW12592   4.104   3.381   4.389
 3898SOL    HW112593   4.196   3.406   4.419
 3898SOL    HW212594   4.091   3.409   4.294
 3899SOL     OW12595   4.636   1.523   5.831
 3899SOL    HW112596   4.718   1.466   5.841
 3899SOL    HW212597   4.620   1.574   5.915
 3900SOL     OW12598   6.426   2.572   3.509
 3900SOL    HW112599   6.523   2.578   3.487
 3900SOL    HW212600   6.379   2.654   3.477
 3901SOL     OW12601   1.241   6.506   5.021
 3901SOL    HW112602   1.217   6.449   4.942
 3901SOL    HW212603   1.286   6.449   5.090
 3902SOL     OW12604   5.318   4.995   1.914
 3902SOL    HW112605   5.228   4.951   1.907
 3902SOL    HW212606   5.354   5.012   1.823
 3903SOL     OW12607   4.484   3.200   6.867
 3903SOL    HW112608   4.540   3.119   6.851
 3903SOL    HW212609   4.388   3.178   6.850
 3904SOL     OW12610   1.087   6.267   0.888
 3904SOL    HW112611   1.175   6.301   0.920
 3904SOL    HW212612   1.048   6.334   0.824
 3905SOL     OW12613   6.628   0.177   6.080
 3905SOL    HW112614   6.528   0.182   6.086
 3905SOL    HW212615   6.655   0.183   5.984
 3906SOL     OW12616   1.625   5.084   4.321
 3906SOL    HW112617   1.650   5.007   4.380
 3906SOL    HW212618   1.640   5.170   4.371
 3907SOL     OW12619   0.012   1.403   4.020
 3907SOL    HW112620   7.016   1.358   3.933
 3907SOL    HW212621   0.025   1.334   4.091
 3908SOL     OW12622   1.179   0.376   5.091
 3908SOL    HW112623   1.250   0.359   5.023
 3908SOL    HW212624   1.156   0.291   5.139
 3909SOL     OW12625   5.443   3.057   5.948
 3909SOL    HW112626   5.426   3.039   5.851
 3909SOL    HW212627   5.385   2.997   6.003
 3910SOL     OW12628   3.665   2.586   0.852
 3910SOL    HW112629   3.698   2.561   0.761
 3910SOL    HW212630   3.565   2.597   0.850
 3911SOL     OW12631   6.172   1.173   1.521
 3911SOL    HW112632   6.115   1.229   1.580
 3911SOL    HW212633   6.220   1.231   1.455
 3912SOL     OW12634   4.007   2.173   0.161
 3912SOL    HW112635   4.016   2.074   0.166
 3912SOL    HW212636   4.070   2.216   0.226
 3913SOL     OW12637   4.544   5.512   0.644
 3913SOL    HW112638   4.515   5.460   0.564
 3913SOL    HW212639   4.609   5.583   0.615
 3914SOL     OW12640   5.580   0.992   0.777
 3914SOL    HW112641   5.634   0.946   0.706
 3914SOL    HW212642   5.518   1.058   0.733
 3915SOL     OW12643   4.744   5.159   0.164
 3915SOL    HW112644   4.780   5.082   0.111
 3915SOL    HW212645   4.676   5.125   0.230
 3916SOL     OW12646   1.800   0.850   2.642
 3916SOL    HW112647   1.872   0.904   2.598
 3916SOL    HW212648   1.767   0.897   2.724
 3917SOL     OW12649   2.844   4.849   0.703
 3917SOL    HW112650   2.805   4.766   0.743
 3917SOL    HW212651   2.907   4.891   0.769
 3918SOL     OW12652   5.488   0.380   0.578
 3918SOL    HW112653   5.411   0.438   0.552
 3918SOL    HW212654   5.461   0.321   0.654
 3919SOL     OW12655   3.897   0.379   1.460
 3919SOL    HW112656   3.877   0.405   1.554
 3919SOL    HW212657   3.840   0.434   1.398
 3920SOL     OW12658   2.900   0.887   5.661
 3920SOL    HW112659   2.955   0.856   5.584
 3920SOL    HW212660   2.806   0.904   5.631
 3921SOL     OW12661   0.639   2.602   6.454
 3921SOL    HW112662   0.587   2.686   6.473
 3921SOL    HW212663   0.602   2.560   6.371
 3922SOL     OW12664   4.616   5.044   2.525
 3922SOL    HW112665   4.575   4.982   2.458
 3922SOL    HW212666   4.715   5.034   2.523
 3923SOL     OW12667   5.008   0.573   1.638
 3923SOL    HW112668   5.026   0.550   1.734
 3923SOL    HW212669   4.980   0.491   1.588
 3924SOL     OW12670   6.405   4.377   4.358
 3924SOL    HW112671   6.415   4.401   4.455
 3924SOL    HW212672   6.479   4.314   4.332
 3925SOL     OW12673   4.612   3.665   1.028
 3925SOL    HW112674   4.653   3.688   1.116
 3925SOL    HW212675   4.662   3.713   0.955
 3926SOL     OW12676   0.424   0.143   5.361
 3926SOL    HW112677   0.349   0.078   5.372
 3926SOL    HW212678   0.399   0.231   5.403
 3927SOL     OW12679   6.611   2.905   5.073
 3927SOL    HW112680   6.707   2.901   5.100
 3927SOL    HW212681   6.583   3.001   5.064
 3928SOL     OW12682   2.037   6.432   2.746
 3928SOL    HW112683   2.045   6.332   2.744
 3928SOL    HW212684   2.002   6.461   2.835
 3929SOL     OW12685   0.436   2.072   5.375
 3929SOL    HW112686   0.422   2.041   5.280
 3929SOL    HW212687   0.440   1.992   5.435
 3930SOL     OW12688   1.102   3.716   3.853
 3930SOL    HW112689   1.096   3.636   3.793
 3930SOL    HW212690   1.172   3.779   3.817
 3931SOL     OW12691   1.408   2.157   1.692
 3931SOL    HW112692   1.450   2.212   1.764
 3931SOL    HW212693   1.350   2.215   1.635
 3932SOL     OW12694   1.496   5.887   4.150
 3932SOL    HW112695   1.428   5.816   4.164
 3932SOL    HW212696   1.523   5.889   4.053
 3933SOL     OW12697   2.324   4.972   0.500
 3933SOL    HW112698   2.416   5.009   0.518
 3933SOL    HW212699   2.306   4.974   0.401
 3934SOL     OW12700   0.440   1.882   2.018
 3934SOL    HW112701   0.401   1.954   2.076
 3934SOL    HW212702   0.454   1.800   2.073
 3935SOL     OW12703   6.577   3.453   6.997
 3935SOL    HW112704   6.483   3.468   6.966
 3935SOL    HW212705   6.634   3.426   6.919
 3936SOL     OW12706   0.062   5.322   5.636
 3936SOL    HW112707   0.127   5.311   5.560
 3936SOL    HW212708   0.113   5.331   5.722
 3937SOL     OW12709   0.029   6.922   2.255
 3937SOL    HW112710   0.089   6.924   2.335
 3937SOL    HW212711   6.971   6.872   2.278
 3938SOL     OW12712   0.158   4.127   3.048
 3938SOL    HW112713   0.247   4.087   3.024
 3938SOL    HW212714   0.107   4.147   2.964
 3939SOL     OW12715   0.786   1.007   2.259
 3939SOL    HW112716   0.848   1.009   2.180
 3939SOL    HW212717   0.699   1.051   2.235
 3940SOL     OW12718   3.150   4.547   1.333
 3940SOL    HW112719   3.055   4.554   1.363
 3940SOL    HW212720   3.188   4.459   1.361
 3941SOL     OW12721   6.193   0.089   4.365
 3941SOL    HW112722   6.098   0.082   4.395
 3941SOL    HW212723   6.225   0.184   4.378
 3942SOL     OW12724   0.482   5.985   6.287
 3942SOL    HW112725   0.543   5.917   6.246
 3942SOL    HW212726   0.521   6.016   6.374
 3943SOL     OW12727   1.477   3.134   0.483
 3943SOL    HW112728   1.405   3.196   0.514
 3943SOL    HW212729   1.511   3.081   0.561
 3944SOL     OW12730   5.998   2.102   7.001
 3944SOL    HW112731   6.073   2.042   0.002
 3944SOL    HW212732   5.973   2.083   6.906
 3945SOL     OW12733   0.093   1.301   2.912
 3945SOL    HW112734   0.129   1.267   2.825
 3945SOL    HW212735   0.003   1.261   2.930
 3946SOL     OW12736   1.205   3.008   0.654
 3946SOL    HW112737   1.131   2.955   0.695
 3946SOL    HW212738   1.170   3.059   0.576
 3947SOL     OW12739   5.903   5.056   1.227
 3947SOL    HW112740   5.899   5.037   1.129
 3947SOL    HW212741   5.998   5.072   1.254
 3948SOL     OW12742   1.507   2.192   6.175
 3948SOL    HW112743   1.562   2.218   6.254
 3948SOL    HW212744   1.479   2.096   6.183
 3949SOL     OW12745   6.134   6.319   2.334
 3949SOL    HW112746   6.117   6.415   2.313
 3949SOL    HW212747   6.186   6.312   2.419
 3950SOL     OW12748   3.288   4.288   1.061
 3950SOL    HW112749   3.195   4.258   1.040
 3950SOL    HW212750   3.299   4.294   1.160
 3951SOL     OW12751   0.840   1.907   5.451
 3951SOL    HW112752   0.935   1.924   5.423
 3951SOL    HW212753   0.778   1.963   5.395
 3952SOL     OW12754   6.511   3.742   5.632
 3952SOL    HW112755   6.544   3.655   5.595
 3952SOL    HW212756   6.589   3.801   5.652
 3953SOL     OW12757   3.598   4.297   6.096
 3953SOL    HW112758   3.552   4.239   6.028
 3953SOL    HW212759   3.643   4.373   6.049
 3954SOL     OW12760   0.896   3.659   5.400
 3954SOL    HW112761   0.972   3.696   5.348
 3954SOL    HW212762   0.811   3.673   5.350
 3955SOL     OW12763   5.579   4.988   0.144
 3955SOL    HW112764   5.529   4.938   0.074
 3955SOL    HW212765   5.539   4.970   0.234
 3956SOL     OW12766   0.465   2.861   5.624
 3956SOL    HW112767   0.399   2.856   5.550
 3956SOL    HW212768   0.512   2.950   5.620
 3957SOL     OW12769   1.790   0.372   3.284
 3957SOL    HW112770   1.861   0.303   3.301
 3957SOL    HW212771   1.801   0.408   3.191
 3958SOL     OW12772   5.917   6.389   5.247
 3958SOL    HW112773   5.940   6.387   5.150
 3958SOL    HW212774   5.943   6.478   5.285
 3959SOL     OW12775   2.936   5.171   0.068
 3959SOL    HW112776   2.838   5.155   0.060
 3959SOL    HW212777   2.986   5.085   0.052
 3960SOL     OW12778   4.164   3.420   0.270
 3960SOL    HW112779   4.212   3.480   0.333
 3960SOL    HW212780   4.069   3.409   0.299
 3961SOL     OW12781   4.761   0.525   1.378
 3961SOL    HW112782   4.755   0.503   1.476
 3961SOL    HW212783   4.718   0.452   1.325
 3962SOL     OW12784   0.585   0.314   6.262
 3962SOL    HW112785   0.625   0.405   6.249
 3962SOL    HW212786   0.655   0.251   6.296
 3963SOL     OW12787   4.450   5.608   3.205
 3963SOL    HW112788   4.529   5.618   3.265
 3963SOL    HW212789   4.366   5.625   3.256
 3964SOL     OW12790   5.290   5.958   5.235
 3964SOL    HW112791   5.244   5.904   5.305
 3964SOL    HW212792   5.230   5.969   5.156
 3965SOL     OW12793   3.373   3.339   0.220
 3965SOL    HW112794   3.388   3.426   0.173
 3965SOL    HW212795   3.341   3.357   0.313
 3966SOL     OW12796   6.051   3.895   5.138
 3966SOL    HW112797   6.130   3.952   5.162
 3966SOL    HW212798   5.987   3.948   5.083
 3967SOL     OW12799   0.425   5.547   6.029
 3967SOL    HW112800   0.345   5.603   6.048
 3967SOL    HW212801   0.486   5.595   5.966
 3968SOL     OW12802   6.246   1.207   2.072
 3968SOL    HW112803   6.307   1.283   2.090
 3968SOL    HW212804   6.201   1.180   2.158
 3969SOL     OW12805   0.369   5.110   2.521
 3969SOL    HW112806   0.423   5.116   2.437
 3969SOL    HW212807   0.407   5.172   2.589
 3970SOL     OW12808   5.227   4.373   2.950
 3970SOL    HW112809   5.200   4.469   2.946
 3970SOL    HW212810   5.202   4.328   2.864
 3971SOL     OW12811   1.353   5.845   3.064
 3971SOL    HW112812   1.402   5.783   3.003
 3971SOL    HW212813   1.362   5.939   3.030
 3972SOL     OW12814   0.819   0.109   0.113
 3972SOL    HW112815   0.843   0.057   0.195
 3972SOL    HW212816   0.862   0.200   0.117
 3973SOL     OW12817   2.921   3.455   4.387
 3973SOL    HW112818   2.878   3.420   4.470
 3973SOL    HW212819   2.968   3.541   4.408
 3974SOL     OW12820   6.043   1.570   6.704
 3974SOL    HW112821   6.044   1.573   6.604
 3974SOL    HW212822   5.971   1.630   6.739
 3975SOL     OW12823   6.644   0.594   5.960
 3975SOL    HW112824   6.596   0.557   6.039
 3975SOL    HW212825   6.728   0.541   5.943
 3976SOL     OW12826   1.080   3.049   0.410
 3976SOL    HW112827   1.004   3.113   0.411
 3976SOL    HW212828   1.149   3.080   0.343
 3977SOL     OW12829   3.317   6.046   6.553
 3977SOL    HW112830   3.394   6.052   6.489
 3977SOL    HW212831   3.233   6.030   6.502
 3978SOL     OW12832   6.223   2.940   6.422
 3978SOL    HW112833   6.172   3.024   6.403
 3978SOL    HW212834   6.306   2.938   6.366
 3979SOL     OW12835   0.442   6.832   2.185
 3979SOL    HW112836   0.435   6.816   2.283
 3979SOL    HW212837   0.488   6.919   2.168
 3980SOL     OW12838   5.108   3.217   4.512
 3980SOL    HW112839   5.115   3.142   4.446
 3980SOL    HW212840   5.012   3.231   4.537
 3981SOL     OW12841   6.930   1.838   6.892
 3981SOL    HW112842   7.000   1.851   6.962
 3981SOL    HW212843   6.848   1.889   6.916
 3982SOL     OW12844   2.270   2.055   3.704
 3982SOL    HW112845   2.230   2.105   3.627
 3982SOL    HW212846   2.345   1.997   3.671
 3983SOL     OW12847   3.095   6.014   4.420
 3983SOL    HW112848   3.000   5.998   4.447
 3983SOL    HW212849   3.103   6.106   4.381
 3984SOL     OW12850   2.289   6.381   1.296
 3984SOL    HW112851   2.197   6.408   1.323
 3984SOL    HW212852   2.291   6.364   1.198
 3985SOL     OW12853   2.385   2.973   1.640
 3985SOL    HW112854   2.415   2.963   1.545
 3985SOL    HW212855   2.452   3.029   1.689
 3986SOL     OW12856   0.556   2.096   1.774
 3986SOL    HW112857   0.648   2.118   1.743
 3986SOL    HW212858   0.543   2.129   1.868
 3987SOL     OW12859   2.602   4.880   6.450
 3987SOL    HW112860   2.603   4.943   6.372
 3987SOL    HW212861   2.691   4.880   6.494
 3988SOL     OW12862   4.256   2.742   0.658
 3988SOL    HW112863   4.202   2.775   0.581
 3988SOL    HW212864   4.194   2.707   0.729
 3989SOL     OW12865   5.204   6.814   6.741
 3989SOL    HW112866   5.159   6.772   6.820
 3989SOL    HW212867   5.280   6.756   6.711
 3990SOL     OW12868   0.760   3.323   3.408
 3990SOL    HW112869   0.772   3.392   3.336
 3990SOL    HW212870   0.742   3.369   3.495
 3991SOL     OW12871   0.114   2.087   3.992
 3991SOL    HW112872   0.078   2.181   3.993
 3991SOL    HW212873   0.129   2.058   3.898
 3992SOL     OW12874   4.320   3.659   6.299
 3992SOL    HW112875   4.357   3.726   6.364
 3992SOL    HW212876   4.246   3.608   6.341
 3993SOL     OW12877   2.699   2.378   3.005
 3993SOL    HW112878   2.652   2.380   3.094
 3993SOL    HW212879   2.658   2.447   2.945
 3994SOL     OW12880   2.187   3.025   3.616
 3994SOL    HW112881   2.191   3.124   3.628
 3994SOL    HW212882   2.232   2.980   3.693
 3995SOL     OW12883   2.150   3.956   3.282
 3995SOL    HW112884   2.058   3.949   3.320
 3995SOL    HW212885   2.215   3.977   3.355
 3996SOL     OW12886   0.296   1.216   3.074
 3996SOL    HW112887   0.321   1.133   3.024
 3996SOL    HW212888   0.238   1.273   3.016
 3997SOL     OW12889   5.583   3.909   3.055
 3997SOL    HW112890   5.559   3.812   3.052
 3997SOL    HW212891   5.568   3.949   2.965
 3998SOL     OW12892   6.531   2.096   3.236
 3998SOL    HW112893   6.622   2.112   3.274
 3998SOL    HW212894   6.497   2.006   3.266
 3999SOL     OW12895   5.522   3.627   2.410
 3999SOL    HW112896   5.557   3.534   2.399
 3999SOL    HW212897   5.548   3.681   2.330
 4000SOL     OW12898   2.323   5.660   2.001
 4000SOL    HW112899   2.229   5.666   1.967
 4000SOL    HW212900   2.336   5.573   2.048
 4001SOL     OW12901   2.589   3.758   5.349
 4001SOL    HW112902   2.683   3.785   5.325
 4001SOL    HW212903   2.525   3.816   5.299
 4002SOL     OW12904   3.650   2.911   4.122
 4002SOL    HW112905   3.599   2.874   4.200
 4002SOL    HW212906   3.623   2.864   4.039
 4003SOL     OW12907   2.281   0.919   5.593
 4003SOL    HW112908   2.296   0.993   5.527
 4003SOL    HW212909   2.259   0.958   5.682
 4004SOL     OW12910   0.297   3.883   2.948
 4004SOL    HW112911   0.237   3.857   2.872
 4004SOL    HW212912   0.379   3.927   2.913
 4005SOL     OW12913   4.634   3.707   1.671
 4005SOL    HW112914   4.725   3.686   1.707
 4005SOL    HW212915   4.594   3.625   1.630
 4006SOL     OW12916   4.899   5.212   2.740
 4006SOL    HW112917   4.812   5.240   2.781
 4006SOL    HW212918   4.882   5.145   2.668
 4007SOL     OW12919   0.560   1.722   3.029
 4007SOL    HW112920   0.482   1.784   3.039
 4007SOL    HW212921   0.529   1.627   3.037
 4008SOL     OW12922   2.349   6.902   0.766
 4008SOL    HW112923   2.297   6.902   0.681
 4008SOL    HW212924   2.291   6.932   0.842
 4009SOL     OW12925   4.570   1.802   1.061
 4009SOL    HW112926   4.529   1.844   0.980
 4009SOL    HW212927   4.515   1.824   1.142
 4010SOL     OW12928   3.275   4.279   1.353
 4010SOL    HW112929   3.348   4.313   1.413
 4010SOL    HW212930   3.235   4.197   1.393
 4011SOL     OW12931   6.313   6.163   0.536
 4011SOL    HW112932   6.374   6.154   0.615
 4011SOL    HW212933   6.367   6.178   0.454
 4012SOL     OW12934   4.114   6.636   1.817
 4012SOL    HW112935   4.151   6.638   1.724
 4012SOL    HW212936   4.115   6.729   1.856
 4013SOL     OW12937   1.690   0.778   1.165
 4013SOL    HW112938   1.749   0.858   1.153
 4013SOL    HW212939   1.714   0.730   1.249
 4014SOL     OW12940   2.689   5.521   3.453
 4014SOL    HW112941   2.780   5.492   3.422
 4014SOL    HW212942   2.673   5.616   3.426
 4015SOL     OW12943   4.310   5.313   6.311
 4015SOL    HW112944   4.332   5.217   6.328
 4015SOL    HW212945   4.362   5.346   6.233
 4016SOL     OW12946   3.288   5.923   6.197
 4016SOL    HW112947   3.361   5.856   6.185
 4016SOL    HW212948   3.207   5.895   6.146
 4017SOL     OW12949   0.690   5.367   5.796
 4017SOL    HW112950   0.650   5.442   5.744
 4017SOL    HW212951   0.766   5.327   5.745
 4018SOL     OW12952   3.602   6.049   1.818
 4018SOL    HW112953   3.677   5.984   1.824
 4018SOL    HW212954   3.597   6.086   1.725
 4019SOL     OW12955   5.467   3.154   2.454
 4019SOL    HW112956   5.481   3.113   2.544
 4019SOL    HW212957   5.528   3.109   2.388
 4020SOL     OW12958   6.753   4.052   4.190
 4020SOL    HW112959   6.765   3.959   4.225
 4020SOL    HW212960   6.688   4.051   4.114
 4021SOL     OW12961   3.621   3.797   5.943
 4021SOL    HW112962   3.630   3.873   5.879
 4021SOL    HW212963   3.602   3.713   5.893
 4022SOL     OW12964   3.244   6.712   0.657
 4022SOL    HW112965   3.185   6.776   0.607
 4022SOL    HW212966   3.217   6.618   0.635
 4023SOL     OW12967   0.374   1.963   5.799
 4023SOL    HW112968   0.431   2.043   5.818
 4023SOL    HW212969   0.386   1.935   5.704
 4024SOL     OW12970   1.392   5.221   4.155
 4024SOL    HW112971   1.295   5.220   4.181
 4024SOL    HW212972   1.440   5.148   4.202
 4025SOL     OW12973   1.035   6.004   4.047
 4025SOL    HW112974   1.099   5.935   4.081
 4025SOL    HW212975   1.081   6.062   3.979
 4026SOL     OW12976   6.525   6.125   3.984
 4026SOL    HW112977   6.503   6.142   4.079
 4026SOL    HW212978   6.603   6.062   3.979
 4027SOL     OW12979   2.400   2.025   6.512
 4027SOL    HW112980   2.364   2.086   6.584
 4027SOL    HW212981   2.405   2.075   6.426
 4028SOL     OW12982   4.723   1.562   3.311
 4028SOL    HW112983   4.728   1.463   3.297
 4028SOL    HW212984   4.644   1.599   3.262
 4029SOL     OW12985   2.763   4.138   6.628
 4029SOL    HW112986   2.706   4.155   6.547
 4029SOL    HW212987   2.747   4.209   6.695
 4030SOL     OW12988   6.962   1.019   2.283
 4030SOL    HW112989   6.883   0.983   2.332
 4030SOL    HW212990   6.977   1.114   2.309
 4031SOL     OW12991   5.617   0.272   2.154
 4031SOL    HW112992   5.611   0.183   2.201
 4031SOL    HW212993   5.685   0.266   2.081
 4032SOL     OW12994   6.210   6.502   1.423
 4032SOL    HW112995   6.213   6.436   1.348
 4032SOL    HW212996   6.172   6.458   1.504
 4033SOL     OW12997   2.977   2.226   2.738
 4033SOL    HW112998   2.914   2.291   2.695
 4033SOL    HW212999   3.049   2.275   2.787
 4034SOL     OW13000   6.498   2.757   5.269
 4034SOL    HW113001   6.526   2.782   5.176
 4034SOL    HW213002   6.403   2.785   5.284
 4035SOL     OW13003   6.579   2.498   1.533
 4035SOL    HW113004   6.635   2.488   1.615
 4035SOL    HW213005   6.499   2.437   1.540
 4036SOL     OW13006   3.778   4.988   2.430
 4036SOL    HW113007   3.876   5.007   2.430
 4036SOL    HW213008   3.745   4.980   2.336
 4037SOL     OW13009   3.169   0.854   6.045
 4037SOL    HW113010   3.077   0.874   6.011
 4037SOL    HW213011   3.213   0.787   5.986
 4038SOL     OW13012   4.539   3.447   6.711
 4038SOL    HW113013   4.525   3.352   6.738
 4038SOL    HW213014   4.565   3.451   6.614
 4039SOL     OW13015   5.303   5.914   1.439
 4039SOL    HW113016   5.344   5.932   1.528
 4039SOL    HW213017   5.264   5.822   1.439
 4040SOL     OW13018   3.197   5.714   4.838
 4040SOL    HW113019   3.148   5.798   4.864
 4040SOL    HW213020   3.290   5.738   4.808
 4041SOL     OW13021   1.834   6.439   1.361
 4041SOL    HW113022   1.780   6.519   1.386
 4041SOL    HW213023   1.830   6.372   1.436
 4042SOL     OW13024   5.797   6.410   3.119
 4042SOL    HW113025   5.794   6.510   3.120
 4042SOL    HW213026   5.795   6.378   3.024
 4043SOL     OW13027   6.365   2.071   6.789
 4043SOL    HW113028   6.427   2.046   6.715
 4043SOL    HW213029   6.398   2.155   6.832
 4044SOL     OW13030   4.959   4.761   2.646
 4044SOL    HW113031   4.984   4.844   2.695
 4044SOL    HW213032   5.018   4.686   2.675
 4045SOL     OW13033   4.014   6.620   6.340
 4045SOL    HW113034   4.103   6.576   6.348
 4045SOL    HW213035   4.012   6.678   6.258
 4046SOL     OW13036   0.708   1.622   2.644
 4046SOL    HW113037   0.746   1.668   2.564
 4046SOL    HW213038   0.676   1.690   2.710
 4047SOL     OW13039   2.126   2.271   0.260
 4047SOL    HW113040   2.055   2.294   0.194
 4047SOL    HW213041   2.134   2.171   0.267
 4048SOL     OW13042   5.212   1.152   2.143
 4048SOL    HW113043   5.269   1.232   2.125
 4048SOL    HW213044   5.192   1.106   2.056
 4049SOL     OW13045   4.444   6.495   6.667
 4049SOL    HW113046   4.422   6.567   6.602
 4049SOL    HW213047   4.428   6.528   6.760
 4050SOL     OW13048   0.799   5.816   2.097
 4050SOL    HW113049   0.758   5.805   2.188
 4050SOL    HW213050   0.838   5.908   2.090
 4051SOL     OW13051   4.963   1.380   6.596
 4051SOL    HW113052   4.945   1.285   6.619
 4051SOL    HW213053   4.997   1.386   6.502
 4052SOL     OW13054   5.816   2.200   3.330
 4052SOL    HW113055   5.821   2.232   3.235
 4052SOL    HW213056   5.908   2.179   3.363
 4053SOL     OW13057   1.788   5.969   4.822
 4053SOL    HW113058   1.775   6.064   4.793
 4053SOL    HW213059   1.804   5.912   4.741
 4054SOL     OW13060   4.689   4.557   1.502
 4054SOL    HW113061   4.651   4.487   1.562
 4054SOL    HW213062   4.758   4.516   1.443
 4055SOL     OW13063   1.316   3.989   1.873
 4055SOL    HW113064   1.244   3.929   1.839
 4055SOL    HW213065   1.370   4.024   1.795
 4056SOL     OW13066   4.857   3.853   1.317
 4056SOL    HW113067   4.805   3.771   1.341
 4056SOL    HW213068   4.945   3.827   1.276
 4057SOL     OW13069   6.660   3.095   6.623
 4057SOL    HW113070   6.600   3.134   6.553
 4057SOL    HW213071   6.711   3.169   6.668
 4058SOL     OW13072   2.524   6.411   4.875
 4058SOL    HW113073   2.501   6.459   4.960
 4058SOL    HW213074   2.615   6.372   4.881
 4059SOL     OW13075   6.955   3.088   3.197
 4059SOL    HW113076   6.883   3.066   3.130
 4059SOL    HW213077   7.001   3.004   3.225
 4060SOL     OW13078   6.127   5.225   5.626
 4060SOL    HW113079   6.074   5.296   5.673
 4060SOL    HW213080   6.083   5.204   5.538
 4061SOL     OW13081   2.529   4.650   1.988
 4061SOL    HW113082   2.629   4.641   1.994
 4061SOL    HW213083   2.506   4.733   1.938
 4062SOL     OW13084   2.799   0.235   1.704
 4062SOL    HW113085   2.861   0.284   1.765
 4062SOL    HW213086   2.708   0.229   1.745
 4063SOL     OW13087   5.995   6.797   0.643
 4063SOL    HW113088   6.015   6.718   0.701
 4063SOL    HW213089   5.901   6.792   0.611
 4064SOL     OW13090   2.918   2.238   4.672
 4064SOL    HW113091   3.018   2.241   4.666
 4064SOL    HW213092   2.891   2.242   4.768
 4065SOL     OW13093   0.700   0.362   1.349
 4065SOL    HW113094   0.622   0.424   1.355
 4065SOL    HW213095   0.700   0.300   1.427
 4066SOL     OW13096   6.427   3.790   3.011
 4066SOL    HW113097   6.457   3.825   2.922
 4066SOL    HW213098   6.471   3.843   3.084
 4067SOL     OW13099   5.617   3.927   3.540
 4067SOL    HW113100   5.714   3.906   3.544
 4067SOL    HW213101   5.576   3.883   3.461
 4068SOL     OW13102   2.047   2.034   4.135
 4068SOL    HW113103   2.128   2.092   4.131
 4068SOL    HW213104   2.042   1.980   4.050
 4069SOL     OW13105   3.262   5.821   7.012
 4069SOL    HW113106   3.343   5.811   0.043
 4069SOL    HW213107   3.187   5.767   0.023
 4070SOL     OW13108   0.969   3.324   2.879
 4070SOL    HW113109   0.953   3.272   2.963
 4070SOL    HW213110   0.921   3.412   2.885
 4071SOL     OW13111   1.431   0.740   4.773
 4071SOL    HW113112   1.478   0.823   4.741
 4071SOL    HW213113   1.356   0.765   4.833
 4072SOL     OW13114   0.579   5.099   5.176
 4072SOL    HW113115   0.646   5.058   5.239
 4072SOL    HW213116   0.610   5.085   5.082
 4073SOL     OW13117   2.698   5.363   6.040
 4073SOL    HW113118   2.716   5.461   6.053
 4073SOL    HW213119   2.775   5.310   6.075
 4074SOL     OW13120   0.575   4.538   1.385
 4074SOL    HW113121   0.648   4.555   1.318
 4074SOL    HW213122   0.616   4.529   1.476
 4075SOL     OW13123   4.696   1.851   1.463
 4075SOL    HW113124   4.767   1.880   1.527
 4075SOL    HW213125   4.735   1.788   1.396
 4076SOL     OW13126   3.564   3.664   5.567
 4076SOL    HW113127   3.572   3.619   5.656
 4076SOL    HW213128   3.629   3.623   5.503
 4077SOL     OW13129   4.149   1.706   1.212
 4077SOL    HW113130   4.162   1.607   1.217
 4077SOL    HW213131   4.063   1.726   1.166
 4078SOL     OW13132   2.512   5.227   2.406
 4078SOL    HW113133   2.437   5.222   2.340
 4078SOL    HW213134   2.597   5.198   2.362
 4079SOL     OW13135   2.325   1.447   3.191
 4079SOL    HW113136   2.335   1.351   3.214
 4079SOL    HW213137   2.396   1.500   3.239
 4080SOL     OW13138   5.186   2.396   5.776
 4080SOL    HW113139   5.266   2.367   5.828
 4080SOL    HW213140   5.214   2.452   5.698
 4081SOL     OW13141   1.486   2.697   4.068
 4081SOL    HW113142   1.388   2.692   4.083
 4081SOL    HW213143   1.534   2.696   4.156
 4082SOL     OW13144   0.937   3.933   0.741
 4082SOL    HW113145   0.956   3.936   0.642
 4082SOL    HW213146   0.970   3.846   0.778
 4083SOL     OW13147   6.011   3.223   3.122
 4083SOL    HW113148   6.094   3.275   3.138
 4083SOL    HW213149   6.030   3.125   3.133
 4084SOL     OW13150   5.754   1.935   3.985
 4084SOL    HW113151   5.835   1.914   4.039
 4084SOL    HW213152   5.774   1.920   3.888
 4085SOL     OW13153   3.690   5.490   0.793
 4085SOL    HW113154   3.712   5.492   0.890
 4085SOL    HW213155   3.594   5.515   0.780
 4086SOL     OW13156   2.705   6.181   1.259
 4086SOL    HW113157   2.625   6.158   1.203
 4086SOL    HW213158   2.688   6.156   1.354
 4087SOL     OW13159   2.675   2.435   3.373
 4087SOL    HW113160   2.615   2.515   3.366
 4087SOL    HW213161   2.654   2.372   3.298
 4088SOL     OW13162   7.022   1.629   0.944
 4088SOL    HW113163   7.005   1.555   1.009
 4088SOL    HW213164   0.072   1.603   0.884
 4089SOL     OW13165   6.479   6.238   3.403
 4089SOL    HW113166   6.535   6.317   3.429
 4089SOL    HW213167   6.448   6.190   3.485
 4090SOL     OW13168   2.800   3.943   5.705
 4090SOL    HW113169   2.867   3.870   5.690
 4090SOL    HW213170   2.729   3.937   5.635
 4091SOL     OW13171   6.621   6.662   0.559
 4091SOL    HW113172   6.617   6.712   0.472
 4091SOL    HW213173   6.622   6.727   0.635
 4092SOL     OW13174   6.564   3.181   5.122
 4092SOL    HW113175   6.545   3.239   5.043
 4092SOL    HW213176   6.560   3.236   5.205
 4093SOL     OW13177   4.388   0.716   3.619
 4093SOL    HW113178   4.403   0.677   3.710
 4093SOL    HW213179   4.421   0.810   3.618
 4094SOL     OW13180   2.220   5.432   5.013
 4094SOL    HW113181   2.262   5.451   4.924
 4094SOL    HW213182   2.123   5.457   5.010
 4095SOL     OW13183   0.935   3.731   6.686
 4095SOL    HW113184   0.914   3.645   6.732
 4095SOL    HW213185   0.995   3.713   6.608
 4096SOL     OW13186   4.170   5.432   1.099
 4096SOL    HW113187   4.185   5.489   1.018
 4096SOL    HW213188   4.226   5.467   1.175
 4097SOL     OW13189   3.915   4.011   6.236
 4097SOL    HW113190   3.837   4.042   6.182
 4097SOL    HW213191   3.883   3.959   6.315
 4098SOL     OW13192   0.338   3.146   2.247
 4098SOL    HW113193   0.365   3.211   2.318
 4098SOL    HW213194   0.386   3.167   2.162
 4099SOL     OW13195   2.867   4.515   1.389
 4099SOL    HW113196   2.835   4.609   1.393
 4099SOL    HW213197   2.825   4.463   1.464
 4100SOL     OW13198   6.101   6.029   5.050
 4100SOL    HW113199   6.067   6.023   4.956
 4100SOL    HW213200   6.200   6.035   5.049
 4101SOL     OW13201   5.545   1.013   0.337
 4101SOL    HW113202   5.560   1.051   0.245
 4101SOL    HW213203   5.531   0.914   0.330
 4102SOL     OW13204   6.957   0.498   1.866
 4102SOL    HW113205   6.858   0.516   1.866
 4102SOL    HW213206   7.006   0.584   1.851
 4103SOL     OW13207   0.342   0.740   1.752
 4103SOL    HW113208   0.438   0.743   1.779
 4103SOL    HW213209   0.285   0.725   1.833
 4104SOL     OW13210   1.342   4.588   2.593
 4104SOL    HW113211   1.436   4.619   2.611
 4104SOL    HW213212   1.324   4.593   2.495
 4105SOL     OW13213   4.027   5.521   1.480
 4105SOL    HW113214   4.125   5.519   1.498
 4105SOL    HW213215   4.004   5.457   1.408
 4106SOL     OW13216   0.013   2.100   5.355
 4106SOL    HW113217   0.066   2.166   5.302
 4106SOL    HW213218   0.070   2.021   5.378
 4107SOL     OW13219   1.109   5.726   0.730
 4107SOL    HW113220   1.074   5.816   0.705
 4107SOL    HW213221   1.033   5.665   0.750
 4108SOL     OW13222   0.317   5.096   5.908
 4108SOL    HW113223   0.259   5.059   5.836
 4108SOL    HW213224   0.261   5.124   5.985
 4109SOL     OW13225   4.843   6.423   5.352
 4109SOL    HW113226   4.815   6.330   5.374
 4109SOL    HW213227   4.835   6.438   5.253
 4110SOL     OW13228   4.668   3.321   6.489
 4110SOL    HW113229   4.763   3.339   6.512
 4110SOL    HW213230   4.647   3.361   6.399
 4111SOL     OW13231   3.853   2.965   6.404
 4111SOL    HW113232   3.861   3.046   6.346
 4111SOL    HW213233   3.881   2.884   6.351
 4112SOL     OW13234   4.891   1.196   5.684
 4112SOL    HW113235   4.920   1.116   5.737
 4112SOL    HW213236   4.962   1.220   5.617
 4113SOL     OW13237   4.662   6.507   4.715
 4113SOL    HW113238   4.694   6.567   4.642
 4113SOL    HW213239   4.700   6.415   4.701
 4114SOL     OW13240   3.974   2.125   3.557
 4114SOL    HW113241   4.014   2.183   3.485
 4114SOL    HW213242   3.892   2.169   3.594
 4115SOL     OW13243   4.578   6.003   2.337
 4115SOL    HW113244   4.626   5.981   2.423
 4115SOL    HW213245   4.480   5.990   2.350
 4116SOL     OW13246   4.605   2.268   1.735
 4116SOL    HW113247   4.527   2.235   1.682
 4116SOL    HW213248   4.688   2.264   1.678
 4117SOL     OW13249   0.386   4.883   1.710
 4117SOL    HW113250   0.380   4.848   1.804
 4117SOL    HW213251   0.357   4.979   1.708
 4118SOL     OW13252   1.766   5.975   0.560
 4118SOL    HW113253   1.714   5.899   0.601
 4118SOL    HW213254   1.743   5.983   0.463
 4119SOL     OW13255   4.226   1.333   3.285
 4119SOL    HW113256   4.277   1.369   3.364
 4119SOL    HW213257   4.268   1.368   3.201
 4120SOL     OW13258   4.129   0.546   0.650
 4120SOL    HW113259   4.047   0.586   0.691
 4120SOL    HW213260   4.164   0.608   0.580
 4121SOL     OW13261   6.198   0.934   4.859
 4121SOL    HW113262   6.218   1.031   4.870
 4121SOL    HW213263   6.183   0.893   4.949
 4122SOL     OW13264   0.821   6.713   5.675
 4122SOL    HW113265   0.808   6.743   5.581
 4122SOL    HW213266   0.872   6.782   5.725
 4123SOL     OW13267   4.928   4.989   5.438
 4123SOL    HW113268   4.846   5.010   5.492
 4123SOL    HW213269   4.983   5.072   5.427
 4124SOL     OW13270   5.883   5.082   6.202
 4124SOL    HW113271   5.857   5.038   6.116
 4124SOL    HW213272   5.949   5.155   6.183
 4125SOL     OW13273   4.406   1.062   2.027
 4125SOL    HW113274   4.441   1.134   1.967
 4125SOL    HW213275   4.317   1.031   1.992
 4126SOL     OW13276   1.292   4.653   4.148
 4126SOL    HW113277   1.249   4.570   4.113
 4126SOL    HW213278   1.368   4.628   4.208
 4127SOL     OW13279   4.963   4.352   4.549
 4127SOL    HW113280   5.007   4.291   4.483
 4127SOL    HW213281   4.890   4.303   4.596
 4128SOL     OW13282   1.860   3.665   2.286
 4128SOL    HW113283   1.880   3.654   2.384
 4128SOL    HW213284   1.944   3.654   2.233
 4129SOL     OW13285   5.419   1.221   6.562
 4129SOL    HW113286   5.341   1.189   6.616
 4129SOL    HW213287   5.427   1.165   6.479
 4130SOL     OW13288   0.001   3.685   5.598
 4130SOL    HW113289   6.934   3.662   5.628
 4130SOL    HW213290   0.012   3.659   5.502
 4131SOL     OW13291   1.096   5.942   3.465
 4131SOL    HW113292   1.189   5.906   3.469
 4131SOL    HW213293   1.099   6.041   3.467
 4132SOL     OW13294   5.344   4.527   3.620
 4132SOL    HW113295   5.284   4.605   3.602
 4132SOL    HW213296   5.437   4.550   3.592
 4133SOL     OW13297   2.782   6.865   1.411
 4133SOL    HW113298   2.860   6.809   1.384
 4133SOL    HW213299   2.698   6.810   1.407
 4134SOL     OW13300   1.876   2.440   0.569
 4134SOL    HW113301   1.817   2.369   0.532
 4134SOL    HW213302   1.821   2.507   0.619
 4135SOL     OW13303   2.028   0.569   2.830
 4135SOL    HW113304   2.000   0.624   2.751
 4135SOL    HW213305   2.110   0.608   2.871
 4136SOL     OW13306   0.957   1.973   3.083
 4136SOL    HW113307   0.920   1.883   3.109
 4136SOL    HW213308   0.882   2.037   3.071
 4137SOL     OW13309   2.277   3.513   1.240
 4137SOL    HW113310   2.310   3.587   1.299
 4137SOL    HW213311   2.288   3.426   1.287
 4138SOL     OW13312   3.924   5.506   3.477
 4138SOL    HW113313   3.830   5.474   3.483
 4138SOL    HW213314   3.968   5.466   3.396
 4139SOL     OW13315   2.313   2.300   5.659
 4139SOL    HW113316   2.219   2.334   5.659
 4139SOL    HW213317   2.320   2.219   5.601
 4140SOL     OW13318   2.870   0.341   5.114
 4140SOL    HW113319   2.839   0.251   5.145
 4140SOL    HW213320   2.964   0.356   5.145
 4141SOL     OW13321   5.068   5.795   1.264
 4141SOL    HW113322   5.076   5.886   1.223
 4141SOL    HW213323   5.117   5.729   1.207
 4142SOL     OW13324   6.903   5.919   0.558
 4142SOL    HW113325   6.940   5.864   0.632
 4142SOL    HW213326   6.874   5.860   0.483
 4143SOL     OW13327   6.770   3.146   6.978
 4143SOL    HW113328   6.702   3.076   6.954
 4143SOL    HW213329   6.777   3.212   6.904
 4144SOL     OW13330   5.768   2.996   0.559
 4144SOL    HW113331   5.814   2.907   0.562
 4144SOL    HW213332   5.669   2.982   0.552
 4145SOL     OW13333   0.055   5.796   1.867
 4145SOL    HW113334   0.109   5.834   1.792
 4145SOL    HW213335   7.020   5.725   1.832
 4146SOL     OW13336   6.224   0.254   5.168
 4146SOL    HW113337   6.255   0.285   5.258
 4146SOL    HW213338   6.300   0.254   5.104
 4147SOL     OW13339   3.818   1.821   5.441
 4147SOL    HW113340   3.828   1.722   5.427
 4147SOL    HW213341   3.743   1.855   5.385
 4148SOL     OW13342   0.633   0.091   3.707
 4148SOL    HW113343   0.539   0.127   3.711
 4148SOL    HW213344   0.659   0.078   3.611
 4149SOL     OW13345   0.676   3.154   0.084
 4149SOL    HW113346   0.582   3.164   0.050
 4149SOL    HW213347   0.673   3.137   0.183
 4150SOL     OW13348   6.324   0.483   6.070
 4150SOL    HW113349   6.334   0.392   6.029
 4150SOL    HW213350   6.331   0.552   5.998
 4151SOL     OW13351   4.718   6.485   6.676
 4151SOL    HW113352   4.735   6.398   6.720
 4151SOL    HW213353   4.620   6.500   6.667
 4152SOL     OW13354   2.879   5.421   1.366
 4152SOL    HW113355   2.834   5.462   1.445
 4152SOL    HW213356   2.918   5.493   1.308
 4153SOL     OW13357   5.018   5.385   6.060
 4153SOL    HW113358   5.113   5.372   6.088
 4153SOL    HW213359   5.012   5.387   5.960
 4154SOL     OW13360   7.004   4.114   5.455
 4154SOL    HW113361   6.979   4.058   5.534
 4154SOL    HW213362   0.057   4.171   5.478
 4155SOL     OW13363   5.746   2.941   3.305
 4155SOL    HW113364   5.733   2.845   3.279
 4155SOL    HW213365   5.823   2.948   3.368
 4156SOL     OW13366   5.345   0.054   5.368
 4156SOL    HW113367   5.304   0.028   5.280
 4156SOL    HW213368   5.438   0.019   5.373
 4157SOL     OW13369   4.014   6.761   3.718
 4157SOL    HW113370   4.060   6.741   3.632
 4157SOL    HW213371   3.968   6.850   3.711
 4158SOL     OW13372   1.694   5.391   4.197
 4158SOL    HW113373   1.770   5.326   4.190
 4158SOL    HW213374   1.717   5.474   4.147
 4159SOL     OW13375   1.790   3.441   3.942
 4159SOL    HW113376   1.743   3.512   3.995
 4159SOL    HW213377   1.856   3.484   3.880
 4160SOL     OW13378   6.578   0.494   1.007
 4160SOL    HW113379   6.620   0.430   0.944
 4160SOL    HW213380   6.509   0.549   0.958
 4161SOL     OW13381   2.312   6.416   6.148
 4161SOL    HW113382   2.282   6.332   6.192
 4161SOL    HW213383   2.411   6.426   6.158
 4162SOL     OW13384   6.467   0.315   4.989
 4162SOL    HW113385   6.483   0.406   4.952
 4162SOL    HW213386   6.509   0.309   5.080
 4163SOL     OW13387   5.984   1.478   3.303
 4163SOL    HW113388   6.011   1.381   3.310
 4163SOL    HW213389   6.014   1.527   3.384
 4164SOL     OW13390   1.229   6.781   6.121
 4164SOL    HW113391   1.141   6.792   6.167
 4164SOL    HW213392   1.228   6.698   6.065
 4165SOL     OW13393   4.828   0.304   0.657
 4165SOL    HW113394   4.752   0.344   0.606
 4165SOL    HW213395   4.793   0.235   0.720
 4166SOL     OW13396   5.664   2.708   0.849
 4166SOL    HW113397   5.738   2.644   0.867
 4166SOL    HW213398   5.581   2.658   0.824
 4167SOL     OW13399   2.486   3.502   0.467
 4167SOL    HW113400   2.422   3.429   0.441
 4167SOL    HW213401   2.576   3.463   0.483
 4168SOL     OW13402   0.873   4.809   1.025
 4168SOL    HW113403   0.903   4.893   1.071
 4168SOL    HW213404   0.791   4.828   0.971
 4169SOL     OW13405   5.546   3.602   4.222
 4169SOL    HW113406   5.609   3.582   4.147
 4169SOL    HW213407   5.468   3.540   4.216
 4170SOL     OW13408   3.538   3.168   5.069
 4170SOL    HW113409   3.604   3.093   5.071
 4170SOL    HW213410   3.531   3.205   4.976
 4171SOL     OW13411   5.440   4.647   0.968
 4171SOL    HW113412   5.474   4.714   0.902
 4171SOL    HW213413   5.396   4.571   0.920
 4172SOL     OW13414   0.022   2.238   6.255
 4172SOL    HW113415   0.057   2.226   6.348
 4172SOL    HW213416   6.952   2.268   6.258
 4173SOL     OW13417   5.923   3.164   4.834
 4173SOL    HW113418   6.009   3.138   4.879
 4173SOL    HW213419   5.942   3.198   4.742
 4174SOL     OW13420   5.709   0.901   3.843
 4174SOL    HW113421   5.789   0.867   3.793
 4174SOL    HW213422   5.721   0.998   3.862
 4175SOL     OW13423   2.706   6.510   4.684
 4175SOL    HW113424   2.664   6.521   4.594
 4175SOL    HW213425   2.634   6.491   4.752
 4176SOL     OW13426   3.343   6.813   2.414
 4176SOL    HW113427   3.405   6.735   2.418
 4176SOL    HW213428   3.367   6.878   2.486
 4177SOL     OW13429   0.507   5.317   5.453
 4177SOL    HW113430   0.496   5.284   5.547
 4177SOL    HW213431   0.478   5.412   5.448
 4178SOL     OW13432   3.368   0.911   4.379
 4178SOL    HW113433   3.410   0.824   4.352
 4178SOL    HW213434   3.439   0.980   4.391
 4179SOL     OW13435   4.943   3.417   4.259
 4179SOL    HW113436   4.977   3.434   4.167
 4179SOL    HW213437   4.871   3.348   4.257
 4180SOL     OW13438   5.400   4.059   2.492
 4180SOL    HW113439   5.301   4.054   2.479
 4180SOL    HW213440   5.428   3.995   2.563
 4181SOL     OW13441   2.146   1.493   5.868
 4181SOL    HW113442   2.131   1.417   5.931
 4181SOL    HW213443   2.243   1.518   5.869
 4182SOL     OW13444   0.153   0.224   2.940
 4182SOL    HW113445   0.065   0.198   2.979
 4182SOL    HW213446   0.226   0.171   2.982
 4183SOL     OW13447   3.151   1.346   1.516
 4183SOL    HW113448   3.184   1.410   1.586
 4183SOL    HW213449   3.173   1.382   1.426
 4184SOL     OW13450   4.162   4.345   1.458
 4184SOL    HW113451   4.195   4.251   1.447
 4184SOL    HW213452   4.062   4.346   1.451
 4185SOL     OW13453   0.674   5.146   3.417
 4185SOL    HW113454   0.740   5.072   3.406
 4185SOL    HW213455   0.712   5.230   3.380
 4186SOL     OW13456   2.219   4.291   0.205
 4186SOL    HW113457   2.273   4.374   0.220
 4186SOL    HW213458   2.166   4.301   0.121
 4187SOL     OW13459   3.580   3.319   5.927
 4187SOL    HW113460   3.578   3.353   6.021
 4187SOL    HW213461   3.618   3.227   5.926
 4188SOL     OW13462   5.008   0.282   4.482
 4188SOL    HW113463   5.065   0.346   4.429
 4188SOL    HW213464   5.060   0.247   4.559
 4189SOL     OW13465   3.133   1.801   4.503
 4189SOL    HW113466   3.229   1.830   4.511
 4189SOL    HW213467   3.091   1.846   4.424
 4190SOL     OW13468   2.446   6.916   6.317
 4190SOL    HW113469   2.480   6.873   6.234
 4190SOL    HW213470   2.410   7.007   6.295
 4191SOL     OW13471   5.725   3.687   2.814
 4191SOL    HW113472   5.677   3.727   2.736
 4191SOL    HW213473   5.800   3.747   2.842
 4192SOL     OW13474   6.813   1.734   3.521
 4192SOL    HW113475   6.864   1.648   3.528
 4192SOL    HW213476   6.810   1.764   3.426
 4193SOL     OW13477   2.544   6.302   1.052
 4193SOL    HW113478   2.601   6.374   1.092
 4193SOL    HW213479   2.567   6.293   0.955
 4194SOL     OW13480   6.573   1.946   4.831
 4194SOL    HW113481   6.535   1.904   4.749
 4194SOL    HW213482   6.669   1.920   4.840
 4195SOL     OW13483   3.820   0.587   1.750
 4195SOL    HW113484   3.785   0.679   1.766
 4195SOL    HW213485   3.828   0.539   1.837
 4196SOL     OW13486   6.034   2.424   4.351
 4196SOL    HW113487   6.003   2.511   4.312
 4196SOL    HW213488   5.979   2.403   4.432
 4197SOL     OW13489   5.245   4.733   3.877
 4197SOL    HW113490   5.273   4.653   3.825
 4197SOL    HW213491   5.326   4.789   3.897
 4198SOL     OW13492   6.367   3.672   0.327
 4198SOL    HW113493   6.456   3.627   0.326
 4198SOL    HW213494   6.331   3.677   0.234
 4199SOL     OW13495   2.418   3.421   5.903
 4199SOL    HW113496   2.437   3.506   5.853
 4199SOL    HW213497   2.490   3.406   5.971
 4200SOL     OW13498   2.874   6.423   5.444
 4200SOL    HW113499   2.792   6.454   5.492
 4200SOL    HW213500   2.955   6.467   5.484
 4201SOL     OW13501   5.718   6.619   3.864
 4201SOL    HW113502   5.719   6.534   3.812
 4201SOL    HW213503   5.746   6.601   3.958
 4202SOL     OW13504   4.509   4.824   5.518
 4202SOL    HW113505   4.588   4.786   5.566
 4202SOL    HW213506   4.490   4.917   5.553
 4203SOL     OW13507   4.398   5.816   2.876
 4203SOL    HW113508   4.417   5.799   2.973
 4203SOL    HW213509   4.348   5.902   2.866
 4204SOL     OW13510   3.217   2.892   1.998
 4204SOL    HW113511   3.180   2.968   1.943
 4204SOL    HW213512   3.217   2.919   2.094
 4205SOL     OW13513   3.757   4.901   4.202
 4205SOL    HW113514   3.693   4.889   4.126
 4205SOL    HW213515   3.707   4.933   4.282
 4206SOL     OW13516   4.641   0.940   6.355
 4206SOL    HW113517   4.609   0.974   6.444
 4206SOL    HW213518   4.670   1.018   6.299
 4207SOL     OW13519   2.122   1.441   1.823
 4207SOL    HW113520   2.110   1.349   1.787
 4207SOL    HW213521   2.070   1.506   1.768
 4208SOL     OW13522   1.539   2.136   0.927
 4208SOL    HW113523   1.449   2.166   0.894
 4208SOL    HW213524   1.610   2.192   0.885
 4209SOL     OW13525   1.587   1.274   4.915
 4209SOL    HW113526   1.646   1.232   4.985
 4209SOL    HW213527   1.622   1.251   4.825
 4210SOL     OW13528   3.175   3.377   1.923
 4210SOL    HW113529   3.106   3.446   1.944
 4210SOL    HW213530   3.254   3.420   1.879
 4211SOL     OW13531   5.122   5.491   5.631
 4211SOL    HW113532   5.103   5.535   5.543
 4211SOL    HW213533   5.193   5.423   5.619
 4212SOL     OW13534   6.872   2.145   2.223
 4212SOL    HW113535   6.900   2.215   2.289
 4212SOL    HW213536   6.954   2.108   2.177
 4213SOL     OW13537   2.362   0.516   2.538
 4213SOL    HW113538   2.398   0.457   2.610
 4213SOL    HW213539   2.427   0.591   2.521
 4214SOL     OW13540   1.015   3.871   6.269
 4214SOL    HW113541   0.940   3.937   6.276
 4214SOL    HW213542   1.045   3.865   6.173
 4215SOL     OW13543   0.233   5.939   4.521
 4215SOL    HW113544   0.194   6.018   4.474
 4215SOL    HW213545   0.164   5.899   4.581
 4216SOL     OW13546   1.424   1.939   4.217
 4216SOL    HW113547   1.409   2.027   4.171
 4216SOL    HW213548   1.398   1.947   4.313
 4217SOL     OW13549   6.497   6.830   2.907
 4217SOL    HW113550   6.453   6.753   2.954
 4217SOL    HW213551   6.581   6.798   2.862
 4218SOL     OW13552   5.180   6.945   1.834
 4218SOL    HW113553   5.215   0.001   1.788
 4218SOL    HW213554   5.165   6.873   1.767
 4219SOL     OW13555   3.073   4.732   5.280
 4219SOL    HW113556   3.004   4.800   5.303
 4219SOL    HW213557   3.028   4.649   5.247
 4220SOL     OW13558   6.455   3.535   2.763
 4220SOL    HW113559   6.499   3.621   2.789
 4220SOL    HW213560   6.508   3.458   2.799
 4221SOL     OW13561   6.080   6.049   6.572
 4221SOL    HW113562   6.096   6.013   6.664
 4221SOL    HW213563   5.987   6.026   6.543
 4222SOL     OW13564   6.118   2.027   2.308
 4222SOL    HW113565   6.110   2.007   2.405
 4222SOL    HW213566   6.030   2.055   2.272
 4223SOL     OW13567   4.044   3.131   3.115
 4223SOL    HW113568   4.093   3.191   3.052
 4223SOL    HW213569   4.003   3.056   3.063
 4224SOL     OW13570   4.837   3.159   4.252
 4224SOL    HW113571   4.927   3.115   4.250
 4224SOL    HW213572   4.790   3.133   4.336
 4225SOL     OW13573   5.526   0.625   5.363
 4225SOL    HW113574   5.540   0.544   5.419
 4225SOL    HW213575   5.493   0.599   5.273
 4226SOL     OW13576   2.001   1.564   3.957
 4226SOL    HW113577   1.904   1.549   3.935
 4226SOL    HW213578   2.054   1.568   3.872
 4227SOL     OW13579   3.562   4.431   6.534
 4227SOL    HW113580   3.601   4.376   6.461
 4227SOL    HW213581   3.633   4.490   6.573
 4228SOL     OW13582   5.742   6.386   4.284
 4228SOL    HW113583   5.786   6.301   4.256
 4228SOL    HW213584   5.727   6.385   4.383
 4229SOL     OW13585   4.072   5.067   5.934
 4229SOL    HW113586   3.975   5.057   5.912
 4229SOL    HW213587   4.086   5.154   5.982
 4230SOL     OW13588   2.264   6.985   4.651
 4230SOL    HW113589   2.213   6.914   4.699
 4230SOL    HW213590   2.272   0.039   4.710
 4231SOL     OW13591   5.174   6.651   5.674
 4231SOL    HW113592   5.130   6.733   5.637
 4231SOL    HW213593   5.107   6.597   5.725
 4232SOL     OW13594   1.201   5.467   2.166
 4232SOL    HW113595   1.254   5.499   2.087
 4232SOL    HW213596   1.107   5.449   2.137
 4233SOL     OW13597   6.145   0.497   0.203
 4233SOL    HW113598   6.193   0.423   0.155
 4233SOL    HW213599   6.049   0.471   0.215
 4234SOL     OW13600   2.088   5.299   5.725
 4234SOL    HW113601   2.023   5.340   5.662
 4234SOL    HW213602   2.153   5.369   5.756
 4235SOL     OW13603   6.071   4.290   5.813
 4235SOL    HW113604   6.009   4.266   5.738
 4235SOL    HW213605   6.087   4.209   5.870
 4236SOL     OW13606   0.030   3.009   4.144
 4236SOL    HW113607   6.998   3.028   4.065
 4236SOL    HW213608   7.001   3.017   4.228
 4237SOL     OW13609   5.986   4.133   4.313
 4237SOL    HW113610   5.953   4.139   4.407
 4237SOL    HW213611   6.062   4.197   4.301
 4238SOL     OW13612   4.338   4.588   3.849
 4238SOL    HW113613   4.282   4.648   3.905
 4238SOL    HW213614   4.386   4.522   3.908
 4239SOL     OW13615   4.663   6.976   4.581
 4239SOL    HW113616   4.655   6.934   4.490
 4239SOL    HW213617   4.650   0.049   4.572
 4240SOL     OW13618   2.805   5.873   6.437
 4240SOL    HW113619   2.870   5.940   6.401
 4240SOL    HW213620   2.722   5.874   6.382
 4241SOL     OW13621   5.228   0.347   0.936
 4241SOL    HW113622   5.134   0.357   0.969
 4241SOL    HW213623   5.291   0.353   1.014
 4242SOL     OW13624   2.529   6.607   2.600
 4242SOL    HW113625   2.481   6.608   2.512
 4242SOL    HW213626   2.496   6.530   2.654
 4243SOL     OW13627   0.334   4.127   2.311
 4243SOL    HW113628   0.425   4.087   2.318
 4243SOL    HW213629   0.269   4.058   2.279
 4244SOL     OW13630   4.962   6.127   0.640
 4244SOL    HW113631   4.876   6.089   0.604
 4244SOL    HW213632   5.023   6.149   0.564
 4245SOL     OW13633   6.457   3.118   0.433
 4245SOL    HW113634   6.527   3.149   0.496
 4245SOL    HW213635   6.491   3.041   0.379
 4246SOL     OW13636   5.372   2.506   2.963
 4246SOL    HW113637   5.344   2.602   2.956
 4246SOL    HW213638   5.449   2.489   2.902
 4247SOL     OW13639   2.697   5.420   4.274
 4247SOL    HW113640   2.669   5.389   4.364
 4247SOL    HW213641   2.782   5.374   4.248
 4248SOL     OW13642   1.842   0.510   3.039
 4248SOL    HW113643   1.840   0.600   3.081
 4248SOL    HW213644   1.891   0.515   2.952
 4249SOL     OW13645   0.453   1.692   4.093
 4249SOL    HW113646   0.519   1.618   4.084
 4249SOL    HW213647   0.364   1.661   4.060
 4250SOL     OW13648   0.356   5.688   3.902
 4250SOL    HW113649   0.334   5.755   3.831
 4250SOL    HW213650   0.295   5.609   3.893
 4251SOL     OW13651   5.246   2.852   6.928
 4251SOL    HW113652   5.197   2.872   6.843
 4251SOL    HW213653   5.204   2.775   6.974
 4252SOL     OW13654   6.007   5.659   5.500
 4252SOL    HW113655   6.068   5.598   5.448
 4252SOL    HW213656   5.975   5.733   5.440
 4253SOL     OW13657   3.816   6.310   1.951
 4253SOL    HW113658   3.787   6.236   1.891
 4253SOL    HW213659   3.904   6.287   1.993
 4254SOL     OW13660   2.128   3.600   0.468
 4254SOL    HW113661   2.100   3.535   0.397
 4254SOL    HW213662   2.162   3.684   0.425
 4255SOL     OW13663   0.593   4.474   3.799
 4255SOL    HW113664   0.634   4.454   3.888
 4255SOL    HW213665   0.644   4.548   3.754
 4256SOL     OW13666   0.697   5.146   1.111
 4256SOL    HW113667   0.686   5.245   1.096
 4256SOL    HW213668   0.660   5.097   1.032
 4257SOL     OW13669   6.000   1.480   4.936
 4257SOL    HW113670   5.949   1.520   5.012
 4257SOL    HW213671   5.937   1.432   4.875
 4258SOL     OW13672   3.210   5.413   1.177
 4258SOL    HW113673   3.151   5.490   1.200
 4258SOL    HW213674   3.266   5.436   1.097
 4259SOL     OW13675   1.701   0.087   1.654
 4259SOL    HW113676   1.716   0.001   1.703
 4259SOL    HW213677   1.735   0.078   1.560
 4260SOL     OW13678   4.777   0.262   4.228
 4260SOL    HW113679   4.848   0.331   4.243
 4260SOL    HW213680   4.749   0.223   4.316
 4261SOL     OW13681   1.898   0.497   4.697
 4261SOL    HW113682   1.973   0.464   4.639
 4261SOL    HW213683   1.816   0.510   4.642
 4262SOL     OW13684   1.326   4.976   6.041
 4262SOL    HW113685   1.329   4.995   6.139
 4262SOL    HW213686   1.264   4.900   6.024
 4263SOL     OW13687   2.880   2.326   3.516
 4263SOL    HW113688   2.933   2.248   3.483
 4263SOL    HW213689   2.826   2.365   3.440
 4264SOL     OW13690   5.806   1.126   4.481
 4264SOL    HW113691   5.789   1.037   4.439
 4264SOL    HW213692   5.828   1.193   4.410
 4265SOL     OW13693   3.361   0.085   1.193
 4265SOL    HW113694   3.343   0.135   1.108
 4265SOL    HW213695   3.454   0.048   1.191
 4266SOL     OW13696   1.151   0.103   0.382
 4266SOL    HW113697   1.053   0.083   0.369
 4266SOL    HW213698   1.180   0.172   0.315
 4267SOL     OW13699   2.169   4.045   4.004
 4267SOL    HW113700   2.195   4.086   4.092
 4267SOL    HW213701   2.141   3.950   4.018
 4268SOL     OW13702   1.377   4.814   6.842
 4268SOL    HW113703   1.463   4.763   6.850
 4268SOL    HW213704   1.395   4.912   6.850
 4269SOL     OW13705   3.584   1.611   3.720
 4269SOL    HW113706   3.633   1.625   3.634
 4269SOL    HW213707   3.568   1.700   3.763
 4270SOL     OW13708   3.668   2.777   1.130
 4270SOL    HW113709   3.674   2.680   1.107
 4270SOL    HW213710   3.746   2.826   1.092
 4271SOL     OW13711   6.068   0.548   1.456
 4271SOL    HW113712   6.046   0.497   1.539
 4271SOL    HW213713   5.983   0.573   1.409
 4272SOL     OW13714   0.012   3.302   5.819
 4272SOL    HW113715   6.995   3.214   5.841
 4272SOL    HW213716   6.973   3.376   5.837
 4273SOL     OW13717   4.526   6.590   5.125
 4273SOL    HW113718   4.590   6.528   5.079
 4273SOL    HW213719   4.534   6.578   5.224
 4274SOL     OW13720   0.277   6.458   1.758
 4274SOL    HW113721   0.262   6.412   1.845
 4274SOL    HW213722   0.195   6.511   1.734
 4275SOL     OW13723   0.331   2.318   3.916
 4275SOL    HW113724   0.382   2.259   3.853
 4275SOL    HW213725   0.389   2.342   3.994
 4276SOL     OW13726   2.870   5.050   3.903
 4276SOL    HW113727   2.923   5.099   3.834
 4276SOL    HW213728   2.777   5.035   3.868
 4277SOL     OW13729   6.711   4.882   4.050
 4277SOL    HW113730   6.755   4.937   3.978
 4277SOL    HW213731   6.712   4.786   4.022
 4278SOL     OW13732   6.413   6.337   3.168
 4278SOL    HW113733   6.329   6.377   3.133
 4278SOL    HW213734   6.401   6.310   3.263
 4279SOL     OW13735   1.354   1.681   2.628
 4279SOL    HW113736   1.263   1.670   2.668
 4279SOL    HW213737   1.419   1.708   2.699
 4280SOL     OW13738   6.433   6.498   6.580
 4280SOL    HW113739   6.382   6.439   6.642
 4280SOL    HW213740   6.459   6.582   6.629
 4281SOL     OW13741   4.517   5.594   3.717
 4281SOL    HW113742   4.505   5.510   3.664
 4281SOL    HW213743   4.452   5.594   3.793
 4282SOL     OW13744   3.035   3.879   0.660
 4282SOL    HW113745   3.111   3.902   0.600
 4282SOL    HW213746   2.998   3.962   0.700
 4283SOL     OW13747   5.470   0.703   2.658
 4283SOL    HW113748   5.423   0.654   2.731
 4283SOL    HW213749   5.407   0.716   2.581
 4284SOL     OW13750   4.454   5.347   0.431
 4284SOL    HW113751   4.415   5.256   0.420
 4284SOL    HW213752   4.440   5.400   0.347
 4285SOL     OW13753   3.417   0.573   6.271
 4285SOL    HW113754   3.509   0.589   6.307
 4285SOL    HW213755   3.364   0.521   6.337
 4286SOL     OW13756   6.488   1.205   0.113
 4286SOL    HW113757   6.574   1.193   0.164
 4286SOL    HW213758   6.466   1.120   0.065
 4287SOL     OW13759   4.390   0.517   0.119
 4287SOL    HW113760   4.316   0.480   0.062
 4287SOL    HW213761   4.452   0.443   0.144
 4288SOL     OW13762   6.473   6.137   1.714
 4288SOL    HW113763   6.404   6.133   1.643
 4288SOL    HW213764   6.564   6.130   1.672
 4289SOL     OW13765   0.367   2.538   5.397
 4289SOL    HW113766   0.276   2.544   5.357
 4289SOL    HW213767   0.430   2.596   5.344
 4290SOL     OW13768   0.201   0.263   3.339
 4290SOL    HW113769   0.101   0.266   3.333
 4290SOL    HW213770   0.238   0.356   3.329
 4291SOL     OW13771   4.514   3.026   6.107
 4291SOL    HW113772   4.449   3.050   6.179
 4291SOL    HW213773   4.468   2.968   6.039
 4292SOL     OW13774   4.707   2.083   6.914
 4292SOL    HW113775   4.686   2.174   6.949
 4292SOL    HW213776   4.805   2.066   6.923
 4293SOL     OW13777   5.264   3.952   6.903
 4293SOL    HW113778   5.254   3.912   6.812
 4293SOL    HW213779   5.212   3.899   6.969
 4294SOL     OW13780   3.037   2.087   6.253
 4294SOL    HW113781   3.101   2.120   6.322
 4294SOL    HW213782   3.002   1.998   6.280
 4295SOL     OW13783   4.270   6.721   2.204
 4295SOL    HW113784   4.357   6.761   2.233
 4295SOL    HW213785   4.224   6.679   2.282
 4296SOL     OW13786   2.966   6.514   1.037
 4296SOL    HW113787   2.901   6.590   1.045
 4296SOL    HW213788   2.946   6.446   1.107
 4297SOL     OW13789   6.654   5.222   0.999
 4297SOL    HW113790   6.679   5.318   1.011
 4297SOL    HW213791   6.713   5.180   0.929
 4298SOL     OW13792   3.517   6.137   1.299
 4298SOL    HW113793   3.572   6.208   1.255
 4298SOL    HW213794   3.445   6.107   1.237
 4299SOL     OW13795   0.321   2.386   6.778
 4299SOL    HW113796   0.237   2.334   6.785
 4299SOL    HW213797   0.303   2.475   6.735
 4300SOL     OW13798   3.373   0.502   1.085
 4300SOL    HW113799   3.381   0.599   1.065
 4300SOL    HW213800   3.314   0.489   1.165
 4301SOL     OW13801   3.025   6.027   1.447
 4301SOL    HW113802   2.927   6.018   1.460
 4301SOL    HW213803   3.071   6.028   1.536
 4302SOL     OW13804   0.215   6.717   6.922
 4302SOL    HW113805   0.251   6.642   6.977
 4302SOL    HW213806   0.116   6.707   6.911
 4303SOL     OW13807   6.812   5.082   3.908
 4303SOL    HW113808   6.756   5.157   3.944
 4303SOL    HW213809   6.908   5.110   3.907
 4304SOL     OW13810   3.184   3.735   1.643
 4304SOL    HW113811   3.140   3.807   1.591
 4304SOL    HW213812   3.192   3.652   1.587
 4305SOL     OW13813   0.602   6.936   5.728
 4305SOL    HW113814   0.542   6.937   5.808
 4305SOL    HW213815   0.612   6.842   5.695
 4306SOL     OW13816   4.894   3.774   4.440
 4306SOL    HW113817   4.942   3.696   4.480
 4306SOL    HW213818   4.880   3.758   4.342
 4307SOL     OW13819   6.368   2.965   5.662
 4307SOL    HW113820   6.317   2.885   5.632
 4307SOL    HW213821   6.307   3.044   5.667
 4308SOL     OW13822   4.975   5.429   1.887
 4308SOL    HW113823   4.977   5.519   1.932
 4308SOL    HW213824   5.004   5.359   1.952
 4309SOL     OW13825   0.866   3.169   6.923
 4309SOL    HW113826   0.798   3.175   6.996
 4309SOL    HW213827   0.825   3.198   6.836
 4310SOL     OW13828   1.325   2.112   2.751
 4310SOL    HW113829   1.277   2.188   2.708
 4310SOL    HW213830   1.359   2.049   2.681
 4311SOL     OW13831   0.976   6.207   2.130
 4311SOL    HW113832   0.967   6.165   2.040
 4311SOL    HW213833   1.071   6.201   2.161
 4312SOL     OW13834   0.880   4.785   2.144
 4312SOL    HW113835   0.939   4.776   2.225
 4312SOL    HW213836   0.936   4.807   2.064
 4313SOL     OW13837   5.205   1.743   0.437
 4313SOL    HW113838   5.117   1.697   0.426
 4313SOL    HW213839   5.278   1.682   0.407
 4314SOL     OW13840   6.543   2.744   6.023
 4314SOL    HW113841   6.491   2.668   6.061
 4314SOL    HW213842   6.626   2.758   6.077
 4315SOL     OW13843   1.971   1.707   2.919
 4315SOL    HW113844   2.011   1.628   2.966
 4315SOL    HW213845   1.984   1.789   2.975
 4316SOL     OW13846   5.330   0.747   2.282
 4316SOL    HW113847   5.307   0.782   2.373
 4316SOL    HW213848   5.428   0.758   2.266
 4317SOL     OW13849   4.717   0.826   5.501
 4317SOL    HW113850   4.662   0.880   5.438
 4317SOL    HW213851   4.660   0.792   5.576
 4318SOL     OW13852   0.594   0.979   4.353
 4318SOL    HW113853   0.563   1.038   4.428
 4318SOL    HW213854   0.516   0.926   4.318
 4319SOL     OW13855   1.651   2.455   1.696
 4319SOL    HW113856   1.615   2.411   1.614
 4319SOL    HW213857   1.592   2.434   1.774
 4320SOL     OW13858   3.795   6.023   0.410
 4320SOL    HW113859   3.814   6.114   0.375
 4320SOL    HW213860   3.862   5.999   0.480
 4321SOL     OW13861   6.979   6.016   2.951
 4321SOL    HW113862   6.906   6.048   2.891
 4321SOL    HW213863   6.975   5.916   2.958
 4322SOL     OW13864   0.788   2.616   5.386
 4322SOL    HW113865   0.736   2.583   5.466
 4322SOL    HW213866   0.875   2.568   5.380
 4323SOL     OW13867   4.029   5.789   0.037
 4323SOL    HW113868   4.122   5.817   0.059
 4323SOL    HW213869   4.026   5.754   6.969
 4324SOL     OW13870   0.495   3.711   5.742
 4324SOL    HW113871   0.415   3.729   5.685
 4324SOL    HW213872   0.557   3.648   5.695
 4325SOL     OW13873   2.991   0.965   3.148
 4325SOL    HW113874   2.943   0.980   3.061
 4325SOL    HW213875   2.925   0.968   3.223
 4326SOL     OW13876   5.160   2.906   2.384
 4326SOL    HW113877   5.068   2.884   2.414
 4326SOL    HW213878   5.160   2.996   2.340
 4327SOL     OW13879   3.484   5.249   3.445
 4327SOL    HW113880   3.398   5.299   3.456
 4327SOL    HW213881   3.466   5.151   3.448
 4328SOL     OW13882   6.466   5.203   4.969
 4328SOL    HW113883   6.370   5.176   4.974
 4328SOL    HW213884   6.485   5.272   5.040
 4329SOL     OW13885   5.594   3.197   5.225
 4329SOL    HW113886   5.626   3.266   5.159
 4329SOL    HW213887   5.603   3.106   5.185
 4330SOL     OW13888   2.451   6.167   5.115
 4330SOL    HW113889   2.392   6.245   5.097
 4330SOL    HW213890   2.527   6.196   5.174
 4331SOL     OW13891   6.692   0.390   1.549
 4331SOL    HW113892   6.748   0.307   1.546
 4331SOL    HW213893   6.698   0.437   1.461
 4332SOL     OW13894   6.002   3.553   3.058
 4332SOL    HW113895   6.100   3.554   3.078
 4332SOL    HW213896   5.988   3.531   2.962
 4333SOL     OW13897   4.828   2.192   5.054
 4333SOL    HW113898   4.848   2.115   4.993
 4333SOL    HW213899   4.884   2.186   5.136
 4334SOL     OW13900   0.918   2.975   2.811
 4334SOL    HW113901   0.912   2.876   2.809
 4334SOL    HW213902   0.852   3.012   2.876
 4335SOL     OW13903   3.192   2.808   0.501
 4335SOL    HW113904   3.187   2.805   0.401
 4335SOL    HW213905   3.143   2.730   0.540
 4336SOL     OW13906   1.895   5.212   5.894
 4336SOL    HW113907   1.971   5.233   5.833
 4336SOL    HW213908   1.929   5.206   5.988
 4337SOL     OW13909   1.387   6.086   2.502
 4337SOL    HW113910   1.323   6.042   2.439
 4337SOL    HW213911   1.393   6.183   2.482
 4338SOL     OW13912   6.318   0.038   5.768
 4338SOL    HW113913   6.237   7.020   5.728
 4338SOL    HW213914   6.374   0.077   5.695
 4339SOL     OW13915   3.886   2.151   6.916
 4339SOL    HW113916   3.914   2.177   7.008
 4339SOL    HW213917   3.967   2.133   6.860
 4340SOL     OW13918   6.141   3.536   0.902
 4340SOL    HW113919   6.083   3.615   0.883
 4340SOL    HW213920   6.237   3.563   0.895
 4341SOL     OW13921   0.617   5.667   1.629
 4341SOL    HW113922   0.659   5.646   1.717
 4341SOL    HW213923   0.604   5.765   1.620
 4342SOL     OW13924   5.128   3.516   2.718
 4342SOL    HW113925   5.196   3.452   2.682
 4342SOL    HW213926   5.040   3.501   2.673
 4343SOL     OW13927   4.084   0.483   5.614
 4343SOL    HW113928   4.040   0.487   5.524
 4343SOL    HW213929   4.184   0.489   5.603
 4344SOL     OW13930   0.539   3.010   4.030
 4344SOL    HW113931   0.518   2.937   3.965
 4344SOL    HW213932   0.571   2.970   4.116
 4345SOL     OW13933   3.135   3.486   2.634
 4345SOL    HW113934   3.045   3.517   2.602
 4345SOL    HW213935   3.166   3.546   2.708
 4346SOL     OW13936   2.201   2.698   2.914
 4346SOL    HW113937   2.134   2.755   2.960
 4346SOL    HW213938   2.154   2.627   2.861
 4347SOL     OW13939   6.119   5.368   1.082
 4347SOL    HW113940   6.029   5.357   1.040
 4347SOL    HW213941   6.181   5.299   1.046
 4348SOL     OW13942   6.808   6.068   3.769
 4348SOL    HW113943   6.785   6.042   3.863
 4348SOL    HW213944   6.735   6.037   3.708
 4349SOL     OW13945   0.037   4.047   3.684
 4349SOL    HW113946   0.068   4.000   3.767
 4349SOL    HW213947   0.055   4.145   3.693
 4350SOL     OW13948   6.148   1.320   4.608
 4350SOL    HW113949   6.195   1.404   4.636
 4350SOL    HW213950   6.052   1.326   4.635
 4351SOL     OW13951   1.085   6.308   1.379
 4351SOL    HW113952   1.037   6.237   1.328
 4351SOL    HW213953   1.106   6.385   1.319
 4352SOL     OW13954   5.396   4.328   1.117
 4352SOL    HW113955   5.398   4.376   1.029
 4352SOL    HW213956   5.478   4.352   1.169
 4353SOL     OW13957   3.182   3.514   6.665
 4353SOL    HW113958   3.108   3.447   6.672
 4353SOL    HW213959   3.185   3.570   6.747
 4354SOL     OW13960   0.416   0.456   4.275
 4354SOL    HW113961   0.440   0.513   4.353
 4354SOL    HW213962   0.482   0.472   4.201
 4355SOL     OW13963   1.195   0.207   4.086
 4355SOL    HW113964   1.145   0.170   4.008
 4355SOL    HW213965   1.224   0.300   4.065
 4356SOL     OW13966   5.248   2.898   6.108
 4356SOL    HW113967   5.204   2.826   6.054
 4356SOL    HW213968   5.196   2.983   6.099
 4357SOL     OW13969   6.575   1.598   2.311
 4357SOL    HW113970   6.482   1.567   2.293
 4357SOL    HW213971   6.617   1.629   2.226
 4358SOL     OW13972   0.297   1.472   0.392
 4358SOL    HW113973   0.228   1.512   0.331
 4358SOL    HW213974   0.381   1.457   0.340
 4359SOL     OW13975   2.449   0.651   6.543
 4359SOL    HW113976   2.429   0.558   6.574
 4359SOL    HW213977   2.366   0.706   6.546
 4360SOL     OW13978   0.833   2.701   3.515
 4360SOL    HW113979   0.819   2.780   3.573
 4360SOL    HW213980   0.930   2.678   3.512
 4361SOL     OW13981   1.739   2.251   0.794
 4361SOL    HW113982   1.758   2.291   0.704
 4361SOL    HW213983   1.784   2.162   0.800
 4362SOL     OW13984   0.923   6.236   4.223
 4362SOL    HW113985   0.960   6.143   4.235
 4362SOL    HW213986   0.883   6.266   4.309
 4363SOL     OW13987   4.302   0.652   3.118
 4363SOL    HW113988   4.248   0.662   3.202
 4363SOL    HW213989   4.244   0.670   3.039
 4364SOL     OW13990   2.884   3.656   2.497
 4364SOL    HW113991   2.933   3.730   2.452
 4364SOL    HW213992   2.791   3.686   2.519
 4365SOL     OW13993   2.963   1.761   1.633
 4365SOL    HW113994   2.987   1.850   1.595
 4365SOL    HW213995   3.019   1.743   1.714
 4366SOL     OW13996   5.390   5.739   5.596
 4366SOL    HW113997   5.344   5.828   5.603
 4366SOL    HW213998   5.366   5.696   5.509
 4367SOL     OW13999   2.858   4.747   3.058
 4367SOL    HW114000   2.837   4.842   3.084
 4367SOL    HW214001   2.911   4.747   2.974
 4368SOL     OW14002   4.779   5.913   2.502
 4368SOL    HW114003   4.857   5.936   2.560
 4368SOL    HW214004   4.812   5.874   2.415
 4369SOL     OW14005   5.135   5.299   2.998
 4369SOL    HW114006   5.065   5.354   3.044
 4369SOL    HW214007   5.098   5.208   2.977
 4370SOL     OW14008   3.799   4.254   1.735
 4370SOL    HW114009   3.855   4.215   1.663
 4370SOL    HW214010   3.804   4.354   1.731
 4371SOL     OW14011   2.986   0.707   1.902
 4371SOL    HW114012   3.051   0.740   1.970
 4371SOL    HW214013   3.032   0.699   1.813
 4372SOL     OW14014   1.552   2.474   5.156
 4372SOL    HW114015   1.544   2.488   5.255
 4372SOL    HW214016   1.488   2.535   5.109
 4373SOL     OW14017   4.727   0.698   6.226
 4373SOL    HW114018   4.688   0.781   6.266
 4373SOL    HW214019   4.661   0.657   6.163
 4374SOL     OW14020   2.654   1.918   1.212
 4374SOL    HW114021   2.579   1.953   1.155
 4374SOL    HW214022   2.709   1.995   1.246
 4375SOL     OW14023   4.017   0.318   3.508
 4375SOL    HW114024   4.102   0.345   3.464
 4375SOL    HW214025   3.972   0.247   3.453
 4376SOL     OW14026   6.516   6.183   1.081
 4376SOL    HW114027   6.577   6.246   1.130
 4376SOL    HW214028   6.535   6.187   0.983
 4377SOL     OW14029   5.766   6.375   0.370
 4377SOL    HW114030   5.804   6.468   0.374
 4377SOL    HW214031   5.840   6.309   0.381
 4378SOL     OW14032   1.847   5.202   2.030
 4378SOL    HW114033   1.786   5.209   2.109
 4378SOL    HW214034   1.808   5.140   1.963
 4379SOL     OW14035   1.974   0.873   1.720
 4379SOL    HW114036   1.878   0.867   1.749
 4379SOL    HW214037   2.033   0.862   1.800
 4380SOL     OW14038   2.123   5.808   4.931
 4380SOL    HW114039   2.155   5.859   4.851
 4380SOL    HW214040   2.196   5.751   4.967
 4381SOL     OW14041   3.758   5.593   4.503
 4381SOL    HW114042   3.785   5.578   4.598
 4381SOL    HW214043   3.660   5.576   4.493
 4382SOL     OW14044   4.868   4.054   4.506
 4382SOL    HW114045   4.824   4.105   4.580
 4382SOL    HW214046   4.845   3.957   4.515
 4383SOL     OW14047   1.451   1.896   6.171
 4383SOL    HW114048   1.431   1.892   6.268
 4383SOL    HW214049   1.531   1.840   6.151
 4384SOL     OW14050   4.040   0.145   1.455
 4384SOL    HW114051   4.100   0.141   1.375
 4384SOL    HW214052   4.005   0.238   1.465
 4385SOL     OW14053   0.004   1.778   3.853
 4385SOL    HW114054   0.020   1.710   3.782
 4385SOL    HW214055   6.931   1.787   3.868
 4386SOL     OW14056   1.119   4.079   6.817
 4386SOL    HW114057   1.164   4.059   6.730
 4386SOL    HW214058   1.083   3.995   6.857
 4387SOL     OW14059   6.657   2.679   1.058
 4387SOL    HW114060   6.682   2.583   1.055
 4387SOL    HW214061   6.602   2.702   0.977
 4388SOL     OW14062   3.996   0.595   6.447
 4388SOL    HW114063   3.976   0.497   6.448
 4388SOL    HW214064   4.052   0.616   6.367
 4389SOL     OW14065   5.657   2.150   1.339
 4389SOL    HW114066   5.643   2.188   1.430
 4389SOL    HW214067   5.755   2.150   1.317
 4390SOL     OW14068   4.981   1.935   1.897
 4390SOL    HW114069   4.954   1.849   1.938
 4390SOL    HW214070   5.053   1.977   1.952
 4391SOL     OW14071   1.007   5.962   6.617
 4391SOL    HW114072   1.100   5.944   6.587
 4391SOL    HW214073   1.002   6.052   6.659
 4392SOL     OW14074   4.871   3.182   4.653
 4392SOL    HW114075   4.846   3.095   4.610
 4392SOL    HW214076   4.898   3.165   4.748
 4393SOL     OW14077   4.995   6.964   4.084
 4393SOL    HW114078   5.014   0.017   4.142
 4393SOL    HW214079   5.070   6.899   4.090
 4394SOL     OW14080   5.986   6.000   3.066
 4394SOL    HW114081   6.014   6.059   3.141
 4394SOL    HW214082   5.892   6.022   3.039
 4395SOL     OW14083   4.448   1.471   1.603
 4395SOL    HW114084   4.428   1.564   1.572
 4395SOL    HW214085   4.365   1.430   1.640
 4396SOL     OW14086   1.778   1.811   4.461
 4396SOL    HW114087   1.877   1.798   4.468
 4396SOL    HW214088   1.755   1.840   4.368
 4397SOL     OW14089   0.288   1.660   4.343
 4397SOL    HW114090   0.353   1.641   4.270
 4397SOL    HW214091   0.295   1.756   4.371
 4398SOL     OW14092   1.163   4.338   4.516
 4398SOL    HW114093   1.206   4.417   4.559
 4398SOL    HW214094   1.219   4.257   4.532
 4399SOL     OW14095   2.525   0.435   0.582
 4399SOL    HW114096   2.524   0.525   0.626
 4399SOL    HW214097   2.482   0.368   0.641
 4400SOL     OW14098   2.116   6.688   4.299
 4400SOL    HW114099   2.151   6.765   4.244
 4400SOL    HW214100   2.030   6.656   4.259
 4401SOL     OW14101   5.794   6.166   5.313
 4401SOL    HW114102   5.831   6.257   5.297
 4401SOL    HW214103   5.699   6.173   5.346
 4402SOL     OW14104   1.157   5.725   2.572
 4402SOL    HW114105   1.218   5.795   2.609
 4402SOL    HW214106   1.082   5.769   2.522
 4403SOL     OW14107   6.834   6.997   3.374
 4403SOL    HW114108   6.907   6.954   3.319
 4403SOL    HW214109   6.748   6.992   3.324
 4404SOL     OW14110   0.955   4.163   4.408
 4404SOL    HW114111   1.006   4.079   4.391
 4404SOL    HW214112   1.013   4.227   4.458
 4405SOL     OW14113   3.176   4.453   5.600
 4405SOL    HW114114   3.101   4.442   5.665
 4405SOL    HW214115   3.253   4.397   5.629
 4406SOL     OW14116   4.770   5.050   1.419
 4406SOL    HW114117   4.742   5.034   1.514
 4406SOL    HW214118   4.857   5.004   1.402
 4407SOL     OW14119   6.970   6.066   0.267
 4407SOL    HW114120   6.948   6.001   0.339
 4407SOL    HW214121   0.010   6.133   0.301
 4408SOL     OW14122   4.288   0.163   0.830
 4408SOL    HW114123   4.370   0.144   0.884
 4408SOL    HW214124   4.222   0.214   0.886
 4409SOL     OW14125   4.182   1.527   1.948
 4409SOL    HW114126   4.113   1.536   1.877
 4409SOL    HW214127   4.146   1.473   2.024
 4410SOL     OW14128   2.514   4.452   6.922
 4410SOL    HW114129   2.505   4.386   6.997
 4410SOL    HW214130   2.453   4.530   6.938
 4411SOL     OW14131   3.676   3.791   2.991
 4411SOL    HW114132   3.632   3.817   3.077
 4411SOL    HW214133   3.614   3.812   2.915
 4412SOL     OW14134   4.641   1.220   5.558
 4412SOL    HW114135   4.663   1.235   5.462
 4412SOL    HW214136   4.725   1.194   5.607
 4413SOL     OW14137   4.219   6.158   4.406
 4413SOL    HW114138   4.132   6.188   4.445
 4413SOL    HW214139   4.201   6.089   4.335
 4414SOL     OW14140   4.490   5.121   2.764
 4414SOL    HW114141   4.531   5.112   2.674
 4414SOL    HW214142   4.553   5.084   2.833
 4415SOL     OW14143   5.798   3.963   6.390
 4415SOL    HW114144   5.881   3.932   6.345
 4415SOL    HW214145   5.732   3.996   6.322
 4416SOL     OW14146   3.026   1.273   3.973
 4416SOL    HW114147   3.104   1.244   3.918
 4416SOL    HW214148   3.024   1.373   3.978
 4417SOL     OW14149   6.512   4.780   2.103
 4417SOL    HW114150   6.507   4.807   2.199
 4417SOL    HW214151   6.440   4.714   2.082
 4418SOL     OW14152   4.539   6.378   3.792
 4418SOL    HW114153   4.609   6.370   3.862
 4418SOL    HW214154   4.522   6.474   3.771
 4419SOL     OW14155   5.615   5.417   0.560
 4419SOL    HW114156   5.654   5.424   0.652
 4419SOL    HW214157   5.683   5.447   0.493
 4420SOL     OW14158   4.567   0.609   0.538
 4420SOL    HW114159   4.546   0.587   0.633
 4420SOL    HW214160   4.592   0.705   0.530
 4421SOL     OW14161   2.619   1.749   2.379
 4421SOL    HW114162   2.650   1.820   2.443
 4421SOL    HW214163   2.659   1.767   2.289
 4422SOL     OW14164   3.094   3.167   5.850
 4422SOL    HW114165   3.012   3.198   5.803
 4422SOL    HW214166   3.145   3.104   5.791
 4423SOL     OW14167   1.469   1.981   5.913
 4423SOL    HW114168   1.459   1.963   6.010
 4423SOL    HW214169   1.389   2.034   5.881
 4424SOL     OW14170   5.045   6.557   2.924
 4424SOL    HW114171   4.978   6.484   2.911
 4424SOL    HW214172   5.010   6.624   2.989
 4425SOL     OW14173   3.524   5.425   6.172
 4425SOL    HW114174   3.515   5.417   6.072
 4425SOL    HW214175   3.620   5.409   6.197
 4426SOL     OW14176   0.174   0.700   5.675
 4426SOL    HW114177   0.141   0.650   5.755
 4426SOL    HW214178   0.222   0.783   5.706
 4427SOL     OW14179   0.715   0.841   3.367
 4427SOL    HW114180   0.649   0.767   3.353
 4427SOL    HW214181   0.781   0.842   3.292
 4428SOL     OW14182   2.911   4.864   4.401
 4428SOL    HW114183   2.880   4.776   4.436
 4428SOL    HW214184   2.833   4.926   4.395
 4429SOL     OW14185   2.907   0.328   3.605
 4429SOL    HW114186   2.822   0.278   3.625
 4429SOL    HW214187   2.962   0.275   3.541
 4430SOL     OW14188   4.526   2.479   3.542
 4430SOL    HW114189   4.595   2.485   3.614
 4430SOL    HW214190   4.568   2.499   3.454
 4431SOL     OW14191   2.731   1.181   2.741
 4431SOL    HW114192   2.641   1.200   2.778
 4431SOL    HW214193   2.801   1.198   2.810
 4432SOL     OW14194   3.705   3.063   3.218
 4432SOL    HW114195   3.622   3.118   3.209
 4432SOL    HW214196   3.763   3.077   3.139
 4433SOL     OW14197   6.168   0.282   3.497
 4433SOL    HW114198   6.223   0.199   3.503
 4433SOL    HW214199   6.104   0.285   3.573
 4434SOL     OW14200   4.939   1.605   4.043
 4434SOL    HW114201   5.036   1.586   4.057
 4434SOL    HW214202   4.929   1.689   3.990
 4435SOL     OW14203   3.848   3.188   0.867
 4435SOL    HW114204   3.891   3.127   0.800
 4435SOL    HW214205   3.836   3.278   0.826
 4436SOL     OW14206   2.995   1.983   6.612
 4436SOL    HW114207   2.940   2.005   6.693
 4436SOL    HW214208   3.086   1.953   6.641
 4437SOL     OW14209   4.037   0.677   4.654
 4437SOL    HW114210   4.100   0.600   4.666
 4437SOL    HW214211   4.078   0.759   4.694
 4438SOL     OW14212   4.959   1.796   0.266
 4438SOL    HW114213   4.920   1.756   0.349
 4438SOL    HW214214   4.914   1.883   0.247
 4439SOL     OW14215   0.739   4.903   1.479
 4439SOL    HW114216   0.751   4.838   1.554
 4439SOL    HW214217   0.750   4.996   1.514
 4440SOL     OW14218   1.891   5.359   0.473
 4440SOL    HW114219   1.859   5.407   0.554
 4440SOL    HW214220   1.961   5.414   0.427
 4441SOL     OW14221   6.632   2.188   2.097
 4441SOL    HW114222   6.720   2.211   2.138
 4441SOL    HW214223   6.630   2.221   2.003
 4442SOL     OW14224   3.621   6.177   3.256
 4442SOL    HW114225   3.662   6.216   3.338
 4442SOL    HW214226   3.692   6.130   3.203
 4443SOL     OW14227   1.950   1.917   6.457
 4443SOL    HW114228   2.001   1.853   6.514
 4443SOL    HW214229   1.912   1.990   6.513
 4444SOL     OW14230   4.568   6.066   6.874
 4444SOL    HW114231   4.482   6.118   6.884
 4444SOL    HW214232   4.588   6.053   6.777
 4445SOL     OW14233   1.369   0.694   6.285
 4445SOL    HW114234   1.403   0.657   6.198
 4445SOL    HW214235   1.270   0.681   6.290
 4446SOL     OW14236   5.962   0.985   1.482
 4446SOL    HW114237   6.024   1.063   1.487
 4446SOL    HW214238   5.997   0.919   1.415
 4447SOL     OW14239   5.263   3.358   5.396
 4447SOL    HW114240   5.244   3.383   5.301
 4447SOL    HW214241   5.302   3.437   5.444
 4448SOL     OW14242   2.804   4.077   0.394
 4448SOL    HW114243   2.749   4.079   0.478
 4448SOL    HW214244   2.815   3.982   0.364
 4449SOL     OW14245   3.542   0.446   5.820
 4449SOL    HW114246   3.533   0.347   5.827
 4449SOL    HW214247   3.454   0.490   5.839
 4450SOL     OW14248   3.465   3.404   3.017
 4450SOL    HW114249   3.559   3.369   3.022
 4450SOL    HW214250   3.438   3.413   2.921
 4451SOL     OW14251   6.029   4.376   2.840
 4451SOL    HW114252   5.997   4.469   2.818
 4451SOL    HW214253   6.069   4.375   2.931
 4452SOL     OW14254   6.422   6.683   4.966
 4452SOL    HW114255   6.492   6.621   5.001
 4452SOL    HW214256   6.338   6.632   4.949
 4453SOL     OW14257   6.270   2.948   1.322
 4453SOL    HW114258   6.315   2.865   1.354
 4453SOL    HW214259   6.246   2.938   1.226
 4454SOL     OW14260   5.212   2.066   0.920
 4454SOL    HW114261   5.148   2.119   0.977
 4454SOL    HW214262   5.235   1.981   0.968
 4455SOL     OW14263   3.338   6.005   1.516
 4455SOL    HW114264   3.413   6.070   1.508
 4455SOL    HW214265   3.295   6.015   1.606
 4456SOL     OW14266   2.339   5.422   2.170
 4456SOL    HW114267   2.278   5.373   2.233
 4456SOL    HW214268   2.352   5.368   2.087
 4457SOL     OW14269   4.135   2.631   6.700
 4457SOL    HW114270   4.213   2.670   6.651
 4457SOL    HW214271   4.139   2.531   6.696
 4458SOL     OW14272   2.067   3.038   6.259
 4458SOL    HW114273   1.984   3.077   6.220
 4458SOL    HW214274   2.046   2.951   6.303
 4459SOL     OW14275   5.378   0.158   4.181
 4459SOL    HW114276   5.369   0.153   4.081
 4459SOL    HW214277   5.414   0.247   4.207
 4460SOL     OW14278   2.360   3.081   6.513
 4460SOL    HW114279   2.363   3.058   6.416
 4460SOL    HW214280   2.378   3.178   6.525
 4461SOL     OW14281   0.989   0.001   2.347
 4461SOL    HW114282   1.009   6.930   2.364
 4461SOL    HW214283   0.924   0.033   2.416
 4462SOL     OW14284   6.644   4.265   0.863
 4462SOL    HW114285   6.596   4.178   0.849
 4462SOL    HW214286   6.607   4.311   0.944
 4463SOL     OW14287   1.690   2.665   6.937
 4463SOL    HW114288   1.694   2.579   6.885
 4463SOL    HW214289   1.720   2.740   6.879
 4464SOL     OW14290   6.000   4.927   0.576
 4464SOL    HW114291   5.985   4.995   0.647
 4464SOL    HW214292   5.953   4.842   0.600
 4465SOL     OW14293   1.788   6.671   2.413
 4465SOL    HW114294   1.846   6.596   2.444
 4465SOL    HW214295   1.761   6.727   2.491
 4466SOL     OW14296   0.827   0.948   2.611
 4466SOL    HW114297   0.890   0.927   2.687
 4466SOL    HW214298   0.865   0.912   2.526
 4467SOL     OW14299   1.185   6.834   3.301
 4467SOL    HW114300   1.235   6.897   3.361
 4467SOL    HW214301   1.181   6.744   3.343
 4468SOL     OW14302   1.147   2.037   0.051
 4468SOL    HW114303   1.104   2.010   6.990
 4468SOL    HW214304   1.182   2.130   0.043
 4469SOL     OW14305   2.939   6.860   1.938
 4469SOL    HW114306   2.907   6.878   1.845
 4469SOL    HW214307   2.875   6.900   2.004
 4470SOL     OW14308   5.321   3.874   1.757
 4470SOL    HW114309   5.272   3.914   1.679
 4470SOL    HW214310   5.417   3.901   1.752
 4471SOL     OW14311   0.248   2.748   0.207
 4471SOL    HW114312   0.260   2.711   0.299
 4471SOL    HW214313   0.186   2.689   0.155
 4472SOL     OW14314   1.515   4.215   2.860
 4472SOL    HW114315   1.474   4.192   2.772
 4472SOL    HW214316   1.606   4.255   2.845
 4473SOL     OW14317   0.319   0.537   4.696
 4473SOL    HW114318   0.279   0.581   4.615
 4473SOL    HW214319   0.281   0.445   4.705
 4474SOL     OW14320   3.067   0.019   2.541
 4474SOL    HW114321   3.039   0.039   2.635
 4474SOL    HW214322   3.138   0.084   2.513
 4475SOL     OW14323   1.343   3.880   1.431
 4475SOL    HW114324   1.422   3.819   1.425
 4475SOL    HW214325   1.263   3.828   1.463
 4476SOL     OW14326   5.349   6.520   2.996
 4476SOL    HW114327   5.343   6.555   3.089
 4476SOL    HW214328   5.266   6.544   2.945
 4477SOL     OW14329   1.837   0.067   6.738
 4477SOL    HW114330   1.751   0.078   6.688
 4477SOL    HW214331   1.867   0.155   6.773
 4478SOL     OW14332   2.386   6.675   2.153
 4478SOL    HW114333   2.304   6.676   2.209
 4478SOL    HW214334   2.418   6.581   2.142
 4479SOL     OW14335   1.355   0.221   6.258
 4479SOL    HW114336   1.255   0.224   6.267
 4479SOL    HW214337   1.381   0.140   6.205
 4480SOL     OW14338   2.090   3.647   4.429
 4480SOL    HW114339   2.117   3.619   4.521
 4480SOL    HW214340   2.003   3.604   4.404
 4481SOL     OW14341   2.063   6.608   4.544
 4481SOL    HW114342   2.093   6.648   4.457
 4481SOL    HW214343   2.142   6.569   4.591
 4482SOL     OW14344   0.733   3.895   4.281
 4482SOL    HW114345   0.728   3.807   4.234
 4482SOL    HW214346   0.642   3.919   4.315
 4483SOL     OW14347   0.321   3.569   1.133
 4483SOL    HW114348   0.298   3.580   1.036
 4483SOL    HW214349   0.377   3.487   1.145
 4484SOL     OW14350   3.538   2.238   5.308
 4484SOL    HW114351   3.448   2.206   5.278
 4484SOL    HW214352   3.608   2.174   5.279
 4485SOL     OW14353   5.145   2.980   6.657
 4485SOL    HW114354   5.123   3.074   6.681
 4485SOL    HW214355   5.151   2.972   6.557
 4486SOL     OW14356   6.954   4.092   4.999
 4486SOL    HW114357   6.909   4.173   5.037
 4486SOL    HW214358   6.885   4.024   4.973
 4487SOL     OW14359   2.540   3.693   6.779
 4487SOL    HW114360   2.610   3.694   6.708
 4487SOL    HW214361   2.489   3.779   6.777
 4488SOL     OW14362   5.527   2.761   5.965
 4488SOL    HW114363   5.431   2.739   5.945
 4488SOL    HW214364   5.555   2.841   5.912
 4489SOL     OW14365   5.425   5.968   4.395
 4489SOL    HW114366   5.391   5.903   4.462
 4489SOL    HW214367   5.438   6.057   4.438
 4490SOL     OW14368   5.506   1.758   1.704
 4490SOL    HW114369   5.478   1.786   1.796
 4490SOL    HW214370   5.584   1.815   1.675
 4491SOL     OW14371   0.660   3.700   2.779
 4491SOL    HW114372   0.650   3.608   2.741
 4491SOL    HW214373   0.706   3.695   2.867
 4492SOL     OW14374   5.133   2.621   0.336
 4492SOL    HW114375   5.052   2.662   0.377
 4492SOL    HW214376   5.164   2.544   0.392
 4493SOL     OW14377   4.262   5.042   4.576
 4493SOL    HW114378   4.214   5.128   4.560
 4493SOL    HW214379   4.269   4.991   4.490
 4494SOL     OW14380   6.851   2.611   5.848
 4494SOL    HW114381   6.821   2.656   5.931
 4494SOL    HW214382   6.832   2.669   5.769
 4495SOL     OW14383   4.974   6.866   2.733
 4495SOL    HW114384   5.063   6.893   2.696
 4495SOL    HW214385   4.930   6.801   2.671
 4496SOL     OW14386   5.092   5.001   0.300
 4496SOL    HW114387   5.063   5.094   0.277
 4496SOL    HW214388   5.179   5.005   0.349
 4497SOL     OW14389   5.459   5.974   0.136
 4497SOL    HW114390   5.450   6.069   0.107
 4497SOL    HW214391   5.516   5.924   0.070
 4498SOL     OW14392   0.267   3.648   6.430
 4498SOL    HW114393   0.357   3.662   6.389
 4498SOL    HW214394   0.196   3.684   6.368
 4499SOL     OW14395   6.409   2.862   4.375
 4499SOL    HW114396   6.371   2.896   4.462
 4499SOL    HW214397   6.507   2.847   4.385
 4500SOL     OW14398   2.890   3.661   3.928
 4500SOL    HW114399   2.897   3.698   4.020
 4500SOL    HW214400   2.910   3.733   3.861
 4501SOL     OW14401   1.162   3.849   6.047
 4501SOL    HW114402   1.240   3.792   6.071
 4501SOL    HW214403   1.151   3.851   5.948
 4502SOL     OW14404   1.640   2.454   6.008
 4502SOL    HW114405   1.732   2.473   6.042
 4502SOL    HW214406   1.627   2.355   6.000
 4503SOL     OW14407   2.319   1.125   3.373
 4503SOL    HW114408   2.246   1.128   3.442
 4503SOL    HW214409   2.299   1.052   3.307
 4504SOL     OW14410   6.579   2.408   5.478
 4504SOL    HW114411   6.655   2.420   5.416
 4504SOL    HW214412   6.550   2.496   5.515
 4505SOL     OW14413   0.490   6.149   4.905
 4505SOL    HW114414   0.449   6.074   4.854
 4505SOL    HW214415   0.523   6.116   4.993
 4506SOL     OW14416   4.115   1.842   4.590
 4506SOL    HW114417   4.017   1.863   4.582
 4506SOL    HW214418   4.153   1.886   4.671
 4507SOL     OW14419   5.174   5.045   1.412
 4507SOL    HW114420   5.158   5.073   1.506
 4507SOL    HW214421   5.109   4.974   1.386
 4508SOL     OW14422   1.425   4.161   6.939
 4508SOL    HW114423   1.432   4.260   6.931
 4508SOL    HW214424   1.344   4.137   6.992
 4509SOL     OW14425   4.643   1.712   4.495
 4509SOL    HW114426   4.686   1.747   4.579
 4509SOL    HW214427   4.577   1.642   4.519
 4510SOL     OW14428   5.503   0.195   5.047
 4510SOL    HW114429   5.521   0.177   5.144
 4510SOL    HW214430   5.557   0.133   4.991
 4511SOL     OW14431   0.416   3.211   7.018
 4511SOL    HW114432   0.371   3.153   0.061
 4511SOL    HW214433   0.419   3.163   6.931
 4512SOL     OW14434   2.527   6.674   6.043
 4512SOL    HW114435   2.529   6.624   6.130
 4512SOL    HW214436   2.468   6.625   5.978
 4513SOL     OW14437   4.776   6.767   1.466
 4513SOL    HW114438   4.731   6.754   1.554
 4513SOL    HW214439   4.817   6.681   1.436
 4514SOL     OW14440   3.812   1.316   4.806
 4514SOL    HW114441   3.911   1.301   4.804
 4514SOL    HW214442   3.788   1.390   4.743
 4515SOL     OW14443   6.487   4.451   6.994
 4515SOL    HW114444   6.554   4.454   6.921
 4515SOL    HW214445   6.470   4.544   0.003
 4516SOL     OW14446   0.952   1.000   5.610
 4516SOL    HW114447   0.894   0.959   5.681
 4516SOL    HW214448   1.010   0.929   5.569
 4517SOL     OW14449   2.708   6.590   5.791
 4517SOL    HW114450   2.737   6.620   5.700
 4517SOL    HW214451   2.774   6.620   5.859
 4518SOL     OW14452   0.529   2.262   4.142
 4518SOL    HW114453   0.591   2.193   4.105
 4518SOL    HW214454   0.453   2.217   4.189
 4519SOL     OW14455   6.981   1.707   2.700
 4519SOL    HW114456   0.033   1.722   2.640
 4519SOL    HW214457   7.013   1.681   2.791
 4520SOL     OW14458   5.814   4.851   2.789
 4520SOL    HW114459   5.801   4.902   2.704
 4520SOL    HW214460   5.838   4.914   2.863
 4521SOL     OW14461   4.778   2.124   6.184
 4521SOL    HW114462   4.776   2.185   6.105
 4521SOL    HW214463   4.716   2.158   6.254
 4522SOL     OW14464   5.271   6.771   3.907
 4522SOL    HW114465   5.219   6.842   3.858
 4522SOL    HW214466   5.207   6.704   3.945
 4523SOL     OW14467   2.441   4.219   6.316
 4523SOL    HW114468   2.428   4.125   6.347
 4523SOL    HW214469   2.538   4.235   6.297
 4524SOL     OW14470   5.503   1.460   5.609
 4524SOL    HW114471   5.500   1.360   5.613
 4524SOL    HW214472   5.589   1.489   5.568
 4525SOL     OW14473   6.504   1.546   4.148
 4525SOL    HW114474   6.497   1.643   4.170
 4525SOL    HW214475   6.601   1.519   4.147
 4526SOL     OW14476   5.218   0.160   1.286
 4526SOL    HW114477   5.278   0.236   1.260
 4526SOL    HW214478   5.123   0.187   1.275
 4527SOL     OW14479   4.045   0.920   3.658
 4527SOL    HW114480   4.053   0.821   3.670
 4527SOL    HW214481   4.113   0.966   3.716
 4528SOL     OW14482   4.697   6.815   0.076
 4528SOL    HW114483   4.786   6.793   0.037
 4528SOL    HW214484   4.700   6.905   0.119
 4529SOL     OW14485   2.524   1.050   3.132
 4529SOL    HW114486   2.593   1.090   3.192
 4529SOL    HW214487   2.451   1.010   3.187
 4530SOL     OW14488   0.511   3.458   5.587
 4530SOL    HW114489   0.533   3.370   5.546
 4530SOL    HW214490   0.429   3.450   5.643
 4531SOL     OW14491   1.106   3.950   3.587
 4531SOL    HW114492   1.064   4.021   3.643
 4531SOL    HW214493   1.196   3.927   3.625
 4532SOL     OW14494   6.894   1.491   1.624
 4532SOL    HW114495   6.812   1.547   1.615
 4532SOL    HW214496   6.917   1.481   1.721
 4533SOL     OW14497   1.575   0.745   3.512
 4533SOL    HW114498   1.526   0.797   3.442
 4533SOL    HW214499   1.518   0.739   3.594
 4534SOL     OW14500   6.370   3.790   5.323
 4534SOL    HW114501   6.317   3.857   5.272
 4534SOL    HW214502   6.315   3.707   5.336
 4535SOL     OW14503   4.514   2.060   2.726
 4535SOL    HW114504   4.605   2.039   2.762
 4535SOL    HW214505   4.477   1.980   2.679
 4536SOL     OW14506   4.716   1.462   4.350
 4536SOL    HW114507   4.643   1.430   4.411
 4536SOL    HW214508   4.755   1.546   4.386
 4537SOL     OW14509   3.597   3.335   6.216
 4537SOL    HW114510   3.647   3.381   6.290
 4537SOL    HW214511   3.541   3.262   6.255
 4538SOL     OW14512   3.281   2.088   3.971
 4538SOL    HW114513   3.285   2.150   3.893
 4538SOL    HW214514   3.373   2.061   3.998
 4539SOL     OW14515   2.893   2.243   4.021
 4539SOL    HW114516   2.869   2.263   3.926
 4539SOL    HW214517   2.857   2.316   4.080
 4540SOL     OW14518   3.591   3.389   3.642
 4540SOL    HW114519   3.678   3.344   3.623
 4540SOL    HW214520   3.522   3.320   3.665
 4541SOL     OW14521   5.187   0.669   0.255
 4541SOL    HW114522   5.181   0.727   0.336
 4541SOL    HW214523   5.256   0.705   0.193
 4542SOL     OW14524   6.331   6.065   1.502
 4542SOL    HW114525   6.393   6.066   1.424
 4542SOL    HW214526   6.313   5.970   1.529
 4543SOL     OW14527   4.781   1.466   6.958
 4543SOL    HW114528   4.703   1.513   6.917
 4543SOL    HW214529   4.786   1.488   0.029
 4544SOL     OW14530   2.372   5.861   6.501
 4544SOL    HW114531   2.440   5.918   6.547
 4544SOL    HW214532   2.282   5.879   6.540
 4545SOL     OW14533   4.548   2.205   5.099
 4545SOL    HW114534   4.526   2.128   5.160
 4545SOL    HW214535   4.647   2.211   5.087
 4546SOL     OW14536   0.706   0.101   6.367
 4546SOL    HW114537   0.637   0.086   6.438
 4546SOL    HW214538   0.711   0.021   6.308
 4547SOL     OW14539   5.322   2.743   1.731
 4547SOL    HW114540   5.398   2.733   1.666
 4547SOL    HW214541   5.313   2.838   1.758
 4548SOL     OW14542   1.107   5.019   3.984
 4548SOL    HW114543   1.107   5.095   4.048
 4548SOL    HW214544   1.013   4.986   3.971
 4549SOL     OW14545   6.277   3.533   3.050
 4549SOL    HW114546   6.314   3.620   3.083
 4549SOL    HW214547   6.311   3.515   2.958
 4550SOL     OW14548   0.889   5.962   3.695
 4550SOL    HW114549   0.937   5.945   3.609
 4550SOL    HW214550   0.794   5.933   3.686
 4551SOL     OW14551   6.792   1.877   5.281
 4551SOL    HW114552   6.813   1.971   5.254
 4551SOL    HW214553   6.725   1.878   5.355
 4552SOL     OW14554   0.236   3.100   5.835
 4552SOL    HW114555   0.171   3.135   5.902
 4552SOL    HW214556   0.303   3.042   5.881
 4553SOL     OW14557   4.166   4.946   6.811
 4553SOL    HW114558   4.251   4.990   6.840
 4553SOL    HW214559   4.183   4.849   6.795
 4554SOL     OW14560   3.933   0.801   2.244
 4554SOL    HW114561   3.980   0.825   2.329
 4554SOL    HW214562   3.858   0.864   2.229
 4555SOL     OW14563   4.541   1.532   6.809
 4555SOL    HW114564   4.481   1.465   6.853
 4555SOL    HW214565   4.589   1.489   6.733
 4556SOL     OW14566   3.805   1.261   3.837
 4556SOL    HW114567   3.857   1.309   3.766
 4556SOL    HW214568   3.732   1.208   3.795
 4557SOL     OW14569   5.264   0.540   4.735
 4557SOL    HW114570   5.256   0.539   4.635
 4557SOL    HW214571   5.186   0.587   4.775
 4558SOL     OW14572   6.380   3.895   6.625
 4558SOL    HW114573   6.448   3.878   6.553
 4558SOL    HW214574   6.408   3.847   6.709
 4559SOL     OW14575   1.733   6.579   1.644
 4559SOL    HW114576   1.830   6.577   1.619
 4559SOL    HW214577   1.686   6.649   1.590
 4560SOL     OW14578   5.114   4.014   3.074
 4560SOL    HW114579   5.178   4.018   2.998
 4560SOL    HW214580   5.082   4.106   3.095
 4561SOL     OW14581   2.648   0.711   1.014
 4561SOL    HW114582   2.578   0.647   0.982
 4561SOL    HW214583   2.699   0.670   1.089
 4562SOL     OW14584   3.177   5.840   5.440
 4562SOL    HW114585   3.080   5.817   5.429
 4562SOL    HW214586   3.233   5.763   5.411
 4563SOL     OW14587   5.209   3.058   0.512
 4563SOL    HW114588   5.153   2.977   0.494
 4563SOL    HW214589   5.160   3.119   0.573
 4564SOL     OW14590   1.093   5.399   0.827
 4564SOL    HW114591   1.058   5.464   0.895
 4564SOL    HW214592   1.064   5.306   0.851
 4565SOL     OW14593   0.441   1.818   5.553
 4565SOL    HW114594   0.436   1.780   5.460
 4565SOL    HW214595   0.520   1.781   5.600
 4566SOL     OW14596   6.836   0.468   0.137
 4566SOL    HW114597   6.864   0.496   0.045
 4566SOL    HW214598   6.885   0.386   0.164
 4567SOL     OW14599   0.580   1.185   1.054
 4567SOL    HW114600   0.544   1.096   1.026
 4567SOL    HW214601   0.508   1.254   1.046
 4568SOL     OW14602   1.787   4.150   5.361
 4568SOL    HW114603   1.761   4.180   5.453
 4568SOL    HW214604   1.759   4.218   5.294
 4569SOL     OW14605   1.541   2.469   3.920
 4569SOL    HW114606   1.636   2.484   3.894
 4569SOL    HW214607   1.510   2.543   3.980
 4570SOL     OW14608   6.874   6.004   3.211
 4570SOL    HW114609   6.910   6.033   3.122
 4570SOL    HW214610   6.867   5.904   3.213
 4571SOL     OW14611   3.196   3.726   4.863
 4571SOL    HW114612   3.198   3.771   4.952
 4571SOL    HW214613   3.233   3.633   4.872
 4572SOL     OW14614   0.344   0.178   0.720
 4572SOL    HW114615   0.400   0.096   0.727
 4572SOL    HW214616   0.302   0.197   0.809
 4573SOL     OW14617   5.860   6.004   0.473
 4573SOL    HW114618   5.766   6.030   0.451
 4573SOL    HW214619   5.860   5.913   0.516
 4574SOL     OW14620   0.182   4.949   0.766
 4574SOL    HW114621   0.187   4.859   0.722
 4574SOL    HW214622   0.209   5.019   0.700
 4575SOL     OW14623   6.881   2.056   0.604
 4575SOL    HW114624   6.803   2.119   0.609
 4575SOL    HW214625   6.957   2.092   0.658
 4576SOL     OW14626   3.051   5.846   6.008
 4576SOL    HW114627   3.079   5.777   5.941
 4576SOL    HW214628   2.959   5.878   5.987
 4577SOL     OW14629   0.361   3.553   2.934
 4577SOL    HW114630   0.458   3.577   2.926
 4577SOL    HW214631   0.329   3.572   3.026
 4578SOL     OW14632   1.040   3.603   3.308
 4578SOL    HW114633   1.104   3.575   3.236
 4578SOL    HW214634   0.950   3.621   3.268
 4579SOL     OW14635   4.791   1.442   3.049
 4579SOL    HW114636   4.780   1.537   3.021
 4579SOL    HW214637   4.764   1.381   2.974
 4580SOL     OW14638   6.260   4.958   0.646
 4580SOL    HW114639   6.165   4.934   0.627
 4580SOL    HW214640   6.312   4.875   0.664
 4581SOL     OW14641   3.186   4.863   2.666
 4581SOL    HW114642   3.285   4.855   2.669
 4581SOL    HW214643   3.155   4.861   2.571
 4582SOL     OW14644   5.886   6.720   4.463
 4582SOL    HW114645   5.942   6.718   4.380
 4582SOL    HW214646   5.791   6.700   4.440
 4583SOL     OW14647   3.039   2.003   5.003
 4583SOL    HW114648   3.086   2.091   5.006
 4583SOL    HW214649   2.999   1.984   5.092
 4584SOL     OW14650   0.193   5.633   6.151
 4584SOL    HW114651   0.165   5.560   6.212
 4584SOL    HW214652   0.165   5.721   6.189
 4585SOL     OW14653   2.767   6.494   3.256
 4585SOL    HW114654   2.770   6.549   3.340
 4585SOL    HW214655   2.734   6.551   3.180
 4586SOL     OW14656   3.223   4.752   1.163
 4586SOL    HW114657   3.226   4.662   1.206
 4586SOL    HW214658   3.207   4.822   1.232
 4587SOL     OW14659   4.229   3.497   1.854
 4587SOL    HW114660   4.287   3.465   1.929
 4587SOL    HW214661   4.235   3.432   1.778
 4588SOL     OW14662   3.978   3.707   5.343
 4588SOL    HW114663   3.883   3.707   5.312
 4588SOL    HW214664   4.030   3.775   5.291
 4589SOL     OW14665   5.576   2.208   2.725
 4589SOL    HW114666   5.488   2.161   2.720
 4589SOL    HW214667   5.612   2.221   2.633
 4590SOL     OW14668   4.426   6.132   2.070
 4590SOL    HW114669   4.334   6.096   2.055
 4590SOL    HW214670   4.451   6.123   2.167
 4591SOL     OW14671   6.961   5.917   5.623
 4591SOL    HW114672   6.890   5.849   5.638
 4591SOL    HW214673   7.026   5.916   5.699
 4592SOL     OW14674   3.946   2.929   1.415
 4592SOL    HW114675   3.985   2.983   1.341
 4592SOL    HW214676   3.998   2.844   1.426
 4593SOL     OW14677   4.316   5.311   3.382
 4593SOL    HW114678   4.274   5.396   3.350
 4593SOL    HW214679   4.244   5.244   3.403
 4594SOL     OW14680   3.741   1.214   2.070
 4594SOL    HW114681   3.797   1.201   1.987
 4594SOL    HW214682   3.654   1.255   2.045
 4595SOL     OW14683   3.789   2.780   6.776
 4595SOL    HW114684   3.704   2.831   6.763
 4595SOL    HW214685   3.801   2.759   6.873
 4596SOL     OW14686   6.140   6.314   1.784
 4596SOL    HW114687   6.125   6.298   1.686
 4596SOL    HW214688   6.137   6.227   1.833
 4597SOL     OW14689   5.282   5.506   6.710
 4597SOL    HW114690   5.263   5.483   6.805
 4597SOL    HW214691   5.342   5.437   6.670
 4598SOL     OW14692   1.331   5.262   6.003
 4598SOL    HW114693   1.245   5.313   5.994
 4598SOL    HW214694   1.311   5.164   6.009
 4599SOL     OW14695   1.213   3.544   1.157
 4599SOL    HW114696   1.212   3.624   1.096
 4599SOL    HW214697   1.305   3.505   1.158
 4600SOL     OW14698   3.268   5.433   6.231
 4600SOL    HW114699   3.233   5.343   6.206
 4600SOL    HW214700   3.368   5.432   6.228
 4601SOL     OW14701   1.832   0.717   5.279
 4601SOL    HW114702   1.844   0.805   5.234
 4601SOL    HW214703   1.828   0.644   5.210
 4602SOL     OW14704   1.378   6.606   1.371
 4602SOL    HW114705   1.387   6.682   1.306
 4602SOL    HW214706   1.311   6.630   1.441
 4603SOL     OW14707   3.514   6.513   1.440
 4603SOL    HW114708   3.433   6.570   1.429
 4603SOL    HW214709   3.553   6.527   1.531
 4604SOL     OW14710   4.200   0.884   1.285
 4604SOL    HW114711   4.185   0.804   1.342
 4604SOL    HW214712   4.213   0.856   1.190
 4605SOL     OW14713   4.793   0.779   3.817
 4605SOL    HW114714   4.750   0.862   3.851
 4605SOL    HW214715   4.891   0.782   3.835
 4606SOL     OW14716   0.174   6.558   3.118
 4606SOL    HW114717   0.188   6.605   3.205
 4606SOL    HW214718   0.152   6.462   3.135
 4607SOL     OW14719   2.748   2.022   0.679
 4607SOL    HW114720   2.734   2.117   0.706
 4607SOL    HW214721   2.761   1.965   0.760
 4608SOL     OW14722   0.953   5.273   5.120
 4608SOL    HW114723   0.960   5.180   5.086
 4608SOL    HW214724   0.881   5.278   5.190
 4609SOL     OW14725   4.236   5.632   6.401
 4609SOL    HW114726   4.224   5.696   6.325
 4609SOL    HW214727   4.284   5.550   6.369
 4610SOL     OW14728   0.050   2.392   0.342
 4610SOL    HW114729   0.058   2.434   0.432
 4610SOL    HW214730   7.017   2.311   0.348
 4611SOL     OW14731   6.462   4.310   0.193
 4611SOL    HW114732   6.369   4.334   0.221
 4611SOL    HW214733   6.481   4.351   0.104
 4612SOL     OW14734   1.644   5.743   6.820
 4612SOL    HW114735   1.646   5.841   6.800
 4612SOL    HW214736   1.665   5.692   6.737
 4613SOL     OW14737   2.144   5.709   2.969
 4613SOL    HW114738   2.200   5.792   2.974
 4613SOL    HW214739   2.134   5.681   2.873
 4614SOL     OW14740   1.883   5.169   6.340
 4614SOL    HW114741   1.813   5.133   6.279
 4614SOL    HW214742   1.911   5.260   6.309
 4615SOL     OW14743   1.497   1.210   0.686
 4615SOL    HW114744   1.515   1.284   0.751
 4615SOL    HW214745   1.517   1.243   0.593
 4616SOL     OW14746   6.942   0.666   6.587
 4616SOL    HW114747   6.926   0.695   6.493
 4616SOL    HW214748   6.887   0.721   6.649
 4617SOL     OW14749   1.109   2.610   2.538
 4617SOL    HW114750   1.037   2.670   2.505
 4617SOL    HW214751   1.108   2.525   2.486
 4618SOL     OW14752   1.447   2.295   5.551
 4618SOL    HW114753   1.471   2.382   5.509
 4618SOL    HW214754   1.526   2.234   5.549
 4619SOL     OW14755   4.503   6.898   3.625
 4619SOL    HW114756   4.439   6.963   3.666
 4619SOL    HW214757   4.596   6.935   3.629
 4620SOL     OW14758   3.440   4.053   6.894
 4620SOL    HW114759   3.437   4.108   6.811
 4620SOL    HW214760   3.365   4.080   6.955
 4621SOL     OW14761   6.347   2.130   4.719
 4621SOL    HW114762   6.412   2.185   4.772
 4621SOL    HW214763   6.395   2.049   4.683
 4622SOL     OW14764   1.714   2.586   0.734
 4622SOL    HW114765   1.752   2.616   0.822
 4622SOL    HW214766   1.623   2.548   0.750
 4623SOL     OW14767   0.261   5.260   1.176
 4623SOL    HW114768   0.271   5.161   1.163
 4623SOL    HW214769   0.314   5.288   1.256
 4624SOL     OW14770   4.653   0.873   4.081
 4624SOL    HW114771   4.559   0.843   4.064
 4624SOL    HW214772   4.659   0.972   4.069
 4625SOL     OW14773   1.627   4.057   0.159
 4625SOL    HW114774   1.684   3.995   0.105
 4625SOL    HW214775   1.544   4.079   0.109
 4626SOL     OW14776   6.331   4.558   1.629
 4626SOL    HW114777   6.343   4.473   1.678
 4626SOL    HW214778   6.344   4.542   1.531
 4627SOL     OW14779   3.591   5.771   5.550
 4627SOL    HW114780   3.676   5.806   5.511
 4627SOL    HW214781   3.605   5.747   5.646
 4628SOL     OW14782   5.634   4.679   2.935
 4628SOL    HW114783   5.681   4.739   2.871
 4628SOL    HW214784   5.700   4.621   2.982
 4629SOL     OW14785   2.063   4.888   5.862
 4629SOL    HW114786   2.061   4.797   5.903
 4629SOL    HW214787   2.027   4.955   5.927
 4630SOL     OW14788   2.778   5.587   3.901
 4630SOL    HW114789   2.801   5.675   3.858
 4630SOL    HW214790   2.761   5.602   3.999
 4631SOL     OW14791   2.445   6.752   3.426
 4631SOL    HW114792   2.376   6.709   3.367
 4631SOL    HW214793   2.432   6.851   3.425
 4632SOL     OW14794   4.590   4.968   3.530
 4632SOL    HW114795   4.542   4.991   3.615
 4632SOL    HW214796   4.587   5.046   3.468
 4633SOL     OW14797   6.714   1.693   4.935
 4633SOL    HW114798   6.760   1.642   4.862
 4633SOL    HW214799   6.775   1.764   4.970
 4634SOL     OW14800   2.961   4.550   6.407
 4634SOL    HW114801   2.965   4.566   6.506
 4634SOL    HW214802   3.021   4.474   6.383
 4635SOL     OW14803   5.907   3.131   2.086
 4635SOL    HW114804   5.919   3.228   2.107
 4635SOL    HW214805   5.993   3.093   2.052
 4636SOL     OW14806   2.740   5.294   6.808
 4636SOL    HW114807   2.738   5.199   6.777
 4636SOL    HW214808   2.666   5.309   6.874
 4637SOL     OW14809   1.317   0.770   6.626
 4637SOL    HW114810   1.333   0.805   6.533
 4637SOL    HW214811   1.402   0.730   6.661
 4638SOL     OW14812   3.988   2.798   6.196
 4638SOL    HW114813   3.924   2.773   6.124
 4638SOL    HW214814   4.070   2.839   6.155
 4639SOL     OW14815   1.374   4.170   5.807
 4639SOL    HW114816   1.461   4.200   5.767
 4639SOL    HW214817   1.379   4.072   5.828
 4640SOL     OW14818   5.177   4.975   4.172
 4640SOL    HW114819   5.117   4.907   4.130
 4640SOL    HW214820   5.130   5.020   4.248
 4641SOL     OW14821   2.646   5.004   4.441
 4641SOL    HW114822   2.673   5.036   4.532
 4641SOL    HW214823   2.623   4.907   4.446
 4642SOL     OW14824   6.494   5.668   4.954
 4642SOL    HW114825   6.428   5.652   5.027
 4642SOL    HW214826   6.587   5.658   4.991
 4643SOL     OW14827   4.671   2.560   0.079
 4643SOL    HW114828   4.747   2.598   0.131
 4643SOL    HW214829   4.615   2.634   0.041
 4644SOL     OW14830   1.425   5.289   5.290
 4644SOL    HW114831   1.357   5.269   5.361
 4644SOL    HW214832   1.379   5.327   5.210
 4645SOL     OW14833   1.831   7.004   4.398
 4645SOL    HW114834   1.740   6.966   4.381
 4645SOL    HW214835   1.876   7.023   4.311
 4646SOL     OW14836   2.689   6.839   2.141
 4646SOL    HW114837   2.755   6.835   2.216
 4646SOL    HW214838   2.617   6.772   2.156
 4647SOL     OW14839   0.954   6.732   3.032
 4647SOL    HW114840   1.014   6.771   2.962
 4647SOL    HW214841   0.928   6.802   3.098
 4648SOL     OW14842   3.394   6.748   1.593
 4648SOL    HW114843   3.418   6.843   1.573
 4648SOL    HW214844   3.311   6.724   1.543
 4649SOL     OW14845   5.006   0.631   6.022
 4649SOL    HW114846   5.101   0.652   6.000
 4649SOL    HW214847   4.955   0.715   6.038
 4650SOL     OW14848   3.699   5.999   2.907
 4650SOL    HW114849   3.743   5.939   2.840
 4650SOL    HW214850   3.740   6.090   2.902
 4651SOL     OW14851   0.635   2.313   1.979
 4651SOL    HW114852   0.724   2.273   1.998
 4651SOL    HW214853   0.644   2.381   1.906
 4652SOL     OW14854   0.764   6.662   3.705
 4652SOL    HW114855   0.726   6.698   3.790
 4652SOL    HW214856   0.811   6.735   3.655
 4653SOL     OW14857   6.679   5.827   0.197
 4653SOL    HW114858   6.725   5.915   0.206
 4653SOL    HW214859   6.730   5.770   0.132
 4654SOL     OW14860   0.800   0.388   0.272
 4654SOL    HW114861   0.755   0.312   0.225
 4654SOL    HW214862   0.736   0.430   0.336
 4655SOL     OW14863   0.825   4.769   2.694
 4655SOL    HW114864   0.826   4.869   2.689
 4655SOL    HW214865   0.746   4.734   2.644
 4656SOL     OW14866   0.750   6.902   3.168
 4656SOL    HW114867   0.703   6.888   3.081
 4656SOL    HW214868   0.795   6.991   3.167
 4657SOL     OW14869   5.648   6.891   1.763
 4657SOL    HW114870   5.723   6.951   1.791
 4657SOL    HW214871   5.585   6.942   1.704
 4658SOL     OW14872   3.968   0.278   2.886
 4658SOL    HW114873   3.877   0.310   2.913
 4658SOL    HW214874   3.971   0.263   2.787
 4659SOL     OW14875   1.753   3.016   5.129
 4659SOL    HW114876   1.722   2.993   5.222
 4659SOL    HW214877   1.815   3.094   5.134
 4660SOL     OW14878   1.525   1.844   4.880
 4660SOL    HW114879   1.475   1.802   4.804
 4660SOL    HW214880   1.482   1.930   4.905
 4661SOL     OW14881   3.640   3.937   4.883
 4661SOL    HW114882   3.624   3.848   4.841
 4661SOL    HW214883   3.735   3.964   4.869
 4662SOL     OW14884   4.876   0.660   5.339
 4662SOL    HW114885   4.814   0.730   5.375
 4662SOL    HW214886   4.926   0.698   5.261
 4663SOL     OW14887   6.813   1.878   2.548
 4663SOL    HW114888   6.853   1.802   2.599
 4663SOL    HW214889   6.714   1.865   2.542
 4664SOL     OW14890   2.252   2.196   6.655
 4664SOL    HW114891   2.182   2.132   6.689
 4664SOL    HW214892   2.210   2.259   6.590
 4665SOL     OW14893   4.799   6.953   6.830
 4665SOL    HW114894   4.822   6.859   6.804
 4665SOL    HW214895   4.705   6.955   6.865
 4666SOL     OW14896   2.373   1.063   0.163
 4666SOL    HW114897   2.431   0.999   0.114
 4666SOL    HW214898   2.284   1.070   0.118
 4667SOL     OW14899   6.532   4.720   6.691
 4667SOL    HW114900   6.455   4.660   6.713
 4667SOL    HW214901   6.595   4.672   6.630
 4668SOL     OW14902   0.305   1.583   4.634
 4668SOL    HW114903   0.276   1.572   4.539
 4668SOL    HW214904   0.278   1.674   4.667
 4669SOL     OW14905   2.660   6.673   0.350
 4669SOL    HW114906   2.681   6.756   0.299
 4669SOL    HW214907   2.606   6.696   0.431
 4670SOL     OW14908   2.994   1.006   4.859
 4670SOL    HW114909   3.044   0.984   4.775
 4670SOL    HW214910   3.038   0.962   4.937
 4671SOL     OW14911   5.831   3.457   1.465
 4671SOL    HW114912   5.825   3.396   1.544
 4671SOL    HW214913   5.766   3.427   1.395
 4672SOL     OW14914   2.634   4.636   6.107
 4672SOL    HW114915   2.548   4.612   6.062
 4672SOL    HW214916   2.666   4.725   6.074
 4673SOL     OW14917   3.831   0.044   1.284
 4673SOL    HW114918   3.904   0.070   1.348
 4673SOL    HW214919   3.861   6.993   1.228
 4674SOL     OW14920   5.590   6.211   6.074
 4674SOL    HW114921   5.556   6.124   6.037
 4674SOL    HW214922   5.689   6.216   6.062
 4675SOL     OW14923   1.083   3.409   0.872
 4675SOL    HW114924   1.017   3.371   0.808
 4675SOL    HW214925   1.070   3.369   0.962
 4676SOL     OW14926   0.768   5.367   3.275
 4676SOL    HW114927   0.853   5.409   3.244
 4676SOL    HW214928   0.691   5.413   3.230
 4677SOL     OW14929   1.557   1.465   0.811
 4677SOL    HW114930   1.572   1.510   0.723
 4677SOL    HW214931   1.493   1.519   0.865
 4678SOL     OW14932   2.285   4.472   2.859
 4678SOL    HW114933   2.353   4.454   2.930
 4678SOL    HW214934   2.331   4.482   2.771
 4679SOL     OW14935   4.877   6.687   1.847
 4679SOL    HW114936   4.919   6.607   1.890
 4679SOL    HW214937   4.871   6.761   1.915
 4680SOL     OW14938   4.078   0.667   1.494
 4680SOL    HW114939   4.017   0.734   1.536
 4680SOL    HW214940   4.101   0.596   1.560
 4681SOL     OW14941   4.949   5.080   6.725
 4681SOL    HW114942   5.016   5.007   6.714
 4681SOL    HW214943   4.996   5.167   6.743
 4682SOL     OW14944   5.652   3.619   6.186
 4682SOL    HW114945   5.699   3.693   6.137
 4682SOL    HW214946   5.623   3.549   6.121
 4683SOL     OW14947   6.120   5.137   3.055
 4683SOL    HW114948   6.163   5.194   2.984
 4683SOL    HW214949   6.191   5.100   3.115
 4684SOL     OW14950   4.281   5.780   5.922
 4684SOL    HW114951   4.368   5.765   5.969
 4684SOL    HW214952   4.242   5.867   5.951
 4685SOL     OW14953   1.844   3.585   6.382
 4685SOL    HW114954   1.844   3.485   6.384
 4685SOL    HW214955   1.913   3.617   6.318
 4686SOL     OW14956   3.776   5.610   0.377
 4686SOL    HW114957   3.850   5.569   0.430
 4686SOL    HW214958   3.746   5.547   0.306
 4687SOL     OW14959   3.815   1.847   3.659
 4687SOL    HW114960   3.856   1.784   3.726
 4687SOL    HW214961   3.780   1.794   3.581
 4688SOL     OW14962   6.110   2.954   5.918
 4688SOL    HW114963   6.178   2.973   5.989
 4688SOL    HW214964   6.019   2.980   5.952
 4689SOL     OW14965   5.599   0.221   1.527
 4689SOL    HW114966   5.539   0.297   1.552
 4689SOL    HW214967   5.670   0.254   1.465
 4690SOL     OW14968   1.794   0.970   0.813
 4690SOL    HW114969   1.695   0.958   0.817
 4690SOL    HW214970   1.816   1.067   0.802
 4691SOL     OW14971   4.665   4.372   0.722
 4691SOL    HW114972   4.578   4.394   0.766
 4691SOL    HW214973   4.682   4.274   0.728
 4692SOL     OW14974   6.152   4.347   3.098
 4692SOL    HW114975   6.242   4.307   3.117
 4692SOL    HW214976   6.110   4.376   3.184
 4693SOL     OW14977   1.535   1.225   4.266
 4693SOL    HW114978   1.575   1.317   4.266
 4693SOL    HW214979   1.476   1.214   4.186
 4694SOL     OW14980   2.511   1.982   0.551
 4694SOL    HW114981   2.474   1.894   0.580
 4694SOL    HW214982   2.588   2.006   0.610
 4695SOL     OW14983   1.482   5.801   0.545
 4695SOL    HW114984   1.528   5.750   0.473
 4695SOL    HW214985   1.455   5.739   0.618
 4696SOL     OW14986   0.442   5.472   6.314
 4696SOL    HW114987   0.458   5.373   6.319
 4696SOL    HW214988   0.450   5.502   6.219
 4697SOL     OW14989   1.280   3.696   2.237
 4697SOL    HW114990   1.362   3.750   2.253
 4697SOL    HW214991   1.265   3.634   2.313
 4698SOL     OW14992   3.893   0.075   3.354
 4698SOL    HW114993   3.950   0.071   3.272
 4698SOL    HW214994   3.877   7.009   3.388
 4699SOL     OW14995   0.394   6.798   2.467
 4699SOL    HW114996   0.396   6.812   2.566
 4699SOL    HW214997   0.347   6.713   2.445
 4700SOL     OW14998   6.937   1.702   2.354
 4700SOL    HW114999   6.952   1.652   2.269
 4700SOL    HW215000   6.855   1.758   2.345
 4701SOL     OW15001   3.315   2.105   1.941
 4701SOL    HW115002   3.323   2.182   1.879
 4701SOL    HW215003   3.394   2.045   1.931
 4702SOL     OW15004   4.919   4.863   0.646
 4702SOL    HW115005   4.879   4.856   0.737
 4702SOL    HW215006   5.007   4.814   0.644
 4703SOL     OW15007   1.634   5.532   2.436
 4703SOL    HW115008   1.695   5.608   2.413
 4703SOL    HW215009   1.541   5.552   2.405
 4704SOL     OW15010   0.224   6.228   5.593
 4704SOL    HW115011   0.311   6.178   5.590
 4704SOL    HW215012   0.186   6.222   5.685
 4705SOL     OW15013   3.328   2.134   0.727
 4705SOL    HW115014   3.284   2.182   0.652
 4705SOL    HW215015   3.412   2.183   0.753
 4706SOL     OW15016   1.321   7.015   0.889
 4706SOL    HW115017   1.280   0.080   0.881
 4706SOL    HW215018   1.375   7.010   0.973
 4707SOL     OW15019   1.646   5.922   1.730
 4707SOL    HW115020   1.736   5.952   1.698
 4707SOL    HW215021   1.575   5.969   1.677
 4708SOL     OW15022   1.172   2.296   5.490
 4708SOL    HW115023   1.267   2.308   5.462
 4708SOL    HW215024   1.157   2.340   5.578
 4709SOL     OW15025   4.777   5.488   4.775
 4709SOL    HW115026   4.776   5.407   4.717
 4709SOL    HW215027   4.703   5.549   4.748
 4710SOL     OW15028   6.361   6.997   4.606
 4710SOL    HW115029   6.289   0.038   4.586
 4710SOL    HW215030   6.387   7.004   4.702
 4711SOL     OW15031   6.339   2.854   3.526
 4711SOL    HW115032   6.377   2.909   3.600
 4711SOL    HW215033   6.353   2.901   3.439
 4712SOL     OW15034   4.519   4.692   5.886
 4712SOL    HW115035   4.446   4.741   5.840
 4712SOL    HW215036   4.530   4.728   5.979
 4713SOL     OW15037   5.567   5.740   1.176
 4713SOL    HW115038   5.660   5.713   1.202
 4713SOL    HW215039   5.546   5.829   1.215
 4714SOL     OW15040   6.928   1.515   6.823
 4714SOL    HW115041   6.956   1.608   6.799
 4714SOL    HW215042   6.857   1.484   6.760
 4715SOL     OW15043   5.965   2.505   1.132
 4715SOL    HW115044   6.054   2.471   1.160
 4715SOL    HW215045   5.918   2.544   1.212
 4716SOL     OW15046   4.846   5.736   5.959
 4716SOL    HW115047   4.935   5.708   5.922
 4716SOL    HW215048   4.779   5.664   5.940
 4717SOL     OW15049   1.824   5.175   5.345
 4717SOL    HW115050   1.918   5.199   5.322
 4717SOL    HW215051   1.761   5.228   5.288
 4718SOL     OW15052   4.867   2.876   0.929
 4718SOL    HW115053   4.938   2.927   0.979
 4718SOL    HW215054   4.891   2.872   0.832
 4719SOL     OW15055   5.398   3.358   2.979
 4719SOL    HW115056   5.441   3.384   2.892
 4719SOL    HW215057   5.375   3.440   3.031
 4720SOL     OW15058   2.787   4.332   5.982
 4720SOL    HW115059   2.745   4.305   5.895
 4720SOL    HW215060   2.759   4.426   6.004
 4721SOL     OW15061   5.898   2.840   1.626
 4721SOL    HW115062   5.858   2.891   1.702
 4721SOL    HW215063   5.854   2.867   1.541
 4722SOL     OW15064   1.424   4.999   0.162
 4722SOL    HW115065   1.512   4.955   0.146
 4722SOL    HW215066   1.383   5.024   0.075
 4723SOL     OW15067   3.382   4.100   5.200
 4723SOL    HW115068   3.305   4.040   5.179
 4723SOL    HW215069   3.457   4.047   5.240
 4724SOL     OW15070   6.772   6.514   3.835
 4724SOL    HW115071   6.782   6.539   3.739
 4724SOL    HW215072   6.681   6.477   3.851
 4725SOL     OW15073   6.046   5.030   0.322
 4725SOL    HW115074   6.017   4.998   0.412
 4725SOL    HW215075   5.978   5.004   0.254
 4726SOL     OW15076   1.136   3.043   5.830
 4726SOL    HW115077   1.135   2.948   5.862
 4726SOL    HW215078   1.189   3.099   5.893
 4727SOL     OW15079   0.603   6.019   0.105
 4727SOL    HW115080   0.625   5.993   0.011
 4727SOL    HW215081   0.658   5.964   0.168
 4728SOL     OW15082   6.420   2.041   2.699
 4728SOL    HW115083   6.494   2.094   2.740
 4728SOL    HW215084   6.374   2.096   2.629
 4729SOL     OW15085   5.099   0.143   0.208
 4729SOL    HW115086   5.148   0.226   0.235
 4729SOL    HW215087   5.113   0.072   0.277
 4730SOL     OW15088   3.593   6.339   5.014
 4730SOL    HW115089   3.615   6.418   5.072
 4730SOL    HW215090   3.607   6.255   5.067
 4731SOL     OW15091   3.074   0.786   0.812
 4731SOL    HW115092   3.116   0.803   0.723
 4731SOL    HW215093   3.076   0.871   0.866
 4732SOL     OW15094   0.852   4.019   5.180
 4732SOL    HW115095   0.927   3.955   5.194
 4732SOL    HW215096   0.779   4.000   5.246
 4733SOL     OW15097   1.760   4.391   2.894
 4733SOL    HW115098   1.684   4.416   2.953
 4733SOL    HW215099   1.843   4.380   2.949
 4734SOL     OW15100   5.407   3.511   6.849
 4734SOL    HW115101   5.414   3.423   6.802
 4734SOL    HW215102   5.322   3.556   6.824
 4735SOL     OW15103   6.924   5.675   3.555
 4735SOL    HW115104   6.830   5.642   3.555
 4735SOL    HW215105   6.948   5.710   3.465
 4736SOL     OW15106   5.911   1.604   4.499
 4736SOL    HW115107   5.939   1.515   4.535
 4736SOL    HW215108   5.992   1.658   4.475
 4737SOL     OW15109   1.985   4.057   0.869
 4737SOL    HW115110   1.931   4.093   0.794
 4737SOL    HW215111   2.075   4.101   0.871
 4738SOL     OW15112   3.762   6.734   3.931
 4738SOL    HW115113   3.688   6.772   3.875
 4738SOL    HW215114   3.849   6.742   3.883
 4739SOL     OW15115   5.722   2.210   4.067
 4739SOL    HW115116   5.723   2.136   3.999
 4739SOL    HW215117   5.702   2.297   4.022
 4740SOL     OW15118   0.700   0.785   1.095
 4740SOL    HW115119   0.618   0.731   1.080
 4740SOL    HW215120   0.781   0.726   1.088
 4741SOL     OW15121   4.489   5.051   1.454
 4741SOL    HW115122   4.452   4.960   1.473
 4741SOL    HW215123   4.587   5.043   1.434
 4742SOL     OW15124   2.734   5.167   1.343
 4742SOL    HW115125   2.773   5.253   1.309
 4742SOL    HW215126   2.804   5.095   1.339
 4743SOL     OW15127   2.235   1.055   5.891
 4743SOL    HW115128   2.329   1.062   5.859
 4743SOL    HW215129   2.221   1.117   5.968
 4744SOL     OW15130   2.440   2.722   5.167
 4744SOL    HW115131   2.518   2.729   5.230
 4744SOL    HW215132   2.432   2.807   5.115
 4745SOL     OW15133   2.649   4.769   5.548
 4745SOL    HW115134   2.702   4.709   5.488
 4745SOL    HW215135   2.629   4.855   5.500
 4746SOL     OW15136   5.617   5.904   0.763
 4746SOL    HW115137   5.677   5.852   0.702
 4746SOL    HW215138   5.670   5.937   0.842
 4747SOL     OW15139   0.837   2.941   6.580
 4747SOL    HW115140   0.832   2.929   6.679
 4747SOL    HW215141   0.792   2.864   6.535
 4748SOL     OW15142   1.488   0.375   1.533
 4748SOL    HW115143   1.577   0.379   1.580
 4748SOL    HW215144   1.415   0.386   1.600
 4749SOL     OW15145   3.083   6.301   6.043
 4749SOL    HW115146   3.094   6.399   6.029
 4749SOL    HW215147   3.025   6.263   5.972
 4750SOL     OW15148   0.035   1.886   4.192
 4750SOL    HW115149   0.069   1.960   4.134
 4750SOL    HW215150   0.110   1.824   4.213
 4751SOL     OW15151   2.034   3.189   0.062
 4751SOL    HW115152   2.060   3.111   0.119
 4751SOL    HW215153   2.104   3.206   7.019
 4752SOL     OW15154   2.848   6.601   0.691
 4752SOL    HW115155   2.855   6.573   0.595
 4752SOL    HW215156   2.905   6.541   0.747
 4753SOL     OW15157   5.933   0.051   4.559
 4753SOL    HW115158   5.838   0.056   4.531
 4753SOL    HW215159   5.953   6.985   4.594
 4754SOL     OW15160   6.043   0.401   6.177
 4754SOL    HW115161   6.004   0.367   6.091
 4754SOL    HW215162   6.138   0.429   6.162
 4755SOL     OW15163   2.394   0.168   6.325
 4755SOL    HW115164   2.371   0.200   6.234
 4755SOL    HW215165   2.487   0.197   6.348
 4756SOL     OW15166   5.783   2.334   1.757
 4756SOL    HW115167   5.875   2.315   1.723
 4756SOL    HW215168   5.717   2.318   1.684
 4757SOL     OW15169   2.323   2.027   1.858
 4757SOL    HW115170   2.287   2.092   1.792
 4757SOL    HW215171   2.251   1.998   1.920
 4758SOL     OW15172   3.410   6.050   5.065
 4758SOL    HW115173   3.452   6.078   4.978
 4758SOL    HW215174   3.445   5.960   5.091
 4759SOL     OW15175   5.192   5.578   4.486
 4759SOL    HW115176   5.164   5.661   4.437
 4759SOL    HW215177   5.129   5.504   4.463
 4760SOL     OW15178   3.173   1.600   1.330
 4760SOL    HW115179   3.090   1.653   1.319
 4760SOL    HW215180   3.223   1.597   1.243
 4761SOL     OW15181   6.921   0.626   6.921
 4761SOL    HW115182   6.971   0.561   6.864
 4761SOL    HW215183   6.849   0.670   6.866
 4762SOL     OW15184   2.224   4.717   3.220
 4762SOL    HW115185   2.205   4.801   3.270
 4762SOL    HW215186   2.188   4.726   3.127
 4763SOL     OW15187   5.854   6.001   3.391
 4763SOL    HW115188   5.863   6.100   3.395
 4763SOL    HW215189   5.783   5.976   3.324
 4764SOL     OW15190   4.757   4.119   5.110
 4764SOL    HW115191   4.786   4.077   5.024
 4764SOL    HW215192   4.799   4.071   5.187
 4765SOL     OW15193   4.777   6.460   5.084
 4765SOL    HW115194   4.859   6.490   5.035
 4765SOL    HW215195   4.779   6.360   5.094
 4766SOL     OW15196   3.851   0.823   3.995
 4766SOL    HW115197   3.911   0.749   4.025
 4766SOL    HW215198   3.892   0.911   4.017
 4767SOL     OW15199   4.254   6.229   0.543
 4767SOL    HW115200   4.353   6.241   0.543
 4767SOL    HW215201   4.226   6.176   0.463
 4768SOL     OW15202   5.550   1.679   4.978
 4768SOL    HW115203   5.545   1.767   4.931
 4768SOL    HW215204   5.504   1.686   5.066
 4769SOL     OW15205   4.373   5.191   1.647
 4769SOL    HW115206   4.296   5.140   1.687
 4769SOL    HW215207   4.407   5.142   1.567
 4770SOL     OW15208   2.049   0.308   3.625
 4770SOL    HW115209   2.092   0.236   3.680
 4770SOL    HW215210   2.045   0.280   3.530
 4771SOL     OW15211   3.027   4.965   6.142
 4771SOL    HW115212   3.037   4.934   6.237
 4771SOL    HW215213   2.946   4.923   6.102
 4772SOL     OW15214   2.498   6.517   1.467
 4772SOL    HW115215   2.408   6.483   1.438
 4772SOL    HW215216   2.494   6.617   1.475
 4773SOL     OW15217   6.948   5.462   4.575
 4773SOL    HW115218   6.850   5.451   4.593
 4773SOL    HW215219   7.000   5.421   4.651
 4774SOL     OW15220   0.652   2.997   2.611
 4774SOL    HW115221   0.721   3.067   2.630
 4774SOL    HW215222   0.688   2.908   2.637
 4775SOL     OW15223   5.764   0.420   3.177
 4775SOL    HW115224   5.853   0.466   3.179
 4775SOL    HW215225   5.700   0.474   3.123
 4776SOL     OW15226   2.301   6.383   3.005
 4776SOL    HW115227   2.300   6.403   3.103
 4776SOL    HW215228   2.224   6.429   2.961
 4777SOL     OW15229   2.363   4.221   1.052
 4777SOL    HW115230   2.343   4.125   1.072
 4777SOL    HW215231   2.304   4.253   0.978
 4778SOL     OW15232   5.561   2.309   1.600
 4778SOL    HW115233   5.485   2.328   1.662
 4778SOL    HW215234   5.553   2.368   1.519
 4779SOL     OW15235   6.201   0.291   1.810
 4779SOL    HW115236   6.292   0.302   1.771
 4779SOL    HW215237   6.209   0.259   1.905
 4780SOL     OW15238   0.675   6.923   6.645
 4780SOL    HW115239   0.710   7.000   6.698
 4780SOL    HW215240   0.594   6.951   6.595
 4781SOL     OW15241   2.811   5.829   0.961
 4781SOL    HW115242   2.785   5.906   0.902
 4781SOL    HW215243   2.907   5.805   0.943
 4782SOL     OW15244   4.715   0.022   0.233
 4782SOL    HW115245   4.754   7.016   0.320
 4782SOL    HW215246   4.758   0.108   0.207
 4783SOL     OW15247   4.307   4.617   0.124
 4783SOL    HW115248   4.336   4.690   0.185
 4783SOL    HW215249   4.215   4.586   0.150
 4784SOL     OW15250   6.197   5.056   6.769
 4784SOL    HW115251   6.107   5.013   6.782
 4784SOL    HW215252   6.210   5.077   6.672
 4785SOL     OW15253   6.698   6.317   1.261
 4785SOL    HW115254   6.782   6.279   1.221
 4785SOL    HW215255   6.699   6.303   1.360
 4786SOL     OW15256   1.718   2.261   2.066
 4786SOL    HW115257   1.737   2.337   2.129
 4786SOL    HW215258   1.753   2.176   2.105
 4787SOL     OW15259   3.480   2.018   3.671
 4787SOL    HW115260   3.471   1.942   3.737
 4787SOL    HW215261   3.564   2.069   3.692
 4788SOL     OW15262   1.467   5.266   6.272
 4788SOL    HW115263   1.517   5.346   6.307
 4788SOL    HW215264   1.418   5.292   6.189
 4789SOL     OW15265   5.588   0.728   0.070
 4789SOL    HW115266   5.498   0.769   0.058
 4789SOL    HW215267   5.598   0.650   0.008
 4790SOL     OW15268   6.268   3.589   0.081
 4790SOL    HW115269   6.282   3.511   0.020
 4790SOL    HW215270   6.237   3.668   0.029
 4791SOL     OW15271   5.862   1.941   1.680
 4791SOL    HW115272   5.773   1.980   1.704
 4791SOL    HW215273   5.925   1.950   1.757
 4792SOL     OW15274   1.646   2.992   2.495
 4792SOL    HW115275   1.585   3.042   2.556
 4792SOL    HW215276   1.682   2.911   2.542
 4793SOL     OW15277   1.197   2.457   5.730
 4793SOL    HW115278   1.280   2.495   5.770
 4793SOL    HW215279   1.117   2.499   5.773
 4794SOL     OW15280   3.720   0.728   3.105
 4794SOL    HW115281   3.646   0.780   3.148
 4794SOL    HW215282   3.797   0.722   3.169
 4795SOL     OW15283   6.862   2.310   3.913
 4795SOL    HW115284   6.949   2.331   3.957
 4795SOL    HW215285   6.788   2.357   3.961
 4796SOL     OW15286   4.748   1.794   6.844
 4796SOL    HW115287   4.684   1.870   6.853
 4796SOL    HW215288   4.759   1.749   6.932
 4797SOL     OW15289   1.557   5.972   5.249
 4797SOL    HW115290   1.604   6.059   5.264
 4797SOL    HW215291   1.574   5.910   5.326
 4798SOL     OW15292   0.521   4.153   5.765
 4798SOL    HW115293   0.478   4.094   5.696
 4798SOL    HW215294   0.587   4.214   5.720
 4799SOL     OW15295   5.316   1.633   5.610
 4799SOL    HW115296   5.383   1.562   5.592
 4799SOL    HW215297   5.224   1.593   5.611
 4800SOL     OW15298   3.235   3.177   6.069
 4800SOL    HW115299   3.157   3.179   6.006
 4800SOL    HW215300   3.283   3.264   6.067
 4801SOL     OW15301   2.534   1.824   0.208
 4801SOL    HW115302   2.556   1.751   0.273
 4801SOL    HW215303   2.435   1.836   0.204
 4802SOL     OW15304   1.314   6.476   1.842
 4802SOL    HW115305   1.386   6.415   1.810
 4802SOL    HW215306   1.341   6.518   1.928
 4803SOL     OW15307   1.019   6.469   0.480
 4803SOL    HW115308   0.966   6.459   0.565
 4803SOL    HW215309   1.081   6.392   0.470
 4804SOL     OW15310   4.331   4.941   6.046
 4804SOL    HW115311   4.285   4.889   6.118
 4804SOL    HW215312   4.272   4.945   5.965
 4805SOL     OW15313   6.789   6.808   1.071
 4805SOL    HW115314   6.886   6.805   1.092
 4805SOL    HW215315   6.752   6.715   1.067
 4806SOL     OW15316   6.414   3.607   3.901
 4806SOL    HW115317   6.341   3.557   3.949
 4806SOL    HW215318   6.376   3.691   3.861
 4807SOL     OW15319   1.354   5.147   1.443
 4807SOL    HW115320   1.403   5.201   1.374
 4807SOL    HW215321   1.409   5.144   1.527
 4808SOL     OW15322   5.993   3.802   0.845
 4808SOL    HW115323   5.934   3.795   0.765
 4808SOL    HW215324   6.083   3.835   0.817
 4809SOL     OW15325   3.680   4.109   0.007
 4809SOL    HW115326   3.601   4.089   6.974
 4809SOL    HW215327   3.658   4.082   0.101
 4810SOL     OW15328   1.770   4.683   1.698
 4810SOL    HW115329   1.687   4.739   1.697
 4810SOL    HW215330   1.746   4.589   1.724
 4811SOL     OW15331   2.545   4.674   2.537
 4811SOL    HW115332   2.561   4.750   2.473
 4811SOL    HW215333   2.623   4.667   2.600
 4812SOL     OW15334   6.853   4.989   5.718
 4812SOL    HW115335   6.835   5.080   5.680
 4812SOL    HW215336   6.828   4.988   5.815
 4813SOL     OW15337   4.789   1.299   1.947
 4813SOL    HW115338   4.846   1.225   1.983
 4813SOL    HW215339   4.807   1.309   1.849
 4814SOL     OW15340   5.888   4.852   0.133
 4814SOL    HW115341   5.913   4.775   0.193
 4814SOL    HW215342   5.798   4.835   0.093
 4815SOL     OW15343   5.414   4.776   2.345
 4815SOL    HW115344   5.362   4.789   2.429
 4815SOL    HW215345   5.401   4.682   2.313
 4816SOL     OW15346   6.103   5.600   2.959
 4816SOL    HW115347   6.010   5.575   2.930
 4816SOL    HW215348   6.099   5.673   3.026
 4817SOL     OW15349   0.353   2.089   6.377
 4817SOL    HW115350   0.445   2.103   6.414
 4817SOL    HW215351   0.285   2.129   6.440
 4818SOL     OW15352   1.001   6.940   4.452
 4818SOL    HW115353   0.918   6.957   4.399
 4818SOL    HW215354   1.018   6.841   4.455
 4819SOL     OW15355   1.614   3.001   0.681
 4819SOL    HW115356   1.707   3.035   0.696
 4819SOL    HW215357   1.557   3.024   0.760
 4820SOL     OW15358   0.340   2.822   2.071
 4820SOL    HW115359   0.419   2.864   2.025
 4820SOL    HW215360   0.278   2.894   2.101
 4821SOL     OW15361   1.224   5.926   2.339
 4821SOL    HW115362   1.221   5.902   2.242
 4821SOL    HW215363   1.134   5.914   2.379
 4822SOL     OW15364   1.395   3.696   4.166
 4822SOL    HW115365   1.305   3.668   4.134
 4822SOL    HW215366   1.387   3.738   4.257
 4823SOL     OW15367   1.527   1.941   2.608
 4823SOL    HW115368   1.587   1.893   2.673
 4823SOL    HW215369   1.523   1.890   2.523
 4824SOL     OW15370   5.297   1.927   5.438
 4824SOL    HW115371   5.226   1.919   5.368
 4824SOL    HW215372   5.316   1.836   5.477
 4825SOL     OW15373   0.855   1.341   4.357
 4825SOL    HW115374   0.756   1.332   4.370
 4825SOL    HW215375   0.883   1.435   4.379
 4826SOL     OW15376   5.007   0.430   0.409
 4826SOL    HW115377   4.922   0.461   0.367
 4826SOL    HW215378   4.987   0.356   0.474
 4827SOL     OW15379   6.294   1.666   0.380
 4827SOL    HW115380   6.293   1.761   0.348
 4827SOL    HW215381   6.338   1.608   0.311
 4828SOL     OW15382   4.395   0.709   1.421
 4828SOL    HW115383   4.486   0.747   1.406
 4828SOL    HW215384   4.365   0.661   1.339
 4829SOL     OW15385   3.965   6.432   6.531
 4829SOL    HW115386   3.964   6.512   6.471
 4829SOL    HW215387   4.013   6.453   6.615
 4830SOL     OW15388   3.922   5.882   3.886
 4830SOL    HW115389   3.864   5.879   3.805
 4830SOL    HW215390   3.921   5.793   3.931
 4831SOL     OW15391   2.607   5.054   5.623
 4831SOL    HW115392   2.566   5.048   5.532
 4831SOL    HW215393   2.706   5.069   5.614
 4832SOL     OW15394   3.837   3.361   4.181
 4832SOL    HW115395   3.768   3.376   4.252
 4832SOL    HW215396   3.906   3.433   4.187
 4833SOL     OW15397   5.721   2.059   3.664
 4833SOL    HW115398   5.735   1.961   3.654
 4833SOL    HW215399   5.807   2.103   3.689
 4834SOL     OW15400   2.685   6.070   2.145
 4834SOL    HW115401   2.714   5.974   2.140
 4834SOL    HW215402   2.764   6.128   2.164
 4835SOL     OW15403   6.054   3.308   6.022
 4835SOL    HW115404   6.022   3.378   6.087
 4835SOL    HW215405   6.145   3.276   6.050
 4836SOL     OW15406   4.911   1.527   5.407
 4836SOL    HW115407   4.934   1.576   5.491
 4836SOL    HW215408   4.914   1.590   5.329
 4837SOL     OW15409   6.650   3.383   2.887
 4837SOL    HW115410   6.743   3.347   2.883
 4837SOL    HW215411   6.594   3.324   2.945
 4838SOL     OW15412   1.548   5.098   6.540
 4838SOL    HW115413   1.572   5.191   6.514
 4838SOL    HW215414   1.631   5.043   6.551
 4839SOL     OW15415   1.173   3.373   0.294
 4839SOL    HW115416   1.242   3.308   0.323
 4839SOL    HW215417   1.118   3.334   0.221
 4840SOL     OW15418   5.125   4.084   5.518
 4840SOL    HW115419   5.191   4.042   5.456
 4840SOL    HW215420   5.114   4.180   5.493
 4841SOL     OW15421   3.004   5.390   3.012
 4841SOL    HW115422   2.906   5.372   3.021
 4841SOL    HW215423   3.023   5.483   3.041
 4842SOL     OW15424   2.399   5.493   3.232
 4842SOL    HW115425   2.455   5.567   3.268
 4842SOL    HW215426   2.435   5.465   3.143
 4843SOL     OW15427   6.502   2.721   2.045
 4843SOL    HW115428   6.541   2.807   2.012
 4843SOL    HW215429   6.474   2.733   2.141
 4844SOL     OW15430   1.409   3.680   5.632
 4844SOL    HW115431   1.508   3.668   5.637
 4844SOL    HW215432   1.371   3.610   5.571
 4845SOL     OW15433   4.605   4.707   4.990
 4845SOL    HW115434   4.619   4.776   4.918
 4845SOL    HW215435   4.580   4.620   4.948
 4846SOL     OW15436   0.172   2.013   3.285
 4846SOL    HW115437   0.113   2.059   3.350
 4846SOL    HW215438   0.267   2.042   3.300
 4847SOL     OW15439   2.692   0.379   5.463
 4847SOL    HW115440   2.637   0.295   5.458
 4847SOL    HW215441   2.698   0.410   5.558
 4848SOL     OW15442   1.996   1.263   3.429
 4848SOL    HW115443   2.030   1.196   3.495
 4848SOL    HW215444   2.045   1.350   3.440
 4849SOL     OW15445   1.984   0.019   0.881
 4849SOL    HW115446   1.925   7.003   0.811
 4849SOL    HW215447   1.927   0.063   0.951
 4850SOL     OW15448   4.586   0.432   1.063
 4850SOL    HW115449   4.523   0.489   1.117
 4850SOL    HW215450   4.573   0.336   1.088
 4851SOL     OW15451   3.636   5.369   6.895
 4851SOL    HW115452   3.735   5.383   6.898
 4851SOL    HW215453   3.614   5.294   6.832
 4852SOL     OW15454   3.480   5.637   4.458
 4852SOL    HW115455   3.422   5.712   4.487
 4852SOL    HW215456   3.444   5.595   4.375
 4853SOL     OW15457   3.416   1.022   2.827
 4853SOL    HW115458   3.494   1.071   2.867
 4853SOL    HW215459   3.440   0.989   2.736
 4854SOL     OW15460   5.839   6.663   1.735
 4854SOL    HW115461   5.786   6.746   1.754
 4854SOL    HW215462   5.876   6.668   1.643
 4855SOL     OW15463   0.199   3.409   4.767
 4855SOL    HW115464   0.186   3.489   4.708
 4855SOL    HW215465   0.205   3.439   4.862
 4856SOL     OW15466   0.469   3.596   2.574
 4856SOL    HW115467   0.406   3.662   2.614
 4856SOL    HW215468   0.548   3.583   2.635
 4857SOL     OW15469   3.548   2.031   4.073
 4857SOL    HW115470   3.643   2.056   4.052
 4857SOL    HW215471   3.532   2.040   4.171
 4858SOL     OW15472   0.720   0.089   4.835
 4858SOL    HW115473   0.786   0.163   4.839
 4858SOL    HW215474   0.716   0.042   4.923
 4859SOL     OW15475   1.234   5.024   1.723
 4859SOL    HW115476   1.256   4.944   1.668
 4859SOL    HW215477   1.279   5.017   1.813
 4860SOL     OW15478   4.062   4.732   7.021
 4860SOL    HW115479   4.078   4.756   6.925
 4860SOL    HW215480   4.055   4.815   0.049
 4861SOL     OW15481   6.523   4.765   5.887
 4861SOL    HW115482   6.507   4.764   5.986
 4861SOL    HW215483   6.461   4.701   5.842
 4862SOL     OW15484   2.674   4.693   4.751
 4862SOL    HW115485   2.627   4.694   4.840
 4862SOL    HW215486   2.767   4.727   4.763
 4863SOL     OW15487   4.965   3.564   2.491
 4863SOL    HW115488   5.062   3.570   2.468
 4863SOL    HW215489   4.919   3.649   2.465
 4864SOL     OW15490   3.202   1.549   1.707
 4864SOL    HW115491   3.199   1.616   1.781
 4864SOL    HW215492   3.267   1.579   1.638
 4865SOL     OW15493   3.469   5.274   5.682
 4865SOL    HW115494   3.378   5.234   5.683
 4865SOL    HW215495   3.478   5.336   5.604
 4866SOL     OW15496   6.275   4.891   1.834
 4866SOL    HW115497   6.259   4.793   1.827
 4866SOL    HW215498   6.213   4.940   1.773
 4867SOL     OW15499   4.974   5.403   3.170
 4867SOL    HW115500   4.958   5.501   3.185
 4867SOL    HW215501   4.993   5.359   3.258
 4868SOL     OW15502   0.850   5.508   1.235
 4868SOL    HW115503   0.908   5.562   1.295
 4868SOL    HW215504   0.759   5.499   1.275
 4869SOL     OW15505   0.264   2.221   0.577
 4869SOL    HW115506   0.165   2.229   0.569
 4869SOL    HW215507   0.291   2.126   0.562
 4870SOL     OW15508   3.950   6.071   1.839
 4870SOL    HW115509   3.895   5.999   1.797
 4870SOL    HW215510   4.010   6.112   1.771
 4871SOL     OW15511   1.351   1.509   3.121
 4871SOL    HW115512   1.271   1.547   3.074
 4871SOL    HW215513   1.376   1.422   3.080
 4872SOL     OW15514   0.611   0.008   2.897
 4872SOL    HW115515   0.644   6.982   2.818
 4872SOL    HW215516   0.657   0.097   2.900
 4873SOL     OW15517   0.051   4.677   5.095
 4873SOL    HW115518   0.008   4.649   5.010
 4873SOL    HW215519   7.010   4.671   5.169
 4874SOL     OW15520   5.505   4.065   2.252
 4874SOL    HW115521   5.601   4.088   2.264
 4874SOL    HW215522   5.466   4.036   2.340
 4875SOL     OW15523   5.606   1.171   1.162
 4875SOL    HW115524   5.652   1.099   1.213
 4875SOL    HW215525   5.584   1.247   1.223
 4876SOL     OW15526   5.745   0.172   5.831
 4876SOL    HW115527   5.683   0.135   5.762
 4876SOL    HW215528   5.695   0.237   5.888
 4877SOL     OW15529   6.508   1.820   1.026
 4877SOL    HW115530   6.420   1.775   1.012
 4877SOL    HW215531   6.564   1.811   0.943
 4878SOL     OW15532   0.303   1.879   1.755
 4878SOL    HW115533   0.364   1.883   1.676
 4878SOL    HW215534   0.358   1.861   1.837
 4879SOL     OW15535   4.154   4.752   2.719
 4879SOL    HW115536   4.058   4.731   2.699
 4879SOL    HW215537   4.186   4.693   2.793
 4880SOL     OW15538   5.417   1.622   0.345
 4880SOL    HW115539   5.472   1.545   0.314
 4880SOL    HW215540   5.449   1.652   0.435
 4881SOL     OW15541   2.797   6.327   5.889
 4881SOL    HW115542   2.854   6.302   5.812
 4881SOL    HW215543   2.750   6.413   5.869
 4882SOL     OW15544   6.450   1.432   5.266
 4882SOL    HW115545   6.495   1.517   5.239
 4882SOL    HW215546   6.411   1.442   5.357
 4883SOL     OW15547   5.886   4.216   2.664
 4883SOL    HW115548   5.910   4.260   2.751
 4883SOL    HW215549   5.955   4.237   2.596
 4884SOL     OW15550   4.730   0.181   1.640
 4884SOL    HW115551   4.701   0.108   1.702
 4884SOL    HW215552   4.820   0.158   1.601
 4885SOL     OW15553   2.081   6.539   1.389
 4885SOL    HW115554   1.995   6.489   1.387
 4885SOL    HW215555   2.085   6.603   1.313
 4886SOL     OW15556   0.037   6.378   6.753
 4886SOL    HW115557   0.030   6.369   6.852
 4886SOL    HW215558   0.095   6.305   6.717
 4887SOL     OW15559   6.679   2.112   3.861
 4887SOL    HW115560   6.744   2.186   3.878
 4887SOL    HW215561   6.631   2.090   3.946
 4888SOL     OW15562   1.687   6.527   3.424
 4888SOL    HW115563   1.691   6.573   3.336
 4888SOL    HW215564   1.592   6.502   3.445
 4889SOL     OW15565   1.274   2.115   0.563
 4889SOL    HW115566   1.202   2.049   0.582
 4889SOL    HW215567   1.347   2.071   0.510
 4890SOL     OW15568   0.623   1.489   4.160
 4890SOL    HW115569   0.606   1.393   4.182
 4890SOL    HW215570   0.713   1.516   4.196
 4891SOL     OW15571   0.889   4.822   0.598
 4891SOL    HW115572   0.904   4.728   0.629
 4891SOL    HW215573   0.974   4.858   0.560
 4892SOL     OW15574   1.634   6.018   2.078
 4892SOL    HW115575   1.560   6.080   2.054
 4892SOL    HW215576   1.717   6.044   2.028
 4893SOL     OW15577   6.697   4.433   6.802
 4893SOL    HW115578   6.749   4.443   6.887
 4893SOL    HW215579   6.743   4.483   6.729
 4894SOL     OW15580   1.641   0.446   3.493
 4894SOL    HW115581   1.670   0.412   3.404
 4894SOL    HW215582   1.595   0.534   3.481
 4895SOL     OW15583   1.352   3.590   0.371
 4895SOL    HW115584   1.411   3.562   0.447
 4895SOL    HW215585   1.286   3.518   0.352
 4896SOL     OW15586   3.158   5.570   3.673
 4896SOL    HW115587   3.107   5.589   3.757
 4896SOL    HW215588   3.154   5.649   3.612
 4897SOL     OW15589   3.306   4.489   6.545
 4897SOL    HW115590   3.263   4.403   6.574
 4897SOL    HW215591   3.403   4.473   6.526
 4898SOL     OW15592   5.738   2.189   5.334
 4898SOL    HW115593   5.668   2.148   5.392
 4898SOL    HW215594   5.812   2.123   5.320
 4899SOL     OW15595   6.217   4.921   2.582
 4899SOL    HW115596   6.251   4.966   2.499
 4899SOL    HW215597   6.265   4.834   2.594
 4900SOL     OW15598   0.124   6.523   5.730
 4900SOL    HW115599   0.164   6.517   5.638
 4900SOL    HW215600   0.085   6.434   5.754
 4901SOL     OW15601   1.634   0.236   4.241
 4901SOL    HW115602   1.586   0.163   4.193
 4901SOL    HW215603   1.639   0.318   4.184
 4902SOL     OW15604   1.482   4.146   2.364
 4902SOL    HW115605   1.432   4.134   2.278
 4902SOL    HW215606   1.426   4.112   2.439
 4903SOL     OW15607   3.748   6.824   6.920
 4903SOL    HW115608   3.747   6.727   6.896
 4903SOL    HW215609   3.694   6.876   6.853
 4904SOL     OW15610   2.099   5.572   4.564
 4904SOL    HW115611   2.042   5.505   4.515
 4904SOL    HW215612   2.127   5.645   4.501
 4905SOL     OW15613   4.581   2.588   2.257
 4905SOL    HW115614   4.568   2.490   2.276
 4905SOL    HW215615   4.538   2.610   2.170
 4906SOL     OW15616   4.577   0.044   0.564
 4906SOL    HW115617   4.557   0.136   0.532
 4906SOL    HW215618   4.676   0.028   0.559
 4907SOL     OW15619   4.006   6.510   3.190
 4907SOL    HW115620   3.916   6.539   3.157
 4907SOL    HW215621   3.995   6.436   3.256
 4908SOL     OW15622   3.950   5.723   6.821
 4908SOL    HW115623   3.862   5.757   6.787
 4908SOL    HW215624   4.017   5.726   6.747
 4909SOL     OW15625   6.098   6.995   5.632
 4909SOL    HW115626   6.092   6.897   5.610
 4909SOL    HW215627   6.085   0.023   5.549
 4910SOL     OW15628   5.014   0.246   5.327
 4910SOL    HW115629   4.983   0.170   5.270
 4910SOL    HW215630   5.077   0.212   5.397
 4911SOL     OW15631   0.016   1.947   6.142
 4911SOL    HW115632   0.070   1.911   6.217
 4911SOL    HW215633   0.009   2.047   6.149
 4912SOL     OW15634   4.195   1.570   2.249
 4912SOL    HW115635   4.150   1.484   2.226
 4912SOL    HW215636   4.136   1.647   2.224
 4913SOL     OW15637   3.187   4.054   3.656
 4913SOL    HW115638   3.124   4.111   3.709
 4913SOL    HW215639   3.268   4.033   3.711
 4914SOL     OW15640   2.749   0.655   4.425
 4914SOL    HW115641   2.762   0.731   4.361
 4914SOL    HW215642   2.742   0.692   4.518
 4915SOL     OW15643   4.484   6.596   4.292
 4915SOL    HW115644   4.433   6.666   4.241
 4915SOL    HW215645   4.420   6.542   4.346
 4916SOL     OW15646   2.909   2.180   3.093
 4916SOL    HW115647   3.005   2.174   3.065
 4916SOL    HW215648   2.860   2.240   3.029
 4917SOL     OW15649   1.654   3.920   1.078
 4917SOL    HW115650   1.723   3.880   1.138
 4917SOL    HW215651   1.674   3.896   0.983
 4918SOL     OW15652   2.714   0.449   2.739
 4918SOL    HW115653   2.683   0.400   2.657
 4918SOL    HW215654   2.634   0.482   2.790
 4919SOL     OW15655   1.546   1.692   2.924
 4919SOL    HW115656   1.537   1.594   2.907
 4919SOL    HW215657   1.617   1.730   2.865
 4920SOL     OW15658   4.102   0.654   0.318
 4920SOL    HW115659   4.101   0.563   0.277
 4920SOL    HW215660   4.186   0.665   0.372
 4921SOL     OW15661   2.310   3.699   1.743
 4921SOL    HW115662   2.215   3.710   1.772
 4921SOL    HW215663   2.341   3.607   1.767
 4922SOL     OW15664   1.116   3.496   5.171
 4922SOL    HW115665   1.147   3.402   5.160
 4922SOL    HW215666   1.094   3.535   5.081
 4923SOL     OW15667   5.211   0.129   2.138
 4923SOL    HW115668   5.263   0.053   2.100
 4923SOL    HW215669   5.115   0.119   2.115
 4924SOL     OW15670   1.842   3.545   4.340
 4924SOL    HW115671   1.768   3.570   4.277
 4924SOL    HW215672   1.806   3.542   4.433
 4925SOL     OW15673   5.302   6.319   0.877
 4925SOL    HW115674   5.254   6.356   0.956
 4925SOL    HW215675   5.368   6.387   0.844
 4926SOL     OW15676   5.506   2.888   1.231
 4926SOL    HW115677   5.566   2.968   1.232
 4926SOL    HW215678   5.496   2.854   1.138
 4927SOL     OW15679   3.632   2.998   2.698
 4927SOL    HW115680   3.700   2.982   2.627
 4927SOL    HW215681   3.540   2.980   2.662
 4928SOL     OW15682   0.223   6.667   6.488
 4928SOL    HW115683   0.241   6.726   6.567
 4928SOL    HW215684   0.310   6.646   6.442
 4929SOL     OW15685   0.931   4.447   5.209
 4929SOL    HW115686   1.022   4.414   5.186
 4929SOL    HW215687   0.863   4.407   5.147
 4930SOL     OW15688   0.777   1.142   0.532
 4930SOL    HW115689   0.711   1.168   0.601
 4930SOL    HW215690   0.837   1.220   0.512
 4931SOL     OW15691   0.578   0.602   6.927
 4931SOL    HW115692   0.595   0.551   6.842
 4931SOL    HW215693   0.633   0.685   6.928
 4932SOL     OW15694   2.407   2.740   1.874
 4932SOL    HW115695   2.468   2.792   1.814
 4932SOL    HW215696   2.315   2.778   1.870
 4933SOL     OW15697   2.550   1.357   4.196
 4933SOL    HW115698   2.625   1.320   4.142
 4933SOL    HW215699   2.555   1.323   4.290
 4934SOL     OW15700   0.544   5.240   4.263
 4934SOL    HW115701   0.589   5.214   4.349
 4934SOL    HW215702   0.463   5.296   4.284
 4935SOL     OW15703   1.529   1.276   6.197
 4935SOL    HW115704   1.583   1.192   6.204
 4935SOL    HW215705   1.535   1.326   6.284
 4936SOL     OW15706   2.747   5.919   1.495
 4936SOL    HW115707   2.726   5.886   1.403
 4936SOL    HW215708   2.692   6.000   1.514
 4937SOL     OW15709   0.976   3.572   6.361
 4937SOL    HW115710   1.003   3.667   6.341
 4937SOL    HW215711   0.957   3.525   6.275
 4938SOL     OW15712   3.249   4.262   1.699
 4938SOL    HW115713   3.207   4.351   1.678
 4938SOL    HW215714   3.342   4.276   1.733
 4939SOL     OW15715   2.127   1.870   1.702
 4939SOL    HW115716   2.198   1.815   1.746
 4939SOL    HW215717   2.102   1.947   1.761
 4940SOL     OW15718   6.748   2.175   5.068
 4940SOL    HW115719   6.822   2.242   5.074
 4940SOL    HW215720   6.689   2.182   5.149
 4941SOL     OW15721   3.993   2.447   5.376
 4941SOL    HW115722   3.912   2.501   5.355
 4941SOL    HW215723   4.067   2.471   5.313
 4942SOL     OW15724   5.556   3.280   3.966
 4942SOL    HW115725   5.603   3.294   4.053
 4942SOL    HW215726   5.459   3.299   3.977
 4943SOL     OW15727   5.949   3.470   6.962
 4943SOL    HW115728   5.963   3.401   0.007
 4943SOL    HW215729   5.856   3.462   6.926
 4944SOL     OW15730   1.956   4.674   0.571
 4944SOL    HW115731   1.860   4.704   0.571
 4944SOL    HW215732   2.012   4.743   0.526
 4945SOL     OW15733   1.946   0.955   5.211
 4945SOL    HW115734   1.980   1.028   5.271
 4945SOL    HW215735   2.024   0.910   5.167
 4946SOL     OW15736   1.093   4.338   6.987
 4946SOL    HW115737   1.002   4.322   7.025
 4946SOL    HW215738   1.106   4.280   6.906
 4947SOL     OW15739   2.766   0.634   2.371
 4947SOL    HW115740   2.772   0.716   2.314
 4947SOL    HW215741   2.702   0.651   2.446
 4948SOL     OW15742   1.891   2.478   2.504
 4948SOL    HW115743   1.853   2.452   2.593
 4948SOL    HW215744   1.921   2.573   2.507
 4949SOL     OW15745   6.796   3.346   6.041
 4949SOL    HW115746   6.868   3.394   6.092
 4949SOL    HW215747   6.707   3.375   6.074
 4950SOL     OW15748   2.351   4.273   5.174
 4950SOL    HW115749   2.343   4.189   5.121
 4950SOL    HW215750   2.268   4.328   5.163
 4951SOL     OW15751   6.220   5.954   3.917
 4951SOL    HW115752   6.295   6.020   3.907
 4951SOL    HW215753   6.134   6.003   3.928
 4952SOL     OW15754   0.096   0.521   6.739
 4952SOL    HW115755   0.184   0.561   6.766
 4952SOL    HW215756   0.054   0.578   6.668
 4953SOL     OW15757   1.578   2.020   4.550
 4953SOL    HW115758   1.479   2.006   4.555
 4953SOL    HW215759   1.616   1.967   4.474
 4954SOL     OW15760   2.149   4.193   5.423
 4954SOL    HW115761   2.193   4.115   5.380
 4954SOL    HW215762   2.074   4.226   5.365
 4955SOL     OW15763   2.939   5.408   0.250
 4955SOL    HW115764   2.967   5.492   0.203
 4955SOL    HW215765   2.957   5.330   0.191
 4956SOL     OW15766   2.840   0.581   5.354
 4956SOL    HW115767   2.912   0.541   5.411
 4956SOL    HW215768   2.770   0.512   5.335
 4957SOL     OW15769   6.022   4.015   0.022
 4957SOL    HW115770   6.034   4.081   0.096
 4957SOL    HW215771   5.924   4.000   0.005
 4958SOL     OW15772   2.028   6.141   5.421
 4958SOL    HW115773   2.052   6.044   5.433
 4958SOL    HW215774   1.989   6.155   5.330
 4959SOL     OW15775   6.959   2.234   1.248
 4959SOL    HW115776   0.031   2.240   1.231
 4959SOL    HW215777   6.931   2.305   1.313
 4960SOL     OW15778   4.029   4.890   3.794
 4960SOL    HW115779   4.096   4.842   3.736
 4960SOL    HW215780   4.075   4.962   3.845
 4961SOL     OW15781   2.936   0.834   6.858
 4961SOL    HW115782   2.940   0.876   6.949
 4961SOL    HW215783   2.849   0.786   6.848
 4962SOL     OW15784   6.489   2.376   0.655
 4962SOL    HW115785   6.429   2.331   0.588
 4962SOL    HW215786   6.433   2.416   0.727
 4963SOL     OW15787   1.314   5.616   0.886
 4963SOL    HW115788   1.255   5.668   0.824
 4963SOL    HW215789   1.289   5.637   0.980
 4964SOL     OW15790   2.481   6.793   4.660
 4964SOL    HW115791   2.534   6.789   4.575
 4964SOL    HW215792   2.405   6.856   4.650
 4965SOL     OW15793   0.933   6.988   2.811
 4965SOL    HW115794   0.942   6.891   2.787
 4965SOL    HW215795   1.013   7.016   2.865
 4966SOL     OW15796   2.744   5.981   4.425
 4966SOL    HW115797   2.770   5.890   4.458
 4966SOL    HW215798   2.652   6.002   4.457
 4967SOL     OW15799   3.743   4.712   5.672
 4967SOL    HW115800   3.680   4.638   5.696
 4967SOL    HW215801   3.745   4.722   5.573
 4968SOL     OW15802   0.124   1.029   4.380
 4968SOL    HW115803   0.193   0.967   4.343
 4968SOL    HW215804   0.105   1.006   4.475
 4969SOL     OW15805   0.279   6.556   2.484
 4969SOL    HW115806   0.337   6.509   2.418
 4969SOL    HW215807   0.183   6.539   2.461
 4970SOL     OW15808   2.087   1.148   1.724
 4970SOL    HW115809   2.032   1.179   1.802
 4970SOL    HW215810   2.069   1.051   1.708
 4971SOL     OW15811   6.135   5.996   2.820
 4971SOL    HW115812   6.069   5.993   2.745
 4971SOL    HW215813   6.087   5.988   2.907
 4972SOL     OW15814   1.195   4.120   1.020
 4972SOL    HW115815   1.216   4.218   1.010
 4972SOL    HW215816   1.273   4.074   1.062
 4973SOL     OW15817   0.223   0.411   1.919
 4973SOL    HW115818   0.134   0.451   1.943
 4973SOL    HW215819   0.278   0.398   2.001
 4974SOL     OW15820   4.974   4.302   6.614
 4974SOL    HW115821   4.896   4.327   6.671
 4974SOL    HW215822   5.044   4.260   6.671
 4975SOL     OW15823   5.069   3.829   0.826
 4975SOL    HW115824   5.149   3.821   0.885
 4975SOL    HW215825   5.085   3.900   0.757
 4976SOL     OW15826   0.854   0.975   4.484
 4976SOL    HW115827   0.772   0.994   4.430
 4976SOL    HW215828   0.827   0.938   4.573
 4977SOL     OW15829   3.530   3.773   6.812
 4977SOL    HW115830   3.630   3.771   6.821
 4977SOL    HW215831   3.497   3.865   6.830
 4978SOL     OW15832   4.836   4.495   5.489
 4978SOL    HW115833   4.880   4.575   5.530
 4978SOL    HW215834   4.849   4.416   5.548
 4979SOL     OW15835   0.711   6.942   6.973
 4979SOL    HW115836   0.765   6.989   0.017
 4979SOL    HW215837   0.771   6.883   6.918
 4980SOL     OW15838   6.634   4.786   3.005
 4980SOL    HW115839   6.600   4.848   3.076
 4980SOL    HW215840   6.706   4.727   3.044
 4981SOL     OW15841   3.180   5.691   1.983
 4981SOL    HW115842   3.214   5.627   2.051
 4981SOL    HW215843   3.253   5.712   1.918
 4982SOL     OW15844   4.331   1.646   6.626
 4982SOL    HW115845   4.370   1.619   6.714
 4982SOL    HW215846   4.240   1.685   6.641
 4983SOL     OW15847   6.010   5.082   3.960
 4983SOL    HW115848   6.054   4.995   3.940
 4983SOL    HW215849   5.979   5.082   4.055
 4984SOL     OW15850   4.729   4.180   2.711
 4984SOL    HW115851   4.636   4.213   2.694
 4984SOL    HW215852   4.792   4.258   2.710
 4985SOL     OW15853   4.993   6.274   2.662
 4985SOL    HW115854   4.979   6.176   2.677
 4985SOL    HW215855   4.962   6.325   2.741
 4986SOL     OW15856   6.663   4.842   1.137
 4986SOL    HW115857   6.570   4.811   1.157
 4986SOL    HW215858   6.674   4.936   1.168
 4987SOL     OW15859   1.106   6.405   2.710
 4987SOL    HW115860   1.093   6.410   2.809
 4987SOL    HW215861   1.018   6.414   2.663
 4988SOL     OW15862   6.259   1.228   3.314
 4988SOL    HW115863   6.159   1.230   3.316
 4988SOL    HW215864   6.295   1.311   3.357
 4989SOL     OW15865   4.689   0.461   1.644
 4989SOL    HW115866   4.734   0.372   1.639
 4989SOL    HW215867   4.600   0.452   1.689
 4990SOL     OW15868   3.741   1.890   6.927
 4990SOL    HW115869   3.771   1.822   6.860
 4990SOL    HW215870   3.790   1.976   6.911
 4991SOL     OW15871   0.114   5.986   3.939
 4991SOL    HW115872   0.191   6.036   3.978
 4991SOL    HW215873   0.105   6.008   3.842
 4992SOL     OW15874   6.282   1.838   2.876
 4992SOL    HW115875   6.336   1.912   2.838
 4992SOL    HW215876   6.187   1.868   2.889
 4993SOL     OW15877   4.013   6.599   4.885
 4993SOL    HW115878   4.090   6.566   4.940
 4993SOL    HW215879   3.928   6.561   4.920
 4994SOL     OW15880   1.963   5.544   4.990
 4994SOL    HW115881   1.907   5.502   4.919
 4994SOL    HW215882   1.905   5.597   5.052
 4995SOL     OW15883   0.571   0.876   5.035
 4995SOL    HW115884   0.650   0.827   5.072
 4995SOL    HW215885   0.500   0.882   5.105
 4996SOL     OW15886   0.054   1.614   3.595
 4996SOL    HW115887   0.078   1.653   3.506
 4996SOL    HW215888   0.002   1.530   3.581
 4997SOL     OW15889   3.793   2.632   1.459
 4997SOL    HW115890   3.708   2.661   1.415
 4997SOL    HW215891   3.771   2.578   1.540
 4998SOL     OW15892   1.767   3.561   3.514
 4998SOL    HW115893   1.803   3.468   3.521
 4998SOL    HW215894   1.779   3.594   3.420
 4999SOL     OW15895   0.327   3.526   5.018
 4999SOL    HW115896   0.310   3.592   5.092
 4999SOL    HW215897   0.335   3.434   5.057
 5000SOL     OW15898   3.307   6.512   3.370
 5000SOL    HW115899   3.217   6.522   3.326
 5000SOL    HW215900   3.302   6.441   3.440
 5001SOL     OW15901   0.394   5.901   2.521
 5001SOL    HW115902   0.389   5.959   2.439
 5001SOL    HW215903   0.449   5.819   2.500
 5002SOL     OW15904   0.576   4.885   2.439
 5002SOL    HW115905   0.492   4.832   2.446
 5002SOL    HW215906   0.569   4.951   2.365
 5003SOL     OW15907   4.078   6.094   3.129
 5003SOL    HW115908   4.105   6.100   3.034
 5003SOL    HW215909   3.997   6.151   3.145
 5004SOL     OW15910   2.494   5.469   5.468
 5004SOL    HW115911   2.533   5.489   5.558
 5004SOL    HW215912   2.405   5.515   5.460
 5005SOL     OW15913   2.319   3.073   6.080
 5005SOL    HW115914   2.240   3.060   6.139
 5005SOL    HW215915   2.311   3.160   6.031
 5006SOL     OW15916   5.486   0.986   2.111
 5006SOL    HW115917   5.406   0.942   2.072
 5006SOL    HW215918   5.458   1.059   2.173
 5007SOL     OW15919   6.935   0.512   0.968
 5007SOL    HW115920   0.002   0.540   0.994
 5007SOL    HW215921   6.895   0.580   0.908
 5008SOL     OW15922   6.505   5.557   1.209
 5008SOL    HW115923   6.567   5.634   1.228
 5008SOL    HW215924   6.525   5.519   1.119
 5009SOL     OW15925   0.988   2.681   0.519
 5009SOL    HW115926   0.903   2.632   0.502
 5009SOL    HW215927   1.050   2.670   0.441
 5010SOL     OW15928   3.940   2.335   0.642
 5010SOL    HW115929   3.928   2.350   0.544
 5010SOL    HW215930   4.036   2.315   0.661
 5011SOL     OW15931   2.300   4.165   1.634
 5011SOL    HW115932   2.253   4.080   1.610
 5011SOL    HW215933   2.296   4.228   1.557
 5012SOL     OW15934   6.132   3.126   5.181
 5012SOL    HW115935   6.139   3.147   5.083
 5012SOL    HW215936   6.107   3.208   5.231
 5013SOL     OW15937   5.640   0.864   5.640
 5013SOL    HW115938   5.722   0.837   5.590
 5013SOL    HW215939   5.562   0.863   5.578
 5014SOL     OW15940   6.829   4.422   0.032
 5014SOL    HW115941   6.805   4.399   0.126
 5014SOL    HW215942   6.922   4.460   0.030
 5015SOL     OW15943   5.411   0.809   4.676
 5015SOL    HW115944   5.433   0.794   4.773
 5015SOL    HW215945   5.370   0.726   4.638
 5016SOL     OW15946   0.896   2.718   4.575
 5016SOL    HW115947   0.914   2.815   4.590
 5016SOL    HW215948   0.807   2.707   4.530
 5017SOL     OW15949   1.260   2.176   1.213
 5017SOL    HW115950   1.343   2.133   1.249
 5017SOL    HW215951   1.285   2.259   1.162
 5018SOL     OW15952   1.599   4.985   2.281
 5018SOL    HW115953   1.564   4.910   2.337
 5018SOL    HW215954   1.665   4.949   2.215
 5019SOL     OW15955   2.248   5.976   6.079
 5019SOL    HW115956   2.238   5.970   5.979
 5019SOL    HW215957   2.345   5.987   6.102
 5020SOL     OW15958   0.218   6.674   5.475
 5020SOL    HW115959   0.175   6.749   5.526
 5020SOL    HW215960   0.258   6.710   5.390
 5021SOL     OW15961   1.418   0.722   1.680
 5021SOL    HW115962   1.413   0.821   1.667
 5021SOL    HW215963   1.389   0.675   1.597
 5022SOL     OW15964   1.040   2.647   1.293
 5022SOL    HW115965   1.113   2.699   1.338
 5022SOL    HW215966   1.007   2.698   1.213
 5023SOL     OW15967   0.115   4.376   1.450
 5023SOL    HW115968   0.143   4.471   1.441
 5023SOL    HW215969   0.021   4.365   1.419
 5024SOL     OW15970   5.998   5.143   0.750
 5024SOL    HW115971   6.087   5.186   0.764
 5024SOL    HW215972   5.925   5.210   0.763
 5025SOL     OW15973   4.092   1.911   3.741
 5025SOL    HW115974   4.156   1.941   3.671
 5025SOL    HW215975   4.004   1.958   3.729
 5026SOL     OW15976   7.017   5.233   4.747
 5026SOL    HW115977   0.028   5.262   4.835
 5026SOL    HW215978   6.926   5.193   4.760
 5027SOL     OW15979   6.005   0.384   1.651
 5027SOL    HW115980   5.961   0.432   1.727
 5027SOL    HW215981   6.095   0.352   1.680
 5028SOL     OW15982   6.458   2.175   3.520
 5028SOL    HW115983   6.450   2.135   3.611
 5028SOL    HW215984   6.391   2.133   3.459
 5029SOL     OW15985   6.377   2.636   2.561
 5029SOL    HW115986   6.396   2.674   2.651
 5029SOL    HW215987   6.294   2.581   2.564
 5030SOL     OW15988   6.812   5.927   6.202
 5030SOL    HW115989   6.802   5.979   6.287
 5030SOL    HW215990   6.909   5.911   6.183
 5031SOL     OW15991   0.026   1.224   5.491
 5031SOL    HW115992   0.108   1.262   5.535
 5031SOL    HW215993   0.053   1.153   5.427
 5032SOL     OW15994   2.787   1.735   6.021
 5032SOL    HW115995   2.877   1.699   6.044
 5032SOL    HW215996   2.732   1.663   5.978
 5033SOL     OW15997   2.009   0.227   7.009
 5033SOL    HW115998   2.087   0.171   0.012
 5033SOL    HW215999   1.928   0.200   0.037
 5034SOL     OW16000   5.619   6.691   4.391
 5034SOL    HW116001   5.569   6.777   4.398
 5034SOL    HW216002   5.609   6.655   4.298
 5035SOL     OW16003   0.757   3.928   5.596
 5035SOL    HW116004   0.690   3.899   5.664
 5035SOL    HW216005   0.711   3.944   5.509
 5036SOL     OW16006   6.435   5.128   6.534
 5036SOL    HW116007   6.523   5.142   6.490
 5036SOL    HW216008   6.446   5.137   6.633
 5037SOL     OW16009   4.597   4.783   1.745
 5037SOL    HW116010   4.692   4.759   1.725
 5037SOL    HW216011   4.579   4.771   1.842
 5038SOL     OW16012   4.120   3.543   3.839
 5038SOL    HW116013   4.191   3.472   3.838
 5038SOL    HW216014   4.110   3.581   3.747
 5039SOL     OW16015   2.042   3.279   5.619
 5039SOL    HW116016   2.087   3.238   5.699
 5039SOL    HW216017   2.026   3.210   5.550
 5040SOL     OW16018   1.071   6.265   5.124
 5040SOL    HW116019   1.094   6.227   5.035
 5040SOL    HW216020   1.137   6.233   5.192
 5041SOL     OW16021   1.170   2.241   1.948
 5041SOL    HW116022   1.171   2.322   2.007
 5041SOL    HW216023   1.244   2.179   1.975
 5042SOL     OW16024   0.037   2.851   0.491
 5042SOL    HW116025   6.999   2.928   0.489
 5042SOL    HW216026   7.014   2.768   0.519
 5043SOL     OW16027   4.433   0.596   6.874
 5043SOL    HW116028   4.498   0.654   6.924
 5043SOL    HW216029   4.412   0.516   6.929
 5044SOL     OW16030   0.606   5.584   1.361
 5044SOL    HW116031   0.607   5.616   1.455
 5044SOL    HW216032   0.511   5.567   1.332
 5045SOL     OW16033   6.424   5.775   5.939
 5045SOL    HW116034   6.442   5.684   5.901
 5045SOL    HW216035   6.369   5.828   5.874
 5046SOL     OW16036   3.591   4.053   3.789
 5046SOL    HW116037   3.616   4.023   3.881
 5046SOL    HW216038   3.648   4.130   3.762
 5047SOL     OW16039   2.349   4.216   3.185
 5047SOL    HW116040   2.410   4.144   3.218
 5047SOL    HW216041   2.256   4.198   3.217
 5048SOL     OW16042   1.666   0.910   4.291
 5048SOL    HW116043   1.730   0.903   4.367
 5048SOL    HW216044   1.573   0.923   4.327
 5049SOL     OW16045   4.325   0.971   0.294
 5049SOL    HW116046   4.408   0.947   0.244
 5049SOL    HW216047   4.327   0.928   0.384
 5050SOL     OW16048   1.689   1.196   6.744
 5050SOL    HW116049   1.610   1.254   6.762
 5050SOL    HW216050   1.659   1.108   6.706
 5051SOL     OW16051   4.605   4.315   1.680
 5051SOL    HW116052   4.637   4.224   1.653
 5051SOL    HW216053   4.529   4.306   1.744
 5052SOL     OW16054   3.136   2.006   5.907
 5052SOL    HW116055   3.043   2.026   5.877
 5052SOL    HW216056   3.201   2.055   5.848
 5053SOL     OW16057   0.942   5.171   3.032
 5053SOL    HW116058   0.894   5.242   3.083
 5053SOL    HW216059   1.041   5.186   3.039
 5054SOL     OW16060   2.868   4.893   5.046
 5054SOL    HW116061   2.873   4.799   5.078
 5054SOL    HW216062   2.772   4.917   5.028
 5055SOL     OW16063   0.748   2.531   5.761
 5055SOL    HW116064   0.731   2.501   5.855
 5055SOL    HW216065   0.729   2.455   5.699
 5056SOL     OW16066   5.314   3.990   5.793
 5056SOL    HW116067   5.240   3.941   5.747
 5056SOL    HW216068   5.277   4.067   5.844
 5057SOL     OW16069   0.001   6.891   3.207
 5057SOL    HW116070   6.972   6.807   3.215
 5057SOL    HW216071   0.098   6.868   3.217
 5058SOL     OW16072   3.469   4.201   6.637
 5058SOL    HW116073   3.505   4.287   6.601
 5058SOL    HW216074   3.446   4.140   6.561
 5059SOL     OW16075   0.180   0.487   3.079
 5059SOL    HW116076   0.193   0.402   3.029
 5059SOL    HW216077   0.090   0.526   3.057
 5060SOL     OW16078   0.127   2.484   6.479
 5060SOL    HW116079   0.201   2.530   6.429
 5060SOL    HW216080   0.103   2.539   6.559
 5061SOL     OW16081   4.687   2.534   0.423
 5061SOL    HW116082   4.749   2.587   0.365
 5061SOL    HW216083   4.728   2.520   0.513
 5062SOL     OW16084   5.901   0.089   2.343
 5062SOL    HW116085   5.948   0.168   2.383
 5062SOL    HW216086   5.943   0.068   2.255
 5063SOL     OW16087   0.054   0.079   2.067
 5063SOL    HW116088   0.145   0.069   2.027
 5063SOL    HW216089   0.034   0.001   2.125
 5064SOL     OW16090   5.156   3.188   0.805
 5064SOL    HW116091   5.124   3.140   0.887
 5064SOL    HW216092   5.077   3.220   0.752
 5065SOL     OW16093   3.232   0.706   5.670
 5065SOL    HW116094   3.279   0.628   5.629
 5065SOL    HW216095   3.195   0.679   5.759
 5066SOL     OW16096   4.975   4.943   2.085
 5066SOL    HW116097   5.008   4.886   2.010
 5066SOL    HW216098   5.008   4.906   2.172
 5067SOL     OW16099   4.622   1.306   1.080
 5067SOL    HW116100   4.590   1.286   1.172
 5067SOL    HW216101   4.715   1.270   1.069
 5068SOL     OW16102   2.431   4.717   0.966
 5068SOL    HW116103   2.427   4.721   0.866
 5068SOL    HW216104   2.494   4.645   0.994
 5069SOL     OW16105   2.086   4.537   3.412
 5069SOL    HW116106   2.005   4.564   3.463
 5069SOL    HW216107   2.112   4.610   3.349
 5070SOL     OW16108   4.947   3.359   3.720
 5070SOL    HW116109   4.904   3.308   3.794
 5070SOL    HW216110   4.933   3.457   3.735
 5071SOL     OW16111   4.404   2.377   4.844
 5071SOL    HW116112   4.441   2.293   4.883
 5071SOL    HW216113   4.333   2.413   4.905
 5072SOL     OW16114   0.621   6.106   0.598
 5072SOL    HW116115   0.697   6.041   0.591
 5072SOL    HW216116   0.622   6.148   0.689
 5073SOL     OW16117   6.448   6.635   3.095
 5073SOL    HW116118   6.446   6.669   3.189
 5073SOL    HW216119   6.520   6.566   3.086
 5074SOL     OW16120   3.735   3.313   6.617
 5074SOL    HW116121   3.685   3.384   6.667
 5074SOL    HW216122   3.829   3.308   6.651
 5075SOL     OW16123   0.286   1.335   5.561
 5075SOL    HW116124   0.303   1.278   5.642
 5075SOL    HW216125   0.369   1.386   5.539
 5076SOL     OW16126   3.848   0.774   1.023
 5076SOL    HW116127   3.843   0.858   0.970
 5076SOL    HW216128   3.904   0.707   0.974
 5077SOL     OW16129   0.827   2.611   3.934
 5077SOL    HW116130   0.878   2.526   3.919
 5077SOL    HW216131   0.801   2.618   4.030
 5078SOL     OW16132   0.915   1.904   3.477
 5078SOL    HW116133   0.970   1.988   3.479
 5078SOL    HW216134   0.953   1.841   3.409
 5079SOL     OW16135   3.058   4.814   6.392
 5079SOL    HW116136   3.042   4.716   6.383
 5079SOL    HW216137   3.145   4.830   6.438
 5080SOL     OW16138   5.623   6.493   5.362
 5080SOL    HW116139   5.706   6.527   5.406
 5080SOL    HW216140   5.621   6.393   5.367
 5081SOL     OW16141   4.120   3.564   3.077
 5081SOL    HW116142   4.039   3.600   3.031
 5081SOL    HW216143   4.094   3.491   3.140
 5082SOL     OW16144   5.782   5.987   5.106
 5082SOL    HW116145   5.687   5.986   5.136
 5082SOL    HW216146   5.829   6.065   5.147
 5083SOL     OW16147   1.952   6.471   2.497
 5083SOL    HW116148   2.013   6.475   2.577
 5083SOL    HW216149   1.880   6.404   2.513
 5084SOL     OW16150   1.001   4.811   4.793
 5084SOL    HW116151   1.034   4.904   4.812
 5084SOL    HW216152   1.002   4.795   4.694
 5085SOL     OW16153   5.642   2.390   6.197
 5085SOL    HW116154   5.569   2.434   6.249
 5085SOL    HW216155   5.652   2.435   6.108
 5086SOL     OW16156   6.215   5.349   4.024
 5086SOL    HW116157   6.193   5.299   4.108
 5086SOL    HW216158   6.270   5.292   3.964
 5087SOL     OW16159   0.003   5.941   3.645
 5087SOL    HW116160   7.005   5.852   3.606
 5087SOL    HW216161   6.955   5.972   3.705
 5088SOL     OW16162   6.144   1.386   5.169
 5088SOL    HW116163   6.172   1.480   5.189
 5088SOL    HW216164   6.113   1.380   5.074
 5089SOL     OW16165   6.471   3.199   3.022
 5089SOL    HW116166   6.468   3.116   3.078
 5089SOL    HW216167   6.404   3.265   3.057
 5090SOL     OW16168   2.124   3.956   1.544
 5090SOL    HW116169   2.062   3.885   1.578
 5090SOL    HW216170   2.112   3.967   1.446
 5091SOL     OW16171   1.148   6.084   2.794
 5091SOL    HW116172   1.078   6.014   2.782
 5091SOL    HW216173   1.134   6.130   2.882
 5092SOL     OW16174   3.527   2.612   1.420
 5092SOL    HW116175   3.461   2.686   1.421
 5092SOL    HW216176   3.480   2.525   1.437
 5093SOL     OW16177   1.412   1.895   1.519
 5093SOL    HW116178   1.448   1.941   1.438
 5093SOL    HW216179   1.393   1.962   1.590
 5094SOL     OW16180   1.229   0.427   5.556
 5094SOL    HW116181   1.162   0.461   5.489
 5094SOL    HW216182   1.191   0.348   5.604
 5095SOL     OW16183   0.937   1.277   4.642
 5095SOL    HW116184   1.008   1.239   4.584
 5095SOL    HW216185   0.860   1.307   4.586
 5096SOL     OW16186   4.251   4.019   0.602
 5096SOL    HW116187   4.220   3.940   0.655
 5096SOL    HW216188   4.249   4.100   0.660
 5097SOL     OW16189   1.462   0.398   6.464
 5097SOL    HW116190   1.435   0.482   6.419
 5097SOL    HW216191   1.421   0.320   6.417
 5098SOL     OW16192   0.282   0.681   1.501
 5098SOL    HW116193   0.287   0.713   1.595
 5098SOL    HW216194   0.253   0.756   1.441
 5099SOL     OW16195   1.237   0.489   5.953
 5099SOL    HW116196   1.276   0.400   5.927
 5099SOL    HW216197   1.307   0.560   5.945
 5100SOL     OW16198   4.473   6.807   5.935
 5100SOL    HW116199   4.452   6.897   5.973
 5100SOL    HW216200   4.494   6.816   5.838
 5101SOL     OW16201   5.175   6.369   0.135
 5101SOL    HW116202   5.250   6.422   0.095
 5101SOL    HW216203   5.208   6.322   0.217
 5102SOL     OW16204   5.920   0.489   5.404
 5102SOL    HW116205   5.974   0.468   5.323
 5102SOL    HW216206   5.947   0.429   5.480
 5103SOL     OW16207   6.961   0.833   4.292
 5103SOL    HW116208   6.932   0.868   4.203
 5103SOL    HW216209   0.008   0.891   4.328
 5104SOL     OW16210   1.665   6.650   1.371
 5104SOL    HW116211   1.574   6.607   1.376
 5104SOL    HW216212   1.681   6.685   1.279
 5105SOL     OW16213   4.202   3.842   0.074
 5105SOL    HW116214   4.261   3.860   7.022
 5105SOL    HW216215   4.108   3.868   0.051
 5106SOL     OW16216   3.615   0.135   2.290
 5106SOL    HW116217   3.531   0.114   2.239
 5106SOL    HW216218   3.666   0.050   2.306
 5107SOL     OW16219   3.073   0.497   0.036
 5107SOL    HW116220   3.079   0.592   0.065
 5107SOL    HW216221   2.977   0.468   0.036
 5108SOL     OW16222   3.013   3.833   3.719
 5108SOL    HW116223   3.035   3.894   3.796
 5108SOL    HW216224   3.094   3.777   3.698
 5109SOL     OW16225   1.076   1.593   0.950
 5109SOL    HW116226   1.156   1.651   0.967
 5109SOL    HW216227   1.057   1.593   0.852
 5110SOL     OW16228   1.008   6.839   6.264
 5110SOL    HW116229   1.047   6.929   6.243
 5110SOL    HW216230   0.911   6.839   6.241
 5111SOL     OW16231   0.630   0.875   5.511
 5111SOL    HW116232   0.701   0.887   5.581
 5111SOL    HW216233   0.584   0.963   5.495
 5112SOL     OW16234   0.493   6.664   3.349
 5112SOL    HW116235   0.591   6.679   3.339
 5112SOL    HW216236   0.471   6.570   3.322
 5113SOL     OW16237   1.157   0.171   1.209
 5113SOL    HW116238   1.188   0.104   1.141
 5113SOL    HW216239   1.089   0.232   1.168
 5114SOL     OW16240   3.491   3.127   0.323
 5114SOL    HW116241   3.440   3.203   0.283
 5114SOL    HW216242   3.433   3.081   0.391
 5115SOL     OW16243   1.460   4.641   5.540
 5115SOL    HW116244   1.558   4.622   5.547
 5115SOL    HW216245   1.438   4.720   5.597
 5116SOL     OW16246   5.084   5.649   5.869
 5116SOL    HW116247   5.093   5.601   5.782
 5116SOL    HW216248   5.130   5.598   5.941
 5117SOL     OW16249   2.172   4.692   4.110
 5117SOL    HW116250   2.174   4.593   4.124
 5117SOL    HW216251   2.249   4.734   4.157
 5118SOL     OW16252   4.504   6.604   0.408
 5118SOL    HW116253   4.465   6.598   0.500
 5118SOL    HW216254   4.603   6.619   0.415
 5119SOL     OW16255   4.983   0.233   1.549
 5119SOL    HW116256   5.067   0.208   1.597
 5119SOL    HW216257   5.002   0.246   1.452
 5120SOL     OW16258   6.124   1.321   2.904
 5120SOL    HW116259   6.165   1.410   2.921
 5120SOL    HW216260   6.067   1.325   2.823
 5121SOL     OW16261   1.114   2.815   6.425
 5121SOL    HW116262   1.204   2.838   6.388
 5121SOL    HW216263   1.088   2.884   6.493
 5122SOL     OW16264   2.650   0.704   3.865
 5122SOL    HW116265   2.635   0.666   3.956
 5122SOL    HW216266   2.609   0.795   3.859
 5123SOL     OW16267   5.289   3.321   4.360
 5123SOL    HW116268   5.206   3.306   4.414
 5123SOL    HW216269   5.369   3.292   4.413
 5124SOL     OW16270   2.563   5.504   6.323
 5124SOL    HW116271   2.536   5.412   6.353
 5124SOL    HW216272   2.659   5.504   6.297
 5125SOL     OW16273   0.110   3.715   4.227
 5125SOL    HW116274   0.194   3.669   4.197
 5125SOL    HW216275   0.075   3.670   4.309
 5126SOL     OW16276   5.997   4.794   5.751
 5126SOL    HW116277   5.941   4.751   5.680
 5126SOL    HW216278   6.087   4.816   5.714
 5127SOL     OW16279   5.996   4.095   0.917
 5127SOL    HW116280   5.919   4.144   0.958
 5127SOL    HW216281   5.963   4.009   0.878
 5128SOL     OW16282   0.840   0.593   0.108
 5128SOL    HW116283   0.859   0.516   0.170
 5128SOL    HW216284   0.828   0.558   0.015
 5129SOL     OW16285   5.529   0.726   3.098
 5129SOL    HW116286   5.618   0.730   3.054
 5129SOL    HW216287   5.492   0.633   3.090
 5130SOL     OW16288   1.011   5.684   4.704
 5130SOL    HW116289   1.100   5.640   4.708
 5130SOL    HW216290   1.020   5.775   4.662
 5131SOL     OW16291   3.177   4.937   3.307
 5131SOL    HW116292   3.108   5.008   3.319
 5131SOL    HW216293   3.147   4.852   3.350
 5132SOL     OW16294   3.067   1.347   6.423
 5132SOL    HW116295   3.137   1.389   6.365
 5132SOL    HW216296   2.986   1.328   6.368
 5133SOL     OW16297   3.498   5.438   5.882
 5133SOL    HW116298   3.511   5.534   5.858
 5133SOL    HW216299   3.477   5.385   5.800
 5134SOL     OW16300   6.430   0.011   1.765
 5134SOL    HW116301   6.513   6.982   1.777
 5134SOL    HW216302   6.399   0.043   1.855
 5135SOL     OW16303   6.192   3.409   2.684
 5135SOL    HW116304   6.183   3.378   2.589
 5135SOL    HW216305   6.247   3.492   2.687
 5136SOL     OW16306   0.083   1.125   5.970
 5136SOL    HW116307   0.050   1.095   6.059
 5136SOL    HW216308   0.006   1.146   5.910
 5137SOL     OW16309   4.566   2.830   5.244
 5137SOL    HW116310   4.647   2.877   5.208
 5137SOL    HW216311   4.493   2.897   5.256
 5138SOL     OW16312   3.360   3.946   3.856
 5138SOL    HW116313   3.448   3.962   3.811
 5138SOL    HW216314   3.350   3.849   3.877
 5139SOL     OW16315   1.010   0.417   4.337
 5139SOL    HW116316   1.003   0.323   4.302
 5139SOL    HW216317   0.918   0.454   4.351
 5140SOL     OW16318   4.042   1.650   6.359
 5140SOL    HW116319   4.093   1.572   6.393
 5140SOL    HW216320   3.975   1.620   6.291
 5141SOL     OW16321   6.330   2.665   1.096
 5141SOL    HW116322   6.270   2.745   1.091
 5141SOL    HW216323   6.402   2.673   1.028
 5142SOL     OW16324   5.729   6.882   4.061
 5142SOL    HW116325   5.774   6.793   4.047
 5142SOL    HW216326   5.647   6.886   4.005
 5143SOL     OW16327   0.522   4.147   4.538
 5143SOL    HW116328   0.573   4.100   4.609
 5143SOL    HW216329   0.524   4.246   4.555
 5144SOL     OW16330   2.385   3.340   6.530
 5144SOL    HW116331   2.407   3.413   6.465
 5144SOL    HW216332   2.425   3.361   6.619
 5145SOL     OW16333   3.527   6.054   6.379
 5145SOL    HW116334   3.622   6.043   6.409
 5145SOL    HW216335   3.519   6.028   6.283
 5146SOL     OW16336   4.184   4.231   5.584
 5146SOL    HW116337   4.184   4.132   5.574
 5146SOL    HW216338   4.202   4.274   5.496
 5147SOL     OW16339   5.223   3.766   2.688
 5147SOL    HW116340   5.279   3.763   2.770
 5147SOL    HW216341   5.188   3.674   2.669
 5148SOL     OW16342   0.898   0.482   2.068
 5148SOL    HW116343   0.969   0.552   2.066
 5148SOL    HW216344   0.916   0.418   2.143
 5149SOL     OW16345   5.597   4.645   4.006
 5149SOL    HW116346   5.681   4.673   4.051
 5149SOL    HW216347   5.564   4.719   3.947
 5150SOL     OW16348   1.235   5.364   3.435
 5150SOL    HW116349   1.278   5.353   3.345
 5150SOL    HW216350   1.136   5.360   3.425
 5151SOL     OW16351   5.946   4.759   1.401
 5151SOL    HW116352   6.001   4.801   1.474
 5151SOL    HW216353   5.999   4.687   1.357
 5152SOL     OW16354   1.583   6.346   6.478
 5152SOL    HW116355   1.528   6.429   6.477
 5152SOL    HW216356   1.581   6.303   6.388
 5153SOL     OW16357   1.533   0.831   0.432
 5153SOL    HW116358   1.537   0.788   0.342
 5153SOL    HW216359   1.610   0.894   0.443
 5154SOL     OW16360   0.924   2.614   6.794
 5154SOL    HW116361   0.875   2.700   6.805
 5154SOL    HW216362   0.864   2.547   6.750
 5155SOL     OW16363   2.583   1.624   0.394
 5155SOL    HW116364   2.525   1.667   0.464
 5155SOL    HW216365   2.629   1.544   0.434
 5156SOL     OW16366   5.232   5.331   4.997
 5156SOL    HW116367   5.322   5.288   5.002
 5156SOL    HW216368   5.221   5.376   4.909
 5157SOL     OW16369   3.522   1.685   1.922
 5157SOL    HW116370   3.617   1.710   1.940
 5157SOL    HW216371   3.518   1.629   1.839
 5158SOL     OW16372   3.713   1.592   1.057
 5158SOL    HW116373   3.783   1.657   1.086
 5158SOL    HW216374   3.724   1.505   1.106
 5159SOL     OW16375   6.113   3.580   6.731
 5159SOL    HW116376   6.042   3.541   6.790
 5159SOL    HW216377   6.069   3.624   6.652
 5160SOL     OW16378   6.423   6.751   3.346
 5160SOL    HW116379   6.444   6.704   3.432
 5160SOL    HW216380   6.435   6.849   3.358
 5161SOL     OW16381   1.190   3.123   6.724
 5161SOL    HW116382   1.240   3.181   6.789
 5161SOL    HW216383   1.184   3.030   6.760
 5162SOL     OW16384   0.159   5.457   2.533
 5162SOL    HW116385   0.202   5.481   2.445
 5162SOL    HW216386   0.079   5.400   2.516
 5163SOL     OW16387   3.169   6.194   2.070
 5163SOL    HW116388   3.174   6.293   2.061
 5163SOL    HW216389   3.246   6.151   2.022
 5164SOL     OW16390   2.938   3.023   0.548
 5164SOL    HW116391   3.035   3.001   0.550
 5164SOL    HW216392   2.895   2.980   0.469
 5165SOL     OW16393   1.525   4.696   0.158
 5165SOL    HW116394   1.460   4.658   0.093
 5165SOL    HW216395   1.479   4.765   0.215
 5166SOL     OW16396   1.787   5.371   1.731
 5166SOL    HW116397   1.836   5.354   1.645
 5166SOL    HW216398   1.848   5.356   1.808
 5167SOL     OW16399   5.634   3.960   5.363
 5167SOL    HW116400   5.570   3.987   5.435
 5167SOL    HW216401   5.684   4.041   5.331
 5168SOL     OW16402   4.925   2.380   2.237
 5168SOL    HW116403   4.870   2.338   2.309
 5168SOL    HW216404   4.922   2.480   2.247
 5169SOL     OW16405   4.255   1.311   3.856
 5169SOL    HW116406   4.174   1.347   3.902
 5169SOL    HW216407   4.250   1.331   3.758
 5170SOL     OW16408   1.422   3.304   6.202
 5170SOL    HW116409   1.460   3.381   6.152
 5170SOL    HW216410   1.337   3.331   6.247
 5171SOL     OW16411   1.298   5.055   5.445
 5171SOL    HW116412   1.392   5.029   5.465
 5171SOL    HW216413   1.257   4.989   5.383
 5172SOL     OW16414   1.118   5.191   4.203
 5172SOL    HW116415   1.095   5.122   4.272
 5172SOL    HW216416   1.120   5.282   4.246
 5173SOL     OW16417   4.675   3.840   6.174
 5173SOL    HW116418   4.610   3.765   6.161
 5173SOL    HW216419   4.625   3.924   6.195
 5174SOL     OW16420   1.460   6.703   3.623
 5174SOL    HW116421   1.521   6.781   3.608
 5174SOL    HW216422   1.474   6.666   3.714
 5175SOL     OW16423   3.104   4.324   6.324
 5175SOL    HW116424   3.201   4.346   6.310
 5175SOL    HW216425   3.070   4.273   6.246
 5176SOL     OW16426   5.360   5.591   6.305
 5176SOL    HW116427   5.408   5.542   6.378
 5176SOL    HW216428   5.424   5.612   6.231
 5177SOL     OW16429   5.240   0.003   0.849
 5177SOL    HW116430   5.298   0.008   0.930
 5177SOL    HW216431   5.154   6.982   0.871
 5178SOL     OW16432   1.010   4.401   2.382
 5178SOL    HW116433   1.010   4.428   2.286
 5178SOL    HW216434   0.933   4.442   2.429
 5179SOL     OW16435   5.126   4.004   2.586
 5179SOL    HW116436   5.028   3.989   2.575
 5179SOL    HW216437   5.168   3.923   2.628
 5180SOL     OW16438   2.944   6.966   1.162
 5180SOL    HW116439   2.918   6.869   1.156
 5180SOL    HW216440   3.017   6.976   1.229
 5181SOL     OW16441   0.087   0.809   6.835
 5181SOL    HW116442   0.024   0.735   6.858
 5181SOL    HW216443   0.040   0.897   6.843
 5182SOL     OW16444   4.399   4.593   2.665
 5182SOL    HW116445   4.424   4.539   2.585
 5182SOL    HW216446   4.384   4.688   2.637
 5183SOL     OW16447   4.061   2.133   3.153
 5183SOL    HW116448   4.100   2.193   3.084
 5183SOL    HW216449   4.106   2.149   3.241
 5184SOL     OW16450   2.172   2.695   3.674
 5184SOL    HW116451   2.110   2.624   3.641
 5184SOL    HW216452   2.261   2.685   3.629
 5185SOL     OW16453   4.766   0.392   2.598
 5185SOL    HW116454   4.853   0.420   2.639
 5185SOL    HW216455   4.769   0.407   2.499
 5186SOL     OW16456   6.441   3.321   5.856
 5186SOL    HW116457   6.363   3.279   5.808
 5186SOL    HW216458   6.525   3.301   5.806
 5187SOL     OW16459   2.382   5.169   4.710
 5187SOL    HW116460   2.424   5.092   4.758
 5187SOL    HW216461   2.384   5.152   4.611
 5188SOL     OW16462   0.052   6.429   1.456
 5188SOL    HW116463   0.066   6.528   1.465
 5188SOL    HW216464   0.055   6.404   1.359
 5189SOL     OW16465   5.664   6.861   6.336
 5189SOL    HW116466   5.679   6.774   6.382
 5189SOL    HW216467   5.742   6.921   6.351
 5190SOL     OW16468   1.742   2.869   2.032
 5190SOL    HW116469   1.774   2.910   1.946
 5190SOL    HW216470   1.742   2.939   2.104
 5191SOL     OW16471   3.029   6.187   2.485
 5191SOL    HW116472   2.966   6.115   2.515
 5191SOL    HW216473   3.040   6.253   2.560
 5192SOL     OW16474   1.594   6.117   1.293
 5192SOL    HW116475   1.531   6.187   1.326
 5192SOL    HW216476   1.554   6.026   1.309
 5193SOL     OW16477   5.428   0.468   6.728
 5193SOL    HW116478   5.519   0.462   6.689
 5193SOL    HW216479   5.359   0.451   6.657
 5194SOL     OW16480   3.419   1.700   6.196
 5194SOL    HW116481   3.439   1.614   6.151
 5194SOL    HW216482   3.498   1.761   6.189
 5195SOL     OW16483   0.523   0.614   3.581
 5195SOL    HW116484   0.535   0.610   3.482
 5195SOL    HW216485   0.482   0.701   3.607
 5196SOL     OW16486   4.686   6.614   2.745
 5196SOL    HW116487   4.632   6.536   2.713
 5196SOL    HW216488   4.782   6.600   2.720
 5197SOL     OW16489   2.136   3.355   6.653
 5197SOL    HW116490   2.077   3.435   6.639
 5197SOL    HW216491   2.214   3.361   6.590
 5198SOL     OW16492   4.189   5.627   3.305
 5198SOL    HW116493   4.102   5.596   3.265
 5198SOL    HW216494   4.196   5.726   3.295
 5199SOL     OW16495   0.026   5.452   1.187
 5199SOL    HW116496   6.960   5.432   1.222
 5199SOL    HW216497   0.090   5.383   1.222
 5200SOL     OW16498   0.638   3.958   5.329
 5200SOL    HW116499   0.641   3.859   5.345
 5200SOL    HW216500   0.573   3.978   5.255
 5201SOL     OW16501   0.741   6.563   4.176
 5201SOL    HW116502   0.772   6.516   4.094
 5201SOL    HW216503   0.723   6.496   4.248
 5202SOL     OW16504   0.086   3.659   6.621
 5202SOL    HW116505   0.054   3.577   6.669
 5202SOL    HW216506   0.161   3.635   6.560
 5203SOL     OW16507   1.053   2.532   0.199
 5203SOL    HW116508   1.070   2.453   0.258
 5203SOL    HW216509   1.121   2.603   0.218
 5204SOL     OW16510   3.857   5.134   0.475
 5204SOL    HW116511   3.865   5.058   0.411
 5204SOL    HW216512   3.768   5.130   0.520
 5205SOL     OW16513   1.745   0.412   1.636
 5205SOL    HW116514   1.807   0.345   1.595
 5205SOL    HW216515   1.786   0.503   1.629
 5206SOL     OW16516   0.547   4.671   6.806
 5206SOL    HW116517   0.534   4.576   6.777
 5206SOL    HW216518   0.636   4.703   6.774
 5207SOL     OW16519   1.408   5.513   4.225
 5207SOL    HW116520   1.434   5.573   4.150
 5207SOL    HW216521   1.453   5.424   4.215
 5208SOL     OW16522   3.851   1.004   0.542
 5208SOL    HW116523   3.840   1.096   0.506
 5208SOL    HW216524   3.792   0.992   0.622
 5209SOL     OW16525   5.732   5.991   3.859
 5209SOL    HW116526   5.751   5.947   3.772
 5209SOL    HW216527   5.817   5.995   3.913
 5210SOL     OW16528   5.590   3.944   4.708
 5210SOL    HW116529   5.490   3.941   4.711
 5210SOL    HW216530   5.624   3.999   4.785
 5211SOL     OW16531   3.458   3.147   3.617
 5211SOL    HW116532   3.468   3.112   3.710
 5211SOL    HW216533   3.472   3.072   3.552
 5212SOL     OW16534   6.944   2.623   0.613
 5212SOL    HW116535   6.906   2.642   0.703
 5212SOL    HW216536   6.876   2.574   0.558
 5213SOL     OW16537   5.283   2.142   6.127
 5213SOL    HW116538   5.194   2.096   6.136
 5213SOL    HW216539   5.339   2.118   6.206
 5214SOL     OW16540   5.436   1.476   6.520
 5214SOL    HW116541   5.388   1.516   6.598
 5214SOL    HW216542   5.444   1.377   6.534
 5215SOL     OW16543   5.953   5.350   3.133
 5215SOL    HW116544   6.006   5.426   3.171
 5215SOL    HW216545   6.003   5.265   3.144
 5216SOL     OW16546   4.649   5.807   1.321
 5216SOL    HW116547   4.695   5.876   1.266
 5216SOL    HW216548   4.713   5.732   1.341
 5217SOL     OW16549   2.969   5.221   3.709
 5217SOL    HW116550   2.913   5.290   3.662
 5217SOL    HW216551   2.999   5.153   3.642
 5218SOL     OW16552   1.815   0.552   3.758
 5218SOL    HW116553   1.825   0.458   3.724
 5218SOL    HW216554   1.718   0.571   3.774
 5219SOL     OW16555   3.808   6.992   6.636
 5219SOL    HW116556   3.715   6.989   6.673
 5219SOL    HW216557   3.807   6.970   6.539
 5220SOL     OW16558   0.990   5.323   2.461
 5220SOL    HW116559   0.972   5.420   2.441
 5220SOL    HW216560   1.067   5.292   2.406
 5221SOL     OW16561   5.678   1.806   4.628
 5221SOL    HW116562   5.707   1.837   4.718
 5221SOL    HW216563   5.748   1.745   4.590
 5222SOL     OW16564   2.720   6.927   4.004
 5222SOL    HW116565   2.754   6.851   3.948
 5222SOL    HW216566   2.788   6.950   4.073
 5223SOL     OW16567   4.554   0.530   0.788
 5223SOL    HW116568   4.490   0.459   0.758
 5223SOL    HW216569   4.577   0.515   0.884
 5224SOL     OW16570   6.740   1.792   3.259
 5224SOL    HW116571   6.643   1.801   3.282
 5224SOL    HW216572   6.749   1.770   3.162
 5225SOL     OW16573   6.280   0.672   3.111
 5225SOL    HW116574   6.256   0.767   3.129
 5225SOL    HW216575   6.293   0.624   3.198
 5226SOL     OW16576   0.374   6.425   5.427
 5226SOL    HW116577   0.326   6.355   5.480
 5226SOL    HW216578   0.330   6.514   5.441
 5227SOL     OW16579   0.703   4.880   3.970
 5227SOL    HW116580   0.604   4.868   3.958
 5227SOL    HW216581   0.721   4.967   4.016
 5228SOL     OW16582   6.353   2.741   0.158
 5228SOL    HW116583   6.420   2.814   0.162
 5228SOL    HW216584   6.262   2.777   0.178
 5229SOL     OW16585   2.099   4.470   6.248
 5229SOL    HW116586   2.173   4.422   6.202
 5229SOL    HW216587   2.131   4.560   6.277
 5230SOL     OW16588   0.650   0.386   0.951
 5230SOL    HW116589   0.628   0.453   1.022
 5230SOL    HW216590   0.734   0.414   0.904
 5231SOL     OW16591   3.173   3.046   4.384
 5231SOL    HW116592   3.242   2.997   4.438
 5231SOL    HW216593   3.218   3.096   4.311
 5232SOL     OW16594   3.147   2.329   6.182
 5232SOL    HW116595   3.090   2.251   6.208
 5232SOL    HW216596   3.223   2.299   6.125
 5233SOL     OW16597   6.807   6.482   1.524
 5233SOL    HW116598   6.813   6.550   1.596
 5233SOL    HW216599   6.898   6.449   1.500
 5234SOL     OW16600   3.212   0.271   0.172
 5234SOL    HW116601   3.172   0.341   0.112
 5234SOL    HW216602   3.141   0.205   0.197
 5235SOL     OW16603   1.573   2.661   1.505
 5235SOL    HW116604   1.517   2.672   1.586
 5235SOL    HW216605   1.639   2.586   1.519
 5236SOL     OW16606   5.355   3.292   1.251
 5236SOL    HW116607   5.415   3.297   1.171
 5236SOL    HW216608   5.310   3.203   1.254
 5237SOL     OW16609   2.981   1.969   5.270
 5237SOL    HW116610   2.953   2.065   5.266
 5237SOL    HW216611   2.999   1.943   5.365
 5238SOL     OW16612   1.516   4.971   0.615
 5238SOL    HW116613   1.593   4.970   0.679
 5238SOL    HW216614   1.544   5.016   0.530
 5239SOL     OW16615   3.686   3.725   4.245
 5239SOL    HW116616   3.624   3.669   4.190
 5239SOL    HW216617   3.633   3.793   4.296
 5240SOL     OW16618   3.107   2.237   5.643
 5240SOL    HW116619   3.069   2.305   5.706
 5240SOL    HW216620   3.036   2.205   5.580
 5241SOL     OW16621   1.254   5.743   6.324
 5241SOL    HW116622   1.270   5.797   6.241
 5241SOL    HW216623   1.308   5.780   6.399
 5242SOL     OW16624   5.868   0.130   5.130
 5242SOL    HW116625   5.769   0.114   5.137
 5242SOL    HW216626   5.885   0.227   5.116
 5243SOL     OW16627   1.248   5.939   1.041
 5243SOL    HW116628   1.238   5.846   1.075
 5243SOL    HW216629   1.260   6.002   1.118
 5244SOL     OW16630   4.507   4.111   5.960
 5244SOL    HW116631   4.585   4.051   5.942
 5244SOL    HW216632   4.533   4.206   5.939
 5245SOL     OW16633   4.564   4.099   6.223
 5245SOL    HW116634   4.523   4.105   6.132
 5245SOL    HW216635   4.636   4.167   6.232
 5246SOL     OW16636   6.584   4.351   2.657
 5246SOL    HW116637   6.524   4.291   2.603
 5246SOL    HW216638   6.582   4.443   2.619
 5247SOL     OW16639   0.879   6.554   6.954
 5247SOL    HW116640   0.961   6.559   6.898
 5247SOL    HW216641   0.893   6.490   0.004
 5248SOL     OW16642   5.149   0.131   5.529
 5248SOL    HW116643   5.209   0.091   5.459
 5248SOL    HW216644   5.203   0.191   5.588
 5249SOL     OW16645   0.480   5.400   5.159
 5249SOL    HW116646   0.566   5.451   5.150
 5249SOL    HW216647   0.499   5.302   5.166
 5250SOL     OW16648   0.184   1.338   6.302
 5250SOL    HW116649   0.227   1.348   6.212
 5250SOL    HW216650   0.166   1.429   6.340
 5251SOL     OW16651   0.377   3.156   1.186
 5251SOL    HW116652   0.326   3.108   1.257
 5251SOL    HW216653   0.318   3.223   1.141
 5252SOL     OW16654   2.115   5.607   1.144
 5252SOL    HW116655   2.055   5.529   1.129
 5252SOL    HW216656   2.199   5.577   1.189
 5253SOL     OW16657   5.826   3.799   4.669
 5253SOL    HW116658   5.736   3.832   4.640
 5253SOL    HW216659   5.889   3.876   4.677
 5254SOL     OW16660   5.245   1.608   3.354
 5254SOL    HW116661   5.296   1.659   3.285
 5254SOL    HW216662   5.192   1.671   3.410
 5255SOL     OW16663   4.145   0.416   4.596
 5255SOL    HW116664   4.176   0.361   4.519
 5255SOL    HW216665   4.052   0.450   4.577
 5256SOL     OW16666   5.297   0.906   3.046
 5256SOL    HW116667   5.382   0.855   3.036
 5256SOL    HW216668   5.293   0.978   2.977
 5257SOL     OW16669   4.972   0.042   2.075
 5257SOL    HW116670   5.014   6.977   2.082
 5257SOL    HW216671   4.972   0.072   1.980
 5258SOL     OW16672   4.873   4.716   1.671
 5258SOL    HW116673   4.840   4.708   1.577
 5258SOL    HW216674   4.874   4.625   1.713
 5259SOL     OW16675   4.734   6.208   1.439
 5259SOL    HW116676   4.670   6.269   1.394
 5259SOL    HW216677   4.791   6.162   1.370
 5260SOL     OW16678   4.862   3.382   0.414
 5260SOL    HW116679   4.848   3.480   0.398
 5260SOL    HW216680   4.787   3.330   0.372
 5261SOL     OW16681   1.048   2.529   5.353
 5261SOL    HW116682   1.069   2.441   5.395
 5261SOL    HW216683   1.122   2.555   5.292
 5262SOL     OW16684   2.132   6.796   2.700
 5262SOL    HW116685   2.195   6.772   2.627
 5262SOL    HW216686   2.061   6.726   2.707
 5263SOL     OW16687   1.071   0.240   6.262
 5263SOL    HW116688   0.997   0.200   6.316
 5263SOL    HW216689   1.081   0.337   6.286
 5264SOL     OW16690   6.186   1.411   1.852
 5264SOL    HW116691   6.101   1.387   1.804
 5264SOL    HW216692   6.204   1.343   1.923
 5265SOL     OW16693   5.136   4.078   2.236
 5265SOL    HW116694   5.224   4.089   2.190
 5265SOL    HW216695   5.140   3.999   2.297
 5266SOL     OW16696   2.685   6.467   1.273
 5266SOL    HW116697   2.682   6.368   1.270
 5266SOL    HW216698   2.628   6.501   1.348
 5267SOL     OW16699   4.720   5.006   5.615
 5267SOL    HW116700   4.756   4.925   5.661
 5267SOL    HW216701   4.626   5.022   5.645
 5268SOL     OW16702   6.414   5.650   5.442
 5268SOL    HW116703   6.388   5.734   5.394
 5268SOL    HW216704   6.513   5.644   5.448
 5269SOL     OW16705   2.338   6.446   3.872
 5269SOL    HW116706   2.379   6.490   3.952
 5269SOL    HW216707   2.326   6.514   3.800
 5270SOL     OW16708   4.957   1.992   1.633
 5270SOL    HW116709   5.031   1.928   1.611
 5270SOL    HW216710   4.936   1.984   1.731
 5271SOL     OW16711   4.484   4.990   4.199
 5271SOL    HW116712   4.415   4.949   4.260
 5271SOL    HW216713   4.439   5.026   4.118
 5272SOL     OW16714   0.832   6.130   3.916
 5272SOL    HW116715   0.853   6.062   3.847
 5272SOL    HW216716   0.879   6.107   4.001
 5273SOL     OW16717   1.225   3.091   3.770
 5273SOL    HW116718   1.259   3.062   3.859
 5273SOL    HW216719   1.278   3.169   3.737
 5274SOL     OW16720   6.325   5.480   3.102
 5274SOL    HW116721   6.242   5.506   3.054
 5274SOL    HW216722   6.395   5.454   3.036
 5275SOL     OW16723   3.214   0.768   6.304
 5275SOL    HW116724   3.199   0.822   6.221
 5275SOL    HW216725   3.308   0.733   6.303
 5276SOL     OW16726   0.192   6.227   0.325
 5276SOL    HW116727   0.281   6.205   0.367
 5276SOL    HW216728   0.183   6.326   0.317
 5277SOL     OW16729   1.889   1.940   3.177
 5277SOL    HW116730   1.792   1.925   3.158
 5277SOL    HW216731   1.898   1.987   3.265
 5278SOL     OW16732   5.545   0.131   5.651
 5278SOL    HW116733   5.532   0.149   5.553
 5278SOL    HW216734   5.466   0.080   5.685
 5279SOL     OW16735   1.030   6.289   6.385
 5279SOL    HW116736   0.949   6.279   6.328
 5279SOL    HW216737   1.023   6.372   6.440
 5280SOL     OW16738   3.503   6.229   5.305
 5280SOL    HW116739   3.451   6.172   5.242
 5280SOL    HW216740   3.441   6.267   5.374
 5281SOL     OW16741   1.143   1.607   3.999
 5281SOL    HW116742   1.173   1.696   4.031
 5281SOL    HW216743   1.046   1.594   4.020
 5282SOL     OW16744   1.938   0.150   2.430
 5282SOL    HW116745   1.947   0.085   2.506
 5282SOL    HW216746   1.899   0.236   2.464
 5283SOL     OW16747   1.503   0.912   3.257
 5283SOL    HW116748   1.517   1.005   3.293
 5283SOL    HW216749   1.426   0.870   3.305
 5284SOL     OW16750   4.669   2.731   3.043
 5284SOL    HW116751   4.664   2.634   3.065
 5284SOL    HW216752   4.732   2.777   3.105
 5285SOL     OW16753   1.009   3.666   4.407
 5285SOL    HW116754   0.975   3.575   4.386
 5285SOL    HW216755   1.016   3.677   4.506
 5286SOL     OW16756   6.056   3.267   0.934
 5286SOL    HW116757   6.131   3.218   0.889
 5286SOL    HW216758   6.083   3.361   0.951
 5287SOL     OW16759   3.146   5.000   1.342
 5287SOL    HW116760   3.094   4.931   1.392
 5287SOL    HW216761   3.126   5.091   1.378
 5288SOL     OW16762   4.472   0.527   2.920
 5288SOL    HW116763   4.405   0.557   2.989
 5288SOL    HW216764   4.430   0.534   2.829
 5289SOL     OW16765   2.587   5.095   6.272
 5289SOL    HW116766   2.552   5.062   6.184
 5289SOL    HW216767   2.678   5.133   6.259
 5290SOL     OW16768   1.665   3.576   5.687
 5290SOL    HW116769   1.669   3.476   5.691
 5290SOL    HW216770   1.717   3.614   5.764
 5291SOL     OW16771   3.005   4.672   5.914
 5291SOL    HW116772   2.974   4.627   5.998
 5291SOL    HW216773   2.931   4.728   5.877
 5292SOL     OW16774   5.663   4.768   6.029
 5292SOL    HW116775   5.740   4.761   6.093
 5292SOL    HW216776   5.589   4.709   6.060
 5293SOL     OW16777   1.603   6.659   5.173
 5293SOL    HW116778   1.660   6.692   5.098
 5293SOL    HW216779   1.545   6.734   5.206
 5294SOL     OW16780   4.784   1.916   5.592
 5294SOL    HW116781   4.695   1.879   5.618
 5294SOL    HW216782   4.792   1.919   5.493
 5295SOL     OW16783   3.549   0.848   3.257
 5295SOL    HW116784   3.555   0.947   3.269
 5295SOL    HW216785   3.536   0.804   3.346
 5296SOL     OW16786   3.427   4.182   0.176
 5296SOL    HW116787   3.413   4.200   0.273
 5296SOL    HW216788   3.342   4.199   0.126
 5297SOL     OW16789   1.536   3.521   0.113
 5297SOL    HW116790   1.504   3.531   0.019
 5297SOL    HW216791   1.462   3.484   0.170
 5298SOL     OW16792   1.838   6.015   6.543
 5298SOL    HW116793   1.933   6.022   6.512
 5298SOL    HW216794   1.780   5.996   6.464
 5299SOL     OW16795   3.006   2.591   0.453
 5299SOL    HW116796   3.007   2.553   0.361
 5299SOL    HW216797   2.923   2.645   0.466
 5300SOL     OW16798   0.755   5.884   1.177
 5300SOL    HW116799   0.729   5.806   1.233
 5300SOL    HW216800   0.835   5.929   1.216
 5301SOL     OW16801   4.241   1.496   6.108
 5301SOL    HW116802   4.307   1.499   6.184
 5301SOL    HW216803   4.261   1.569   6.043
 5302SOL     OW16804   5.759   5.868   3.603
 5302SOL    HW116805   5.670   5.829   3.623
 5302SOL    HW216806   5.762   5.898   3.507
 5303SOL     OW16807   0.104   5.289   4.989
 5303SOL    HW116808   0.091   5.284   5.088
 5303SOL    HW216809   0.197   5.322   4.970
 5304SOL     OW16810   5.731   1.180   0.424
 5304SOL    HW116811   5.652   1.124   0.399
 5304SOL    HW216812   5.774   1.142   0.506
 5305SOL     OW16813   0.760   5.193   2.397
 5305SOL    HW116814   0.740   5.135   2.475
 5305SOL    HW216815   0.853   5.229   2.405
 5306SOL     OW16816   0.805   4.693   5.527
 5306SOL    HW116817   0.793   4.695   5.428
 5306SOL    HW216818   0.898   4.660   5.548
 5307SOL     OW16819   3.766   1.856   0.165
 5307SOL    HW116820   3.773   1.877   0.067
 5307SOL    HW216821   3.714   1.771   0.177
 5308SOL     OW16822   1.343   4.110   2.641
 5308SOL    HW116823   1.287   4.075   2.716
 5308SOL    HW216824   1.297   4.188   2.598
 5309SOL     OW16825   3.872   4.808   1.828
 5309SOL    HW116826   3.781   4.797   1.866
 5309SOL    HW216827   3.940   4.801   1.900
 5310SOL     OW16828   6.058   3.569   1.589
 5310SOL    HW116829   5.984   3.521   1.542
 5310SOL    HW216830   6.100   3.508   1.656
 5311SOL     OW16831   5.867   6.646   0.321
 5311SOL    HW116832   5.825   6.662   0.411
 5311SOL    HW216833   5.929   6.722   0.299
 5312SOL     OW16834   0.921   5.418   1.859
 5312SOL    HW116835   0.858   5.429   1.783
 5312SOL    HW216836   0.973   5.334   1.848
 5313SOL     OW16837   1.225   3.032   6.173
 5313SOL    HW116838   1.233   2.994   6.265
 5313SOL    HW216839   1.248   2.962   6.106
 5314SOL     OW16840   4.240   6.728   0.026
 5314SOL    HW116841   4.145   6.738   0.055
 5314SOL    HW216842   4.301   6.760   0.099
 5315SOL     OW16843   5.157   3.511   1.849
 5315SOL    HW116844   5.185   3.519   1.753
 5315SOL    HW216845   5.211   3.573   1.906
 5316SOL     OW16846   1.058   3.432   5.419
 5316SOL    HW116847   1.068   3.427   5.320
 5316SOL    HW216848   1.012   3.518   5.444
 5317SOL     OW16849   5.987   2.038   5.288
 5317SOL    HW116850   6.013   1.950   5.327
 5317SOL    HW216851   6.047   2.110   5.324
 5318SOL     OW16852   0.857   2.422   0.683
 5318SOL    HW116853   0.930   2.427   0.752
 5318SOL    HW216854   0.879   2.351   0.616
 5319SOL     OW16855   4.182   6.121   0.772
 5319SOL    HW116856   4.223   6.171   0.849
 5319SOL    HW216857   4.201   6.171   0.687
 5320SOL     OW16858   4.311   4.953   0.887
 5320SOL    HW116859   4.311   5.047   0.920
 5320SOL    HW216860   4.226   4.935   0.838
 5321SOL     OW16861   2.246   4.672   4.446
 5321SOL    HW116862   2.293   4.728   4.377
 5321SOL    HW216863   2.314   4.621   4.498
 5322SOL     OW16864   5.270   5.954   0.323
 5322SOL    HW116865   5.338   5.968   0.252
 5322SOL    HW216866   5.223   6.040   0.341
 5323SOL     OW16867   3.797   1.907   5.956
 5323SOL    HW116868   3.698   1.914   5.957
 5323SOL    HW216869   3.826   1.833   6.018
 5324SOL     OW16870   3.531   2.293   0.881
 5324SOL    HW116871   3.502   2.381   0.843
 5324SOL    HW216872   3.630   2.285   0.874
 5325SOL     OW16873   4.347   0.549   4.310
 5325SOL    HW116874   4.445   0.555   4.332
 5325SOL    HW216875   4.303   0.485   4.372
 5326SOL     OW16876   6.727   5.514   3.261
 5326SOL    HW116877   6.760   5.487   3.351
 5326SOL    HW216878   6.628   5.529   3.263
 5327SOL     OW16879   5.912   3.357   5.268
 5327SOL    HW116880   5.872   3.341   5.359
 5327SOL    HW216881   5.848   3.409   5.212
 5328SOL     OW16882   3.909   3.814   5.991
 5328SOL    HW116883   3.949   3.728   6.022
 5328SOL    HW216884   3.815   3.799   5.962
 5329SOL     OW16885   0.470   4.435   6.634
 5329SOL    HW116886   0.404   4.372   6.595
 5329SOL    HW216887   0.563   4.403   6.613
 5330SOL     OW16888   4.602   3.914   0.200
 5330SOL    HW116889   4.584   4.005   0.237
 5330SOL    HW216890   4.524   3.855   0.217
 5331SOL     OW16891   6.367   1.515   6.153
 5331SOL    HW116892   6.324   1.596   6.113
 5331SOL    HW216893   6.300   1.440   6.157
 5332SOL     OW16894   0.650   3.329   1.585
 5332SOL    HW116895   0.566   3.355   1.538
 5332SOL    HW216896   0.667   3.393   1.660
 5333SOL     OW16897   0.963   0.877   3.185
 5333SOL    HW116898   0.926   0.913   3.099
 5333SOL    HW216899   1.055   0.914   3.198
 5334SOL     OW16900   3.423   0.374   4.272
 5334SOL    HW116901   3.324   0.368   4.282
 5334SOL    HW216902   3.447   0.379   4.174
 5335SOL     OW16903   0.019   5.951   0.933
 5335SOL    HW116904   7.014   6.037   0.893
 5335SOL    HW216905   0.052   5.890   0.861
 5336SOL     OW16906   1.810   3.593   2.791
 5336SOL    HW116907   1.721   3.636   2.793
 5336SOL    HW216908   1.841   3.575   2.884
 5337SOL     OW16909   4.889   4.401   1.346
 5337SOL    HW116910   4.881   4.301   1.348
 5337SOL    HW216911   4.888   4.432   1.251
 5338SOL     OW16912   6.049   1.858   0.320
 5338SOL    HW116913   6.036   1.763   0.347
 5338SOL    HW216914   5.960   1.903   0.311
 5339SOL     OW16915   6.739   1.846   3.861
 5339SOL    HW116916   6.717   1.943   3.849
 5339SOL    HW216917   6.661   1.790   3.834
 5340SOL     OW16918   4.577   4.681   1.070
 5340SOL    HW116919   4.580   4.612   1.142
 5340SOL    HW216920   4.665   4.683   1.023
 5341SOL     OW16921   3.860   2.525   6.683
 5341SOL    HW116922   3.911   2.537   6.598
 5341SOL    HW216923   3.804   2.605   6.700
 5342SOL     OW16924   4.130   0.142   4.050
 5342SOL    HW116925   4.227   0.163   4.063
 5342SOL    HW216926   4.114   0.045   4.065
 5343SOL     OW16927   3.454   4.196   4.558
 5343SOL    HW116928   3.443   4.170   4.654
 5343SOL    HW216929   3.474   4.294   4.552
 5344SOL     OW16930   2.074   2.876   2.304
 5344SOL    HW116931   2.173   2.866   2.312
 5344SOL    HW216932   2.052   2.922   2.218
 5345SOL     OW16933   3.976   5.921   1.425
 5345SOL    HW116934   3.919   5.842   1.444
 5345SOL    HW216935   3.919   6.002   1.416
 5346SOL     OW16936   3.082   6.146   3.814
 5346SOL    HW116937   3.176   6.166   3.840
 5346SOL    HW216938   3.027   6.132   3.897
 5347SOL     OW16939   0.676   2.746   2.705
 5347SOL    HW116940   0.763   2.719   2.747
 5347SOL    HW216941   0.617   2.665   2.696
 5348SOL     OW16942   0.131   1.879   0.893
 5348SOL    HW116943   0.071   1.806   0.925
 5348SOL    HW216944   0.158   1.861   0.798
 5349SOL     OW16945   1.339   2.531   0.197
 5349SOL    HW116946   1.360   2.544   0.294
 5349SOL    HW216947   1.424   2.508   0.148
 5350SOL     OW16948   1.476   0.545   5.473
 5350SOL    HW116949   1.400   0.495   5.515
 5350SOL    HW216950   1.441   0.623   5.421
 5351SOL     OW16951   5.879   5.590   1.677
 5351SOL    HW116952   5.939   5.558   1.750
 5351SOL    HW216953   5.932   5.606   1.594
 5352SOL     OW16954   1.697   5.627   4.058
 5352SOL    HW116955   1.762   5.685   4.008
 5352SOL    HW216956   1.609   5.628   4.011
 5353SOL     OW16957   3.838   5.575   3.909
 5353SOL    HW116958   3.823   5.482   3.943
 5353SOL    HW216959   3.761   5.633   3.937
 5354SOL     OW16960   2.422   5.161   1.469
 5354SOL    HW116961   2.397   5.067   1.493
 5354SOL    HW216962   2.495   5.193   1.528
 5355SOL     OW16963   5.129   2.877   3.888
 5355SOL    HW116964   5.186   2.797   3.904
 5355SOL    HW216965   5.187   2.958   3.876
 5356SOL     OW16966   6.060   4.523   1.349
 5356SOL    HW116967   5.983   4.493   1.406
 5356SOL    HW216968   6.087   4.449   1.288
 5357SOL     OW16969   3.598   6.640   0.162
 5357SOL    HW116970   3.595   6.568   0.232
 5357SOL    HW216971   3.693   6.654   0.132
 5358SOL     OW16972   4.595   1.227   0.378
 5358SOL    HW116973   4.646   1.298   0.330
 5358SOL    HW216974   4.499   1.230   0.351
 5359SOL     OW16975   1.974   1.716   0.044
 5359SOL    HW116976   2.054   1.768   0.012
 5359SOL    HW216977   1.935   1.761   0.125
 5360SOL     OW16978   4.493   6.610   5.410
 5360SOL    HW116979   4.439   6.689   5.380
 5360SOL    HW216980   4.436   6.528   5.407
 5361SOL     OW16981   2.036   0.034   4.889
 5361SOL    HW116982   2.058   6.966   4.862
 5361SOL    HW216983   1.941   0.053   4.868
 5362SOL     OW16984   5.832   5.169   3.431
 5362SOL    HW116985   5.930   5.151   3.439
 5362SOL    HW216986   5.813   5.264   3.455
 5363SOL     OW16987   0.458   6.992   6.536
 5363SOL    HW116988   0.453   6.970   6.439
 5363SOL    HW216989   0.395   6.934   6.588
 5364SOL     OW16990   7.009   5.478   1.538
 5364SOL    HW116991   6.969   5.527   1.616
 5364SOL    HW216992   6.974   5.384   1.536
 5365SOL     OW16993   3.619   3.085   6.985
 5365SOL    HW116994   3.706   3.130   6.965
 5365SOL    HW216995   3.599   3.019   6.912
 5366SOL     OW16996   4.977   6.090   1.670
 5366SOL    HW116997   5.077   6.089   1.682
 5366SOL    HW216998   4.946   6.184   1.655
 5367SOL     OW16999   0.648   5.742   0.730
 5367SOL    HW117000   0.640   5.773   0.636
 5367SOL    HW217001   0.693   5.812   0.785
 5368SOL     OW17002   5.232   0.417   2.562
 5368SOL    HW117003   5.291   0.451   2.489
 5368SOL    HW217004   5.146   0.468   2.562
 5369SOL     OW17005   3.338   0.051   2.230
 5369SOL    HW117006   3.245   0.054   2.195
 5369SOL    HW217007   3.338   0.007   2.320
 5370SOL     OW17008   4.506   2.876   1.300
 5370SOL    HW117009   4.470   2.839   1.386
 5370SOL    HW217010   4.605   2.867   1.299
 5371SOL     OW17011   1.648   4.120   4.458
 5371SOL    HW117012   1.613   4.143   4.367
 5371SOL    HW217013   1.741   4.085   4.450
 5372SOL     OW17014   2.216   6.126   3.740
 5372SOL    HW117015   2.177   6.034   3.732
 5372SOL    HW217016   2.217   6.153   3.836
 5373SOL     OW17017   3.387   5.890   3.767
 5373SOL    HW117018   3.381   5.831   3.848
 5373SOL    HW217019   3.440   5.843   3.696
 5374SOL     OW17020   1.061   4.181   0.304
 5374SOL    HW117021   1.098   4.264   0.344
 5374SOL    HW217022   0.984   4.204   0.244
 5375SOL     OW17023   1.596   4.596   4.512
 5375SOL    HW117024   1.570   4.531   4.583
 5375SOL    HW217025   1.687   4.573   4.478
 5376SOL     OW17026   2.124   3.188   0.667
 5376SOL    HW117027   2.093   3.220   0.757
 5376SOL    HW217028   2.161   3.265   0.615
 5377SOL     OW17029   0.341   0.248   1.742
 5377SOL    HW117030   0.430   0.288   1.766
 5377SOL    HW217031   0.268   0.298   1.789
 5378SOL     OW17032   0.287   0.297   2.216
 5378SOL    HW117033   0.210   0.265   2.271
 5378SOL    HW217034   0.336   0.219   2.179
 5379SOL     OW17035   1.725   5.656   5.194
 5379SOL    HW117036   1.702   5.634   5.100
 5379SOL    HW217037   1.662   5.726   5.228
 5380SOL     OW17038   1.691   1.571   3.637
 5380SOL    HW117039   1.737   1.643   3.586
 5380SOL    HW217040   1.713   1.482   3.596
 5381SOL     OW17041   6.321   4.026   1.091
 5381SOL    HW117042   6.270   3.945   1.117
 5381SOL    HW217043   6.263   4.107   1.099
 5382SOL     OW17044   3.249   0.222   2.504
 5382SOL    HW117045   3.226   0.292   2.572
 5382SOL    HW217046   3.273   0.266   2.417
 5383SOL     OW17047   2.392   2.461   5.257
 5383SOL    HW117048   2.401   2.558   5.232
 5383SOL    HW217049   2.473   2.411   5.227
 5384SOL     OW17050   5.871   0.232   4.241
 5384SOL    HW117051   5.825   0.285   4.170
 5384SOL    HW217052   5.924   0.294   4.299
 5385SOL     OW17053   3.123   3.047   3.972
 5385SOL    HW117054   3.051   3.113   3.996
 5385SOL    HW217055   3.148   3.059   3.876
 5386SOL     OW17056   4.732   0.229   4.545
 5386SOL    HW117057   4.828   0.214   4.525
 5386SOL    HW217058   4.723   0.294   4.620
 5387SOL     OW17059   2.851   6.109   3.645
 5387SOL    HW117060   2.874   6.089   3.550
 5387SOL    HW217061   2.933   6.134   3.696
 5388SOL     OW17062   6.102   0.450   3.711
 5388SOL    HW117063   6.016   0.444   3.763
 5388SOL    HW217064   6.177   0.414   3.766
 5389SOL     OW17065   4.983   0.802   1.781
 5389SOL    HW117066   5.004   0.725   1.721
 5389SOL    HW217067   4.975   0.770   1.875
 5390SOL     OW17068   4.704   4.117   3.187
 5390SOL    HW117069   4.727   4.211   3.162
 5390SOL    HW217070   4.608   4.099   3.165
 5391SOL     OW17071   1.765   2.296   1.230
 5391SOL    HW117072   1.761   2.338   1.320
 5391SOL    HW217073   1.812   2.208   1.236
 5392SOL     OW17074   5.932   3.000   1.012
 5392SOL    HW117075   5.847   2.980   0.962
 5392SOL    HW217076   5.965   3.091   0.987
 5393SOL     OW17077   5.342   0.063   6.706
 5393SOL    HW117078   5.406   0.027   6.639
 5393SOL    HW217079   5.315   7.016   6.769
 5394SOL     OW17080   6.836   4.174   6.983
 5394SOL    HW117081   6.831   4.273   6.996
 5394SOL    HW217082   6.864   4.130   0.042
 5395SOL     OW17083   4.889   1.044   2.027
 5395SOL    HW117084   4.921   1.040   2.121
 5395SOL    HW217085   4.798   1.003   2.021
 5396SOL     OW17086   4.834   4.438   2.741
 5396SOL    HW117087   4.893   4.446   2.661
 5396SOL    HW217088   4.842   4.519   2.797
 5397SOL     OW17089   0.116   3.024   2.150
 5397SOL    HW117090   0.023   3.041   2.180
 5397SOL    HW217091   0.179   3.082   2.201
 5398SOL     OW17092   3.308   1.719   2.465
 5398SOL    HW117093   3.307   1.806   2.417
 5398SOL    HW217094   3.336   1.734   2.560
 5399SOL     OW17095   2.432   5.533   6.597
 5399SOL    HW117096   2.427   5.623   6.554
 5399SOL    HW217097   2.525   5.518   6.632
 5400SOL     OW17098   2.738   3.928   0.749
 5400SOL    HW117099   2.684   3.864   0.803
 5400SOL    HW217100   2.816   3.880   0.710
 5401SOL     OW17101   5.765   3.459   1.883
 5401SOL    HW117102   5.674   3.417   1.890
 5401SOL    HW217103   5.831   3.391   1.852
 5402SOL     OW17104   2.154   4.535   1.799
 5402SOL    HW117105   2.214   4.501   1.870
 5402SOL    HW217106   2.073   4.577   1.841
 5403SOL     OW17107   6.346   2.286   6.433
 5403SOL    HW117108   6.291   2.205   6.415
 5403SOL    HW217109   6.293   2.368   6.409
 5404SOL     OW17110   0.971   1.372   3.048
 5404SOL    HW117111   0.953   1.307   2.975
 5404SOL    HW217112   0.884   1.398   3.091
 5405SOL     OW17113   5.763   6.040   6.849
 5405SOL    HW117114   5.790   6.031   6.753
 5405SOL    HW217115   5.681   5.985   6.865
 5406SOL     OW17116   2.541   0.648   0.097
 5406SOL    HW117117   2.521   0.621   0.002
 5406SOL    HW217118   2.498   0.583   0.160
 5407SOL     OW17119   4.094   3.085   1.190
 5407SOL    HW117120   4.159   3.011   1.204
 5407SOL    HW217121   4.135   3.172   1.218
 5408SOL     OW17122   3.180   1.008   6.502
 5408SOL    HW117123   3.091   1.001   6.547
 5408SOL    HW217124   3.177   1.082   6.435
 5409SOL     OW17125   6.002   1.188   3.898
 5409SOL    HW117126   6.001   1.235   3.986
 5409SOL    HW217127   5.912   1.195   3.856
 5410SOL     OW17128   2.537   2.273   1.687
 5410SOL    HW117129   2.602   2.349   1.680
 5410SOL    HW217130   2.586   2.187   1.695
 5411SOL     OW17131   6.311   5.444   5.613
 5411SOL    HW117132   6.258   5.374   5.565
 5411SOL    HW217133   6.346   5.510   5.547
 5412SOL     OW17134   3.896   1.095   6.652
 5412SOL    HW117135   3.843   1.059   6.728
 5412SOL    HW217136   3.865   1.054   6.567
 5413SOL     OW17137   2.098   1.434   1.250
 5413SOL    HW117138   2.048   1.401   1.331
 5413SOL    HW217139   2.116   1.532   1.260
 5414SOL     OW17140   5.131   2.218   4.964
 5414SOL    HW117141   5.051   2.277   4.970
 5414SOL    HW217142   5.179   2.217   5.052
 5415SOL     OW17143   1.537   5.781   0.835
 5415SOL    HW117144   1.608   5.827   0.890
 5415SOL    HW217145   1.476   5.731   0.896
 5416SOL     OW17146   4.774   5.235   5.975
 5416SOL    HW117147   4.749   5.191   6.061
 5416SOL    HW217148   4.872   5.255   5.975
 5417SOL     OW17149   3.952   6.646   5.329
 5417SOL    HW117150   4.042   6.622   5.292
 5417SOL    HW217151   3.945   6.613   5.423
 5418SOL     OW17152   3.559   6.422   3.584
 5418SOL    HW117153   3.541   6.427   3.683
 5418SOL    HW217154   3.549   6.513   3.544
 5419SOL     OW17155   2.628   5.260   0.390
 5419SOL    HW117156   2.672   5.257   0.300
 5419SOL    HW217157   2.666   5.336   0.443
 5420SOL     OW17158   1.113   2.211   2.349
 5420SOL    HW117159   1.166   2.126   2.350
 5420SOL    HW217160   1.138   2.266   2.269
 5421SOL     OW17161   2.197   2.935   2.664
 5421SOL    HW117162   2.219   2.854   2.717
 5421SOL    HW217163   2.197   3.015   2.724
 5422SOL     OW17164   0.899   5.577   0.203
 5422SOL    HW117165   0.914   5.636   0.124
 5422SOL    HW217166   0.824   5.514   0.184
 5423SOL     OW17167   5.827   2.704   0.232
 5423SOL    HW117168   5.761   2.678   0.161
 5423SOL    HW217169   5.796   2.668   0.320
 5424SOL     OW17170   5.091   3.023   4.320
 5424SOL    HW117171   5.129   3.034   4.228
 5424SOL    HW217172   5.111   2.931   4.354
 5425SOL     OW17173   4.136   1.577   4.014
 5425SOL    HW117174   4.216   1.625   4.049
 5425SOL    HW217175   4.089   1.530   4.089
 5426SOL     OW17176   6.461   5.149   3.958
 5426SOL    HW117177   6.465   5.049   3.946
 5426SOL    HW217178   6.492   5.193   3.874
 5427SOL     OW17179   4.655   4.761   0.196
 5427SOL    HW117180   4.680   4.780   0.102
 5427SOL    HW217181   4.727   4.794   0.257
 5428SOL     OW17182   0.113   0.085   1.631
 5428SOL    HW117183   0.057   0.148   1.578
 5428SOL    HW217184   0.167   0.137   1.698
 5429SOL     OW17185   1.385   1.898   6.458
 5429SOL    HW117186   1.287   1.913   6.467
 5429SOL    HW217187   1.410   1.813   6.504
 5430SOL     OW17188   0.551   3.470   6.009
 5430SOL    HW117189   0.598   3.400   6.062
 5430SOL    HW217190   0.617   3.536   5.975
 5431SOL     OW17191   3.404   5.594   0.522
 5431SOL    HW117192   3.336   5.662   0.494
 5431SOL    HW217193   3.458   5.566   0.443
 5432SOL     OW17194   4.942   6.584   6.808
 5432SOL    HW117195   4.866   6.537   6.763
 5432SOL    HW217196   4.915   6.612   6.900
 5433SOL     OW17197   0.437   1.876   3.833
 5433SOL    HW117198   0.370   1.817   3.879
 5433SOL    HW217199   0.528   1.837   3.845
 5434SOL     OW17200   4.253   0.745   5.087
 5434SOL    HW117201   4.247   0.845   5.097
 5434SOL    HW217202   4.161   0.706   5.093
 5435SOL     OW17203   5.107   1.045   1.876
 5435SOL    HW117204   5.094   0.978   1.803
 5435SOL    HW217205   5.033   1.037   1.943
 5436SOL     OW17206   5.023   3.841   3.730
 5436SOL    HW117207   5.033   3.941   3.735
 5436SOL    HW217208   4.979   3.808   3.813
 5437SOL     OW17209   3.398   4.859   6.205
 5437SOL    HW117210   3.410   4.952   6.241
 5437SOL    HW217211   3.337   4.807   6.265
 5438SOL     OW17212   6.555   3.700   2.457
 5438SOL    HW117213   6.622   3.635   2.422
 5438SOL    HW217214   6.601   3.769   2.512
 5439SOL     OW17215   1.284   2.446   1.069
 5439SOL    HW117216   1.383   2.452   1.078
 5439SOL    HW217217   1.246   2.537   1.051
 5440SOL     OW17218   0.722   1.275   2.017
 5440SOL    HW117219   0.821   1.282   2.029
 5440SOL    HW217220   0.699   1.182   1.987
 5441SOL     OW17221   4.868   2.324   2.793
 5441SOL    HW117222   4.859   2.335   2.694
 5441SOL    HW217223   4.946   2.376   2.826
 5442SOL     OW17224   3.394   5.771   3.325
 5442SOL    HW117225   3.407   5.673   3.341
 5442SOL    HW217226   3.446   5.798   3.243
 5443SOL     OW17227   2.516   0.942   3.800
 5443SOL    HW117228   2.480   0.968   3.710
 5443SOL    HW217229   2.487   1.009   3.868
 5444SOL     OW17230   1.737   0.568   4.459
 5444SOL    HW117231   1.770   0.483   4.419
 5444SOL    HW217232   1.640   0.559   4.481
 5445SOL     OW17233   6.155   3.729   3.665
 5445SOL    HW117234   6.159   3.814   3.717
 5445SOL    HW217235   6.131   3.654   3.727
 5446SOL     OW17236   6.485   5.413   5.150
 5446SOL    HW117237   6.425   5.447   5.222
 5446SOL    HW217238   6.580   5.414   5.182
 5447SOL     OW17239   2.418   1.448   6.430
 5447SOL    HW117240   2.376   1.498   6.354
 5447SOL    HW217241   2.515   1.468   6.434
 5448SOL     OW17242   4.652   2.776   4.899
 5448SOL    HW117243   4.567   2.772   4.847
 5448SOL    HW217244   4.683   2.683   4.919
 5449SOL     OW17245   1.822   2.419   6.810
 5449SOL    HW117246   1.860   2.350   6.872
 5449SOL    HW217247   1.826   2.384   6.716
 5450SOL     OW17248   1.694   0.690   2.010
 5450SOL    HW117249   1.667   0.692   2.106
 5450SOL    HW217250   1.698   0.596   1.978
 5451SOL     OW17251   0.972   6.282   3.215
 5451SOL    HW117252   0.930   6.209   3.162
 5451SOL    HW217253   1.007   6.352   3.153
 5452SOL     OW17254   2.437   4.431   6.553
 5452SOL    HW117255   2.449   4.491   6.474
 5452SOL    HW217256   2.466   4.338   6.529
 5453SOL     OW17257   5.670   4.640   1.621
 5453SOL    HW117258   5.572   4.633   1.641
 5453SOL    HW217259   5.691   4.735   1.597
 5454SOL     OW17260   6.933   4.065   6.510
 5454SOL    HW117261   6.954   4.098   6.603
 5454SOL    HW217262   6.910   3.968   6.514
 5455SOL     OW17263   6.152   3.402   0.613
 5455SOL    HW117264   6.121   3.496   0.600
 5455SOL    HW217265   6.152   3.380   0.710
 5456SOL     OW17266   2.894   0.480   6.581
 5456SOL    HW117267   2.941   0.559   6.541
 5456SOL    HW217268   2.942   0.396   6.556
 5457SOL     OW17269   6.212   2.667   6.781
 5457SOL    HW117270   6.198   2.722   6.864
 5457SOL    HW217271   6.124   2.639   6.743
 5458SOL     OW17272   0.345   4.366   0.117
 5458SOL    HW117273   0.277   4.339   0.185
 5458SOL    HW217274   0.362   4.291   0.054
 5459SOL     OW17275   2.432   3.964   6.434
 5459SOL    HW117276   2.502   3.899   6.404
 5459SOL    HW217277   2.345   3.916   6.448
 5460SOL     OW17278   3.494   0.349   3.175
 5460SOL    HW117279   3.447   0.289   3.240
 5460SOL    HW217280   3.441   0.433   3.163
 5461SOL     OW17281   5.936   6.872   5.271
 5461SOL    HW117282   5.973   6.939   5.206
 5461SOL    HW217283   5.934   6.913   5.362
 5462SOL     OW17284   1.002   0.126   6.700
 5462SOL    HW117285   0.990   0.153   6.604
 5462SOL    HW217286   1.049   0.198   6.750
 5463SOL     OW17287   6.651   2.481   0.279
 5463SOL    HW117288   6.687   2.538   0.206
 5463SOL    HW217289   6.564   2.440   0.250
 5464SOL     OW17290   1.082   1.263   3.924
 5464SOL    HW117291   1.129   1.346   3.953
 5464SOL    HW217292   1.010   1.240   3.989
 5465SOL     OW17293   4.040   6.013   3.373
 5465SOL    HW117294   4.056   6.020   3.275
 5465SOL    HW217295   3.984   5.932   3.392
 5466SOL     OW17296   5.315   3.962   5.360
 5466SOL    HW117297   5.359   3.953   5.271
 5466SOL    HW217298   5.363   4.030   5.415
 5467SOL     OW17299   5.205   2.738   3.275
 5467SOL    HW117300   5.201   2.800   3.354
 5467SOL    HW217301   5.113   2.717   3.244
 5468SOL     OW17302   5.580   2.168   4.707
 5468SOL    HW117303   5.629   2.168   4.619
 5468SOL    HW217304   5.497   2.224   4.698
 5469SOL     OW17305   3.933   5.582   6.571
 5469SOL    HW117306   3.972   5.516   6.507
 5469SOL    HW217307   3.835   5.565   6.583
 5470SOL     OW17308   3.366   6.113   2.690
 5470SOL    HW117309   3.389   6.111   2.787
 5470SOL    HW217310   3.317   6.029   2.665
 5471SOL     OW17311   5.071   0.193   2.470
 5471SOL    HW117312   5.103   0.101   2.494
 5471SOL    HW217313   5.135   0.261   2.507
 5472SOL     OW17314   4.098   3.904   5.808
 5472SOL    HW117315   4.023   3.868   5.864
 5472SOL    HW217316   4.184   3.896   5.859
 5473SOL     OW17317   0.076   3.674   3.100
 5473SOL    HW117318   0.141   3.690   3.026
 5473SOL    HW217319   0.106   3.597   3.156
 5474SOL     OW17320   1.825   4.470   4.632
 5474SOL    HW117321   1.907   4.497   4.683
 5474SOL    HW217322   1.850   4.446   4.538
 5475SOL     OW17323   2.377   2.498   1.503
 5475SOL    HW117324   2.418   2.587   1.522
 5475SOL    HW217325   2.351   2.454   1.589
 5476SOL     OW17326   1.738   4.322   5.573
 5476SOL    HW117327   1.776   4.311   5.665
 5476SOL    HW217328   1.706   4.416   5.561
 5477SOL     OW17329   2.207   4.425   3.707
 5477SOL    HW117330   2.291   4.427   3.652
 5477SOL    HW217331   2.128   4.416   3.647
 5478SOL     OW17332   4.270   5.450   5.158
 5478SOL    HW117333   4.340   5.393   5.115
 5478SOL    HW217334   4.210   5.487   5.087
 5479SOL     OW17335   5.015   1.336   6.163
 5479SOL    HW117336   5.096   1.383   6.197
 5479SOL    HW217337   4.934   1.373   6.207
 5480SOL     OW17338   6.896   3.951   3.037
 5480SOL    HW117339   6.876   3.853   3.032
 5480SOL    HW217340   6.995   3.965   3.036
 5481SOL     OW17341   4.292   1.418   4.331
 5481SOL    HW117342   4.308   1.511   4.365
 5481SOL    HW217343   4.286   1.355   4.408
 5482SOL     OW17344   3.569   4.639   1.371
 5482SOL    HW117345   3.582   4.620   1.274
 5482SOL    HW217346   3.549   4.736   1.384
 5483SOL     OW17347   0.016   2.085   5.830
 5483SOL    HW117348   0.002   2.179   5.861
 5483SOL    HW217349   6.997   2.071   5.742
 5484SOL     OW17350   4.135   0.902   4.790
 5484SOL    HW117351   4.178   0.922   4.878
 5484SOL    HW217352   4.176   0.959   4.719
 5485SOL     OW17353   4.351   0.365   5.483
 5485SOL    HW117354   4.392   0.369   5.392
 5485SOL    HW217355   4.298   0.281   5.493
 5486SOL     OW17356   2.962   5.488   5.527
 5486SOL    HW117357   2.949   5.568   5.469
 5486SOL    HW217358   2.911   5.500   5.612
 5487SOL     OW17359   3.983   3.619   6.703
 5487SOL    HW117360   3.933   3.539   6.736
 5487SOL    HW217361   4.059   3.638   6.765
 5488SOL     OW17362   6.318   0.655   1.485
 5488SOL    HW117363   6.371   0.573   1.508
 5488SOL    HW217364   6.221   0.631   1.477
 5489SOL     OW17365   0.051   3.466   1.446
 5489SOL    HW117366   0.148   3.447   1.456
 5489SOL    HW217367   0.011   3.486   1.535
 5490SOL     OW17368   2.367   0.139   2.271
 5490SOL    HW117369   2.457   0.124   2.230
 5490SOL    HW217370   2.296   0.124   2.201
 5491SOL     OW17371   0.493   2.819   0.155
 5491SOL    HW117372   0.404   2.777   0.176
 5491SOL    HW217373   0.519   2.795   0.061
 5492SOL     OW17374   0.488   3.017   5.961
 5492SOL    HW117375   0.518   3.040   6.054
 5492SOL    HW217376   0.520   3.087   5.898
 5493SOL     OW17377   4.127   3.710   3.340
 5493SOL    HW117378   4.173   3.662   3.265
 5493SOL    HW217379   4.081   3.791   3.304
 5494SOL     OW17380   6.851   3.986   5.285
 5494SOL    HW117381   6.909   4.056   5.327
 5494SOL    HW217382   6.905   3.932   5.221
 5495SOL     OW17383   5.731   0.611   1.324
 5495SOL    HW117384   5.638   0.614   1.287
 5495SOL    HW217385   5.797   0.620   1.250
 5496SOL     OW17386   4.508   1.116   3.672
 5496SOL    HW117387   4.523   1.050   3.598
 5496SOL    HW217388   4.431   1.086   3.728
 5497SOL     OW17389   0.519   1.498   5.523
 5497SOL    HW117390   0.581   1.571   5.549
 5497SOL    HW217391   0.567   1.432   5.465
 5498SOL     OW17392   6.747   4.977   2.251
 5498SOL    HW117393   6.667   4.970   2.311
 5498SOL    HW217394   6.745   4.904   2.183
 5499SOL     OW17395   0.863   0.306   3.727
 5499SOL    HW117396   0.768   0.303   3.757
 5499SOL    HW217397   0.871   0.369   3.650
 5500SOL     OW17398   1.142   0.759   0.077
 5500SOL    HW117399   1.116   0.663   0.068
 5500SOL    HW217400   1.142   0.802   7.012
 5501SOL     OW17401   4.001   1.799   0.888
 5501SOL    HW117402   3.918   1.811   0.833
 5501SOL    HW217403   3.978   1.804   0.985
 5502SOL     OW17404   5.790   3.475   6.457
 5502SOL    HW117405   5.768   3.383   6.423
 5502SOL    HW217406   5.724   3.540   6.422
 5503SOL     OW17407   0.115   4.482   0.897
 5503SOL    HW117408   0.174   4.428   0.836
 5503SOL    HW217409   0.019   4.461   0.878
 5504SOL     OW17410   4.739   1.195   5.174
 5504SOL    HW117411   4.749   1.225   5.079
 5504SOL    HW217412   4.803   1.119   5.191
 5505SOL     OW17413   2.142   4.952   3.315
 5505SOL    HW117414   2.137   5.051   3.303
 5505SOL    HW217415   2.145   4.931   3.412
 5506SOL     OW17416   0.281   3.376   0.229
 5506SOL    HW117417   0.278   3.307   0.301
 5506SOL    HW217418   0.328   3.339   0.149
 5507SOL     OW17419   3.971   0.678   5.049
 5507SOL    HW117420   3.911   0.754   5.025
 5507SOL    HW217421   3.958   0.603   4.984
 5508SOL     OW17422   1.121   0.755   0.528
 5508SOL    HW117423   1.023   0.756   0.547
 5508SOL    HW217424   1.168   0.820   0.587
 5509SOL     OW17425   0.728   5.833   0.263
 5509SOL    HW117426   0.666   5.802   0.335
 5509SOL    HW217427   0.773   5.754   0.221
 5510SOL     OW17428   4.473   5.213   6.621
 5510SOL    HW117429   4.431   5.148   6.683
 5510SOL    HW217430   4.439   5.305   6.640
 5511SOL     OW17431   1.128   1.274   5.205
 5511SOL    HW117432   1.188   1.209   5.158
 5511SOL    HW217433   1.173   1.363   5.209
 5512SOL     OW17434   3.404   1.289   0.667
 5512SOL    HW117435   3.456   1.342   0.734
 5512SOL    HW217436   3.313   1.269   0.704
 5513SOL     OW17437   3.661   5.118   5.594
 5513SOL    HW117438   3.659   5.032   5.645
 5513SOL    HW217439   3.595   5.182   5.633
 5514SOL     OW17440   3.445   0.433   5.099
 5514SOL    HW117441   3.473   0.528   5.087
 5514SOL    HW217442   3.494   0.393   5.176
 5515SOL     OW17443   1.763   5.685   1.816
 5515SOL    HW117444   1.695   5.628   1.771
 5515SOL    HW217445   1.745   5.781   1.794
 5516SOL     OW17446   2.256   2.780   4.852
 5516SOL    HW117447   2.293   2.839   4.924
 5516SOL    HW217448   2.244   2.834   4.768
 5517SOL     OW17449   2.046   3.671   1.889
 5517SOL    HW117450   1.970   3.653   1.952
 5517SOL    HW217451   2.117   3.602   1.903
 5518SOL     OW17452   6.247   4.849   5.633
 5518SOL    HW117453   6.295   4.929   5.670
 5518SOL    HW217454   6.312   4.774   5.622
 5519SOL     OW17455   5.583   3.324   3.434
 5519SOL    HW117456   5.588   3.245   3.373
 5519SOL    HW217457   5.648   3.393   3.403
 5520SOL     OW17458   5.728   6.463   1.885
 5520SOL    HW117459   5.777   6.526   1.825
 5520SOL    HW217460   5.655   6.511   1.932
 5521SOL     OW17461   5.785   5.707   1.309
 5521SOL    HW117462   5.815   5.620   1.348
 5521SOL    HW217463   5.864   5.766   1.294
 5522SOL     OW17464   6.447   5.510   1.520
 5522SOL    HW117465   6.519   5.446   1.547
 5522SOL    HW217466   6.410   5.484   1.432
 5523SOL     OW17467   4.871   1.068   2.351
 5523SOL    HW117468   4.800   1.138   2.348
 5523SOL    HW217469   4.960   1.111   2.362
 5524SOL     OW17470   3.256   7.010   4.484
 5524SOL    HW117471   3.261   0.084   4.490
 5524SOL    HW217472   3.327   6.977   4.422
 5525SOL     OW17473   0.786   2.536   0.409
 5525SOL    HW117474   0.840   2.457   0.436
 5525SOL    HW217475   0.727   2.511   0.332
 5526SOL     OW17476   4.309   4.632   2.917
 5526SOL    HW117477   4.343   4.576   2.842
 5526SOL    HW217478   4.387   4.671   2.967
 5527SOL     OW17479   4.851   3.899   3.146
 5527SOL    HW117480   4.785   3.974   3.152
 5527SOL    HW217481   4.940   3.935   3.118
 5528SOL     OW17482   1.613   1.086   1.209
 5528SOL    HW117483   1.683   1.156   1.193
 5528SOL    HW217484   1.623   1.050   1.302
 5529SOL     OW17485   2.754   6.932   3.656
 5529SOL    HW117486   2.843   6.932   3.611
 5529SOL    HW217487   2.740   6.846   3.704
 5530SOL     OW17488   6.366   2.285   1.527
 5530SOL    HW117489   6.346   2.193   1.558
 5530SOL    HW217490   6.315   2.304   1.443
 5531SOL     OW17491   3.883   3.634   1.551
 5531SOL    HW117492   3.887   3.589   1.641
 5531SOL    HW217493   3.855   3.729   1.563
 5532SOL     OW17494   1.904   2.993   0.836
 5532SOL    HW117495   1.981   2.998   0.773
 5532SOL    HW217496   1.881   2.897   0.854
 5533SOL     OW17497   4.882   1.708   3.628
 5533SOL    HW117498   4.851   1.731   3.721
 5533SOL    HW217499   4.832   1.628   3.595
 5534SOL     OW17500   0.979   0.993   6.337
 5534SOL    HW117501   0.924   1.045   6.403
 5534SOL    HW217502   0.983   1.043   6.251
 5535SOL     OW17503   0.972   1.209   2.802
 5535SOL    HW117504   0.913   1.278   2.760
 5535SOL    HW217505   1.050   1.190   2.743
 5536SOL     OW17506   3.758   0.462   4.277
 5536SOL    HW117507   3.791   0.472   4.371
 5536SOL    HW217508   3.786   0.373   4.242
 5537SOL     OW17509   3.666   1.823   2.622
 5537SOL    HW117510   3.758   1.810   2.659
 5537SOL    HW217511   3.605   1.755   2.661
 5538SOL     OW17512   3.974   6.037   4.583
 5538SOL    HW117513   3.965   6.040   4.484
 5538SOL    HW217514   3.912   5.969   4.621
 5539SOL     OW17515   1.890   3.580   1.449
 5539SOL    HW117516   1.814   3.530   1.406
 5539SOL    HW217517   1.956   3.515   1.487
 5540SOL     OW17518   4.565   4.751   3.927
 5540SOL    HW117519   4.624   4.691   3.982
 5540SOL    HW217520   4.496   4.695   3.880
 5541SOL     OW17521   4.910   0.850   6.438
 5541SOL    HW117522   4.865   0.779   6.384
 5541SOL    HW217523   4.917   0.934   6.384
 5542SOL     OW17524   4.011   3.383   6.239
 5542SOL    HW117525   4.032   3.440   6.160
 5542SOL    HW217526   4.058   3.419   6.319
 5543SOL     OW17527   5.770   3.934   6.955
 5543SOL    HW117528   5.681   3.966   6.924
 5543SOL    HW217529   5.762   3.840   6.990
 5544SOL     OW17530   5.412   0.301   6.482
 5544SOL    HW117531   5.337   0.340   6.429
 5544SOL    HW217532   5.392   0.205   6.502
 5545SOL     OW17533   4.051   1.894   3.432
 5545SOL    HW117534   3.997   1.960   3.484
 5545SOL    HW217535   4.148   1.917   3.441
 5546SOL     OW17536   1.243   5.502   5.692
 5546SOL    HW117537   1.301   5.425   5.665
 5546SOL    HW217538   1.149   5.471   5.703
 5547SOL     OW17539   3.112   6.025   4.886
 5547SOL    HW117540   3.083   6.117   4.861
 5547SOL    HW217541   3.083   6.004   4.979
 5548SOL     OW17542   6.285   3.602   5.602
 5548SOL    HW117543   6.349   3.678   5.595
 5548SOL    HW217544   6.322   3.533   5.665
 5549SOL     OW17545   3.425   5.031   6.897
 5549SOL    HW117546   3.394   5.099   6.832
 5549SOL    HW217547   3.374   4.946   6.884
 5550SOL     OW17548   2.608   5.817   1.815
 5550SOL    HW117549   2.562   5.898   1.849
 5550SOL    HW217550   2.541   5.750   1.785
 5551SOL     OW17551   1.510   0.582   3.167
 5551SOL    HW117552   1.596   0.632   3.177
 5551SOL    HW217553   1.443   0.638   3.118
 5552SOL     OW17554   0.194   1.632   0.731
 5552SOL    HW117555   0.124   1.651   0.663
 5552SOL    HW217556   0.272   1.692   0.716
 5553SOL     OW17557   4.458   6.801   6.846
 5553SOL    HW117558   4.423   6.707   6.855
 5553SOL    HW217559   4.516   6.822   6.925
 5554SOL     OW17560   3.089   2.512   5.384
 5554SOL    HW117561   3.003   2.463   5.396
 5554SOL    HW217562   3.143   2.468   5.313
 5555SOL     OW17563   0.477   5.403   3.061
 5555SOL    HW117564   0.527   5.482   3.096
 5555SOL    HW217565   0.382   5.406   3.094
 5556SOL     OW17566   1.077   2.143   4.873
 5556SOL    HW117567   1.103   2.239   4.862
 5556SOL    HW217568   1.119   2.107   4.957
 5557SOL     OW17569   2.602   5.973   3.648
 5557SOL    HW117570   2.520   6.002   3.598
 5557SOL    HW217571   2.669   6.048   3.649
 5558SOL     OW17572   5.214   2.899   5.094
 5558SOL    HW117573   5.283   2.836   5.132
 5558SOL    HW217574   5.250   2.992   5.097
 5559SOL     OW17575   2.425   0.207   0.942
 5559SOL    HW117576   2.518   0.210   0.979
 5559SOL    HW217577   2.384   0.118   0.960
 5560SOL     OW17578   0.410   1.041   2.817
 5560SOL    HW117579   0.498   1.036   2.771
 5560SOL    HW217580   0.417   1.000   2.908
 5561SOL     OW17581   1.590   3.232   3.869
 5561SOL    HW117582   1.526   3.291   3.918
 5561SOL    HW217583   1.681   3.242   3.909
 5562SOL     OW17584   1.994   2.387   6.319
 5562SOL    HW117585   2.017   2.292   6.342
 5562SOL    HW217586   1.991   2.397   6.219
 5563SOL     OW17587   4.328   6.447   2.364
 5563SOL    HW117588   4.291   6.530   2.407
 5563SOL    HW217589   4.253   6.390   2.331
 5564SOL     OW17590   5.012   4.060   1.828
 5564SOL    HW117591   4.995   4.007   1.744
 5564SOL    HW217592   4.924   4.088   1.867
 5565SOL     OW17593   4.478   2.261   5.642
 5565SOL    HW117594   4.558   2.308   5.680
 5565SOL    HW217595   4.394   2.303   5.679
 5566SOL     OW17596   1.965   5.508   0.744
 5566SOL    HW117597   2.003   5.415   0.741
 5566SOL    HW217598   2.036   5.573   0.716
 5567SOL     OW17599   1.840   5.644   1.028
 5567SOL    HW117600   1.881   5.594   0.952
 5567SOL    HW217601   1.781   5.582   1.080
 5568SOL     OW17602   4.504   1.333   0.849
 5568SOL    HW117603   4.414   1.298   0.872
 5568SOL    HW217604   4.564   1.326   0.928
 5569SOL     OW17605   4.121   1.700   1.499
 5569SOL    HW117606   4.178   1.770   1.540
 5569SOL    HW217607   4.137   1.698   1.400
 5570SOL     OW17608   6.262   4.605   5.300
 5570SOL    HW117609   6.163   4.590   5.300
 5570SOL    HW217610   6.296   4.603   5.206
 5571SOL     OW17611   0.284   5.880   0.533
 5571SOL    HW117612   0.372   5.835   0.545
 5571SOL    HW217613   0.299   5.971   0.493
 5572SOL     OW17614   4.115   2.373   6.249
 5572SOL    HW117615   4.109   2.281   6.210
 5572SOL    HW217616   4.033   2.425   6.223
 5573SOL     OW17617   1.459   3.997   0.614
 5573SOL    HW117618   1.411   3.909   0.625
 5573SOL    HW217619   1.446   4.031   0.521
 5574SOL     OW17620   0.456   6.620   4.634
 5574SOL    HW117621   0.420   6.673   4.711
 5574SOL    HW217622   0.555   6.632   4.628
 5575SOL     OW17623   1.353   1.088   1.093
 5575SOL    HW117624   1.298   1.005   1.091
 5575SOL    HW217625   1.443   1.067   1.131
 5576SOL     OW17626   5.789   5.750   0.573
 5576SOL    HW117627   5.789   5.675   0.507
 5576SOL    HW217628   5.848   5.726   0.650
 5577SOL     OW17629   2.431   3.424   5.337
 5577SOL    HW117630   2.371   3.499   5.311
 5577SOL    HW217631   2.399   3.339   5.294
 5578SOL     OW17632   4.344   2.714   0.209
 5578SOL    HW117633   4.405   2.710   0.130
 5578SOL    HW217634   4.396   2.743   0.290
 5579SOL     OW17635   5.527   3.699   7.022
 5579SOL    HW117636   5.538   3.632   6.949
 5579SOL    HW217637   5.430   3.702   0.024
 5580SOL     OW17638   5.198   0.897   0.930
 5580SOL    HW117639   5.208   0.814   0.875
 5580SOL    HW217640   5.162   0.971   0.873
 5581SOL     OW17641   1.613   0.763   6.407
 5581SOL    HW117642   1.609   0.749   6.506
 5581SOL    HW217643   1.547   0.702   6.362
 5582SOL     OW17644   3.685   3.506   3.875
 5582SOL    HW117645   3.654   3.489   3.781
 5582SOL    HW217646   3.753   3.579   3.876
 5583SOL     OW17647   3.433   6.945   2.014
 5583SOL    HW117648   3.394   6.995   2.092
 5583SOL    HW217649   3.360   6.920   1.951
 5584SOL     OW17650   6.451   4.271   3.065
 5584SOL    HW117651   6.470   4.348   3.004
 5584SOL    HW217652   6.537   4.235   3.101
 5585SOL     OW17653   6.793   0.612   3.930
 5585SOL    HW117654   6.778   0.514   3.918
 5585SOL    HW217655   6.824   0.652   3.843
 5586SOL     OW17656   2.656   1.537   5.880
 5586SOL    HW117657   2.729   1.514   5.816
 5586SOL    HW217658   2.567   1.534   5.833
 5587SOL     OW17659   4.064   0.644   3.638
 5587SOL    HW117660   4.120   0.585   3.580
 5587SOL    HW217661   3.968   0.616   3.631
 5588SOL     OW17662   2.459   0.149   5.364
 5588SOL    HW117663   2.448   0.141   5.265
 5588SOL    HW217664   2.371   0.132   5.409
 5589SOL     OW17665   4.752   2.778   6.124
 5589SOL    HW117666   4.738   2.715   6.201
 5589SOL    HW217667   4.842   2.763   6.084
 5590SOL     OW17668   6.992   6.037   4.477
 5590SOL    HW117669   0.013   6.086   4.403
 5590SOL    HW217670   6.894   6.033   4.457
 5591SOL     OW17671   5.731   0.541   6.940
 5591SOL    HW117672   5.772   0.452   6.921
 5591SOL    HW217673   5.785   0.613   6.895
 5592SOL     OW17674   1.439   3.930   2.889
 5592SOL    HW117675   1.451   4.029   2.878
 5592SOL    HW217676   1.383   3.912   2.970
 5593SOL     OW17677   1.345   2.856   5.987
 5593SOL    HW117678   1.391   2.786   6.041
 5593SOL    HW217679   1.330   2.822   5.894
 5594SOL     OW17680   1.894   7.005   0.460
 5594SOL    HW117681   1.915   6.910   0.436
 5594SOL    HW217682   1.979   0.033   0.463
 5595SOL     OW17683   6.617   1.634   6.000
 5595SOL    HW117684   6.583   1.543   5.977
 5595SOL    HW217685   6.649   1.680   5.917
 5596SOL     OW17686   4.967   0.597   2.387
 5596SOL    HW117687   5.030   0.561   2.318
 5596SOL    HW217688   4.877   0.555   2.374
 5597SOL     OW17689   6.256   1.327   6.466
 5597SOL    HW117690   6.209   1.412   6.443
 5597SOL    HW217691   6.190   1.252   6.473
 5598SOL     OW17692   6.094   1.774   3.766
 5598SOL    HW117693   6.093   1.777   3.866
 5598SOL    HW217694   6.188   1.781   3.733
 5599SOL     OW17695   4.889   3.992   2.178
 5599SOL    HW117696   4.982   4.026   2.196
 5599SOL    HW217697   4.868   4.004   2.081
 5600SOL     OW17698   2.214   1.112   3.024
 5600SOL    HW117699   2.200   1.147   2.931
 5600SOL    HW217700   2.312   1.114   3.045
 5601SOL     OW17701   5.362   3.376   5.700
 5601SOL    HW117702   5.268   3.400   5.721
 5601SOL    HW217703   5.402   3.445   5.640
 5602SOL     OW17704   0.315   2.418   3.311
 5602SOL    HW117705   0.390   2.481   3.333
 5602SOL    HW217706   0.337   2.369   3.227
 5603SOL     OW17707   4.053   2.223   4.891
 5603SOL    HW117708   4.083   2.304   4.941
 5603SOL    HW217709   4.015   2.250   4.803
 5604SOL     OW17710   0.790   6.981   3.877
 5604SOL    HW117711   0.742   6.917   3.937
 5604SOL    HW217712   0.724   7.023   3.814
 5605SOL     OW17713   2.498   6.119   4.547
 5605SOL    HW117714   2.515   6.202   4.494
 5605SOL    HW217715   2.401   6.096   4.543
 5606SOL     OW17716   4.707   2.250   0.581
 5606SOL    HW117717   4.727   2.173   0.520
 5606SOL    HW217718   4.694   2.216   0.675
 5607SOL     OW17719   6.079   2.865   2.176
 5607SOL    HW117720   6.059   2.835   2.270
 5607SOL    HW217721   6.009   2.830   2.114
 5608SOL     OW17722   5.122   1.305   3.830
 5608SOL    HW117723   5.027   1.285   3.804
 5608SOL    HW217724   5.142   1.400   3.809
 5609SOL     OW17725   6.309   6.736   1.084
 5609SOL    HW117726   6.376   6.759   1.155
 5609SOL    HW217727   6.221   6.715   1.127
 5610SOL     OW17728   5.316   4.504   0.126
 5610SOL    HW117729   5.234   4.455   0.098
 5610SOL    HW217730   5.364   4.452   0.196
 5611SOL     OW17731   0.300   5.140   1.720
 5611SOL    HW117732   0.233   5.125   1.793
 5611SOL    HW217733   0.279   5.225   1.673
 5612SOL     OW17734   3.091   1.156   0.715
 5612SOL    HW117735   3.037   1.232   0.678
 5612SOL    HW217736   3.111   1.091   0.643
 5613SOL     OW17737   6.835   4.975   5.033
 5613SOL    HW117738   6.795   4.901   5.087
 5613SOL    HW217739   6.907   5.020   5.086
 5614SOL     OW17740   5.913   2.002   4.634
 5614SOL    HW117741   5.871   1.972   4.719
 5614SOL    HW217742   5.883   1.943   4.559
 5615SOL     OW17743   6.767   3.169   2.659
 5615SOL    HW117744   6.755   3.156   2.757
 5615SOL    HW217745   6.827   3.097   2.622
 5616SOL     OW17746   1.799   3.654   3.239
 5616SOL    HW117747   1.890   3.623   3.213
 5616SOL    HW217748   1.806   3.744   3.282
 5617SOL     OW17749   2.140   5.143   6.429
 5617SOL    HW117750   2.069   5.098   6.373
 5617SOL    HW217751   2.114   5.238   6.445
 5618SOL     OW17752   6.849   5.737   3.818
 5618SOL    HW117753   6.793   5.667   3.863
 5618SOL    HW217754   6.890   5.699   3.736
 5619SOL     OW17755   3.626   3.327   4.479
 5619SOL    HW117756   3.632   3.228   4.464
 5619SOL    HW217757   3.568   3.368   4.409
 5620SOL     OW17758   4.294   4.516   5.655
 5620SOL    HW117759   4.384   4.489   5.690
 5620SOL    HW217760   4.245   4.435   5.624
 5621SOL     OW17761   1.636   2.813   4.631
 5621SOL    HW117762   1.720   2.764   4.608
 5621SOL    HW217763   1.654   2.912   4.629
 5622SOL     OW17764   4.967   5.697   4.812
 5622SOL    HW117765   4.908   5.618   4.796
 5622SOL    HW217766   4.950   5.766   4.741
 5623SOL     OW17767   4.843   6.307   4.151
 5623SOL    HW117768   4.873   6.260   4.068
 5623SOL    HW217769   4.819   6.401   4.129
 5624SOL     OW17770   0.018   5.556   4.364
 5624SOL    HW117771   6.977   5.530   4.296
 5624SOL    HW217772   7.017   5.519   4.453
 5625SOL     OW17773   1.288   5.647   4.646
 5625SOL    HW117774   1.275   5.719   4.577
 5625SOL    HW217775   1.305   5.560   4.601
 5626SOL     OW17776   1.921   4.053   4.460
 5626SOL    HW117777   2.000   4.007   4.421
 5626SOL    HW217778   1.920   4.040   4.559
 5627SOL     OW17779   1.309   5.554   0.529
 5627SOL    HW117780   1.267   5.603   0.453
 5627SOL    HW217781   1.249   5.560   0.609
 5628SOL     OW17782   2.687   2.793   0.932
 5628SOL    HW117783   2.619   2.765   0.999
 5628SOL    HW217784   2.779   2.768   0.964
 5629SOL     OW17785   5.138   4.207   1.487
 5629SOL    HW117786   5.162   4.218   1.390
 5629SOL    HW217787   5.072   4.277   1.513
 5630SOL     OW17788   1.947   3.643   6.674
 5630SOL    HW117789   2.018   3.697   6.718
 5630SOL    HW217790   1.939   3.670   6.578
 5631SOL     OW17791   4.450   0.772   2.348
 5631SOL    HW117792   4.490   0.814   2.266
 5631SOL    HW217793   4.520   0.764   2.419
 5632SOL     OW17794   5.971   0.067   5.907
 5632SOL    HW117795   5.887   0.106   5.870
 5632SOL    HW217796   6.042   0.069   5.837
 5633SOL     OW17797   0.361   4.406   6.028
 5633SOL    HW117798   0.364   4.429   5.931
 5633SOL    HW217799   0.380   4.489   6.082
 5634SOL     OW17800   2.954   6.323   6.511
 5634SOL    HW117801   3.052   6.318   6.529
 5634SOL    HW217802   2.910   6.379   6.581
 5635SOL     OW17803   2.562   6.871   6.573
 5635SOL    HW117804   2.529   6.894   6.482
 5635SOL    HW217805   2.489   6.825   6.624
 5636SOL     OW17806   6.330   1.209   5.721
 5636SOL    HW117807   6.252   1.271   5.727
 5636SOL    HW217808   6.306   1.122   5.763
 5637SOL     OW17809   5.315   6.113   4.783
 5637SOL    HW117810   5.242   6.066   4.832
 5637SOL    HW217811   5.275   6.163   4.706
 5638SOL     OW17812   4.864   5.680   1.116
 5638SOL    HW117813   4.943   5.670   1.055
 5638SOL    HW217814   4.895   5.674   1.211
 5639SOL     OW17815   1.173   0.171   1.592
 5639SOL    HW117816   1.205   0.114   1.667
 5639SOL    HW217817   1.211   0.138   1.506
 5640SOL     OW17818   2.903   5.883   3.008
 5640SOL    HW117819   2.853   5.896   2.923
 5640SOL    HW217820   2.923   5.972   3.049
 5641SOL     OW17821   1.166   4.801   4.390
 5641SOL    HW117822   1.131   4.728   4.332
 5641SOL    HW217823   1.255   4.832   4.355
 5642SOL     OW17824   1.265   4.492   0.085
 5642SOL    HW117825   1.277   4.441   0.171
 5642SOL    HW217826   1.192   4.449   0.032
 5643SOL     OW17827   4.254   2.217   4.631
 5643SOL    HW117828   4.313   2.277   4.686
 5643SOL    HW217829   4.291   2.212   4.538
 5644SOL     OW17830   5.241   1.251   5.182
 5644SOL    HW117831   5.318   1.312   5.165
 5644SOL    HW217832   5.264   1.188   5.257
 5645SOL     OW17833   4.991   5.998   2.641
 5645SOL    HW117834   5.018   5.946   2.722
 5645SOL    HW217835   5.068   6.004   2.578
 5646SOL     OW17836   0.368   5.939   3.356
 5646SOL    HW117837   0.418   6.010   3.406
 5646SOL    HW217838   0.397   5.938   3.261
 5647SOL     OW17839   5.960   6.342   0.128
 5647SOL    HW117840   5.872   6.303   0.102
 5647SOL    HW217841   5.970   6.338   0.227
 5648SOL     OW17842   1.873   1.778   3.558
 5648SOL    HW117843   1.905   1.752   3.468
 5648SOL    HW217844   1.883   1.877   3.569
 5649SOL     OW17845   1.120   0.920   4.417
 5649SOL    HW117846   1.117   0.871   4.330
 5649SOL    HW217847   1.028   0.953   4.440
 5650SOL     OW17848   6.690   4.741   0.220
 5650SOL    HW117849   6.617   4.765   0.284
 5650SOL    HW217850   6.777   4.734   0.270
 5651SOL     OW17851   0.249   0.993   1.767
 5651SOL    HW117852   0.258   0.897   1.743
 5651SOL    HW217853   0.334   1.025   1.808
 5652SOL     OW17854   5.081   5.676   1.698
 5652SOL    HW117855   5.017   5.739   1.654
 5652SOL    HW217856   5.048   5.655   1.791
 5653SOL     OW17857   6.874   5.618   5.676
 5653SOL    HW117858   6.786   5.591   5.714
 5653SOL    HW217859   6.947   5.583   5.735
 5654SOL     OW17860   0.038   0.302   5.677
 5654SOL    HW117861   0.118   0.263   5.723
 5654SOL    HW217862   0.050   0.401   5.670
 5655SOL     OW17863   1.117   3.454   3.765
 5655SOL    HW117864   1.196   3.420   3.714
 5655SOL    HW217865   1.116   3.413   3.856
 5656SOL     OW17866   2.861   3.498   0.805
 5656SOL    HW117867   2.830   3.493   0.900
 5656SOL    HW217868   2.788   3.467   0.744
 5657SOL     OW17869   4.430   0.301   1.736
 5657SOL    HW117870   4.377   0.354   1.670
 5657SOL    HW217871   4.498   0.246   1.687
 5658SOL     OW17872   3.489   6.942   5.183
 5658SOL    HW117873   3.582   6.938   5.221
 5658SOL    HW217874   3.490   6.993   5.097
 5659SOL     OW17875   3.201   3.497   3.111
 5659SOL    HW117876   3.293   3.472   3.081
 5659SOL    HW217877   3.181   3.592   3.084
 5660SOL     OW17878   5.254   0.374   0.200
 5660SOL    HW117879   5.212   0.355   0.111
 5660SOL    HW217880   5.234   0.468   0.227
 5661SOL     OW17881   0.141   5.997   5.438
 5661SOL    HW117882   0.071   5.953   5.495
 5661SOL    HW217883   0.169   6.083   5.479
 5662SOL     OW17884   2.737   4.675   3.787
 5662SOL    HW117885   2.768   4.749   3.727
 5662SOL    HW217886   2.746   4.588   3.739
 5663SOL     OW17887   1.206   4.124   0.647
 5663SOL    HW117888   1.118   4.091   0.611
 5663SOL    HW217889   1.277   4.056   0.630
 5664SOL     OW17890   0.146   4.718   3.036
 5664SOL    HW117891   0.121   4.621   3.032
 5664SOL    HW217892   0.171   4.742   3.130
 5665SOL     OW17893   2.198   2.404   6.497
 5665SOL    HW117894   2.119   2.411   6.436
 5665SOL    HW217895   2.209   2.490   6.547
 5666SOL     OW17896   4.731   5.766   0.535
 5666SOL    HW117897   4.753   5.707   0.458
 5666SOL    HW217898   4.814   5.783   0.589
 5667SOL     OW17899   6.994   5.150   2.966
 5667SOL    HW117900   6.911   5.191   3.001
 5667SOL    HW217901   0.034   5.137   3.040
 5668SOL     OW17902   4.515   1.665   6.114
 5668SOL    HW117903   4.431   1.712   6.086
 5668SOL    HW217904   4.498   1.611   6.196
 5669SOL     OW17905   0.243   5.391   5.848
 5669SOL    HW117906   0.259   5.317   5.913
 5669SOL    HW217907   0.330   5.434   5.824
 5670SOL     OW17908   0.451   3.380   3.632
 5670SOL    HW117909   0.515   3.352   3.703
 5670SOL    HW217910   0.367   3.327   3.640
 5671SOL     OW17911   2.169   6.812   6.375
 5671SOL    HW117912   2.139   6.765   6.292
 5671SOL    HW217913   2.263   6.843   6.364
 5672SOL     OW17914   5.043   3.704   6.012
 5672SOL    HW117915   4.981   3.641   6.060
 5672SOL    HW217916   5.115   3.734   6.075
 5673SOL     OW17917   0.607   0.676   2.659
 5673SOL    HW117918   0.636   0.701   2.566
 5673SOL    HW217919   0.587   0.578   2.662
 5674SOL     OW17920   0.457   3.774   1.569
 5674SOL    HW117921   0.397   3.854   1.562
 5674SOL    HW217922   0.403   3.694   1.593
 5675SOL     OW17923   4.693   2.579   5.433
 5675SOL    HW117924   4.680   2.623   5.345
 5675SOL    HW217925   4.605   2.572   5.481
 5676SOL     OW17926   1.615   1.053   1.488
 5676SOL    HW117927   1.640   1.132   1.544
 5676SOL    HW217928   1.521   1.026   1.509
 5677SOL     OW17929   6.590   2.381   3.696
 5677SOL    HW117930   6.514   2.377   3.631
 5677SOL    HW217931   6.614   2.289   3.726
 5678SOL     OW17932   3.867   6.253   3.064
 5678SOL    HW117933   3.828   6.252   2.973
 5678SOL    HW217934   3.857   6.344   3.104
 5679SOL     OW17935   1.493   6.552   4.883
 5679SOL    HW117936   1.572   6.502   4.918
 5679SOL    HW217937   1.420   6.552   4.951
 5680SOL     OW17938   1.293   5.100   6.648
 5680SOL    HW117939   1.232   5.021   6.633
 5680SOL    HW217940   1.381   5.082   6.605
 5681SOL     OW17941   1.107   2.499   6.617
 5681SOL    HW117942   1.206   2.512   6.610
 5681SOL    HW217943   1.067   2.574   6.670
 5682SOL     OW17944   1.325   2.740   5.419
 5682SOL    HW117945   1.274   2.682   5.355
 5682SOL    HW217946   1.330   2.833   5.383
 5683SOL     OW17947   3.490   2.571   6.630
 5683SOL    HW117948   3.464   2.592   6.725
 5683SOL    HW217949   3.467   2.648   6.571
 5684SOL     OW17950   3.797   3.573   4.455
 5684SOL    HW117951   3.741   3.492   4.473
 5684SOL    HW217952   3.767   3.616   4.370
 5685SOL     OW17953   0.684   5.066   2.626
 5685SOL    HW117954   0.634   4.995   2.576
 5685SOL    HW217955   0.624   5.144   2.643
 5686SOL     OW17956   3.827   0.293   0.435
 5686SOL    HW117957   3.912   0.337   0.464
 5686SOL    HW217958   3.800   0.226   0.504
 5687SOL     OW17959   5.981   4.050   4.763
 5687SOL    HW117960   6.080   4.043   4.766
 5687SOL    HW217961   5.955   4.129   4.707
 5688SOL     OW17962   5.976   2.435   1.448
 5688SOL    HW117963   5.976   2.339   1.473
 5688SOL    HW217964   6.063   2.459   1.404
 5689SOL     OW17965   4.616   0.888   0.553
 5689SOL    HW117966   4.522   0.914   0.576
 5689SOL    HW217967   4.676   0.907   0.630
 5690SOL     OW17968   3.858   6.181   0.781
 5690SOL    HW117969   3.838   6.272   0.744
 5690SOL    HW217970   3.956   6.175   0.801
 5691SOL     OW17971   3.103   6.704   2.332
 5691SOL    HW117972   3.188   6.755   2.345
 5691SOL    HW217973   3.081   6.655   2.416
 5692SOL     OW17974   6.615   1.860   5.847
 5692SOL    HW117975   6.690   1.856   5.781
 5692SOL    HW217976   6.644   1.911   5.928
 5693SOL     OW17977   4.936   2.652   2.201
 5693SOL    HW117978   5.012   2.709   2.168
 5693SOL    HW217979   4.863   2.711   2.236
 5694SOL     OW17980   0.503   1.194   3.468
 5694SOL    HW117981   0.423   1.242   3.432
 5694SOL    HW217982   0.483   1.160   3.559
 5695SOL     OW17983   1.439   2.325   3.702
 5695SOL    HW117984   1.479   2.371   3.781
 5695SOL    HW217985   1.469   2.230   3.699
 5696SOL     OW17986   2.858   1.709   4.890
 5696SOL    HW117987   2.881   1.783   4.828
 5696SOL    HW217988   2.776   1.733   4.941
 5697SOL     OW17989   0.127   2.468   0.607
 5697SOL    HW117990   0.152   2.422   0.692
 5697SOL    HW217991   0.055   2.535   0.626
 5698SOL     OW17992   0.419   2.467   2.438
 5698SOL    HW117993   0.495   2.403   2.451
 5698SOL    HW217994   0.455   2.559   2.424
 5699SOL     OW17995   6.408   1.278   3.875
 5699SOL    HW117996   6.327   1.290   3.932
 5699SOL    HW217997   6.381   1.241   3.786
 5700SOL     OW17998   1.212   6.301   4.733
 5700SOL    HW117999   1.226   6.305   4.634
 5700SOL    HW218000   1.290   6.255   4.775
 5701SOL     OW18001   0.610   6.229   2.704
 5701SOL    HW118002   0.536   6.263   2.645
 5701SOL    HW218003   0.682   6.298   2.710
 5702SOL     OW18004   1.477   6.849   5.775
 5702SOL    HW118005   1.412   6.792   5.826
 5702SOL    HW218006   1.566   6.805   5.775
 5703SOL     OW18007   4.686   5.283   6.904
 5703SOL    HW118008   4.766   5.236   6.940
 5703SOL    HW218009   4.660   5.244   6.816
 5704SOL     OW18010   4.569   5.187   3.352
 5704SOL    HW118011   4.616   5.225   3.273
 5704SOL    HW218012   4.481   5.234   3.364
 5705SOL     OW18013   6.024   0.687   0.858
 5705SOL    HW118014   6.055   0.592   0.860
 5705SOL    HW218015   6.101   0.746   0.834
 5706SOL     OW18016   1.753   1.738   0.311
 5706SOL    HW118017   1.796   1.827   0.296
 5706SOL    HW218018   1.657   1.752   0.335
 5707SOL     OW18019   1.560   0.117   6.640
 5707SOL    HW118020   1.545   0.021   6.617
 5707SOL    HW218021   1.473   0.166   6.639
 5708SOL     OW18022   5.136   6.853   2.090
 5708SOL    HW118023   5.158   6.895   2.002
 5708SOL    HW218024   5.221   6.827   2.137
 5709SOL     OW18025   0.564   6.375   3.514
 5709SOL    HW118026   0.661   6.392   3.496
 5709SOL    HW218027   0.513   6.384   3.429
 5710SOL     OW18028   2.805   3.619   5.919
 5710SOL    HW118029   2.791   3.718   5.918
 5710SOL    HW218030   2.725   3.573   5.881
 5711SOL     OW18031   5.073   0.862   3.871
 5711SOL    HW118032   5.022   0.945   3.895
 5711SOL    HW218033   5.151   0.886   3.814
 5712SOL     OW18034   6.784   0.217   5.417
 5712SOL    HW118035   6.881   0.229   5.396
 5712SOL    HW218036   6.764   0.120   5.429
 5713SOL     OW18037   0.354   2.325   2.007
 5713SOL    HW118038   0.454   2.337   2.001
 5713SOL    HW218039   0.309   2.408   1.975
 5714SOL     OW18040   1.362   0.045   6.973
 5714SOL    HW118041   1.294   0.010   6.909
 5714SOL    HW218042   1.454   0.028   6.937
 5715SOL     OW18043   1.102   6.194   2.488
 5715SOL    HW118044   1.052   6.108   2.483
 5715SOL    HW218045   1.120   6.216   2.584
 5716SOL     OW18046   1.725   4.073   5.794
 5716SOL    HW118047   1.657   4.064   5.721
 5716SOL    HW218048   1.816   4.058   5.755
 5717SOL     OW18049   1.379   4.892   1.310
 5717SOL    HW118050   1.343   4.979   1.344
 5717SOL    HW218051   1.319   4.858   1.237
 5718SOL     OW18052   1.911   4.583   6.957
 5718SOL    HW118053   1.993   4.572   6.900
 5718SOL    HW218054   1.935   4.571   0.028
 5719SOL     OW18055   3.087   1.085   6.202
 5719SOL    HW118056   3.104   1.015   6.133
 5719SOL    HW218057   2.995   1.073   6.239
 5720SOL     OW18058   6.917   4.826   4.520
 5720SOL    HW118059   6.972   4.910   4.522
 5720SOL    HW218060   6.915   4.787   4.612
 5721SOL     OW18061   0.873   3.175   0.302
 5721SOL    HW118062   0.800   3.106   0.305
 5721SOL    HW218063   0.861   3.232   0.220
 5722SOL     OW18064   5.576   1.173   4.841
 5722SOL    HW118065   5.649   1.218   4.891
 5722SOL    HW218066   5.553   1.086   4.886
 5723SOL     OW18067   3.452   4.887   0.654
 5723SOL    HW118068   3.509   4.932   0.723
 5723SOL    HW218069   3.470   4.928   0.565
 5724SOL     OW18070   4.463   2.047   6.645
 5724SOL    HW118071   4.374   2.057   6.601
 5724SOL    HW218072   4.528   2.110   6.604
 5725SOL     OW18073   5.252   5.531   3.680
 5725SOL    HW118074   5.246   5.598   3.754
 5725SOL    HW218075   5.330   5.553   3.621
 5726SOL     OW18076   6.100   3.631   5.035
 5726SOL    HW118077   6.015   3.596   4.996
 5726SOL    HW218078   6.079   3.702   5.102
 5727SOL     OW18079   5.684   2.915   2.702
 5727SOL    HW118080   5.712   2.899   2.796
 5727SOL    HW218081   5.741   2.988   2.662
 5728SOL     OW18082   5.790   1.211   5.956
 5728SOL    HW118083   5.721   1.212   6.029
 5728SOL    HW218084   5.881   1.217   5.997
 5729SOL     OW18085   0.669   1.884   0.443
 5729SOL    HW118086   0.753   1.833   0.461
 5729SOL    HW218087   0.661   1.902   0.345
 5730SOL     OW18088   3.803   5.821   5.169
 5730SOL    HW118089   3.862   5.856   5.097
 5730SOL    HW218090   3.709   5.816   5.136
 5731SOL     OW18091   1.591   6.514   4.224
 5731SOL    HW118092   1.586   6.569   4.140
 5731SOL    HW218093   1.686   6.507   4.254
 5732SOL     OW18094   6.112   4.856   4.356
 5732SOL    HW118095   6.082   4.860   4.452
 5732SOL    HW218096   6.212   4.847   4.353
 5733SOL     OW18097   3.564   0.869   6.738
 5733SOL    HW118098   3.578   0.788   6.795
 5733SOL    HW218099   3.651   0.915   6.724
 5734SOL     OW18100   1.397   6.754   5.476
 5734SOL    HW118101   1.479   6.811   5.486
 5734SOL    HW218102   1.370   6.719   5.565
 5735SOL     OW18103   3.832   1.085   2.527
 5735SOL    HW118104   3.890   1.155   2.570
 5735SOL    HW218105   3.807   1.115   2.435
 5736SOL     OW18106   5.078   4.403   6.255
 5736SOL    HW118107   5.005   4.469   6.274
 5736SOL    HW218108   5.144   4.405   6.329
 5737SOL     OW18109   5.156   6.326   1.199
 5737SOL    HW118110   5.076   6.352   1.145
 5737SOL    HW218111   5.226   6.397   1.192
 5738SOL     OW18112   3.401   1.086   6.786
 5738SOL    HW118113   3.410   1.157   6.717
 5738SOL    HW218114   3.478   1.023   6.780
 5739SOL     OW18115   1.882   6.878   5.930
 5739SOL    HW118116   1.902   6.951   5.864
 5739SOL    HW218117   1.938   6.890   6.012
 5740SOL     OW18118   4.810   3.308   0.899
 5740SOL    HW118119   4.735   3.362   0.860
 5740SOL    HW218120   4.840   3.241   0.831
 5741SOL     OW18121   0.666   3.687   4.127
 5741SOL    HW118122   0.656   3.598   4.171
 5741SOL    HW218123   0.713   3.676   4.039
 5742SOL     OW18124   4.003   6.538   3.880
 5742SOL    HW118125   4.025   6.616   3.821
 5742SOL    HW218126   3.930   6.562   3.943
 5743SOL     OW18127   3.796   4.783   6.027
 5743SOL    HW118128   3.766   4.801   5.933
 5743SOL    HW218129   3.850   4.698   6.028
 5744SOL     OW18130   6.019   0.510   3.134
 5744SOL    HW118131   6.073   0.483   3.214
 5744SOL    HW218132   6.040   0.448   3.058
 5745SOL     OW18133   2.289   2.885   3.836
 5745SOL    HW118134   2.359   2.855   3.900
 5745SOL    HW218135   2.247   2.805   3.792
 5746SOL     OW18136   4.346   0.041   3.766
 5746SOL    HW118137   4.409   0.106   3.809
 5746SOL    HW218138   4.253   0.078   3.769
 5747SOL     OW18139   1.241   6.170   1.821
 5747SOL    HW118140   1.196   6.247   1.775
 5747SOL    HW218141   1.299   6.122   1.756
 5748SOL     OW18142   0.379   6.500   0.757
 5748SOL    HW118143   0.368   6.521   0.854
 5748SOL    HW218144   0.357   6.403   0.741
 5749SOL     OW18145   1.798   6.830   4.986
 5749SOL    HW118146   1.859   6.805   5.062
 5749SOL    HW218147   1.832   6.789   4.902
 5750SOL     OW18148   6.659   4.504   5.264
 5750SOL    HW118149   6.697   4.424   5.312
 5750SOL    HW218150   6.575   4.532   5.309
 5751SOL     OW18151   2.045   3.328   4.323
 5751SOL    HW118152   1.971   3.395   4.323
 5751SOL    HW218153   2.015   3.244   4.279
 5752SOL     OW18154   5.596   0.354   1.149
 5752SOL    HW118155   5.657   0.424   1.186
 5752SOL    HW218156   5.579   0.371   1.052
 5753SOL     OW18157   2.826   3.847   5.273
 5753SOL    HW118158   2.923   3.837   5.295
 5753SOL    HW218159   2.816   3.878   5.178
 5754SOL     OW18160   1.610   6.455   1.879
 5754SOL    HW118161   1.672   6.501   1.816
 5754SOL    HW218162   1.659   6.428   1.962
 5755SOL     OW18163   1.985   1.543   6.497
 5755SOL    HW118164   2.017   1.555   6.403
 5755SOL    HW218165   2.050   1.485   6.547
 5756SOL     OW18166   6.573   0.050   2.463
 5756SOL    HW118167   6.514   0.115   2.417
 5756SOL    HW218168   6.559   0.055   2.562
 5757SOL     OW18169   0.040   5.540   4.021
 5757SOL    HW118170   0.051   5.639   4.036
 5757SOL    HW218171   0.118   5.492   4.060
 5758SOL     OW18172   2.272   7.024   3.290
 5758SOL    HW118173   2.240   6.930   3.283
 5758SOL    HW218174   2.246   0.049   3.208
 5759SOL     OW18175   4.768   6.885   2.003
 5759SOL    HW118176   4.670   6.887   1.984
 5759SOL    HW218177   4.791   6.965   2.059
 5760SOL     OW18178   6.837   3.438   1.929
 5760SOL    HW118179   6.771   3.475   1.994
 5760SOL    HW218180   6.890   3.366   1.973
 5761SOL     OW18181   5.104   5.996   4.989
 5761SOL    HW118182   5.148   5.916   4.950
 5761SOL    HW218183   5.005   5.992   4.972
 5762SOL     OW18184   4.454   4.408   0.898
 5762SOL    HW118185   4.492   4.411   0.990
 5762SOL    HW218186   4.381   4.476   0.891
 5763SOL     OW18187   5.315   6.528   0.380
 5763SOL    HW118188   5.259   6.514   0.462
 5763SOL    HW218189   5.323   6.626   0.361
 5764SOL     OW18190   4.037   5.238   3.160
 5764SOL    HW118191   4.066   5.199   3.248
 5764SOL    HW218192   3.999   5.166   3.103
 5765SOL     OW18193   6.583   4.009   0.756
 5765SOL    HW118194   6.643   3.988   0.679
 5765SOL    HW218195   6.631   3.990   0.841
 5766SOL     OW18196   1.948   2.034   4.720
 5766SOL    HW118197   1.882   1.962   4.739
 5766SOL    HW218198   2.040   2.002   4.742
 5767SOL     OW18199   2.105   0.256   6.722
 5767SOL    HW118200   2.183   0.195   6.703
 5767SOL    HW218201   2.070   0.237   6.814
 5768SOL     OW18202   6.659   6.848   3.594
 5768SOL    HW118203   6.660   6.898   3.681
 5768SOL    HW218204   6.748   6.856   3.550
 5769SOL     OW18205   2.438   5.336   5.989
 5769SOL    HW118206   2.432   5.261   5.923
 5769SOL    HW218207   2.534   5.352   6.012
 5770SOL     OW18208   0.514   6.565   6.803
 5770SOL    HW118209   0.416   6.566   6.818
 5770SOL    HW218210   0.562   6.589   6.888
 5771SOL     OW18211   1.833   6.987   3.899
 5771SOL    HW118212   1.853   6.993   3.801
 5771SOL    HW218213   1.786   0.045   3.929
 5772SOL     OW18214   4.447   1.509   1.993
 5772SOL    HW118215   4.349   1.523   1.978
 5772SOL    HW218216   4.499   1.566   1.928
 5773SOL     OW18217   4.300   1.388   2.476
 5773SOL    HW118218   4.346   1.401   2.388
 5773SOL    HW218219   4.223   1.451   2.483
 5774SOL     OW18220   1.660   0.809   4.962
 5774SOL    HW118221   1.630   0.715   4.975
 5774SOL    HW218222   1.642   0.837   4.868
 5775SOL     OW18223   1.342   5.907   2.729
 5775SOL    HW118224   1.271   5.968   2.766
 5775SOL    HW218225   1.397   5.957   2.662
 5776SOL     OW18226   1.365   0.346   3.279
 5776SOL    HW118227   1.414   0.420   3.231
 5776SOL    HW218228   1.428   0.272   3.298
 5777SOL     OW18229   1.275   0.343   3.549
 5777SOL    HW118230   1.221   0.427   3.554
 5777SOL    HW218231   1.326   0.340   3.463
 5778SOL     OW18232   1.817   0.674   0.175
 5778SOL    HW118233   1.787   0.762   0.138
 5778SOL    HW218234   1.794   0.669   0.272
 5779SOL     OW18235   4.680   2.732   6.809
 5779SOL    HW118236   4.659   2.805   6.743
 5779SOL    HW218237   4.729   2.771   6.887
 5780SOL     OW18238   5.269   5.501   4.788
 5780SOL    HW118239   5.259   5.519   4.690
 5780SOL    HW218240   5.266   5.587   4.839
 5781SOL     OW18241   6.656   4.355   4.800
 5781SOL    HW118242   6.658   4.366   4.900
 5781SOL    HW218243   6.689   4.264   4.777
 5782SOL     OW18244   1.415   1.521   0.391
 5782SOL    HW118245   1.366   1.549   0.474
 5782SOL    HW218246   1.488   1.457   0.416
 5783SOL     OW18247   1.255   0.932   2.467
 5783SOL    HW118248   1.334   0.871   2.472
 5783SOL    HW218249   1.267   1.008   2.531
 5784SOL     OW18250   0.153   6.131   6.626
 5784SOL    HW118251   0.112   6.040   6.631
 5784SOL    HW218252   0.215   6.143   6.703
 5785SOL     OW18253   2.276   1.842   0.251
 5785SOL    HW118254   2.246   1.914   0.314
 5785SOL    HW218255   2.258   1.752   0.291
 5786SOL     OW18256   0.014   4.521   0.605
 5786SOL    HW118257   0.057   4.432   0.591
 5786SOL    HW218258   6.951   4.523   0.557
 5787SOL     OW18259   2.327   2.088   5.481
 5787SOL    HW118260   2.405   2.070   5.421
 5787SOL    HW218261   2.267   2.008   5.482
 5788SOL     OW18262   2.712   1.566   2.724
 5788SOL    HW118263   2.666   1.528   2.805
 5788SOL    HW218264   2.694   1.664   2.718
 5789SOL     OW18265   3.742   4.667   6.833
 5789SOL    HW118266   3.654   4.630   6.864
 5789SOL    HW218267   3.739   4.767   6.836
 5790SOL     OW18268   1.598   3.825   4.546
 5790SOL    HW118269   1.666   3.897   4.528
 5790SOL    HW218270   1.507   3.858   4.521
 5791SOL     OW18271   4.257   0.288   1.941
 5791SOL    HW118272   4.339   0.280   1.884
 5791SOL    HW218273   4.184   0.332   1.889
 5792SOL     OW18274   6.679   2.480   2.933
 5792SOL    HW118275   6.730   2.408   2.886
 5792SOL    HW218276   6.740   2.558   2.951
 5793SOL     OW18277   5.246   1.000   3.304
 5793SOL    HW118278   5.198   1.087   3.292
 5793SOL    HW218279   5.241   0.948   3.219
 5794SOL     OW18280   3.830   1.870   0.428
 5794SOL    HW118281   3.792   1.857   0.337
 5794SOL    HW218282   3.925   1.903   0.420
 5795SOL     OW18283   6.424   5.305   6.292
 5795SOL    HW118284   6.479   5.222   6.305
 5795SOL    HW218285   6.357   5.290   6.219
 5796SOL     OW18286   4.012   0.757   0.033
 5796SOL    HW118287   3.967   0.845   0.043
 5796SOL    HW218288   3.995   0.701   0.114
 5797SOL     OW18289   4.136   1.908   5.158
 5797SOL    HW118290   4.157   1.859   5.242
 5797SOL    HW218291   4.199   1.985   5.147
 5798SOL     OW18292   0.786   4.357   5.425
 5798SOL    HW118293   0.823   4.267   5.446
 5798SOL    HW218294   0.823   4.388   5.338
 5799SOL     OW18295   5.441   1.275   3.719
 5799SOL    HW118296   5.355   1.242   3.759
 5799SOL    HW218297   5.422   1.320   3.632
 5800SOL     OW18298   5.338   5.949   0.692
 5800SOL    HW118299   5.436   5.938   0.705
 5800SOL    HW218300   5.297   5.859   0.672
 5801SOL     OW18301   1.157   2.406   4.872
 5801SOL    HW118302   1.131   2.434   4.779
 5801SOL    HW218303   1.150   2.484   4.934
 5802SOL     OW18304   0.879   4.577   0.374
 5802SOL    HW118305   0.798   4.621   0.414
 5802SOL    HW218306   0.854   4.488   0.337
 5803SOL     OW18307   1.214   4.339   2.557
 5803SOL    HW118308   1.135   4.342   2.496
 5803SOL    HW218309   1.214   4.420   2.616
 5804SOL     OW18310   6.304   4.525   3.636
 5804SOL    HW118311   6.376   4.546   3.702
 5804SOL    HW218312   6.215   4.527   3.681
 5805SOL     OW18313   3.343   3.757   6.279
 5805SOL    HW118314   3.373   3.716   6.366
 5805SOL    HW218315   3.337   3.856   6.290
 5806SOL     OW18316   0.060   6.225   6.082
 5806SOL    HW118317   0.041   6.284   6.161
 5806SOL    HW218318   0.052   6.129   6.110
 5807SOL     OW18319   1.530   3.807   1.952
 5807SOL    HW118320   1.516   3.726   1.895
 5807SOL    HW218321   1.467   3.879   1.923
 5808SOL     OW18322   6.065   3.954   3.810
 5808SOL    HW118323   6.027   3.962   3.902
 5808SOL    HW218324   6.076   4.045   3.771
 5809SOL     OW18325   0.139   2.244   5.088
 5809SOL    HW118326   0.222   2.291   5.119
 5809SOL    HW218327   0.157   2.146   5.079
 5810SOL     OW18328   3.160   0.958   4.182
 5810SOL    HW118329   3.240   0.931   4.236
 5810SOL    HW218330   3.127   1.047   4.214
 5811SOL     OW18331   2.684   0.033   4.942
 5811SOL    HW118332   2.700   6.962   4.924
 5811SOL    HW218333   2.705   0.054   5.037
 5812SOL     OW18334   5.722   0.377   4.058
 5812SOL    HW118335   5.764   0.378   3.967
 5812SOL    HW218336   5.681   0.467   4.076
 5813SOL     OW18337   1.283   1.093   0.461
 5813SOL    HW118338   1.231   1.039   0.396
 5813SOL    HW218339   1.329   1.032   0.527
 5814SOL     OW18340   6.175   4.625   1.013
 5814SOL    HW118341   6.111   4.648   1.086
 5814SOL    HW218342   6.155   4.679   0.932
 5815SOL     OW18343   4.640   2.592   4.146
 5815SOL    HW118344   4.611   2.593   4.241
 5815SOL    HW218345   4.693   2.508   4.128
 5816SOL     OW18346   4.829   5.565   0.083
 5816SOL    HW118347   4.901   5.497   0.096
 5816SOL    HW218348   4.844   5.613   7.022
 5817SOL     OW18349   5.128   3.518   5.822
 5817SOL    HW118350   5.040   3.478   5.796
 5817SOL    HW218351   5.113   3.613   5.852
 5818SOL     OW18352   6.700   6.322   4.887
 5818SOL    HW118353   6.719   6.275   4.973
 5818SOL    HW218354   6.619   6.283   4.845
 5819SOL     OW18355   4.447   0.162   6.355
 5819SOL    HW118356   4.538   0.120   6.352
 5819SOL    HW218357   4.396   0.126   6.433
 5820SOL     OW18358   4.488   6.053   4.041
 5820SOL    HW118359   4.500   6.145   4.078
 5820SOL    HW218360   4.566   6.030   3.982
 5821SOL     OW18361   0.671   0.222   2.316
 5821SOL    HW118362   0.663   0.168   2.399
 5821SOL    HW218363   0.694   0.316   2.339
 5822SOL     OW18364   0.500   2.542   2.722
 5822SOL    HW118365   0.500   2.512   2.626
 5822SOL    HW218366   0.528   2.466   2.781
 5823SOL     OW18367   0.647   0.769   5.988
 5823SOL    HW118368   0.639   0.670   5.999
 5823SOL    HW218369   0.566   0.813   6.026
 5824SOL     OW18370   6.757   6.123   2.852
 5824SOL    HW118371   6.792   6.119   2.758
 5824SOL    HW218372   6.664   6.159   2.851
 5825SOL     OW18373   2.564   2.044   5.323
 5825SOL    HW118374   2.602   1.979   5.257
 5825SOL    HW218375   2.556   2.134   5.280
 5826SOL     OW18376   7.020   5.062   5.206
 5826SOL    HW118377   7.025   5.161   5.210
 5826SOL    HW218378   0.087   5.024   5.198
 5827SOL     OW18379   2.141   4.761   5.148
 5827SOL    HW118380   2.042   4.762   5.137
 5827SOL    HW218381   2.185   4.778   5.060
 5828SOL     OW18382   6.874   2.960   1.340
 5828SOL    HW118383   6.829   2.877   1.373
 5828SOL    HW218384   6.805   3.030   1.323
 5829SOL     OW18385   2.727   2.056   2.580
 5829SOL    HW118386   2.700   2.116   2.655
 5829SOL    HW218387   2.826   2.041   2.584
 5830SOL     OW18388   4.224   0.138   5.583
 5830SOL    HW118389   4.315   0.128   5.623
 5830SOL    HW218390   4.204   0.058   5.526
 5831SOL     OW18391   0.020   0.528   3.980
 5831SOL    HW118392   0.064   0.530   4.070
 5831SOL    HW218393   6.952   0.561   3.988
 5832SOL     OW18394   3.699   4.405   5.393
 5832SOL    HW118395   3.722   4.310   5.412
 5832SOL    HW218396   3.607   4.411   5.357
 5833SOL     OW18397   4.135   3.267   5.122
 5833SOL    HW118398   4.226   3.232   5.143
 5833SOL    HW218399   4.101   3.223   5.039
 5834SOL     OW18400   5.589   2.703   0.358
 5834SOL    HW118401   5.524   2.724   0.430
 5834SOL    HW218402   5.588   2.777   0.290
 5835SOL     OW18403   4.831   3.250   2.807
 5835SOL    HW118404   4.771   3.296   2.741
 5835SOL    HW218405   4.907   3.207   2.758
 5836SOL     OW18406   3.074   6.574   2.885
 5836SOL    HW118407   2.980   6.582   2.852
 5836SOL    HW218408   3.119   6.663   2.880
 5837SOL     OW18409   4.457   5.072   5.685
 5837SOL    HW118410   4.361   5.064   5.659
 5837SOL    HW218411   4.464   5.106   5.779
 5838SOL     OW18412   2.414   1.531   5.806
 5838SOL    HW118413   2.386   1.439   5.781
 5838SOL    HW218414   2.429   1.585   5.723
 5839SOL     OW18415   0.288   2.547   2.922
 5839SOL    HW118416   0.342   2.556   2.838
 5839SOL    HW218417   0.191   2.552   2.900
 5840SOL     OW18418   1.358   5.097   6.914
 5840SOL    HW118419   1.331   5.099   6.818
 5840SOL    HW218420   1.455   5.123   6.922
 5841SOL     OW18421   5.322   2.053   2.470
 5841SOL    HW118422   5.315   2.148   2.502
 5841SOL    HW218423   5.232   2.020   2.443
 5842SOL     OW18424   4.250   3.156   1.765
 5842SOL    HW118425   4.221   3.180   1.858
 5842SOL    HW218426   4.194   3.206   1.699
 5843SOL     OW18427   2.102   3.631   2.179
 5843SOL    HW118428   2.149   3.581   2.106
 5843SOL    HW218429   2.145   3.721   2.190
 5844SOL     OW18430   0.658   6.759   5.961
 5844SOL    HW118431   0.574   6.812   5.958
 5844SOL    HW218432   0.640   6.665   5.930
 5845SOL     OW18433   1.126   0.413   3.044
 5845SOL    HW118434   1.182   0.458   3.114
 5845SOL    HW218435   1.081   0.482   2.988
 5846SOL     OW18436   6.157   3.244   4.422
 5846SOL    HW118437   6.156   3.326   4.365
 5846SOL    HW218438   6.250   3.227   4.455
 5847SOL     OW18439   2.047   1.839   2.107
 5847SOL    HW118440   2.003   1.873   2.024
 5847SOL    HW218441   2.146   1.831   2.091
 5848SOL     OW18442   2.270   5.262   3.072
 5848SOL    HW118443   2.246   5.263   3.169
 5848SOL    HW218444   2.189   5.284   3.018
 5849SOL     OW18445   6.719   0.753   6.767
 5849SOL    HW118446   6.711   0.843   6.811
 5849SOL    HW218447   6.640   0.736   6.709
 5850SOL     OW18448   0.954   3.752   2.098
 5850SOL    HW118449   0.995   3.667   2.130
 5850SOL    HW218450   0.859   3.735   2.071
 5851SOL     OW18451   5.007   3.299   2.459
 5851SOL    HW118452   4.971   3.392   2.460
 5851SOL    HW218453   4.978   3.253   2.375
 5852SOL     OW18454   5.124   6.728   3.630
 5852SOL    HW118455   5.099   6.806   3.688
 5852SOL    HW218456   5.049   6.663   3.628
 5853SOL     OW18457   2.973   5.568   4.917
 5853SOL    HW118458   2.920   5.507   4.860
 5853SOL    HW218459   3.048   5.608   4.864
 5854SOL     OW18460   6.518   4.030   5.421
 5854SOL    HW118461   6.519   4.037   5.521
 5854SOL    HW218462   6.500   3.935   5.395
 5855SOL     OW18463   0.488   0.675   4.427
 5855SOL    HW118464   0.588   0.674   4.428
 5855SOL    HW218465   0.454   0.742   4.494
 5856SOL     OW18466   2.033   6.357   3.732
 5856SOL    HW118467   2.075   6.267   3.720
 5856SOL    HW218468   2.100   6.428   3.711
 5857SOL     OW18469   6.260   2.890   5.283
 5857SOL    HW118470   6.251   2.839   5.198
 5857SOL    HW218471   6.216   2.979   5.274
 5858SOL     OW18472   2.674   2.132   2.116
 5858SOL    HW118473   2.654   2.069   2.041
 5858SOL    HW218474   2.767   2.167   2.107
 5859SOL     OW18475   5.789   0.128   1.116
 5859SOL    HW118476   5.815   0.090   1.205
 5859SOL    HW218477   5.787   0.228   1.122
 5860SOL     OW18478   1.959   3.788   1.673
 5860SOL    HW118479   2.003   3.757   1.757
 5860SOL    HW218480   1.926   3.709   1.622
 5861SOL     OW18481   5.161   1.398   4.372
 5861SOL    HW118482   5.150   1.445   4.284
 5861SOL    HW218483   5.251   1.355   4.375
 5862SOL     OW18484   5.349   4.926   3.318
 5862SOL    HW118485   5.385   5.009   3.275
 5862SOL    HW218486   5.392   4.913   3.408
 5863SOL     OW18487   3.033   0.727   4.781
 5863SOL    HW118488   3.085   0.759   4.859
 5863SOL    HW218489   3.079   0.648   4.739
 5864SOL     OW18490   3.967   3.559   1.928
 5864SOL    HW118491   3.930   3.468   1.911
 5864SOL    HW218492   4.067   3.555   1.926
 5865SOL     OW18493   5.654   0.311   4.479
 5865SOL    HW118494   5.684   0.397   4.521
 5865SOL    HW218495   5.718   0.286   4.406
 5866SOL     OW18496   3.572   5.968   6.909
 5866SOL    HW118497   3.504   6.039   6.887
 5866SOL    HW218498   3.527   5.893   6.957
 5867SOL     OW18499   0.364   4.113   1.046
 5867SOL    HW118500   0.463   4.105   1.058
 5867SOL    HW218501   0.327   4.178   1.112
 5868SOL     OW18502   0.098   0.515   5.470
 5868SOL    HW118503   0.005   0.543   5.446
 5868SOL    HW218504   0.139   0.584   5.529
 5869SOL     OW18505   2.152   5.521   3.391
 5869SOL    HW118506   2.230   5.494   3.334
 5869SOL    HW218507   2.123   5.613   3.365
 5870SOL     OW18508   4.744   5.787   4.629
 5870SOL    HW118509   4.750   5.885   4.613
 5870SOL    HW218510   4.789   5.738   4.554
 5871SOL     OW18511   4.357   3.419   0.093
 5871SOL    HW118512   4.273   3.453   0.137
 5871SOL    HW218513   4.337   3.333   0.047
 5872SOL     OW18514   3.762   4.958   6.817
 5872SOL    HW118515   3.846   4.994   6.777
 5872SOL    HW218516   3.747   5.000   6.906
 5873SOL     OW18517   2.071   2.469   0.843
 5873SOL    HW118518   1.983   2.506   0.874
 5873SOL    HW218519   2.060   2.372   0.822
 5874SOL     OW18520   2.696   2.861   1.278
 5874SOL    HW118521   2.734   2.830   1.191
 5874SOL    HW218522   2.706   2.789   1.346
 5875SOL     OW18523   3.623   1.086   1.373
 5875SOL    HW118524   3.543   1.042   1.414
 5875SOL    HW218525   3.592   1.146   1.299
 5876SOL     OW18526   3.107   3.118   0.130
 5876SOL    HW118527   3.109   3.026   0.171
 5876SOL    HW218528   3.025   3.166   0.160
 5877SOL     OW18529   6.619   7.003   1.030
 5877SOL    HW118530   6.670   0.057   0.998
 5877SOL    HW218531   6.679   6.923   1.032
 5878SOL     OW18532   5.335   5.205   3.185
 5878SOL    HW118533   5.368   5.270   3.253
 5878SOL    HW218534   5.244   5.233   3.154
 5879SOL     OW18535   2.582   3.414   6.114
 5879SOL    HW118536   2.644   3.479   6.158
 5879SOL    HW218537   2.623   3.323   6.114
 5880SOL     OW18538   4.607   4.303   6.554
 5880SOL    HW118539   4.544   4.321   6.478
 5880SOL    HW218540   4.666   4.226   6.529
 5881SOL     OW18541   1.568   0.186   2.479
 5881SOL    HW118542   1.510   0.109   2.451
 5881SOL    HW218543   1.646   0.193   2.416
 5882SOL     OW18544   0.662   6.506   5.669
 5882SOL    HW118545   0.712   6.420   5.680
 5882SOL    HW218546   0.726   6.583   5.669
 5883SOL     OW18547   0.405   1.771   0.653
 5883SOL    HW118548   0.488   1.801   0.698
 5883SOL    HW218549   0.414   1.675   0.627
 5884SOL     OW18550   6.443   0.837   4.776
 5884SOL    HW118551   6.351   0.873   4.794
 5884SOL    HW218552   6.455   0.824   4.678
 5885SOL     OW18553   0.881   5.594   0.678
 5885SOL    HW118554   0.795   5.640   0.700
 5885SOL    HW218555   0.862   5.510   0.627
 5886SOL     OW18556   0.996   3.089   3.397
 5886SOL    HW118557   0.972   3.085   3.494
 5886SOL    HW218558   1.061   3.164   3.382
 5887SOL     OW18559   3.048   1.840   1.922
 5887SOL    HW118560   3.141   1.811   1.901
 5887SOL    HW218561   3.051   1.922   1.979
 5888SOL     OW18562   2.448   6.620   0.987
 5888SOL    HW118563   2.510   6.637   0.910
 5888SOL    HW218564   2.354   6.617   0.954
 5889SOL     OW18565   6.494   1.309   0.971
 5889SOL    HW118566   6.553   1.231   0.951
 5889SOL    HW218567   6.549   1.381   1.014
 5890SOL     OW18568   1.656   6.372   2.930
 5890SOL    HW118569   1.569   6.360   2.882
 5890SOL    HW218570   1.687   6.466   2.918
 5891SOL     OW18571   2.434   3.739   0.085
 5891SOL    HW118572   2.401   3.664   0.028
 5891SOL    HW218573   2.382   3.822   0.065
 5892SOL     OW18574   0.025   4.858   1.598
 5892SOL    HW118575   0.036   4.829   1.503
 5892SOL    HW218576   6.956   4.888   1.612
 5893SOL     OW18577   1.598   4.777   1.394
 5893SOL    HW118578   1.566   4.695   1.441
 5893SOL    HW218579   1.521   4.840   1.380
 5894SOL     OW18580   0.748   5.845   5.060
 5894SOL    HW118581   0.692   5.917   5.101
 5894SOL    HW218582   0.838   5.843   5.104
 5895SOL     OW18583   6.308   3.414   4.083
 5895SOL    HW118584   6.380   3.348   4.063
 5895SOL    HW218585   6.220   3.380   4.050
 5896SOL     OW18586   5.004   1.312   1.725
 5896SOL    HW118587   4.985   1.301   1.627
 5896SOL    HW218588   5.046   1.228   1.760
 5897SOL     OW18589   3.993   1.510   1.733
 5897SOL    HW118590   3.905   1.469   1.757
 5897SOL    HW218591   3.981   1.566   1.651
 5898SOL     OW18592   2.318   1.139   5.416
 5898SOL    HW118593   2.364   1.213   5.466
 5898SOL    HW218594   2.376   1.107   5.342
 5899SOL     OW18595   6.927   5.593   6.082
 5899SOL    HW118596   6.839   5.639   6.066
 5899SOL    HW218597   6.928   5.552   6.173
 5900SOL     OW18598   6.791   5.414   3.556
 5900SOL    HW118599   6.849   5.338   3.585
 5900SOL    HW218600   6.695   5.391   3.573
 5901SOL     OW18601   1.519   0.977   0.814
 5901SOL    HW118602   1.508   1.055   0.753
 5901SOL    HW218603   1.526   1.010   0.909
 5902SOL     OW18604   5.728   3.559   5.198
 5902SOL    HW118605   5.797   3.628   5.222
 5902SOL    HW218606   5.684   3.585   5.112
 5903SOL     OW18607   5.228   2.596   6.570
 5903SOL    HW118608   5.196   2.564   6.480
 5903SOL    HW218609   5.159   2.657   6.610
 5904SOL     OW18610   1.600   4.368   1.207
 5904SOL    HW118611   1.649   4.456   1.212
 5904SOL    HW218612   1.619   4.325   1.118
 5905SOL     OW18613   5.278   1.117   3.939
 5905SOL    HW118614   5.206   1.181   3.914
 5905SOL    HW218615   5.294   1.054   3.864
 5906SOL     OW18616   5.468   1.586   5.261
 5906SOL    HW118617   5.450   1.517   5.191
 5906SOL    HW218618   5.516   1.543   5.337
 5907SOL     OW18619   1.375   6.761   0.631
 5907SOL    HW118620   1.458   6.721   0.593
 5907SOL    HW218621   1.319   6.798   0.556
 5908SOL     OW18622   5.259   3.745   0.394
 5908SOL    HW118623   5.321   3.691   0.450
 5908SOL    HW218624   5.249   3.702   0.304
 5909SOL     OW18625   0.721   4.419   6.281
 5909SOL    HW118626   0.687   4.506   6.315
 5909SOL    HW218627   0.811   4.432   6.240
 5910SOL     OW18628   1.577   4.279   0.476
 5910SOL    HW118629   1.662   4.243   0.439
 5910SOL    HW218630   1.500   4.233   0.433
 5911SOL     OW18631   0.635   5.780   6.171
 5911SOL    HW118632   0.608   5.749   6.080
 5911SOL    HW218633   0.712   5.843   6.164
 5912SOL     OW18634   6.318   3.450   6.877
 5912SOL    HW118635   6.239   3.486   6.828
 5912SOL    HW218636   6.312   3.350   6.880
 5913SOL     OW18637   2.137   2.989   5.799
 5913SOL    HW118638   2.213   3.053   5.807
 5913SOL    HW218639   2.172   2.896   5.782
 5914SOL     OW18640   2.428   5.727   7.007
 5914SOL    HW118641   2.387   5.637   6.994
 5914SOL    HW218642   2.378   5.795   6.953
 5915SOL     OW18643   5.499   3.387   1.941
 5915SOL    HW118644   5.450   3.469   1.972
 5915SOL    HW218645   5.450   3.347   1.864
 5916SOL     OW18646   4.118   0.280   5.803
 5916SOL    HW118647   4.183   0.235   5.742
 5916SOL    HW218648   4.081   0.362   5.758
 5917SOL     OW18649   3.829   3.265   3.531
 5917SOL    HW118650   3.897   3.251   3.459
 5917SOL    HW218651   3.874   3.266   3.620
 5918SOL     OW18652   2.133   3.618   4.717
 5918SOL    HW118653   2.041   3.600   4.750
 5918SOL    HW218654   2.175   3.690   4.771
 5919SOL     OW18655   3.223   1.608   6.958
 5919SOL    HW118656   3.208   1.703   6.930
 5919SOL    HW218657   3.138   1.557   6.951
 5920SOL     OW18658   3.446   0.214   7.005
 5920SOL    HW118659   3.380   0.225   0.054
 5920SOL    HW218660   3.503   0.134   7.023
 5921SOL     OW18661   3.576   4.929   5.122
 5921SOL    HW118662   3.500   4.871   5.151
 5921SOL    HW218663   3.660   4.875   5.119
 5922SOL     OW18664   6.448   5.132   3.492
 5922SOL    HW118665   6.392   5.143   3.410
 5922SOL    HW218666   6.541   5.105   3.466
 5923SOL     OW18667   6.517   1.223   2.684
 5923SOL    HW118668   6.431   1.200   2.639
 5923SOL    HW218669   6.593   1.196   2.625
 5924SOL     OW18670   5.703   2.609   4.814
 5924SOL    HW118671   5.703   2.702   4.852
 5924SOL    HW218672   5.695   2.543   4.889
 5925SOL     OW18673   4.412   6.632   2.942
 5925SOL    HW118674   4.503   6.625   2.983
 5925SOL    HW218675   4.385   6.728   2.940
 5926SOL     OW18676   3.295   5.075   1.735
 5926SOL    HW118677   3.197   5.084   1.751
 5926SOL    HW218678   3.328   4.988   1.773
 5927SOL     OW18679   1.938   4.407   2.216
 5927SOL    HW118680   2.026   4.452   2.201
 5927SOL    HW218681   1.952   4.320   2.262
 5928SOL     OW18682   2.759   0.274   2.525
 5928SOL    HW118683   2.807   0.188   2.539
 5928SOL    HW218684   2.800   0.323   2.448
 5929SOL     OW18685   0.710   6.183   6.045
 5929SOL    HW118686   0.748   6.184   5.953
 5929SOL    HW218687   0.613   6.207   6.042
 5930SOL     OW18688   5.604   1.491   3.877
 5930SOL    HW118689   5.561   1.405   3.849
 5930SOL    HW218690   5.567   1.565   3.821
 5931SOL     OW18691   5.652   4.992   2.570
 5931SOL    HW118692   5.613   5.071   2.617
 5931SOL    HW218693   5.619   4.988   2.476
 5932SOL     OW18694   2.182   6.578   0.939
 5932SOL    HW118695   2.110   6.583   0.870
 5932SOL    HW218696   2.202   6.482   0.959
 5933SOL     OW18697   6.775   4.779   2.042
 5933SOL    HW118698   6.837   4.834   1.986
 5933SOL    HW218699   6.681   4.812   2.030
 5934SOL     OW18700   3.310   3.687   3.929
 5934SOL    HW118701   3.258   3.629   3.993
 5934SOL    HW218702   3.269   3.680   3.838
 5935SOL     OW18703   3.749   3.453   4.733
 5935SOL    HW118704   3.767   3.551   4.723
 5935SOL    HW218705   3.825   3.401   4.693
 5936SOL     OW18706   4.133   3.529   6.441
 5936SOL    HW118707   4.077   3.576   6.509
 5936SOL    HW218708   4.195   3.465   6.486
 5937SOL     OW18709   0.403   4.242   1.914
 5937SOL    HW118710   0.439   4.296   1.990
 5937SOL    HW218711   0.324   4.290   1.874
 5938SOL     OW18712   1.296   4.829   3.954
 5938SOL    HW118713   1.312   4.771   4.034
 5938SOL    HW218714   1.243   4.909   3.981
 5939SOL     OW18715   3.374   0.259   3.425
 5939SOL    HW118716   3.277   0.283   3.426
 5939SOL    HW218717   3.421   0.308   3.497
 5940SOL     OW18718   4.538   6.764   2.253
 5940SOL    HW118719   4.501   6.771   2.345
 5940SOL    HW218720   4.636   6.784   2.254
 5941SOL     OW18721   6.307   4.621   1.975
 5941SOL    HW118722   6.268   4.710   1.998
 5941SOL    HW218723   6.237   4.550   1.982
 5942SOL     OW18724   4.394   2.960   6.407
 5942SOL    HW118725   4.330   3.036   6.401
 5942SOL    HW218726   4.488   2.995   6.410
 5943SOL     OW18727   2.803   6.115   0.110
 5943SOL    HW118728   2.795   6.025   0.067
 5943SOL    HW218729   2.769   6.185   0.047
 5944SOL     OW18730   5.961   1.694   1.704
 5944SOL    HW118731   5.894   1.767   1.713
 5944SOL    HW218732   6.009   1.682   1.791
 5945SOL     OW18733   0.121   4.947   5.706
 5945SOL    HW118734   0.139   4.938   5.609
 5945SOL    HW218735   0.026   4.977   5.720
 5946SOL     OW18736   3.497   3.922   5.533
 5946SOL    HW118737   3.529   3.831   5.559
 5946SOL    HW218738   3.398   3.923   5.531
 5947SOL     OW18739   3.805   2.880   2.098
 5947SOL    HW118740   3.763   2.906   2.185
 5947SOL    HW218741   3.800   2.781   2.086
 5948SOL     OW18742   3.765   5.274   3.042
 5948SOL    HW118743   3.856   5.284   3.082
 5948SOL    HW218744   3.696   5.285   3.113
 5949SOL     OW18745   4.096   3.826   1.323
 5949SOL    HW118746   4.165   3.762   1.356
 5949SOL    HW218747   4.012   3.777   1.301
 5950SOL     OW18748   5.455   3.118   5.674
 5950SOL    HW118749   5.422   3.211   5.690
 5950SOL    HW218750   5.513   3.116   5.592
 5951SOL     OW18751   0.570   6.433   4.927
 5951SOL    HW118752   0.526   6.484   5.001
 5951SOL    HW218753   0.512   6.357   4.899
 5952SOL     OW18754   5.797   6.609   4.119
 5952SOL    HW118755   5.879   6.645   4.163
 5952SOL    HW218756   5.759   6.534   4.175
 5953SOL     OW18757   0.037   2.735   5.555
 5953SOL    HW118758   0.029   2.814   5.616
 5953SOL    HW218759   0.105   2.672   5.591
 5954SOL     OW18760   7.022   4.524   5.898
 5954SOL    HW118761   6.984   4.470   5.973
 5954SOL    HW218762   0.017   4.465   5.821
 5955SOL     OW18763   6.330   6.072   1.987
 5955SOL    HW118764   6.334   6.171   2.003
 5955SOL    HW218765   6.404   6.046   1.925
 5956SOL     OW18766   3.509   1.771   0.650
 5956SOL    HW118767   3.462   1.854   0.679
 5956SOL    HW218768   3.462   1.733   0.570
 5957SOL     OW18769   4.913   6.815   5.808
 5957SOL    HW118770   4.899   6.719   5.782
 5957SOL    HW218771   4.898   6.873   5.728
 5958SOL     OW18772   5.731   6.413   2.410
 5958SOL    HW118773   5.717   6.403   2.312
 5958SOL    HW218774   5.643   6.409   2.457
 5959SOL     OW18775   3.517   1.612   5.317
 5959SOL    HW118776   3.539   1.702   5.279
 5959SOL    HW218777   3.482   1.552   5.244
 5960SOL     OW18778   3.797   6.997   4.048
 5960SOL    HW118779   3.765   6.902   4.054
 5960SOL    HW218780   3.744   0.020   3.978
 5961SOL     OW18781   4.414   1.352   3.531
 5961SOL    HW118782   4.472   1.286   3.579
 5961SOL    HW218783   4.447   1.445   3.548
 5962SOL     OW18784   5.304   5.666   1.933
 5962SOL    HW118785   5.225   5.679   1.874
 5962SOL    HW218786   5.279   5.610   2.012
 5963SOL     OW18787   3.855   3.292   3.934
 5963SOL    HW118788   3.779   3.346   3.900
 5963SOL    HW218789   3.872   3.316   4.030
 5964SOL     OW18790   0.179   4.977   6.244
 5964SOL    HW118791   0.205   5.002   6.337
 5964SOL    HW218792   0.104   5.035   6.213
 5965SOL     OW18793   1.934   1.731   6.173
 5965SOL    HW118794   1.903   1.827   6.174
 5965SOL    HW218795   2.014   1.721   6.231
 5966SOL     OW18796   2.776   5.291   5.434
 5966SOL    HW118797   2.831   5.373   5.449
 5966SOL    HW218798   2.699   5.314   5.374
 5967SOL     OW18799   3.999   6.335   2.374
 5967SOL    HW118800   3.994   6.311   2.277
 5967SOL    HW218801   3.910   6.369   2.404
 5968SOL     OW18802   5.959   1.717   3.142
 5968SOL    HW118803   5.897   1.764   3.205
 5968SOL    HW218804   5.976   1.624   3.175
 5969SOL     OW18805   6.255   1.649   5.181
 5969SOL    HW118806   6.290   1.732   5.137
 5969SOL    HW218807   6.324   1.577   5.175
 5970SOL     OW18808   0.252   4.876   2.807
 5970SOL    HW118809   0.216   4.797   2.857
 5970SOL    HW218810   0.343   4.854   2.772
 5971SOL     OW18811   2.200   0.165   3.074
 5971SOL    HW118812   2.122   0.204   3.025
 5971SOL    HW218813   2.241   0.092   3.020
 5972SOL     OW18814   4.059   6.434   0.580
 5972SOL    HW118815   4.127   6.364   0.559
 5972SOL    HW218816   4.090   6.488   0.658
 5973SOL     OW18817   1.939   5.445   2.726
 5973SOL    HW118818   1.850   5.405   2.748
 5973SOL    HW218819   2.011   5.390   2.770
 5974SOL     OW18820   5.648   4.080   6.175
 5974SOL    HW118821   5.693   4.113   6.092
 5974SOL    HW218822   5.552   4.109   6.175
 5975SOL     OW18823   4.102   2.088   0.779
 5975SOL    HW118824   4.160   2.158   0.737
 5975SOL    HW218825   4.093   2.010   0.717
 5976SOL     OW18826   2.869   3.580   5.038
 5976SOL    HW118827   2.846   3.677   5.036
 5976SOL    HW218828   2.859   3.544   5.131
 5977SOL     OW18829   1.537   4.804   1.727
 5977SOL    HW118830   1.497   4.726   1.774
 5977SOL    HW218831   1.472   4.839   1.659
 5978SOL     OW18832   5.628   5.201   2.832
 5978SOL    HW118833   5.556   5.150   2.878
 5978SOL    HW218834   5.704   5.217   2.894
 5979SOL     OW18835   6.979   0.644   3.014
 5979SOL    HW118836   6.932   0.655   3.102
 5979SOL    HW218837   6.919   0.595   2.951
 5980SOL     OW18838   3.727   4.349   6.795
 5980SOL    HW118839   3.770   4.292   6.725
 5980SOL    HW218840   3.628   4.343   6.787
 5981SOL     OW18841   6.831   1.747   1.973
 5981SOL    HW118842   6.908   1.782   1.920
 5981SOL    HW218843   6.815   1.806   2.052
 5982SOL     OW18844   6.026   1.964   6.687
 5982SOL    HW118845   6.116   1.925   6.669
 5982SOL    HW218846   5.968   1.896   6.731
 5983SOL     OW18847   2.596   1.653   4.224
 5983SOL    HW118848   2.694   1.658   4.245
 5983SOL    HW218849   2.571   1.558   4.206
 5984SOL     OW18850   0.313   0.122   4.539
 5984SOL    HW118851   0.348   0.153   4.451
 5984SOL    HW218852   0.306   0.200   4.601
 5985SOL     OW18853   5.383   2.670   4.585
 5985SOL    HW118854   5.419   2.638   4.673
 5985SOL    HW218855   5.457   2.711   4.532
 5986SOL     OW18856   3.423   2.878   4.276
 5986SOL    HW118857   3.399   2.890   4.179
 5986SOL    HW218858   3.366   2.807   4.316
 5987SOL     OW18859   4.277   1.017   5.049
 5987SOL    HW118860   4.205   1.011   5.118
 5987SOL    HW218861   4.328   1.103   5.060
 5988SOL     OW18862   4.148   6.106   4.814
 5988SOL    HW118863   4.094   6.087   4.733
 5988SOL    HW218864   4.092   6.154   4.882
 5989SOL     OW18865   2.445   6.351   6.525
 5989SOL    HW118866   2.410   6.444   6.536
 5989SOL    HW218867   2.415   6.315   6.436
 5990SOL     OW18868   3.582   4.013   0.764
 5990SOL    HW118869   3.670   4.050   0.735
 5990SOL    HW218870   3.555   3.938   0.703
 5991SOL     OW18871   4.364   4.874   5.003
 5991SOL    HW118872   4.265   4.881   5.015
 5991SOL    HW218873   4.385   4.861   4.906
 5992SOL     OW18874   3.831   0.378   3.868
 5992SOL    HW118875   3.774   0.459   3.879
 5992SOL    HW218876   3.928   0.405   3.869
 5993SOL     OW18877   3.403   6.876   5.874
 5993SOL    HW118878   3.363   6.786   5.889
 5993SOL    HW218879   3.470   6.895   5.946
 5994SOL     OW18880   6.027   2.276   1.667
 5994SOL    HW118881   6.080   2.195   1.691
 5994SOL    HW218882   6.084   2.358   1.678
 5995SOL     OW18883   6.787   5.378   1.291
 5995SOL    HW118884   6.810   5.288   1.328
 5995SOL    HW218885   6.704   5.412   1.335
 5996SOL     OW18886   0.752   5.534   6.596
 5996SOL    HW118887   0.718   5.567   6.508
 5996SOL    HW218888   0.797   5.608   6.645
 5997SOL     OW18889   0.806   6.717   2.611
 5997SOL    HW118890   0.762   6.804   2.631
 5997SOL    HW218891   0.736   6.649   2.588
 5998SOL     OW18892   5.127   2.552   2.481
 5998SOL    HW118893   5.141   2.586   2.388
 5998SOL    HW218894   5.035   2.577   2.512
 5999SOL     OW18895   1.036   2.370   2.867
 5999SOL    HW118896   1.083   2.453   2.897
 5999SOL    HW218897   1.070   2.292   2.919
 6000SOL     OW18898   4.168   5.597   2.196
 6000SOL    HW118899   4.148   5.616   2.100
 6000SOL    HW218900   4.138   5.674   2.252
 6001SOL     OW18901   0.759   4.112   6.384
 6001SOL    HW118902   0.691   4.141   6.317
 6001SOL    HW218903   0.713   4.075   6.465
 6002SOL     OW18904   0.649   6.644   1.414
 6002SOL    HW118905   0.645   6.743   1.400
 6002SOL    HW218906   0.738   6.619   1.452
 6003SOL     OW18907   6.146   2.686   4.685
 6003SOL    HW118908   6.232   2.634   4.687
 6003SOL    HW218909   6.090   2.655   4.609
 6004SOL     OW18910   0.205   4.060   3.312
 6004SOL    HW118911   0.186   4.072   3.215
 6004SOL    HW218912   0.224   4.148   3.354
 6005SOL     OW18913   4.307   4.843   4.362
 6005SOL    HW118914   4.383   4.824   4.424
 6005SOL    HW218915   4.297   4.768   4.297
 6006SOL     OW18916   3.632   0.006   0.036
 6006SOL    HW118917   3.630   7.023   0.136
 6006SOL    HW218918   3.673   6.949   7.022
 6007SOL     OW18919   4.862   2.814   3.773
 6007SOL    HW118920   4.959   2.838   3.779
 6007SOL    HW218921   4.827   2.840   3.683
 6008SOL     OW18922   2.608   5.559   5.689
 6008SOL    HW118923   2.575   5.622   5.759
 6008SOL    HW218924   2.658   5.484   5.732
 6009SOL     OW18925   2.832   1.449   4.818
 6009SOL    HW118926   2.870   1.375   4.872
 6009SOL    HW218927   2.843   1.536   4.867
 6010SOL     OW18928   2.234   4.470   2.147
 6010SOL    HW118929   2.251   4.565   2.173
 6010SOL    HW218930   2.320   4.425   2.124
 6011SOL     OW18931   5.181   2.299   1.932
 6011SOL    HW118932   5.091   2.342   1.933
 6011SOL    HW218933   5.172   2.202   1.958
 6012SOL     OW18934   6.968   2.143   0.354
 6012SOL    HW118935   6.950   2.047   0.335
 6012SOL    HW218936   6.929   2.167   0.443
 6013SOL     OW18937   5.944   1.404   2.717
 6013SOL    HW118938   5.996   1.477   2.674
 6013SOL    HW218939   5.887   1.442   2.790
 6014SOL     OW18940   4.651   1.546   0.694
 6014SOL    HW118941   4.596   1.475   0.736
 6014SOL    HW218942   4.743   1.511   0.676
 6015SOL     OW18943   6.002   2.714   5.887
 6015SOL    HW118944   5.909   2.733   5.856
 6015SOL    HW218945   6.054   2.800   5.890
 6016SOL     OW18946   0.800   1.096   5.953
 6016SOL    HW118947   0.714   1.103   6.004
 6016SOL    HW218948   0.803   1.009   5.904
 6017SOL     OW18949   6.226   5.299   2.728
 6017SOL    HW118950   6.188   5.391   2.735
 6017SOL    HW218951   6.153   5.232   2.720
 6018SOL     OW18952   3.704   2.857   0.316
 6018SOL    HW118953   3.675   2.833   0.409
 6018SOL    HW218954   3.623   2.870   0.259
 6019SOL     OW18955   4.872   2.001   4.156
 6019SOL    HW118956   4.874   1.922   4.217
 6019SOL    HW218957   4.938   2.070   4.188
 6020SOL     OW18958   2.025   6.505   1.659
 6020SOL    HW118959   2.068   6.532   1.573
 6020SOL    HW218960   2.028   6.582   1.723
 6021SOL     OW18961   4.745   6.895   2.883
 6021SOL    HW118962   4.829   6.906   2.829
 6021SOL    HW218963   4.723   6.798   2.892
 6022SOL     OW18964   4.496   0.718   4.652
 6022SOL    HW118965   4.543   0.786   4.709
 6022SOL    HW218966   4.443   0.766   4.582
 6023SOL     OW18967   6.274   1.559   2.871
 6023SOL    HW118968   6.352   1.536   2.929
 6023SOL    HW218969   6.269   1.658   2.859
 6024SOL     OW18970   0.415   4.626   3.200
 6024SOL    HW118971   0.459   4.556   3.256
 6024SOL    HW218972   0.443   4.717   3.232
 6025SOL     OW18973   4.488   0.333   2.222
 6025SOL    HW118974   4.401   0.361   2.182
 6025SOL    HW218975   4.517   0.246   2.182
 6026SOL     OW18976   0.321   4.276   4.311
 6026SOL    HW118977   0.335   4.311   4.218
 6026SOL    HW218978   0.295   4.180   4.306
 6027SOL     OW18979   2.043   3.810   5.684
 6027SOL    HW118980   2.062   3.906   5.706
 6027SOL    HW218981   1.955   3.805   5.636
 6028SOL     OW18982   1.029   3.953   0.481
 6028SOL    HW118983   1.015   3.865   0.436
 6028SOL    HW218984   1.054   4.021   0.412
 6029SOL     OW18985   2.104   6.512   6.812
 6029SOL    HW118986   2.075   6.593   6.761
 6029SOL    HW218987   2.023   6.461   6.842
 6030SOL     OW18988   2.771   0.450   3.364
 6030SOL    HW118989   2.804   0.475   3.454
 6030SOL    HW218990   2.825   0.496   3.294
 6031SOL     OW18991   4.410   5.530   4.603
 6031SOL    HW118992   4.431   5.491   4.513
 6031SOL    HW218993   4.440   5.467   4.674
 6032SOL     OW18994   1.615   3.562   2.307
 6032SOL    HW118995   1.709   3.597   2.297
 6032SOL    HW218996   1.594   3.503   2.230
 6033SOL     OW18997   2.010   2.415   2.827
 6033SOL    HW118998   2.051   2.406   2.736
 6033SOL    HW218999   1.911   2.410   2.820
 6034SOL     OW19000   2.041   5.196   4.574
 6034SOL    HW119001   2.070   5.101   4.586
 6034SOL    HW219002   2.111   5.258   4.609
 6035SOL     OW19003   6.306   1.581   3.938
 6035SOL    HW119004   6.372   1.549   4.006
 6035SOL    HW219005   6.348   1.583   3.848
 6036SOL     OW19006   0.224   6.839   4.600
 6036SOL    HW119007   0.245   6.935   4.586
 6036SOL    HW219008   0.263   6.808   4.686
 6037SOL     OW19009   4.812   5.376   6.275
 6037SOL    HW119010   4.873   5.373   6.354
 6037SOL    HW219011   4.863   5.409   6.195
 6038SOL     OW19012   0.901   3.034   6.020
 6038SOL    HW119013   0.989   3.083   6.025
 6038SOL    HW219014   0.906   2.951   6.075
 6039SOL     OW19015   3.475   3.574   3.218
 6039SOL    HW119016   3.460   3.512   3.141
 6039SOL    HW219017   3.496   3.666   3.184
 6040SOL     OW19018   0.319   1.842   6.295
 6040SOL    HW119019   0.354   1.782   6.367
 6040SOL    HW219020   0.342   1.937   6.317
 6041SOL     OW19021   1.658   1.737   6.155
 6041SOL    HW119022   1.739   1.783   6.191
 6041SOL    HW219023   1.671   1.638   6.161
 6042SOL     OW19024   5.915   5.136   1.744
 6042SOL    HW119025   5.833   5.092   1.781
 6042SOL    HW219026   5.943   5.211   1.804
 6043SOL     OW19027   1.255   4.728   4.842
 6043SOL    HW119028   1.167   4.775   4.834
 6043SOL    HW219029   1.282   4.724   4.938
 6044SOL     OW19030   0.366   2.223   0.997
 6044SOL    HW119031   0.399   2.132   0.974
 6044SOL    HW219032   0.408   2.291   0.937
 6045SOL     OW19033   5.175   5.577   1.470
 6045SOL    HW119034   5.121   5.628   1.403
 6045SOL    HW219035   5.139   5.596   1.562
 6046SOL     OW19036   3.057   1.782   0.907
 6046SOL    HW119037   3.108   1.863   0.935
 6046SOL    HW219038   2.967   1.810   0.872
 6047SOL     OW19039   6.354   1.451   3.467
 6047SOL    HW119040   6.453   1.458   3.483
 6047SOL    HW219041   6.311   1.405   3.544
 6048SOL     OW19042   4.582   6.917   3.354
 6048SOL    HW119043   4.498   6.887   3.307
 6048SOL    HW219044   4.592   6.865   3.439
 6049SOL     OW19045   5.266   3.645   6.489
 6049SOL    HW119046   5.247   3.726   6.545
 6049SOL    HW219047   5.223   3.655   6.399
 6050SOL     OW19048   3.731   4.352   5.741
 6050SOL    HW119049   3.647   4.400   5.719
 6050SOL    HW219050   3.720   4.254   5.723
 6051SOL     OW19051   2.322   2.035   3.210
 6051SOL    HW119052   2.319   2.052   3.112
 6051SOL    HW219053   2.415   2.051   3.244
 6052SOL     OW19054   6.697   0.050   0.660
 6052SOL    HW119055   6.750   7.013   0.716
 6052SOL    HW219056   6.746   0.069   0.575
 6053SOL     OW19057   3.681   0.340   6.652
 6053SOL    HW119058   3.623   0.370   6.727
 6053SOL    HW219059   3.775   0.369   6.667
 6054SOL     OW19060   2.394   3.559   0.903
 6054SOL    HW119061   2.305   3.539   0.945
 6054SOL    HW219062   2.379   3.603   0.815
 6055SOL     OW19063   5.257   0.696   6.012
 6055SOL    HW119064   5.314   0.778   6.017
 6055SOL    HW219065   5.228   0.670   6.105
 6056SOL     OW19066   4.731   1.720   5.135
 6056SOL    HW119067   4.672   1.760   5.066
 6056SOL    HW219068   4.708   1.623   5.147
 6057SOL     OW19069   4.575   2.103   4.546
 6057SOL    HW119070   4.660   2.103   4.599
 6057SOL    HW219071   4.596   2.101   4.448
 6058SOL     OW19072   5.488   3.090   2.762
 6058SOL    HW119073   5.459   3.068   2.855
 6058SOL    HW219074   5.558   3.024   2.733
 6059SOL     OW19075   4.707   5.490   5.893
 6059SOL    HW119076   4.615   5.457   5.869
 6059SOL    HW219077   4.774   5.420   5.868
 6060SOL     OW19078   3.305   3.650   5.390
 6060SOL    HW119079   3.402   3.668   5.409
 6060SOL    HW219080   3.296   3.560   5.349
 6061SOL     OW19081   3.709   2.868   0.677
 6061SOL    HW119082   3.757   2.804   0.738
 6061SOL    HW219083   3.630   2.823   0.637
 6062SOL     OW19084   2.695   1.785   4.532
 6062SOL    HW119085   2.672   1.688   4.528
 6062SOL    HW219086   2.776   1.797   4.589
 6063SOL     OW19087   4.185   1.441   6.492
 6063SOL    HW119088   4.253   1.507   6.525
 6063SOL    HW219089   4.121   1.420   6.566
 6064SOL     OW19090   2.303   5.467   2.873
 6064SOL    HW119091   2.229   5.517   2.919
 6064SOL    HW219092   2.302   5.372   2.903
 6065SOL     OW19093   6.056   6.673   1.191
 6065SOL    HW119094   5.965   6.665   1.151
 6065SOL    HW219095   6.098   6.583   1.198
 6066SOL     OW19096   4.450   1.524   1.120
 6066SOL    HW119097   4.510   1.593   1.161
 6066SOL    HW219098   4.504   1.444   1.094
 6067SOL     OW19099   6.519   1.838   6.909
 6067SOL    HW119100   6.433   1.888   6.912
 6067SOL    HW219101   6.595   1.902   6.927
 6068SOL     OW19102   5.716   3.682   4.887
 6068SOL    HW119103   5.742   3.728   4.802
 6068SOL    HW219104   5.769   3.598   4.897
 6069SOL     OW19105   6.551   3.631   6.196
 6069SOL    HW119106   6.646   3.661   6.188
 6069SOL    HW219107   6.494   3.709   6.224
 6070SOL     OW19108   2.936   1.827   6.270
 6070SOL    HW119109   3.022   1.793   6.234
 6070SOL    HW219110   2.867   1.829   6.198
 6071SOL     OW19111   4.631   6.294   5.726
 6071SOL    HW119112   4.618   6.199   5.751
 6071SOL    HW219113   4.702   6.335   5.784
 6072SOL     OW19114   0.975   1.310   2.138
 6072SOL    HW119115   1.055   1.338   2.085
 6072SOL    HW219116   1.001   1.236   2.200
 6073SOL     OW19117   6.472   3.490   0.578
 6073SOL    HW119118   6.374   3.507   0.570
 6073SOL    HW219119   6.520   3.542   0.508
 6074SOL     OW19120   1.629   6.603   4.651
 6074SOL    HW119121   1.633   6.505   4.633
 6074SOL    HW219122   1.574   6.620   4.733
 6075SOL     OW19123   6.647   2.677   6.575
 6075SOL    HW119124   6.638   2.596   6.634
 6075SOL    HW219125   6.557   2.718   6.562
 6076SOL     OW19126   1.979   6.804   5.180
 6076SOL    HW119127   1.980   6.736   5.254
 6076SOL    HW219128   2.048   6.874   5.199
 6077SOL     OW19129   4.781   5.645   2.600
 6077SOL    HW119130   4.784   5.744   2.593
 6077SOL    HW219131   4.696   5.617   2.645
 6078SOL     OW19132   3.373   4.965   2.299
 6078SOL    HW119133   3.451   4.938   2.355
 6078SOL    HW219134   3.387   4.931   2.206
 6079SOL     OW19135   3.282   3.486   6.426
 6079SOL    HW119136   3.226   3.551   6.375
 6079SOL    HW219137   3.279   3.509   6.524
 6080SOL     OW19138   7.022   1.948   1.234
 6080SOL    HW119139   7.007   1.983   1.141
 6080SOL    HW219140   6.953   1.987   1.295
 6081SOL     OW19141   6.564   3.735   4.776
 6081SOL    HW119142   6.561   3.762   4.680
 6081SOL    HW219143   6.472   3.711   4.807
 6082SOL     OW19144   3.505   0.909   3.570
 6082SOL    HW119145   3.582   0.954   3.614
 6082SOL    HW219146   3.455   0.975   3.513
 6083SOL     OW19147   0.954   5.433   6.377
 6083SOL    HW119148   0.870   5.426   6.324
 6083SOL    HW219149   0.975   5.529   6.394
 6084SOL     OW19150   0.039   5.790   4.106
 6084SOL    HW119151   0.120   5.776   4.163
 6084SOL    HW219152   0.054   5.867   4.045
 6085SOL     OW19153   6.859   4.120   0.423
 6085SOL    HW119154   6.848   4.032   0.468
 6085SOL    HW219155   6.895   4.106   0.330
 6086SOL     OW19156   3.721   1.557   4.650
 6086SOL    HW119157   3.628   1.533   4.623
 6086SOL    HW219158   3.751   1.639   4.601
 6087SOL     OW19159   5.097   0.008   6.985
 6087SOL    HW119160   5.086   0.064   0.042
 6087SOL    HW219161   5.046   0.050   6.910
 6088SOL     OW19162   0.124   6.172   4.290
 6088SOL    HW119163   0.209   6.189   4.241
 6088SOL    HW219164   0.108   6.245   4.357
 6089SOL     OW19165   0.314   3.982   1.844
 6089SOL    HW119166   0.328   4.077   1.871
 6089SOL    HW219167   0.281   3.979   1.750
 6090SOL     OW19168   0.541   6.040   6.554
 6090SOL    HW119169   0.520   5.972   6.624
 6090SOL    HW219170   0.638   6.033   6.528
 6091SOL     OW19171   0.906   1.408   2.598
 6091SOL    HW119172   0.820   1.457   2.612
 6091SOL    HW219173   0.915   1.384   2.501
 6092SOL     OW19174   2.840   0.534   3.092
 6092SOL    HW119175   2.772   0.475   3.050
 6092SOL    HW219176   2.923   0.533   3.036
 6093SOL     OW19177   1.448   2.735   2.322
 6093SOL    HW119178   1.541   2.765   2.304
 6093SOL    HW219179   1.450   2.651   2.376
 6094SOL     OW19180   2.424   1.349   1.573
 6094SOL    HW119181   2.477   1.421   1.528
 6094SOL    HW219182   2.348   1.322   1.514
 6095SOL     OW19183   4.652   3.077   6.656
 6095SOL    HW119184   4.678   2.989   6.617
 6095SOL    HW219185   4.644   3.145   6.583
 6096SOL     OW19186   5.814   0.688   3.986
 6096SOL    HW119187   5.878   0.766   3.985
 6096SOL    HW219188   5.726   0.717   3.949
 6097SOL     OW19189   2.249   0.498   3.056
 6097SOL    HW119190   2.267   0.566   3.127
 6097SOL    HW219191   2.173   0.439   3.084
 6098SOL     OW19192   1.706   2.336   5.683
 6098SOL    HW119193   1.685   2.289   5.769
 6098SOL    HW219194   1.697   2.272   5.607
 6099SOL     OW19195   5.564   5.804   5.822
 6099SOL    HW119196   5.653   5.849   5.830
 6099SOL    HW219197   5.544   5.786   5.726
 6100SOL     OW19198   5.906   3.060   6.537
 6100SOL    HW119199   5.817   3.072   6.494
 6100SOL    HW219200   5.904   2.980   6.597
 6101SOL     OW19201   6.818   1.803   5.674
 6101SOL    HW119202   6.785   1.744   5.600
 6101SOL    HW219203   6.861   1.884   5.636
 6102SOL     OW19204   3.438   1.175   4.800
 6102SOL    HW119205   3.514   1.119   4.768
 6102SOL    HW219206   3.388   1.212   4.721
 6103SOL     OW19207   0.153   0.697   3.822
 6103SOL    HW119208   0.163   0.663   3.729
 6103SOL    HW219209   0.107   0.627   3.878
 6104SOL     OW19210   6.571   2.249   6.588
 6104SOL    HW119211   6.590   2.151   6.587
 6104SOL    HW219212   6.492   2.268   6.528
 6105SOL     OW19213   3.347   6.479   5.407
 6105SOL    HW119214   3.444   6.503   5.407
 6105SOL    HW219215   3.310   6.491   5.315
 6106SOL     OW19216   2.483   4.991   6.051
 6106SOL    HW119217   2.406   4.961   6.108
 6106SOL    HW219218   2.448   5.024   5.963
 6107SOL     OW19219   2.206   5.083   4.248
 6107SOL    HW119220   2.109   5.086   4.273
 6107SOL    HW219221   2.218   5.034   4.162
 6108SOL     OW19222   0.754   2.154   3.001
 6108SOL    HW119223   0.753   2.181   2.905
 6108SOL    HW219224   0.676   2.095   3.020
 6109SOL     OW19225   5.015   2.760   6.728
 6109SOL    HW119226   5.047   2.852   6.708
 6109SOL    HW219227   4.916   2.760   6.739
 6110SOL     OW19228   2.643   2.662   6.769
 6110SOL    HW119229   2.544   2.658   6.757
 6110SOL    HW219230   2.685   2.582   6.727
 6111SOL     OW19231   1.307   5.007   2.521
 6111SOL    HW119232   1.227   4.970   2.568
 6111SOL    HW219233   1.363   4.932   2.485
 6112SOL     OW19234   2.077   2.056   2.951
 6112SOL    HW119235   2.049   2.004   3.032
 6112SOL    HW219236   2.026   2.142   2.947
 6113SOL     OW19237   0.552   1.105   6.073
 6113SOL    HW119238   0.575   1.050   6.154
 6113SOL    HW219239   0.494   1.182   6.100
 6114SOL     OW19240   5.047   5.169   0.891
 6114SOL    HW119241   4.970   5.222   0.926
 6114SOL    HW219242   5.120   5.167   0.958
 6115SOL     OW19243   5.060   5.283   3.416
 6115SOL    HW119244   5.137   5.232   3.455
 6115SOL    HW219245   5.083   5.380   3.412
 6116SOL     OW19246   3.132   0.913   1.762
 6116SOL    HW119247   3.065   0.887   1.692
 6116SOL    HW219248   3.091   0.980   1.824
 6117SOL     OW19249   6.638   0.307   5.192
 6117SOL    HW119250   6.679   0.366   5.122
 6117SOL    HW219251   6.705   0.291   5.264
 6118SOL     OW19252   0.374   2.491   1.645
 6118SOL    HW119253   0.353   2.399   1.613
 6118SOL    HW219254   0.305   2.519   1.713
 6119SOL     OW19255   0.092   4.426   4.381
 6119SOL    HW119256   0.164   4.368   4.343
 6119SOL    HW219257   0.021   4.441   4.312
 6120SOL     OW19258   3.150   0.177   3.919
 6120SOL    HW119259   3.106   0.140   3.837
 6120SOL    HW219260   3.170   0.274   3.905
 6121SOL     OW19261   6.872   2.646   4.643
 6121SOL    HW119262   6.943   2.656   4.573
 6121SOL    HW219263   6.908   2.673   4.732
 6122SOL     OW19264   3.825   6.595   2.606
 6122SOL    HW119265   3.775   6.584   2.692
 6122SOL    HW219266   3.798   6.522   2.543
 6123SOL     OW19267   0.220   0.927   1.380
 6123SOL    HW119268   0.300   0.962   1.428
 6123SOL    HW219269   0.167   1.003   1.343
 6124SOL     OW19270   3.360   6.749   4.999
 6124SOL    HW119271   3.458   6.733   5.012
 6124SOL    HW219272   3.346   6.814   4.925
 6125SOL     OW19273   2.385   5.656   1.162
 6125SOL    HW119274   2.352   5.749   1.177
 6125SOL    HW219275   2.456   5.635   1.229
 6126SOL     OW19276   5.112   5.940   4.119
 6126SOL    HW119277   5.202   5.982   4.115
 6126SOL    HW219278   5.055   5.987   4.186
 6127SOL     OW19279   2.155   6.948   1.246
 6127SOL    HW119280   2.146   6.982   1.340
 6127SOL    HW219281   2.217   6.870   1.245
 6128SOL     OW19282   6.851   3.039   0.540
 6128SOL    HW119283   6.812   3.119   0.495
 6128SOL    HW219284   6.786   2.964   0.538
 6129SOL     OW19285   6.432   3.843   2.750
 6129SOL    HW119286   6.351   3.861   2.693
 6129SOL    HW219287   6.515   3.861   2.697
 6130SOL     OW19288   6.626   3.227   4.684
 6130SOL    HW119289   6.567   3.232   4.764
 6130SOL    HW219290   6.705   3.287   4.697
 6131SOL     OW19291   0.216   1.620   5.599
 6131SOL    HW119292   0.295   1.659   5.551
 6131SOL    HW219293   0.211   1.522   5.580
 6132SOL     OW19294   3.418   0.786   1.093
 6132SOL    HW119295   3.483   0.835   1.151
 6132SOL    HW219296   3.463   0.761   1.007
 6133SOL     OW19297   0.557   3.252   2.864
 6133SOL    HW119298   0.533   3.308   2.944
 6133SOL    HW219299   0.478   3.195   2.839
 6134SOL     OW19300   3.856   3.172   6.221
 6134SOL    HW119301   3.767   3.194   6.183
 6134SOL    HW219302   3.910   3.255   6.231
 6135SOL     OW19303   6.276   0.198   2.072
 6135SOL    HW119304   6.266   0.132   2.147
 6135SOL    HW219305   6.365   0.243   2.080
 6136SOL     OW19306   0.608   1.128   2.633
 6136SOL    HW119307   0.532   1.086   2.585
 6136SOL    HW219308   0.691   1.075   2.618
 6137SOL     OW19309   3.658   1.275   6.121
 6137SOL    HW119310   3.707   1.307   6.202
 6137SOL    HW219311   3.722   1.261   6.046
 6138SOL     OW19312   3.512   6.612   2.479
 6138SOL    HW119313   3.458   6.603   2.563
 6138SOL    HW219314   3.588   6.547   2.481
 6139SOL     OW19315   1.940   3.217   5.125
 6139SOL    HW119316   1.952   3.316   5.127
 6139SOL    HW219317   2.014   3.176   5.072
 6140SOL     OW19318   0.619   6.636   2.078
 6140SOL    HW119319   0.575   6.547   2.087
 6140SOL    HW219320   0.551   6.708   2.096
 6141SOL     OW19321   6.243   6.324   4.494
 6141SOL    HW119322   6.177   6.275   4.551
 6141SOL    HW219323   6.298   6.385   4.551
 6142SOL     OW19324   0.413   5.237   0.710
 6142SOL    HW119325   0.426   5.291   0.793
 6142SOL    HW219326   0.370   5.294   0.640
 6143SOL     OW19327   5.777   4.624   6.666
 6143SOL    HW119328   5.804   4.554   6.601
 6143SOL    HW219329   5.762   4.711   6.618
 6144SOL     OW19330   7.011   4.529   2.790
 6144SOL    HW119331   0.022   4.527   2.883
 6144SOL    HW219332   7.004   4.623   2.759
 6145SOL     OW19333   4.971   5.774   3.527
 6145SOL    HW119334   5.028   5.835   3.582
 6145SOL    HW219335   4.888   5.752   3.578
 6146SOL     OW19336   4.534   0.920   3.498
 6146SOL    HW119337   4.453   0.940   3.443
 6146SOL    HW219338   4.575   0.835   3.467
 6147SOL     OW19339   1.611   4.816   3.044
 6147SOL    HW119340   1.546   4.750   3.081
 6147SOL    HW219341   1.603   4.818   2.944
 6148SOL     OW19342   6.981   6.353   3.834
 6148SOL    HW119343   6.970   6.305   3.921
 6148SOL    HW219344   6.915   6.428   3.829
 6149SOL     OW19345   3.425   4.984   3.428
 6149SOL    HW119346   3.330   4.982   3.395
 6149SOL    HW219347   3.487   4.964   3.352
 6150SOL     OW19348   4.269   5.212   6.894
 6150SOL    HW119349   4.245   5.198   6.991
 6150SOL    HW219350   4.303   5.304   6.881
 6151SOL     OW19351   5.896   3.468   4.913
 6151SOL    HW119352   5.929   3.421   4.832
 6151SOL    HW219353   5.829   3.410   4.960
 6152SOL     OW19354   5.282   4.854   5.800
 6152SOL    HW119355   5.346   4.923   5.766
 6152SOL    HW219356   5.206   4.845   5.736
 6153SOL     OW19357   4.633   4.065   1.621
 6153SOL    HW119358   4.721   4.020   1.605
 6153SOL    HW219359   4.560   3.996   1.623
 6154SOL     OW19360   5.328   1.379   2.085
 6154SOL    HW119361   5.276   1.394   2.001
 6154SOL    HW219362   5.325   1.462   2.141
 6155SOL     OW19363   1.410   2.946   4.292
 6155SOL    HW119364   1.486   2.881   4.297
 6155SOL    HW219365   1.326   2.899   4.266
 6156SOL     OW19366   4.486   5.790   2.579
 6156SOL    HW119367   4.560   5.765   2.517
 6156SOL    HW219368   4.474   5.718   2.647
 6157SOL     OW19369   1.319   2.495   3.511
 6157SOL    HW119370   1.343   2.417   3.568
 6157SOL    HW219371   1.384   2.502   3.435
 6158SOL     OW19372   4.737   0.807   6.744
 6158SOL    HW119373   4.802   0.819   6.670
 6158SOL    HW219374   4.657   0.865   6.729
 6159SOL     OW19375   5.049   1.617   6.915
 6159SOL    HW119376   5.091   1.666   6.991
 6159SOL    HW219377   4.967   1.569   6.948
 6160SOL     OW19378   5.471   5.807   0.458
 6160SOL    HW119379   5.391   5.856   0.424
 6160SOL    HW219380   5.443   5.718   0.494
 6161SOL     OW19381   6.007   1.832   5.686
 6161SOL    HW119382   6.030   1.929   5.679
 6161SOL    HW219383   5.951   1.816   5.767
 6162SOL     OW19384   0.701   5.021   4.501
 6162SOL    HW119385   0.694   5.092   4.572
 6162SOL    HW219386   0.680   4.932   4.541
 6163SOL     OW19387   5.569   5.413   1.047
 6163SOL    HW119388   5.490   5.353   1.035
 6163SOL    HW219389   5.557   5.467   1.131
 6164SOL     OW19390   2.052   2.719   1.875
 6164SOL    HW119391   1.978   2.702   1.810
 6164SOL    HW219392   2.062   2.640   1.935
 6165SOL     OW19393   4.105   5.968   0.312
 6165SOL    HW119394   4.048   5.977   0.393
 6165SOL    HW219395   4.048   5.969   0.230
 6166SOL     OW19396   3.323   1.074   5.588
 6166SOL    HW119397   3.313   0.985   5.544
 6166SOL    HW219398   3.358   1.141   5.522
 6167SOL     OW19399   0.962   4.750   2.419
 6167SOL    HW119400   0.983   4.787   2.509
 6167SOL    HW219401   0.888   4.683   2.426
 6168SOL     OW19402   0.792   3.654   1.062
 6168SOL    HW119403   0.734   3.573   1.068
 6168SOL    HW219404   0.817   3.684   1.154
 6169SOL     OW19405   1.839   3.022   1.821
 6169SOL    HW119406   1.805   3.101   1.772
 6169SOL    HW219407   1.939   3.029   1.831
 6170SOL     OW19408   0.395   3.246   5.150
 6170SOL    HW119409   0.322   3.228   5.216
 6170SOL    HW219410   0.431   3.159   5.117
 6171SOL     OW19411   0.472   1.493   0.617
 6171SOL    HW119412   0.401   1.478   0.549
 6171SOL    HW219413   0.488   1.408   0.667
 6172SOL     OW19414   0.801   2.490   3.201
 6172SOL    HW119415   0.840   2.582   3.201
 6172SOL    HW219416   0.858   2.430   3.144
 6173SOL     OW19417   6.680   5.736   2.868
 6173SOL    HW119418   6.728   5.766   2.785
 6173SOL    HW219419   6.588   5.706   2.844
 6174SOL     OW19420   5.027   5.028   3.273
 6174SOL    HW119421   5.007   5.120   3.308
 6174SOL    HW219422   5.111   4.994   3.314
 6175SOL     OW19423   3.489   0.787   4.814
 6175SOL    HW119424   3.424   0.723   4.773
 6175SOL    HW219425   3.452   0.820   4.901
 6176SOL     OW19426   4.436   3.631   5.271
 6176SOL    HW119427   4.504   3.571   5.229
 6176SOL    HW219428   4.352   3.629   5.218
 6177SOL     OW19429   5.881   1.859   1.418
 6177SOL    HW119430   5.940   1.779   1.408
 6177SOL    HW219431   5.875   1.884   1.515
 6178SOL     OW19432   4.901   3.648   1.747
 6178SOL    HW119433   4.999   3.632   1.754
 6178SOL    HW219434   4.851   3.568   1.780
 6179SOL     OW19435   6.765   4.940   1.468
 6179SOL    HW119436   6.722   4.994   1.395
 6179SOL    HW219437   6.797   4.852   1.430
 6180SOL     OW19438   3.055   4.872   0.920
 6180SOL    HW119439   3.105   4.873   1.007
 6180SOL    HW219440   3.119   4.879   0.844
 6181SOL     OW19441   5.200   5.834   6.440
 6181SOL    HW119442   5.283   5.882   6.469
 6181SOL    HW219443   5.223   5.769   6.367
 6182SOL     OW19444   3.923   3.031   0.051
 6182SOL    HW119445   3.920   3.094   0.129
 6182SOL    HW219446   3.992   2.961   0.068
 6183SOL     OW19447   1.805   2.417   0.985
 6183SOL    HW119448   1.781   2.368   1.069
 6183SOL    HW219449   1.786   2.358   0.906
 6184SOL     OW19450   3.322   0.624   5.989
 6184SOL    HW119451   3.313   0.606   6.087
 6184SOL    HW219452   3.285   0.548   5.937
 6185SOL     OW19453   2.821   3.177   5.672
 6185SOL    HW119454   2.737   3.196   5.723
 6185SOL    HW219455   2.832   3.078   5.661
 6186SOL     OW19456   0.227   2.147   1.827
 6186SOL    HW119457   0.268   2.057   1.813
 6186SOL    HW219458   0.281   2.197   1.895
 6187SOL     OW19459   4.736   2.488   4.982
 6187SOL    HW119460   4.725   2.430   4.901
 6187SOL    HW219461   4.774   2.434   5.057
 6188SOL     OW19462   1.787   1.721   5.096
 6188SOL    HW119463   1.781   1.820   5.103
 6188SOL    HW219464   1.695   1.682   5.092
 6189SOL     OW19465   4.088   5.417   2.551
 6189SOL    HW119466   4.152   5.364   2.606
 6189SOL    HW219467   4.064   5.365   2.469
 6190SOL     OW19468   6.280   3.556   5.887
 6190SOL    HW119469   6.184   3.553   5.861
 6190SOL    HW219470   6.314   3.463   5.901
 6191SOL     OW19471   2.282   2.738   5.661
 6191SOL    HW119472   2.310   2.791   5.582
 6191SOL    HW219473   2.356   2.676   5.688
 6192SOL     OW19474   2.223   1.468   6.671
 6192SOL    HW119475   2.301   1.485   6.611
 6192SOL    HW219476   2.231   1.523   6.754
 6193SOL     OW19477   5.119   5.360   0.359
 6193SOL    HW119478   5.166   5.448   0.365
 6193SOL    HW219479   5.041   5.360   0.421
 6194SOL     OW19480   6.655   0.986   6.870
 6194SOL    HW119481   6.639   1.052   6.796
 6194SOL    HW219482   6.728   1.019   6.930
 6195SOL     OW19483   5.489   0.099   4.607
 6195SOL    HW119484   5.405   0.083   4.554
 6195SOL    HW219485   5.547   0.164   4.558
 6196SOL     OW19486   5.320   4.823   2.579
 6196SOL    HW119487   5.305   4.812   2.677
 6196SOL    HW219488   5.312   4.920   2.555
 6197SOL     OW19489   2.575   5.467   2.561
 6197SOL    HW119490   2.543   5.380   2.523
 6197SOL    HW219491   2.652   5.450   2.623
 6198SOL     OW19492   5.598   6.237   6.520
 6198SOL    HW119493   5.514   6.224   6.467
 6198SOL    HW219494   5.657   6.302   6.474
 6199SOL     OW19495   0.863   0.381   0.741
 6199SOL    HW119496   0.870   0.466   0.688
 6199SOL    HW219497   0.934   0.317   0.713
 6200SOL     OW19498   1.290   1.117   2.676
 6200SOL    HW119499   1.378   1.071   2.686
 6200SOL    HW219500   1.304   1.216   2.667
 6201SOL     OW19501   6.975   4.553   4.195
 6201SOL    HW119502   0.005   4.546   4.112
 6201SOL    HW219503   6.878   4.547   4.170
 6202SOL     OW19504   6.283   1.716   3.217
 6202SOL    HW119505   6.228   1.758   3.144
 6202SOL    HW219506   6.222   1.669   3.281
 6203SOL     OW19507   6.387   5.630   1.770
 6203SOL    HW119508   6.297   5.606   1.806
 6203SOL    HW219509   6.410   5.569   1.695
 6204SOL     OW19510   1.097   6.040   4.947
 6204SOL    HW119511   1.065   6.088   4.865
 6204SOL    HW219512   1.192   6.011   4.934
 6205SOL     OW19513   4.668   4.965   2.087
 6205SOL    HW119514   4.767   4.969   2.097
 6205SOL    HW219515   4.644   4.886   2.029
 6206SOL     OW19516   4.528   1.932   3.755
 6206SOL    HW119517   4.429   1.944   3.741
 6206SOL    HW219518   4.576   2.010   3.714
 6207SOL     OW19519   1.567   5.775   4.501
 6207SOL    HW119520   1.586   5.678   4.492
 6207SOL    HW219521   1.623   5.827   4.436
 6208SOL     OW19522   3.704   2.661   6.340
 6208SOL    HW119523   3.784   2.651   6.400
 6208SOL    HW219524   3.697   2.757   6.311
 6209SOL     OW19525   3.333   4.118   0.851
 6209SOL    HW119526   3.348   4.181   0.927
 6209SOL    HW219527   3.421   4.083   0.818
 6210SOL     OW19528   4.982   3.439   2.950
 6210SOL    HW119529   4.910   3.387   2.903
 6210SOL    HW219530   5.035   3.490   2.883
 6211SOL     OW19531   4.679   5.619   5.218
 6211SOL    HW119532   4.595   5.673   5.220
 6211SOL    HW219533   4.742   5.659   5.151
 6212SOL     OW19534   2.600   5.076   5.121
 6212SOL    HW119535   2.524   5.140   5.128
 6212SOL    HW219536   2.681   5.115   5.163
 6213SOL     OW19537   4.720   6.722   0.573
 6213SOL    HW119538   4.806   6.692   0.614
 6213SOL    HW219539   4.648   6.725   0.643
 6214SOL     OW19540   5.816   5.602   5.206
 6214SOL    HW119541   5.883   5.545   5.254
 6214SOL    HW219542   5.745   5.630   5.270
 6215SOL     OW19543   5.091   3.135   6.086
 6215SOL    HW119544   5.032   3.109   6.009
 6215SOL    HW219545   5.109   3.233   6.082
 6216SOL     OW19546   5.371   2.835   3.102
 6216SOL    HW119547   5.314   2.798   3.175
 6216SOL    HW219548   5.341   2.927   3.079
 6217SOL     OW19549   0.781   4.531   2.521
 6217SOL    HW119550   0.770   4.520   2.620
 6217SOL    HW219551   0.696   4.508   2.475
 6218SOL     OW19552   4.595   5.834   7.003
 6218SOL    HW119553   4.584   5.919   6.953
 6218SOL    HW219554   4.555   5.759   6.950
 6219SOL     OW19555   1.086   0.927   5.306
 6219SOL    HW119556   1.011   0.886   5.255
 6219SOL    HW219557   1.156   0.959   5.242
 6220SOL     OW19558   3.475   0.529   0.203
 6220SOL    HW119559   3.509   0.436   0.191
 6220SOL    HW219560   3.545   0.584   0.249
 6221SOL     OW19561   6.533   6.236   6.430
 6221SOL    HW119562   6.589   6.162   6.393
 6221SOL    HW219563   6.589   6.317   6.444
 6222SOL     OW19564   6.011   1.112   1.936
 6222SOL    HW119565   5.994   1.018   1.967
 6222SOL    HW219566   6.103   1.140   1.963
 6223SOL     OW19567   0.755   5.442   3.735
 6223SOL    HW119568   0.709   5.353   3.736
 6223SOL    HW219569   0.715   5.502   3.804
 6224SOL     OW19570   4.278   0.767   5.936
 6224SOL    HW119571   4.245   0.674   5.955
 6224SOL    HW219572   4.207   0.833   5.964
 6225SOL     OW19573   4.210   0.778   6.614
 6225SOL    HW119574   4.145   0.717   6.569
 6225SOL    HW219575   4.205   0.869   6.572
 6226SOL     OW19576   1.477   1.551   4.257
 6226SOL    HW119577   1.539   1.606   4.201
 6226SOL    HW219578   1.505   1.557   4.353
 6227SOL     OW19579   3.218   4.454   5.342
 6227SOL    HW119580   3.142   4.441   5.279
 6227SOL    HW219581   3.182   4.468   5.435
 6228SOL     OW19582   2.224   2.596   3.234
 6228SOL    HW119583   2.138   2.645   3.247
 6228SOL    HW219584   2.235   2.528   3.306
 6229SOL     OW19585   7.010   3.250   4.790
 6229SOL    HW119586   0.075   3.291   4.786
 6229SOL    HW219587   6.942   3.320   4.810
 6230SOL     OW19588   0.268   1.626   2.737
 6230SOL    HW119589   0.326   1.708   2.739
 6230SOL    HW219590   0.227   1.617   2.646
 6231SOL     OW19591   5.108   4.264   0.397
 6231SOL    HW119592   5.109   4.280   0.496
 6231SOL    HW219593   5.187   4.308   0.355
 6232SOL     OW19594   5.722   0.834   0.590
 6232SOL    HW119595   5.701   0.795   0.501
 6232SOL    HW219596   5.755   0.762   0.651
 6233SOL     OW19597   0.661   3.688   2.083
 6233SOL    HW119598   0.667   3.629   2.164
 6233SOL    HW219599   0.574   3.672   2.037
 6234SOL     OW19600   0.334   6.703   4.113
 6234SOL    HW119601   0.340   6.603   4.125
 6234SOL    HW219602   0.241   6.733   4.133
 6235SOL     OW19603   0.024   0.548   2.473
 6235SOL    HW119604   6.983   0.537   2.399
 6235SOL    HW219605   0.077   0.464   2.483
 6236SOL     OW19606   0.809   4.183   0.682
 6236SOL    HW119607   0.837   4.094   0.720
 6236SOL    HW219608   0.890   4.235   0.656
 6237SOL     OW19609   3.702   6.763   0.694
 6237SOL    HW119610   3.652   6.700   0.635
 6237SOL    HW219611   3.639   6.827   0.737
 6238SOL     OW19612   3.403   6.706   3.543
 6238SOL    HW119613   3.346   6.788   3.535
 6238SOL    HW219614   3.353   6.627   3.508
 6239SOL     OW19615   4.281   6.873   2.731
 6239SOL    HW119616   4.320   6.910   2.816
 6239SOL    HW219617   4.209   6.935   2.698
 6240SOL     OW19618   2.994   3.169   4.531
 6240SOL    HW119619   3.042   3.256   4.546
 6240SOL    HW219620   3.044   3.115   4.464
 6241SOL     OW19621   3.533   6.848   3.862
 6241SOL    HW119622   3.469   6.812   3.795
 6241SOL    HW219623   3.532   6.948   3.858
 6242SOL     OW19624   2.767   2.388   2.665
 6242SOL    HW119625   2.743   2.373   2.569
 6242SOL    HW219626   2.687   2.418   2.716
 6243SOL     OW19627   5.861   0.619   6.183
 6243SOL    HW119628   5.906   0.676   6.116
 6243SOL    HW219629   5.929   0.566   6.234
 6244SOL     OW19630   4.568   4.704   3.014
 6244SOL    HW119631   4.548   4.709   2.916
 6244SOL    HW219632   4.600   4.793   3.046
 6245SOL     OW19633   1.119   4.571   2.763
 6245SOL    HW119634   1.077   4.651   2.720
 6245SOL    HW219635   1.218   4.575   2.751
 6246SOL     OW19636   1.388   6.776   4.564
 6246SOL    HW119637   1.311   6.764   4.501
 6246SOL    HW219638   1.439   6.690   4.570
 6247SOL     OW19639   0.037   5.453   3.764
 6247SOL    HW119640   6.971   5.450   3.725
 6247SOL    HW219641   0.034   5.496   3.855
 6248SOL     OW19642   4.203   2.990   6.735
 6248SOL    HW119643   4.116   2.955   6.699
 6248SOL    HW219644   4.194   3.089   6.750
 6249SOL     OW19645   6.926   3.165   1.502
 6249SOL    HW119646   6.838   3.211   1.509
 6249SOL    HW219647   6.918   3.087   1.439
 6250SOL     OW19648   0.103   6.948   0.972
 6250SOL    HW119649   0.071   6.903   1.055
 6250SOL    HW219650   0.142   6.881   0.910
 6251SOL     OW19651   3.066   6.611   4.273
 6251SOL    HW119652   3.141   6.545   4.263
 6251SOL    HW219653   3.088   6.694   4.222
 6252SOL     OW19654   2.979   5.413   6.951
 6252SOL    HW119655   2.919   5.341   6.917
 6252SOL    HW219656   3.067   5.408   6.904
 6253SOL     OW19657   3.099   5.030   4.526
 6253SOL    HW119658   3.025   4.980   4.482
 6253SOL    HW219659   3.121   5.112   4.472
 6254SOL     OW19660   0.349   5.376   0.939
 6254SOL    HW119661   0.315   5.326   1.018
 6254SOL    HW219662   0.275   5.433   0.901
 6255SOL     OW19663   1.832   1.855   1.145
 6255SOL    HW119664   1.735   1.871   1.123
 6255SOL    HW219665   1.867   1.932   1.198
 6256SOL     OW19666   5.033   5.892   2.149
 6256SOL    HW119667   4.947   5.938   2.126
 6256SOL    HW219668   5.107   5.959   2.151
 6257SOL     OW19669   4.352   3.701   0.685
 6257SOL    HW119670   4.355   3.679   0.783
 6257SOL    HW219671   4.446   3.706   0.649
 6258SOL     OW19672   4.417   0.051   5.995
 6258SOL    HW119673   4.434   0.063   5.897
 6258SOL    HW219674   4.318   0.058   6.012
 6259SOL     OW19675   1.921   0.062   5.766
 6259SOL    HW119676   1.955   0.147   5.805
 6259SOL    HW219677   1.821   0.064   5.762
 6260SOL     OW19678   1.995   0.401   0.473
 6260SOL    HW119679   1.932   0.404   0.395
 6260SOL    HW219680   2.042   0.313   0.473
 6261SOL     OW19681   4.649   6.960   1.344
 6261SOL    HW119682   4.705   6.885   1.378
 6261SOL    HW219683   4.565   6.966   1.398
 6262SOL     OW19684   6.593   6.374   2.304
 6262SOL    HW119685   6.545   6.395   2.389
 6262SOL    HW219686   6.602   6.275   2.294
 6263SOL     OW19687   0.207   6.382   4.071
 6263SOL    HW119688   0.127   6.396   4.014
 6263SOL    HW219689   0.272   6.322   4.024
 6264SOL     OW19690   0.620   6.927   1.343
 6264SOL    HW119691   0.554   6.900   1.273
 6264SOL    HW219692   0.582   7.001   1.397
 6265SOL     OW19693   3.896   2.600   0.680
 6265SOL    HW119694   3.955   2.641   0.749
 6265SOL    HW219695   3.912   2.502   0.676
 6266SOL     OW19696   2.847   5.685   2.809
 6266SOL    HW119697   2.857   5.705   2.711
 6266SOL    HW219698   2.938   5.675   2.850
 6267SOL     OW19699   0.852   6.193   5.400
 6267SOL    HW119700   0.927   6.130   5.422
 6267SOL    HW219701   0.842   6.199   5.301
 6268SOL     OW19702   3.824   0.463   2.011
 6268SOL    HW119703   3.864   0.506   2.092
 6268SOL    HW219704   3.731   0.432   2.033
 6269SOL     OW19705   5.643   6.435   1.222
 6269SOL    HW119706   5.674   6.459   1.314
 6269SOL    HW219707   5.713   6.462   1.155
 6270SOL     OW19708   1.262   6.411   0.092
 6270SOL    HW119709   1.351   6.367   0.110
 6270SOL    HW219710   1.231   6.458   0.175
 6271SOL     OW19711   6.119   2.853   6.966
 6271SOL    HW119712   6.074   2.868   0.028
 6271SOL    HW219713   6.053   2.865   6.891
 6272SOL     OW19714   6.329   0.008   7.022
 6272SOL    HW119715   6.306   0.094   0.042
 6272SOL    HW219716   6.246   6.983   7.002
 6273SOL     OW19717   0.192   6.707   2.136
 6273SOL    HW119718   0.142   6.784   2.176
 6273SOL    HW219719   0.288   6.732   2.125
 6274SOL     OW19720   3.102   6.299   4.843
 6274SOL    HW119721   3.040   6.304   4.921
 6274SOL    HW219722   3.054   6.328   4.760
 6275SOL     OW19723   2.349   6.091   0.676
 6275SOL    HW119724   2.294   6.069   0.757
 6275SOL    HW219725   2.404   6.012   0.651
 6276SOL     OW19726   2.725   5.797   3.451
 6276SOL    HW119727   2.699   5.871   3.388
 6276SOL    HW219728   2.692   5.819   3.543
 6277SOL     OW19729   5.269   2.214   1.601
 6277SOL    HW119730   5.312   2.183   1.516
 6277SOL    HW219731   5.273   2.313   1.607
 6278SOL     OW19732   3.273   0.410   5.558
 6278SOL    HW119733   3.303   0.339   5.494
 6278SOL    HW219734   3.176   0.428   5.544
 6279SOL     OW19735   3.345   5.981   1.065
 6279SOL    HW119736   3.426   5.937   1.025
 6279SOL    HW219737   3.323   6.063   1.014
 6280SOL     OW19738   6.434   1.594   7.013
 6280SOL    HW119739   6.421   1.536   6.933
 6280SOL    HW219740   6.462   1.686   6.984
 6281SOL     OW19741   6.295   3.701   4.841
 6281SOL    HW119742   6.233   3.686   4.918
 6281SOL    HW219743   6.268   3.644   4.764
 6282SOL     OW19744   0.196   3.640   5.886
 6282SOL    HW119745   0.159   3.661   5.795
 6282SOL    HW219746   0.287   3.680   5.895
 6283SOL     OW19747   1.282   5.903   5.425
 6283SOL    HW119748   1.381   5.902   5.432
 6283SOL    HW219749   1.247   5.810   5.434
 6284SOL     OW19750   2.125   4.063   6.841
 6284SOL    HW119751   2.041   4.093   6.885
 6284SOL    HW219752   2.167   4.139   6.791
 6285SOL     OW19753   1.720   4.088   3.029
 6285SOL    HW119754   1.772   4.040   2.959
 6285SOL    HW219755   1.628   4.108   2.994
 6286SOL     OW19756   0.691   3.510   4.476
 6286SOL    HW119757   0.643   3.499   4.388
 6286SOL    HW219758   0.752   3.433   4.490
 6287SOL     OW19759   4.338   4.786   5.316
 6287SOL    HW119760   4.292   4.874   5.332
 6287SOL    HW219761   4.392   4.762   5.396
 6288SOL     OW19762   3.711   3.707   6.255
 6288SOL    HW119763   3.669   3.651   6.327
 6288SOL    HW219764   3.658   3.698   6.171
 6289SOL     OW19765   2.283   4.316   6.106
 6289SOL    HW119766   2.327   4.306   6.195
 6289SOL    HW219767   2.353   4.320   6.035
 6290SOL     OW19768   6.113   4.929   6.297
 6290SOL    HW119769   6.026   4.971   6.270
 6290SOL    HW219770   6.179   4.937   6.223
 6291SOL     OW19771   3.383   3.410   2.760
 6291SOL    HW119772   3.305   3.348   2.772
 6291SOL    HW219773   3.358   3.484   2.698
 6292SOL     OW19774   1.883   2.680   4.407
 6292SOL    HW119775   1.892   2.596   4.353
 6292SOL    HW219776   1.964   2.737   4.393
 6293SOL     OW19777   5.108   1.052   0.261
 6293SOL    HW119778   5.197   1.051   0.216
 6293SOL    HW219779   5.036   1.046   0.191
 6294SOL     OW19780   2.987   0.964   3.710
 6294SOL    HW119781   2.891   0.988   3.696
 6294SOL    HW219782   3.042   1.000   3.635
 6295SOL     OW19783   5.340   4.875   4.821
 6295SOL    HW119784   5.244   4.852   4.837
 6295SOL    HW219785   5.387   4.796   4.781
 6296SOL     OW19786   0.303   3.500   6.083
 6296SOL    HW119787   0.398   3.502   6.054
 6296SOL    HW219788   0.249   3.563   6.027
 6297SOL     OW19789   6.589   0.277   4.546
 6297SOL    HW119790   6.580   0.341   4.470
 6297SOL    HW219791   6.575   0.183   4.514
 6298SOL     OW19792   5.660   4.600   6.905
 6298SOL    HW119793   5.705   4.626   6.820
 6298SOL    HW219794   5.589   4.666   6.927
 6299SOL     OW19795   5.127   2.486   2.844
 6299SOL    HW119796   5.203   2.429   2.877
 6299SOL    HW219797   5.146   2.582   2.866
 6300SOL     OW19798   4.075   1.328   6.269
 6300SOL    HW119799   4.101   1.394   6.199
 6300SOL    HW219800   4.135   1.338   6.348
 6301SOL     OW19801   3.208   6.490   6.780
 6301SOL    HW119802   3.208   6.420   6.708
 6301SOL    HW219803   3.302   6.509   6.807
 6302SOL     OW19804   2.488   1.065   5.801
 6302SOL    HW119805   2.540   1.128   5.859
 6302SOL    HW219806   2.540   1.047   5.717
 6303SOL     OW19807   0.965   6.453   5.763
 6303SOL    HW119808   0.912   6.504   5.831
 6303SOL    HW219809   0.972   6.357   5.791
 6304SOL     OW19810   4.309   0.924   3.342
 6304SOL    HW119811   4.242   0.992   3.309
 6304SOL    HW219812   4.363   0.892   3.264
 6305SOL     OW19813   6.983   5.716   5.376
 6305SOL    HW119814   6.983   5.720   5.476
 6305SOL    HW219815   6.892   5.688   5.344
 6306SOL     OW19816   0.372   4.043   3.867
 6306SOL    HW119817   0.356   4.141   3.865
 6306SOL    HW219818   0.428   4.016   3.788
 6307SOL     OW19819   3.982   3.937   3.962
 6307SOL    HW119820   4.042   3.938   3.882
 6307SOL    HW219821   4.038   3.931   4.045
 6308SOL     OW19822   0.304   2.653   6.310
 6308SOL    HW119823   0.310   2.569   6.256
 6308SOL    HW219824   0.387   2.708   6.296
 6309SOL     OW19825   1.024   6.584   4.666
 6309SOL    HW119826   0.996   6.489   4.681
 6309SOL    HW219827   1.029   6.632   4.754
 6310SOL     OW19828   1.384   6.451   3.101
 6310SOL    HW119829   1.420   6.541   3.125
 6310SOL    HW219830   1.455   6.397   3.057
 6311SOL     OW19831   5.529   1.029   6.323
 6311SOL    HW119832   5.595   0.954   6.325
 6311SOL    HW219833   5.556   1.095   6.254
 6312SOL     OW19834   2.937   6.473   6.795
 6312SOL    HW119835   2.919   6.425   6.881
 6312SOL    HW219836   3.035   6.492   6.789
 6313SOL     OW19837   5.036   6.352   3.293
 6313SOL    HW119838   4.966   6.287   3.262
 6313SOL    HW219839   5.105   6.304   3.347
 6314SOL     OW19840   2.701   0.317   1.441
 6314SOL    HW119841   2.754   0.271   1.511
 6314SOL    HW219842   2.732   0.412   1.431
 6315SOL     OW19843   1.799   2.635   4.105
 6315SOL    HW119844   1.804   2.616   4.007
 6315SOL    HW219845   1.868   2.580   4.153
 6316SOL     OW19846   5.560   1.846   5.292
 6316SOL    HW119847   5.508   1.762   5.285
 6316SOL    HW219848   5.623   1.840   5.370
 6317SOL     OW19849   5.177   4.411   2.484
 6317SOL    HW119850   5.266   4.444   2.454
 6317SOL    HW219851   5.119   4.392   2.404
 6318SOL     OW19852   6.647   0.427   6.772
 6318SOL    HW119853   6.700   0.354   6.728
 6318SOL    HW219854   6.697   0.513   6.767
 6319SOL     OW19855   5.362   2.501   4.972
 6319SOL    HW119856   5.265   2.481   4.965
 6319SOL    HW219857   5.400   2.457   5.053
 6320SOL     OW19858   0.542   0.731   3.985
 6320SOL    HW119859   0.573   0.764   3.895
 6320SOL    HW219860   0.450   0.766   4.003
 6321SOL     OW19861   5.401   2.118   0.740
 6321SOL    HW119862   5.480   2.173   0.768
 6321SOL    HW219863   5.333   2.117   0.813
 6322SOL     OW19864   1.940   0.795   0.633
 6322SOL    HW119865   2.012   0.838   0.578
 6322SOL    HW219866   1.890   0.866   0.684
 6323SOL     OW19867   2.904   2.471   1.047
 6323SOL    HW119868   2.963   2.406   0.999
 6323SOL    HW219869   2.809   2.453   1.023
 6324SOL     OW19870   4.512   1.303   1.356
 6324SOL    HW119871   4.482   1.208   1.364
 6324SOL    HW219872   4.514   1.345   1.446
 6325SOL     OW19873   1.419   2.339   2.290
 6325SOL    HW119874   1.433   2.383   2.379
 6325SOL    HW219875   1.474   2.256   2.286
 6326SOL     OW19876   4.813   5.286   5.575
 6326SOL    HW119877   4.774   5.194   5.588
 6326SOL    HW219878   4.856   5.316   5.660
 6327SOL     OW19879   0.021   2.145   3.509
 6327SOL    HW119880   0.083   2.104   3.577
 6327SOL    HW219881   6.953   2.121   3.532
 6328SOL     OW19882   4.344   3.343   6.016
 6328SOL    HW119883   4.312   3.434   5.991
 6328SOL    HW219884   4.316   3.277   5.946
 6329SOL     OW19885   1.198   2.643   5.172
 6329SOL    HW119886   1.117   2.694   5.141
 6329SOL    HW219887   1.275   2.663   5.111
 6330SOL     OW19888   6.598   1.321   2.938
 6330SOL    HW119889   6.536   1.382   2.987
 6330SOL    HW219890   6.553   1.287   2.855
 6331SOL     OW19891   6.424   3.152   4.528
 6331SOL    HW119892   6.397   3.060   4.559
 6331SOL    HW219893   6.500   3.184   4.584
 6332SOL     OW19894   1.824   1.705   1.406
 6332SOL    HW119895   1.872   1.786   1.439
 6332SOL    HW219896   1.821   1.706   1.306
 6333SOL     OW19897   4.918   7.011   0.467
 6333SOL    HW119898   4.914   6.912   0.449
 6333SOL    HW219899   4.999   0.006   0.521
 6334SOL     OW19900   2.899   1.627   1.980
 6334SOL    HW119901   2.959   1.700   1.946
 6334SOL    HW219902   2.817   1.668   2.021
 6335SOL     OW19903   5.558   0.513   0.932
 6335SOL    HW119904   5.614   0.556   0.861
 6335SOL    HW219905   5.507   0.584   0.981
 6336SOL     OW19906   0.331   4.049   5.949
 6336SOL    HW119907   0.409   4.084   5.896
 6336SOL    HW219908   0.360   3.970   6.003
 6337SOL     OW19909   4.130   5.862   5.116
 6337SOL    HW119910   4.117   5.826   5.209
 6337SOL    HW219911   4.171   5.953   5.120
 6338SOL     OW19912   3.077   2.110   4.162
 6338SOL    HW119913   3.011   2.161   4.107
 6338SOL    HW219914   3.165   2.107   4.115
 6339SOL     OW19915   1.038   3.986   3.071
 6339SOL    HW119916   1.064   3.972   3.167
 6339SOL    HW219917   0.945   4.022   3.067
 6340SOL     OW19918   2.535   3.981   1.296
 6340SOL    HW119919   2.496   3.903   1.346
 6340SOL    HW219920   2.532   4.062   1.355
 6341SOL     OW19921   1.360   4.410   3.823
 6341SOL    HW119922   1.385   4.475   3.895
 6341SOL    HW219923   1.266   4.429   3.793
 6342SOL     OW19924   1.973   0.759   2.030
 6342SOL    HW119925   1.878   0.740   2.003
 6342SOL    HW219926   1.980   0.854   2.061
 6343SOL     OW19927   2.825   6.437   0.204
 6343SOL    HW119928   2.852   6.471   0.294
 6343SOL    HW219929   2.766   6.357   0.215
 6344SOL     OW19930   5.580   2.563   3.392
 6344SOL    HW119931   5.618   2.521   3.310
 6344SOL    HW219932   5.614   2.514   3.473
 6345SOL     OW19933   5.216   3.538   1.567
 6345SOL    HW119934   5.202   3.554   1.469
 6345SOL    HW219935   5.314   3.543   1.587
 6346SOL     OW19936   0.394   4.473   5.745
 6346SOL    HW119937   0.436   4.384   5.732
 6346SOL    HW219938   0.444   4.542   5.693
 6347SOL     OW19939   2.686   2.401   2.397
 6347SOL    HW119940   2.595   2.365   2.417
 6347SOL    HW219941   2.678   2.475   2.330
 6348SOL     OW19942   0.207   1.724   6.066
 6348SOL    HW119943   0.119   1.677   6.059
 6348SOL    HW219944   0.225   1.748   6.161
 6349SOL     OW19945   1.365   0.382   0.591
 6349SOL    HW119946   1.460   0.390   0.561
 6349SOL    HW219947   1.346   0.287   0.617
 6350SOL     OW19948   1.055   4.811   1.912
 6350SOL    HW119949   1.050   4.856   1.823
 6350SOL    HW219950   1.145   4.770   1.924
 6351SOL     OW19951   6.528   3.868   3.484
 6351SOL    HW119952   6.459   3.852   3.413
 6351SOL    HW219953   6.537   3.787   3.541
 6352SOL     OW19954   2.061   0.545   4.193
 6352SOL    HW119955   2.144   0.506   4.234
 6352SOL    HW219956   2.040   0.497   4.108
 6353SOL     OW19957   2.388   5.918   6.795
 6353SOL    HW119958   2.289   5.906   6.788
 6353SOL    HW219959   2.418   5.986   6.728
 6354SOL     OW19960   5.093   4.596   2.852
 6354SOL    HW119961   5.037   4.629   2.929
 6354SOL    HW219962   5.180   4.646   2.852
 6355SOL     OW19963   2.654   4.635   0.374
 6355SOL    HW119964   2.683   4.555   0.427
 6355SOL    HW219965   2.702   4.716   0.407
 6356SOL     OW19966   4.971   5.437   6.505
 6356SOL    HW119967   4.981   5.427   6.604
 6356SOL    HW219968   4.987   5.533   6.480
 6357SOL     OW19969   5.914   2.131   1.266
 6357SOL    HW119970   5.890   2.035   1.278
 6357SOL    HW219971   6.012   2.139   1.245
 6358SOL     OW19972   1.122   1.839   6.376
 6358SOL    HW119973   1.044   1.814   6.319
 6358SOL    HW219974   1.182   1.759   6.387
 6359SOL     OW19975   5.735   6.705   0.545
 6359SOL    HW119976   5.701   6.797   0.523
 6359SOL    HW219977   5.664   6.638   0.525
 6360SOL     OW19978   6.887   2.581   3.633
 6360SOL    HW119979   6.865   2.559   3.538
 6360SOL    HW219980   6.854   2.508   3.693
 6361SOL     OW19981   0.170   0.764   0.110
 6361SOL    HW119982   0.126   0.707   0.180
 6361SOL    HW219983   0.131   0.856   0.112
 6362SOL     OW19984   1.128   5.535   6.929
 6362SOL    HW119985   1.127   5.533   6.829
 6362SOL    HW219986   1.221   5.518   6.961
 6363SOL     OW19987   2.659   4.956   3.365
 6363SOL    HW119988   2.561   4.945   3.353
 6363SOL    HW219989   2.701   4.977   3.276
 6364SOL     OW19990   2.663   2.404   4.589
 6364SOL    HW119991   2.731   2.334   4.610
 6364SOL    HW219992   2.626   2.441   4.674
 6365SOL     OW19993   6.119   6.031   4.443
 6365SOL    HW119994   6.027   5.999   4.467
 6365SOL    HW219995   6.125   6.042   4.344
 6366SOL     OW19996   6.213   6.483   4.984
 6366SOL    HW119997   6.285   6.424   5.020
 6366SOL    HW219998   6.127   6.433   4.981
 6367SOL     OW19999   3.220   2.174   3.073
 6367SOL    HW120000   3.291   2.152   3.140
 6367SOL    HW220001   3.261   2.177   2.982
 6368SOL     OW20002   4.653   4.274   3.709
 6368SOL    HW120003   4.699   4.212   3.773
 6368SOL    HW220004   4.645   4.230   3.620
 6369SOL     OW20005   3.345   6.201   6.105
 6369SOL    HW120006   3.258   6.249   6.100
 6369SOL    HW220007   3.334   6.115   6.156
 6370SOL     OW20008   4.848   3.666   3.318
 6370SOL    HW120009   4.754   3.634   3.316
 6370SOL    HW220010   4.857   3.747   3.260
 6371SOL     OW20011   5.102   4.387   1.699
 6371SOL    HW120012   5.160   4.323   1.748
 6371SOL    HW220013   5.018   4.404   1.752
 6372SOL     OW20014   0.191   1.136   2.684
 6372SOL    HW120015   0.245   1.188   2.618
 6372SOL    HW220016   0.251   1.075   2.736
 6373SOL     OW20017   5.627   4.094   1.239
 6373SOL    HW120018   5.683   4.013   1.254
 6373SOL    HW220019   5.543   4.088   1.293
 6374SOL     OW20020   4.827   2.701   0.252
 6374SOL    HW120021   4.899   2.705   0.182
 6374SOL    HW220022   4.799   2.794   0.277
 6375SOL     OW20023   0.004   2.823   2.393
 6375SOL    HW120024   7.009   2.899   2.332
 6375SOL    HW220025   0.103   2.815   2.405
 6376SOL     OW20026   4.588   0.993   5.308
 6376SOL    HW120027   4.630   1.073   5.266
 6376SOL    HW220028   4.503   1.020   5.354
 6377SOL     OW20029   0.058   0.328   0.245
 6377SOL    HW120030   0.087   0.401   0.307
 6377SOL    HW220031   0.097   0.344   0.154
 6378SOL     OW20032   5.634   5.816   2.567
 6378SOL    HW120033   5.569   5.747   2.599
 6378SOL    HW220034   5.624   5.828   2.468
 6379SOL     OW20035   2.568   5.785   6.316
 6379SOL    HW120036   2.601   5.691   6.310
 6379SOL    HW220037   2.483   5.787   6.369
 6380SOL     OW20038   0.916   3.177   5.118
 6380SOL    HW120039   0.902   3.142   5.211
 6380SOL    HW220040   0.847   3.138   5.057
 6381SOL     OW20041   4.468   3.103   0.381
 6381SOL    HW120042   4.442   3.133   0.473
 6381SOL    HW220043   4.391   3.054   0.339
 6382SOL     OW20044   2.611   1.669   1.063
 6382SOL    HW120045   2.658   1.592   1.106
 6382SOL    HW220046   2.618   1.749   1.122
 6383SOL     OW20047   1.847   2.855   2.737
 6383SOL    HW120048   1.866   2.953   2.731
 6383SOL    HW220049   1.882   2.820   2.824
 6384SOL     OW20050   6.069   2.456   2.026
 6384SOL    HW120051   6.128   2.387   2.066
 6384SOL    HW220052   6.125   2.529   1.987
 6385SOL     OW20053   0.676   3.437   0.930
 6385SOL    HW120054   0.707   3.441   0.835
 6385SOL    HW220055   0.679   3.343   0.963
 6386SOL     OW20056   2.013   3.410   0.833
 6386SOL    HW120057   2.046   3.480   0.897
 6386SOL    HW220058   1.975   3.455   0.752
 6387SOL     OW20059   6.240   1.030   0.188
 6387SOL    HW120060   6.154   0.984   0.166
 6387SOL    HW220061   6.316   0.983   0.142
 6388SOL     OW20062   6.488   5.385   2.890
 6388SOL    HW120063   6.432   5.338   2.822
 6388SOL    HW220064   6.574   5.414   2.849
 6389SOL     OW20065   1.512   6.920   0.279
 6389SOL    HW120066   1.594   6.864   0.268
 6389SOL    HW220067   1.434   6.873   0.238
 6390SOL     OW20068   5.747   0.708   0.326
 6390SOL    HW120069   5.844   0.704   0.306
 6390SOL    HW220070   5.695   0.717   0.241
 6391SOL     OW20071   0.805   0.770   5.322
 6391SOL    HW120072   0.748   0.807   5.395
 6391SOL    HW220073   0.818   0.838   5.251
 6392SOL     OW20074   3.694   5.429   3.247
 6392SOL    HW120075   3.786   5.391   3.256
 6392SOL    HW220076   3.680   5.462   3.154
 6393SOL     OW20077   5.733   6.769   1.302
 6393SOL    HW120078   5.764   6.864   1.304
 6393SOL    HW220079   5.651   6.762   1.245
 6394SOL     OW20080   1.103   4.426   0.973
 6394SOL    HW120081   1.026   4.479   1.010
 6394SOL    HW220082   1.188   4.456   1.016
 6395SOL     OW20083   0.479   4.091   2.857
 6395SOL    HW120084   0.482   4.190   2.846
 6395SOL    HW220085   0.491   4.047   2.769
 6396SOL     OW20086   6.607   3.569   0.346
 6396SOL    HW120087   6.588   3.476   0.314
 6396SOL    HW220088   6.628   3.628   0.268
 6397SOL     OW20089   5.729   2.410   3.163
 6397SOL    HW120090   5.670   2.346   3.112
 6397SOL    HW220091   5.772   2.473   3.099
 6398SOL     OW20092   0.803   6.093   1.597
 6398SOL    HW120093   0.851   6.097   1.685
 6398SOL    HW220094   0.776   6.185   1.569
 6399SOL     OW20095   2.156   6.929   6.073
 6399SOL    HW120096   2.246   6.972   6.060
 6399SOL    HW220097   2.098   6.989   6.127
 6400SOL     OW20098   1.674   5.630   2.918
 6400SOL    HW120099   1.580   5.658   2.897
 6400SOL    HW220100   1.737   5.704   2.895
 6401SOL     OW20101   3.925   4.853   3.112
 6401SOL    HW120102   3.948   4.924   3.046
 6401SOL    HW220103   4.008   4.814   3.151
 6402SOL     OW20104   2.017   4.827   3.944
 6402SOL    HW120105   1.925   4.789   3.946
 6402SOL    HW220106   2.077   4.774   4.003
 6403SOL     OW20107   5.489   6.088   4.999
 6403SOL    HW120108   5.445   6.145   5.069
 6403SOL    HW220109   5.443   6.104   4.911
 6404SOL     OW20110   3.468   0.892   2.595
 6404SOL    HW120111   3.444   0.819   2.531
 6404SOL    HW220112   3.567   0.902   2.600
 6405SOL     OW20113   5.139   1.199   2.686
 6405SOL    HW120114   5.235   1.185   2.708
 6405SOL    HW220115   5.083   1.134   2.738
 6406SOL     OW20116   0.916   2.689   2.812
 6406SOL    HW120117   0.926   2.682   2.911
 6406SOL    HW220118   0.970   2.617   2.767
 6407SOL     OW20119   2.199   6.580   3.642
 6407SOL    HW120120   2.240   6.654   3.694
 6407SOL    HW220121   2.137   6.617   3.573
 6408SOL     OW20122   6.841   0.721   0.831
 6408SOL    HW120123   6.756   0.711   0.779
 6408SOL    HW220124   6.909   0.765   0.773
 6409SOL     OW20125   6.399   4.876   3.722
 6409SOL    HW120126   6.463   4.801   3.738
 6409SOL    HW220127   6.420   4.921   3.635
 6410SOL     OW20128   2.729   1.231   5.431
 6410SOL    HW120129   2.809   1.194   5.478
 6410SOL    HW220130   2.759   1.293   5.358
 6411SOL     OW20131   0.358   3.012   2.529
 6411SOL    HW120132   0.455   3.028   2.549
 6411SOL    HW220133   0.339   3.035   2.434
 6412SOL     OW20134   3.432   0.673   6.550
 6412SOL    HW120135   3.532   0.666   6.548
 6412SOL    HW220136   3.394   0.589   6.589
 6413SOL     OW20137   4.442   4.584   4.454
 6413SOL    HW120138   4.368   4.590   4.520
 6413SOL    HW220139   4.403   4.572   4.362
 6414SOL     OW20140   0.737   0.167   6.776
 6414SOL    HW120141   0.714   0.128   6.865
 6414SOL    HW220142   0.836   0.160   6.762
 6415SOL     OW20143   1.638   3.285   3.403
 6415SOL    HW120144   1.553   3.333   3.426
 6415SOL    HW220145   1.628   3.188   3.423
 6416SOL     OW20146   3.119   7.016   6.416
 6416SOL    HW120147   3.205   7.005   6.466
 6416SOL    HW220148   3.073   6.928   6.409
 6417SOL     OW20149   4.798   1.639   1.143
 6417SOL    HW120150   4.764   1.546   1.126
 6417SOL    HW220151   4.728   1.705   1.117
 6418SOL     OW20152   4.218   4.627   1.409
 6418SOL    HW120153   4.181   4.537   1.431
 6418SOL    HW220154   4.211   4.687   1.489
 6419SOL     OW20155   0.755   6.665   6.651
 6419SOL    HW120156   0.690   6.626   6.716
 6419SOL    HW220157   0.742   6.764   6.646
 6420SOL     OW20158   1.479   3.655   3.845
 6420SOL    HW120159   1.480   3.590   3.921
 6420SOL    HW220160   1.528   3.615   3.767
 6421SOL     OW20161   5.506   7.005   1.578
 6421SOL    HW120162   5.440   6.973   1.510
 6421SOL    HW220163   5.546   0.065   1.547
 6422SOL     OW20164   0.033   2.628   4.883
 6422SOL    HW120165   0.100   2.678   4.938
 6422SOL    HW220166   0.080   2.579   4.810
 6423SOL     OW20167   2.400   5.162   4.412
 6423SOL    HW120168   2.340   5.144   4.334
 6423SOL    HW220169   2.477   5.099   4.409
 6424SOL     OW20170   0.207   3.037   4.610
 6424SOL    HW120171   0.156   3.104   4.557
 6424SOL    HW220172   0.152   3.008   4.689
 6425SOL     OW20173   6.984   5.733   2.939
 6425SOL    HW120174   0.043   5.705   2.983
 6425SOL    HW220175   6.959   5.665   2.870
 6426SOL     OW20176   4.572   4.439   4.827
 6426SOL    HW120177   4.591   4.478   4.737
 6426SOL    HW220178   4.475   4.452   4.849
 6427SOL     OW20179   3.696   3.563   3.369
 6427SOL    HW120180   3.608   3.582   3.326
 6427SOL    HW220181   3.709   3.625   3.447
 6428SOL     OW20182   4.854   2.291   0.189
 6428SOL    HW120183   4.787   2.357   0.154
 6428SOL    HW220184   4.832   2.267   0.283
 6429SOL     OW20185   1.998   0.618   4.934
 6429SOL    HW120186   1.957   0.586   4.849
 6429SOL    HW220187   1.964   0.564   5.010
 6430SOL     OW20188   0.107   0.791   5.301
 6430SOL    HW120189   0.110   0.744   5.213
 6430SOL    HW220190   0.034   0.751   5.357
 6431SOL     OW20191   4.724   5.378   2.838
 6431SOL    HW120192   4.696   5.355   2.745
 6431SOL    HW220193   4.653   5.433   2.881
 6432SOL     OW20194   3.033   4.172   6.562
 6432SOL    HW120195   3.034   4.229   6.480
 6432SOL    HW220196   2.942   4.131   6.573
 6433SOL     OW20197   2.706   5.540   6.645
 6433SOL    HW120198   2.751   5.482   6.712
 6433SOL    HW220199   2.771   5.564   6.573
 6434SOL     OW20200   3.085   5.970   6.426
 6434SOL    HW120201   3.068   6.034   6.350
 6434SOL    HW220202   3.132   5.889   6.391
 6435SOL     OW20203   5.924   0.158   0.004
 6435SOL    HW120204   5.884   0.238   0.049
 6435SOL    HW220205   5.881   0.145   6.940
 6436SOL     OW20206   0.695   4.179   3.737
 6436SOL    HW120207   0.682   4.095   3.790
 6436SOL    HW220208   0.738   4.248   3.794
 6437SOL     OW20209   0.927   1.187   5.362
 6437SOL    HW120210   1.009   1.191   5.304
 6437SOL    HW220211   0.946   1.130   5.442
 6438SOL     OW20212   0.629   5.606   6.963
 6438SOL    HW120213   0.666   5.681   6.909
 6438SOL    HW220214   0.648   5.519   6.917
 6439SOL     OW20215   6.190   1.224   3.703
 6439SOL    HW120216   6.235   1.148   3.656
 6439SOL    HW220217   6.122   1.188   3.767
 6440SOL     OW20218   2.374   0.565   5.883
 6440SOL    HW120219   2.308   0.638   5.898
 6440SOL    HW220220   2.444   0.569   5.954
 6441SOL     OW20221   0.444   0.182   3.307
 6441SOL    HW120222   0.497   0.227   3.380
 6441SOL    HW220223   0.347   0.208   3.317
 6442SOL     OW20224   2.278   2.031   5.006
 6442SOL    HW120225   2.363   2.044   5.059
 6442SOL    HW220226   2.274   2.099   4.933
 6443SOL     OW20227   4.357   2.078   0.520
 6443SOL    HW120228   4.380   2.042   0.610
 6443SOL    HW220229   4.382   2.011   0.450
 6444SOL     OW20230   0.003   2.355   5.461
 6444SOL    HW120231   0.061   2.382   5.538
 6444SOL    HW220232   0.008   2.257   5.448
 6445SOL     OW20233   3.243   3.570   3.394
 6445SOL    HW120234   3.183   3.511   3.340
 6445SOL    HW220235   3.319   3.602   3.336
 6446SOL     OW20236   1.729   1.668   6.502
 6446SOL    HW120237   1.749   1.762   6.475
 6446SOL    HW220238   1.814   1.622   6.528
 6447SOL     OW20239   6.512   4.397   1.139
 6447SOL    HW120240   6.438   4.401   1.071
 6447SOL    HW220241   6.532   4.301   1.159
 6448SOL     OW20242   4.683   5.490   2.092
 6448SOL    HW120243   4.711   5.488   1.996
 6448SOL    HW220244   4.603   5.548   2.103
 6449SOL     OW20245   2.815   5.727   1.663
 6449SOL    HW120246   2.795   5.788   1.587
 6449SOL    HW220247   2.742   5.732   1.731
 6450SOL     OW20248   0.801   4.260   1.326
 6450SOL    HW120249   0.705   4.250   1.302
 6450SOL    HW220250   0.814   4.236   1.422
 6451SOL     OW20251   3.716   2.230   0.186
 6451SOL    HW120252   3.801   2.181   0.205
 6451SOL    HW220253   3.736   2.327   0.170
 6452SOL     OW20254   5.632   3.693   3.347
 6452SOL    HW120255   5.639   3.656   3.254
 6452SOL    HW220256   5.690   3.639   3.408
 6453SOL     OW20257   3.588   0.284   1.532
 6453SOL    HW120258   3.497   0.274   1.490
 6453SOL    HW220259   3.620   0.378   1.519
 6454SOL     OW20260   6.712   2.380   2.593
 6454SOL    HW120261   6.639   2.387   2.525
 6454SOL    HW220262   6.755   2.290   2.588
 6455SOL     OW20263   6.668   4.398   3.292
 6455SOL    HW120264   6.578   4.437   3.273
 6455SOL    HW220265   6.657   4.314   3.345
 6456SOL     OW20266   0.655   1.245   2.878
 6456SOL    HW120267   0.603   1.327   2.854
 6456SOL    HW220268   0.657   1.183   2.799
 6457SOL     OW20269   5.175   6.715   1.250
 6457SOL    HW120270   5.151   6.799   1.299
 6457SOL    HW220271   5.213   6.649   1.315
 6458SOL     OW20272   0.815   5.055   4.160
 6458SOL    HW120273   0.828   5.073   4.257
 6458SOL    HW220274   0.838   5.137   4.108
 6459SOL     OW20275   5.790   2.828   2.921
 6459SOL    HW120276   5.848   2.906   2.945
 6459SOL    HW220277   5.734   2.802   3.000
 6460SOL     OW20278   6.859   5.984   5.237
 6460SOL    HW120279   6.911   5.988   5.152
 6460SOL    HW220280   6.907   5.927   5.303
 6461SOL     OW20281   3.117   4.469   0.784
 6461SOL    HW120282   3.078   4.385   0.823
 6461SOL    HW220283   3.183   4.508   0.847
 6462SOL     OW20284   1.889   3.786   4.889
 6462SOL    HW120285   1.893   3.776   4.988
 6462SOL    HW220286   1.885   3.696   4.846
 6463SOL     OW20287   5.103   0.749   1.161
 6463SOL    HW120288   5.110   0.808   1.081
 6463SOL    HW220289   5.185   0.758   1.217
 6464SOL     OW20290   0.863   6.164   4.484
 6464SOL    HW120291   0.766   6.152   4.505
 6464SOL    HW220292   0.907   6.074   4.476
 6465SOL     OW20293   5.180   2.782   2.129
 6465SOL    HW120294   5.275   2.764   2.104
 6465SOL    HW220295   5.177   2.845   2.207
 6466SOL     OW20296   6.868   3.820   6.610
 6466SOL    HW120297   6.950   3.764   6.599
 6466SOL    HW220298   6.846   3.829   6.707
 6467SOL     OW20299   3.170   0.809   0.535
 6467SOL    HW120300   3.156   0.896   0.488
 6467SOL    HW220301   3.182   0.736   0.467
 6468SOL     OW20302   3.437   6.843   0.206
 6468SOL    HW120303   3.484   6.908   0.266
 6468SOL    HW220304   3.497   6.767   0.185
 6469SOL     OW20305   3.071   1.743   3.654
 6469SOL    HW120306   3.042   1.837   3.635
 6469SOL    HW220307   2.995   1.693   3.696
 6470SOL     OW20308   6.737   2.604   0.065
 6470SOL    HW120309   6.830   2.577   0.091
 6470SOL    HW220310   6.738   2.645   7.000
 6471SOL     OW20311   0.186   6.399   5.037
 6471SOL    HW120312   0.179   6.349   4.951
 6471SOL    HW220313   0.267   6.367   5.088
 6472SOL     OW20314   0.168   6.457   2.026
 6472SOL    HW120315   0.074   6.435   2.000
 6472SOL    HW220316   0.172   6.549   2.064
 6473SOL     OW20317   1.885   1.543   4.334
 6473SOL    HW120318   1.869   1.466   4.272
 6473SOL    HW220319   1.911   1.624   4.282
 6474SOL     OW20320   4.141   5.112   5.132
 6474SOL    HW120321   4.066   5.108   5.199
 6474SOL    HW220322   4.139   5.029   5.076
 6475SOL     OW20323   5.446   5.606   3.497
 6475SOL    HW120324   5.541   5.587   3.474
 6475SOL    HW220325   5.429   5.704   3.495
 6476SOL     OW20326   3.848   2.024   6.403
 6476SOL    HW120327   3.810   2.063   6.319
 6476SOL    HW220328   3.879   2.098   6.462
 6477SOL     OW20329   0.158   6.083   1.148
 6477SOL    HW120330   0.193   6.015   1.213
 6477SOL    HW220331   0.116   6.037   1.070
 6478SOL     OW20332   2.634   6.160   1.530
 6478SOL    HW120333   2.687   6.239   1.559
 6478SOL    HW220334   2.538   6.187   1.516
 6479SOL     OW20335   3.040   5.892   4.154
 6479SOL    HW120336   3.049   5.909   4.252
 6479SOL    HW220337   2.986   5.810   4.139
 6480SOL     OW20338   2.632   0.830   6.611
 6480SOL    HW120339   2.556   0.776   6.575
 6480SOL    HW220340   2.661   0.896   6.541
 6481SOL     OW20341   3.151   2.302   1.714
 6481SOL    HW120342   3.084   2.320   1.787
 6481SOL    HW220343   3.243   2.301   1.753
 6482SOL     OW20344   6.853   2.869   5.422
 6482SOL    HW120345   6.776   2.834   5.475
 6482SOL    HW220346   6.936   2.818   5.446
 6483SOL     OW20347   1.429   5.461   4.486
 6483SOL    HW120348   1.414   5.475   4.388
 6483SOL    HW220349   1.525   5.476   4.508
 6484SOL     OW20350   2.842   1.228   3.429
 6484SOL    HW120351   2.927   1.258   3.471
 6484SOL    HW220352   2.847   1.130   3.407
 6485SOL     OW20353   2.307   6.542   4.660
 6485SOL    HW120354   2.317   6.444   4.673
 6485SOL    HW220355   2.393   6.588   4.685
 6486SOL     OW20356   1.293   4.865   2.866
 6486SOL    HW120357   1.387   4.847   2.838
 6486SOL    HW220358   1.292   4.938   2.935
 6487SOL     OW20359   0.986   5.036   4.390
 6487SOL    HW120360   1.049   4.958   4.393
 6487SOL    HW220361   0.925   5.033   4.468
 6488SOL     OW20362   4.988   5.372   4.428
 6488SOL    HW120363   4.967   5.298   4.491
 6488SOL    HW220364   4.955   5.349   4.337
 6489SOL     OW20365   3.955   2.955   6.657
 6489SOL    HW120366   3.921   2.981   6.567
 6489SOL    HW220367   3.911   2.870   6.686
 6490SOL     OW20368   1.551   1.418   6.442
 6490SOL    HW120369   1.458   1.430   6.477
 6490SOL    HW220370   1.610   1.490   6.479
 6491SOL     OW20371   1.831   0.415   1.255
 6491SOL    HW120372   1.887   0.490   1.292
 6491SOL    HW220373   1.854   0.401   1.159
 6492SOL     OW20374   3.210   4.102   4.434
 6492SOL    HW120375   3.297   4.144   4.457
 6492SOL    HW220376   3.186   4.034   4.503
 6493SOL     OW20377   1.689   4.613   5.874
 6493SOL    HW120378   1.677   4.514   5.861
 6493SOL    HW220379   1.704   4.656   5.785
 6494SOL     OW20380   5.981   6.499   1.983
 6494SOL    HW120381   5.991   6.447   1.897
 6494SOL    HW220382   5.884   6.504   2.007
 6495SOL     OW20383   6.782   6.910   4.403
 6495SOL    HW120384   6.773   6.867   4.492
 6495SOL    HW220385   6.717   6.986   4.395
 6496SOL     OW20386   4.750   6.485   2.055
 6496SOL    HW120387   4.795   6.446   1.975
 6496SOL    HW220388   4.651   6.473   2.046
 6497SOL     OW20389   0.627   1.565   1.023
 6497SOL    HW120390   0.685   1.484   1.036
 6497SOL    HW220391   0.541   1.552   1.073
 6498SOL     OW20392   0.675   4.691   4.624
 6498SOL    HW120393   0.764   4.724   4.593
 6498SOL    HW220394   0.684   4.599   4.661
 6499SOL     OW20395   5.612   4.059   4.127
 6499SOL    HW120396   5.543   4.090   4.062
 6499SOL    HW220397   5.569   4.008   4.201
 6500SOL     OW20398   0.759   3.971   2.392
 6500SOL    HW120399   0.831   4.040   2.404
 6500SOL    HW220400   0.801   3.881   2.385
 6501SOL     OW20401   6.762   1.684   0.791
 6501SOL    HW120402   6.848   1.710   0.836
 6501SOL    HW220403   6.704   1.765   0.781
 6502SOL     OW20404   6.372   4.003   1.430
 6502SOL    HW120405   6.444   4.046   1.376
 6502SOL    HW220406   6.356   3.910   1.395
 6503SOL     OW20407   6.435   2.973   5.916
 6503SOL    HW120408   6.475   2.887   5.946
 6503SOL    HW220409   6.409   2.966   5.820
 6504SOL     OW20410   4.806   6.716   6.542
 6504SOL    HW120411   4.800   6.624   6.580
 6504SOL    HW220412   4.723   6.766   6.564
 6505SOL     OW20413   5.488   6.297   0.350
 6505SOL    HW120414   5.581   6.315   0.320
 6505SOL    HW220415   5.442   6.384   0.369
 6506SOL     OW20416   0.201   3.184   3.715
 6506SOL    HW120417   0.120   3.242   3.722
 6506SOL    HW220418   0.196   3.128   3.632
 6507SOL     OW20419   3.253   5.760   6.730
 6507SOL    HW120420   3.175   5.816   6.703
 6507SOL    HW220421   3.253   5.748   6.829
 6508SOL     OW20422   1.392   6.982   1.613
 6508SOL    HW120423   1.446   0.006   1.546
 6508SOL    HW220424   1.405   7.023   1.703
 6509SOL     OW20425   3.720   1.571   5.740
 6509SOL    HW120426   3.749   1.493   5.795
 6509SOL    HW220427   3.636   1.610   5.778
 6510SOL     OW20428   4.311   5.970   5.691
 6510SOL    HW120429   4.277   5.893   5.744
 6510SOL    HW220430   4.383   5.939   5.629
 6511SOL     OW20431   4.473   1.225   6.429
 6511SOL    HW120432   4.382   1.182   6.427
 6511SOL    HW220433   4.532   1.181   6.363
 6512SOL     OW20434   2.969   0.411   1.902
 6512SOL    HW120435   3.025   0.355   1.963
 6512SOL    HW220436   2.915   0.476   1.957
 6513SOL     OW20437   2.704   5.499   5.004
 6513SOL    HW120438   2.718   5.407   4.968
 6513SOL    HW220439   2.660   5.494   5.094
 6514SOL     OW20440   5.968   0.395   5.108
 6514SOL    HW120441   5.942   0.388   5.012
 6514SOL    HW220442   6.063   0.364   5.120
 6515SOL     OW20443   2.393   5.069   2.157
 6515SOL    HW120444   2.459   5.003   2.192
 6515SOL    HW220445   2.301   5.031   2.165
 6516SOL     OW20446   0.021   3.156   1.877
 6516SOL    HW120447   0.057   3.103   1.954
 6516SOL    HW220448   0.053   3.251   1.884
 6517SOL     OW20449   6.756   2.271   0.025
 6517SOL    HW120450   6.672   2.313   7.015
 6517SOL    HW220451   6.775   2.307   0.116
 6518SOL     OW20452   0.449   0.660   2.199
 6518SOL    HW120453   0.463   0.576   2.253
 6518SOL    HW220454   0.445   0.636   2.102
 6519SOL     OW20455   0.715   1.161   3.309
 6519SOL    HW120456   0.764   1.081   3.345
 6519SOL    HW220457   0.646   1.190   3.375
 6520SOL     OW20458   6.875   5.773   6.978
 6520SOL    HW120459   6.910   5.695   6.927
 6520SOL    HW220460   6.796   5.812   6.929
 6521SOL     OW20461   1.596   3.472   3.691
 6521SOL    HW120462   1.651   3.516   3.619
 6521SOL    HW220463   1.649   3.400   3.734
 6522SOL     OW20464   2.998   4.145   5.635
 6522SOL    HW120465   3.005   4.240   5.664
 6522SOL    HW220466   2.903   4.115   5.642
 6523SOL     OW20467   5.866   0.449   0.392
 6523SOL    HW120468   5.869   0.393   0.476
 6523SOL    HW220469   5.856   0.545   0.416
 6524SOL     OW20470   2.896   2.118   1.827
 6524SOL    HW120471   2.954   2.056   1.879
 6524SOL    HW220472   2.899   2.209   1.868
 6525SOL     OW20473   1.789   5.142   4.068
 6525SOL    HW120474   1.768   5.070   4.002
 6525SOL    HW220475   1.721   5.139   4.142
 6526SOL     OW20476   0.051   0.170   0.884
 6526SOL    HW120477   6.989   0.195   0.925
 6526SOL    HW220478   0.077   0.079   0.914
 6527SOL     OW20479   0.253   2.701   0.503
 6527SOL    HW120480   0.225   2.612   0.540
 6527SOL    HW220481   0.176   2.765   0.510
 6528SOL     OW20482   6.129   1.411   5.871
 6528SOL    HW120483   6.093   1.338   5.929
 6528SOL    HW220484   6.130   1.497   5.923
 6529SOL     OW20485   0.555   1.537   2.402
 6529SOL    HW120486   0.580   1.595   2.479
 6529SOL    HW220487   0.520   1.449   2.435
 6530SOL     OW20488   0.965   2.791   2.388
 6530SOL    HW120489   1.017   2.808   2.304
 6530SOL    HW220490   0.974   2.869   2.449
 6531SOL     OW20491   3.962   3.248   5.830
 6531SOL    HW120492   3.925   3.340   5.824
 6531SOL    HW220493   4.040   3.239   5.768
 6532SOL     OW20494   1.606   0.648   0.916
 6532SOL    HW120495   1.658   0.687   0.992
 6532SOL    HW220496   1.510   0.674   0.923
 6533SOL     OW20497   4.691   4.830   6.964
 6533SOL    HW120498   4.733   4.921   6.958
 6533SOL    HW220499   4.594   4.837   6.941
 6534SOL     OW20500   5.960   4.829   1.731
 6534SOL    HW120501   5.928   4.900   1.794
 6534SOL    HW220502   5.883   4.797   1.675
 6535SOL     OW20503   5.641   4.160   4.417
 6535SOL    HW120504   5.641   4.226   4.342
 6535SOL    HW220505   5.733   4.150   4.453
 6536SOL     OW20506   0.413   2.285   5.526
 6536SOL    HW120507   0.394   2.362   5.464
 6536SOL    HW220508   0.419   2.200   5.473
 6537SOL     OW20509   5.672   4.363   5.115
 6537SOL    HW120510   5.714   4.288   5.166
 6537SOL    HW220511   5.685   4.347   5.017
 6538SOL     OW20512   2.305   3.681   5.252
 6538SOL    HW120513   2.243   3.726   5.317
 6538SOL    HW220514   2.326   3.744   5.178
 6539SOL     OW20515   5.730   0.978   6.931
 6539SOL    HW120516   5.656   1.011   6.873
 6539SOL    HW220517   5.702   0.893   6.975
 6540SOL     OW20518   3.303   2.517   5.566
 6540SOL    HW120519   3.286   2.615   5.578
 6540SOL    HW220520   3.246   2.482   5.492
 6541SOL     OW20521   5.683   2.489   5.626
 6541SOL    HW120522   5.681   2.589   5.631
 6541SOL    HW220523   5.758   2.460   5.567
 6542SOL     OW20524   1.542   3.726   4.790
 6542SOL    HW120525   1.636   3.707   4.818
 6542SOL    HW220526   1.542   3.772   4.702
 6543SOL     OW20527   3.415   2.097   4.949
 6543SOL    HW120528   3.354   2.029   4.990
 6543SOL    HW220529   3.372   2.187   4.953
 6544SOL     OW20530   0.504   0.081   2.106
 6544SOL    HW120531   0.541   0.145   2.173
 6544SOL    HW220532   0.557   0.086   2.022
 6545SOL     OW20533   4.554   6.656   1.267
 6545SOL    HW120534   4.601   6.681   1.352
 6545SOL    HW220535   4.455   6.654   1.284
 6546SOL     OW20536   4.773   4.516   6.653
 6546SOL    HW120537   4.797   4.609   6.625
 6546SOL    HW220538   4.705   4.479   6.590
 6547SOL     OW20539   5.207   6.738   6.353
 6547SOL    HW120540   5.282   6.760   6.414
 6547SOL    HW220541   5.187   6.640   6.358
 6548SOL     OW20542   0.970   2.518   6.358
 6548SOL    HW120543   0.876   2.545   6.377
 6548SOL    HW220544   1.026   2.532   6.440
 6549SOL     OW20545   4.886   6.922   1.687
 6549SOL    HW120546   4.858   6.853   1.754
 6549SOL    HW220547   4.888   6.880   1.596
 6550SOL     OW20548   6.486   0.232   3.205
 6550SOL    HW120549   6.467   0.250   3.109
 6550SOL    HW220550   6.561   0.290   3.236
 6551SOL     OW20551   2.882   3.406   1.761
 6551SOL    HW120552   2.950   3.397   1.689
 6551SOL    HW220553   2.882   3.324   1.819
 6552SOL     OW20554   1.624   6.708   0.536
 6552SOL    HW120555   1.648   6.717   0.439
 6552SOL    HW220556   1.660   6.621   0.571
 6553SOL     OW20557   0.454   1.451   3.033
 6553SOL    HW120558   0.432   1.356   3.056
 6553SOL    HW220559   0.454   1.462   2.933
 6554SOL     OW20560   2.730   1.115   4.813
 6554SOL    HW120561   2.683   1.050   4.754
 6554SOL    HW220562   2.823   1.084   4.830
 6555SOL     OW20563   6.719   1.947   4.391
 6555SOL    HW120564   6.705   1.869   4.330
 6555SOL    HW220565   6.785   2.010   4.350
 6556SOL     OW20566   5.954   3.461   2.803
 6556SOL    HW120567   6.034   3.417   2.762
 6556SOL    HW220568   5.871   3.430   2.758
 6557SOL     OW20569   1.654   0.198   2.755
 6557SOL    HW120570   1.750   0.213   2.733
 6557SOL    HW220571   1.610   0.149   2.680
 6558SOL     OW20572   5.931   5.168   6.984
 6558SOL    HW120573   5.898   5.124   0.042
 6558SOL    HW220574   5.864   5.156   6.911
 6559SOL     OW20575   6.975   3.561   6.922
 6559SOL    HW120576   0.028   3.535   6.867
 6559SOL    HW220577   6.972   3.503   7.004
 6560SOL     OW20578   3.887   4.738   0.666
 6560SOL    HW120579   3.969   4.768   0.616
 6560SOL    HW220580   3.819   4.705   0.601
 6561SOL     OW20581   4.078   4.766   0.467
 6561SOL    HW120582   4.141   4.840   0.443
 6561SOL    HW220583   4.061   4.709   0.386
 6562SOL     OW20584   5.414   2.765   0.566
 6562SOL    HW120585   5.463   2.761   0.653
 6562SOL    HW220586   5.319   2.738   0.580
 6563SOL     OW20587   5.212   0.362   6.270
 6563SOL    HW120588   5.211   0.391   6.175
 6563SOL    HW220589   5.145   0.416   6.322
 6564SOL     OW20590   6.466   4.401   2.296
 6564SOL    HW120591   6.432   4.321   2.346
 6564SOL    HW220592   6.492   4.372   2.204
 6565SOL     OW20593   5.763   6.611   2.604
 6565SOL    HW120594   5.774   6.535   2.539
 6565SOL    HW220595   5.702   6.582   2.678
 6566SOL     OW20596   3.303   5.448   2.096
 6566SOL    HW120597   3.323   5.435   1.999
 6566SOL    HW220598   3.331   5.366   2.147
 6567SOL     OW20599   4.238   0.661   1.786
 6567SOL    HW120600   4.226   0.750   1.743
 6567SOL    HW220601   4.176   0.652   1.864
 6568SOL     OW20602   4.264   1.172   2.253
 6568SOL    HW120603   4.331   1.114   2.208
 6568SOL    HW220604   4.257   1.147   2.349
 6569SOL     OW20605   0.544   2.824   6.232
 6569SOL    HW120606   0.581   2.914   6.252
 6569SOL    HW220607   0.604   2.777   6.166
 6570SOL     OW20608   4.019   0.669   2.539
 6570SOL    HW120609   4.039   0.580   2.499
 6570SOL    HW220610   4.098   0.730   2.528
 6571SOL     OW20611   2.206   5.217   3.348
 6571SOL    HW120612   2.298   5.215   3.388
 6571SOL    HW220613   2.139   5.242   3.418
 6572SOL     OW20614   0.431   4.302   4.036
 6572SOL    HW120615   0.485   4.383   4.059
 6572SOL    HW220616   0.484   4.220   4.056
 6573SOL     OW20617   1.723   0.753   3.192
 6573SOL    HW120618   1.664   0.833   3.203
 6573SOL    HW220619   1.807   0.766   3.243
 6574SOL     OW20620   2.471   6.419   3.438
 6574SOL    HW120621   2.524   6.504   3.445
 6574SOL    HW220622   2.394   6.433   3.375
 6575SOL     OW20623   0.108   6.945   2.792
 6575SOL    HW120624   0.147   6.891   2.866
 6575SOL    HW220625   0.013   6.968   2.814
 6576SOL     OW20626   3.051   4.754   0.402
 6576SOL    HW120627   3.119   4.825   0.422
 6576SOL    HW220628   3.079   4.669   0.447
 6577SOL     OW20629   1.950   2.654   3.227
 6577SOL    HW120630   1.935   2.711   3.308
 6577SOL    HW220631   1.864   2.612   3.200
 6578SOL     OW20632   1.255   5.837   1.601
 6578SOL    HW120633   1.155   5.841   1.599
 6578SOL    HW220634   1.285   5.749   1.563
 6579SOL     OW20635   0.345   1.922   4.387
 6579SOL    HW120636   0.339   1.994   4.318
 6579SOL    HW220637   0.347   1.964   4.478
 6580SOL     OW20638   1.002   0.346   0.470
 6580SOL    HW120639   1.086   0.376   0.427
 6580SOL    HW220640   0.925   0.359   0.407
 6581SOL     OW20641   1.341   0.884   0.644
 6581SOL    HW120642   1.405   0.908   0.717
 6581SOL    HW220643   1.390   0.836   0.571
 6582SOL     OW20644   0.014   0.440   2.773
 6582SOL    HW120645   0.098   0.492   2.760
 6582SOL    HW220646   0.035   0.353   2.816
 6583SOL     OW20647   4.767   6.627   5.504
 6583SOL    HW120648   4.792   6.548   5.449
 6583SOL    HW220649   4.678   6.662   5.476
 6584SOL     OW20650   3.808   2.271   0.877
 6584SOL    HW120651   3.885   2.254   0.939
 6584SOL    HW220652   3.843   2.286   0.785
 6585SOL     OW20653   6.628   6.782   0.818
 6585SOL    HW120654   6.592   6.874   0.839
 6585SOL    HW220655   6.720   6.790   0.781
 6586SOL     OW20656   6.765   1.958   6.042
 6586SOL    HW120657   6.752   2.048   5.999
 6586SOL    HW220658   6.860   1.948   6.071
 6587SOL     OW20659   1.711   4.337   5.857
 6587SOL    HW120660   1.700   4.240   5.833
 6587SOL    HW220661   1.738   4.344   5.952
 6588SOL     OW20662   0.440   3.132   0.442
 6588SOL    HW120663   0.491   3.061   0.395
 6588SOL    HW220664   0.345   3.131   0.411
 6589SOL     OW20665   5.611   0.901   1.832
 6589SOL    HW120666   5.651   0.906   1.923
 6589SOL    HW220667   5.682   0.872   1.767
 6590SOL     OW20668   0.740   0.402   4.388
 6590SOL    HW120669   0.709   0.321   4.439
 6590SOL    HW220670   0.716   0.391   4.291
 6591SOL     OW20671   4.917   5.388   4.110
 6591SOL    HW120672   4.924   5.488   4.117
 6591SOL    HW220673   5.009   5.350   4.100
 6592SOL     OW20674   5.232   0.367   3.047
 6592SOL    HW120675   5.175   0.339   2.971
 6592SOL    HW220676   5.179   0.423   3.110
 6593SOL     OW20677   2.897   2.247   2.346
 6593SOL    HW120678   2.843   2.306   2.406
 6593SOL    HW220679   2.890   2.280   2.252
 6594SOL     OW20680   3.511   1.937   5.947
 6594SOL    HW120681   3.477   1.990   5.870
 6594SOL    HW220682   3.472   1.972   6.032
 6595SOL     OW20683   1.701   2.496   4.614
 6595SOL    HW120684   1.793   2.464   4.590
 6595SOL    HW220685   1.708   2.579   4.669
 6596SOL     OW20686   4.510   5.976   3.372
 6596SOL    HW120687   4.522   5.983   3.273
 6596SOL    HW220688   4.412   5.974   3.394
 6597SOL     OW20689   1.379   4.994   1.971
 6597SOL    HW120690   1.448   4.972   1.902
 6597SOL    HW220691   1.400   4.946   2.056
 6598SOL     OW20692   1.718   4.287   3.529
 6598SOL    HW120693   1.751   4.252   3.617
 6598SOL    HW220694   1.778   4.255   3.456
 6599SOL     OW20695   5.798   5.588   6.733
 6599SOL    HW120696   5.827   5.599   6.638
 6599SOL    HW220697   5.715   5.642   6.748
 6600SOL     OW20698   4.203   0.047   4.753
 6600SOL    HW120699   4.164   0.104   4.681
 6600SOL    HW220700   4.142   6.996   4.772
 6601SOL     OW20701   0.717   3.068   3.000
 6601SOL    HW120702   0.668   3.140   2.951
 6601SOL    HW220703   0.662   3.037   3.077
 6602SOL     OW20704   2.678   0.242   1.020
 6602SOL    HW120705   2.732   0.225   0.937
 6602SOL    HW220706   2.730   0.214   1.100
 6603SOL     OW20707   0.475   2.846   3.699
 6603SOL    HW120708   0.457   2.868   3.603
 6603SOL    HW220709   0.397   2.874   3.754
 6604SOL     OW20710   2.344   0.289   1.758
 6604SOL    HW120711   2.432   0.269   1.800
 6604SOL    HW220712   2.358   0.327   1.667
 6605SOL     OW20713   6.096   5.417   1.742
 6605SOL    HW120714   6.133   5.361   1.668
 6605SOL    HW220715   6.098   5.365   1.828
 6606SOL     OW20716   0.717   4.004   3.031
 6606SOL    HW120717   0.741   3.970   3.122
 6606SOL    HW220718   0.623   4.039   3.031
 6607SOL     OW20719   6.150   4.850   3.817
 6607SOL    HW120720   6.236   4.868   3.771
 6607SOL    HW220721   6.162   4.778   3.886
 6608SOL     OW20722   6.791   0.527   0.395
 6608SOL    HW120723   6.854   0.478   0.454
 6608SOL    HW220724   6.808   0.502   0.299
 6609SOL     OW20725   4.905   1.047   6.249
 6609SOL    HW120726   4.847   1.128   6.241
 6609SOL    HW220727   5.000   1.075   6.256
 6610SOL     OW20728   2.188   6.035   7.016
 6610SOL    HW120729   2.240   6.120   7.024
 6610SOL    HW220730   2.186   5.988   0.078
 6611SOL     OW20731   5.432   2.547   4.237
 6611SOL    HW120732   5.381   2.478   4.287
 6611SOL    HW220733   5.370   2.619   4.206
 6612SOL     OW20734   6.621   1.951   6.261
 6612SOL    HW120735   6.668   1.945   6.173
 6612SOL    HW220736   6.524   1.971   6.246
 6613SOL     OW20737   5.357   0.143   6.225
 6613SOL    HW120738   5.453   0.166   6.235
 6613SOL    HW220739   5.302   0.226   6.233
 6614SOL     OW20740   4.511   6.384   1.353
 6614SOL    HW120741   4.494   6.421   1.445
 6614SOL    HW220742   4.550   6.455   1.295
 6615SOL     OW20743   2.184   5.687   0.672
 6615SOL    HW120744   2.277   5.653   0.657
 6615SOL    HW220745   2.175   5.719   0.767
 6616SOL     OW20746   3.728   6.634   6.306
 6616SOL    HW120747   3.823   6.647   6.333
 6616SOL    HW220748   3.706   6.693   6.229
 6617SOL     OW20749   4.205   0.006   3.503
 6617SOL    HW120750   4.229   0.048   3.590
 6617SOL    HW220751   4.173   0.077   3.440
 6618SOL     OW20752   0.718   1.389   3.151
 6618SOL    HW120753   0.702   1.311   3.212
 6618SOL    HW220754   0.649   1.390   3.079
 6619SOL     OW20755   4.707   6.557   4.142
 6619SOL    HW120756   4.634   6.573   4.208
 6619SOL    HW220757   4.741   6.644   4.107
 6620SOL     OW20758   1.727   3.849   3.576
 6620SOL    HW120759   1.720   3.753   3.551
 6620SOL    HW220760   1.647   3.898   3.542
 6621SOL     OW20761   3.865   3.090   5.090
 6621SOL    HW120762   3.854   3.183   5.124
 6621SOL    HW220763   3.898   3.092   4.996
 6622SOL     OW20764   6.077   5.655   1.027
 6622SOL    HW120765   6.034   5.664   1.117
 6622SOL    HW220766   6.118   5.564   1.019
 6623SOL     OW20767   3.379   4.075   4.805
 6623SOL    HW120768   3.432   4.080   4.890
 6623SOL    HW220769   3.391   3.985   4.764
 6624SOL     OW20770   0.735   3.294   4.766
 6624SOL    HW120771   0.764   3.326   4.675
 6624SOL    HW220772   0.781   3.347   4.836
 6625SOL     OW20773   6.207   2.793   5.535
 6625SOL    HW120774   6.158   2.707   5.551
 6625SOL    HW220775   6.205   2.815   5.438
 6626SOL     OW20776   3.503   0.145   5.001
 6626SOL    HW120777   3.513   0.240   5.030
 6626SOL    HW220778   3.416   0.133   4.954
 6627SOL     OW20779   1.944   6.044   4.190
 6627SOL    HW120780   2.013   5.989   4.143
 6627SOL    HW220781   1.869   5.985   4.219
 6628SOL     OW20782   5.674   5.586   4.237
 6628SOL    HW120783   5.625   5.512   4.283
 6628SOL    HW220784   5.736   5.630   4.302
 6629SOL     OW20785   4.998   5.406   6.782
 6629SOL    HW120786   5.079   5.425   6.837
 6629SOL    HW220787   4.916   5.433   6.832
 6630SOL     OW20788   3.865   1.740   1.448
 6630SOL    HW120789   3.959   1.727   1.478
 6630SOL    HW220790   3.804   1.734   1.526
 6631SOL     OW20791   2.068   5.585   5.323
 6631SOL    HW120792   2.028   5.601   5.233
 6631SOL    HW220793   2.082   5.487   5.337
 6632SOL     OW20794   1.226   0.977   1.358
 6632SOL    HW120795   1.289   0.900   1.361
 6632SOL    HW220796   1.187   0.985   1.267
 6633SOL     OW20797   3.225   5.172   6.124
 6633SOL    HW120798   3.315   5.129   6.117
 6633SOL    HW220799   3.155   5.101   6.133
 6634SOL     OW20800   4.938   2.193   5.296
 6634SOL    HW120801   4.898   2.102   5.306
 6634SOL    HW220802   4.900   2.253   5.367
 6635SOL     OW20803   4.763   4.117   2.400
 6635SOL    HW120804   4.774   4.049   2.472
 6635SOL    HW220805   4.798   4.080   2.313
 6636SOL     OW20806   3.121   0.601   2.427
 6636SOL    HW120807   3.070   0.635   2.348
 6636SOL    HW220808   3.068   0.619   2.510
 6637SOL     OW20809   2.263   0.194   0.204
 6637SOL    HW120810   2.248   0.170   0.108
 6637SOL    HW220811   2.340   0.257   0.211
 6638SOL     OW20812   3.062   3.286   3.359
 6638SOL    HW120813   3.156   3.306   3.386
 6638SOL    HW220814   3.020   3.225   3.426
 6639SOL     OW20815   3.878   3.427   6.872
 6639SOL    HW120816   3.807   3.458   6.934
 6639SOL    HW220817   3.863   3.331   6.850
 6640SOL     OW20818   6.898   2.070   5.585
 6640SOL    HW120819   6.934   2.102   5.498
 6640SOL    HW220820   6.814   2.118   5.607
 6641SOL     OW20821   3.471   1.750   1.043
 6641SOL    HW120822   3.418   1.692   0.982
 6641SOL    HW220823   3.568   1.726   1.035
 6642SOL     OW20824   1.829   5.246   0.013
 6642SOL    HW120825   1.886   5.326   7.023
 6642SOL    HW220826   1.876   5.185   0.077
 6643SOL     OW20827   6.159   6.602   0.464
 6643SOL    HW120828   6.076   6.615   0.409
 6643SOL    HW220829   6.134   6.588   0.560
 6644SOL     OW20830   1.703   6.077   2.957
 6644SOL    HW120831   1.623   6.073   3.017
 6644SOL    HW220832   1.705   6.165   2.909
 6645SOL     OW20833   5.678   3.007   0.908
 6645SOL    HW120834   5.706   2.911   0.902
 6645SOL    HW220835   5.590   3.019   0.861
 6646SOL     OW20836   4.111   0.894   6.281
 6646SOL    HW120837   4.124   0.796   6.299
 6646SOL    HW220838   4.080   0.906   6.187
 6647SOL     OW20839   4.225   6.031   1.448
 6647SOL    HW120840   4.296   5.961   1.454
 6647SOL    HW220841   4.136   5.986   1.439
 6648SOL     OW20842   3.745   5.666   4.840
 6648SOL    HW120843   3.787   5.581   4.872
 6648SOL    HW220844   3.804   5.743   4.862
 6649SOL     OW20845   5.763   2.802   6.509
 6649SOL    HW120846   5.667   2.803   6.480
 6649SOL    HW220847   5.769   2.764   6.601
 6650SOL     OW20848   3.873   1.079   4.633
 6650SOL    HW120849   3.792   1.025   4.656
 6650SOL    HW220850   3.846   1.164   4.588
 6651SOL     OW20851   1.664   1.769   0.016
 6651SOL    HW120852   1.581   1.825   0.009
 6651SOL    HW220853   1.695   1.769   0.111
 6652SOL     OW20854   0.664   4.471   0.134
 6652SOL    HW120855   0.681   4.569   0.121
 6652SOL    HW220856   0.566   4.455   0.144
 6653SOL     OW20857   4.944   2.711   0.527
 6653SOL    HW120858   4.899   2.800   0.517
 6653SOL    HW220859   4.877   2.644   0.560
 6654SOL     OW20860   0.250   5.155   2.895
 6654SOL    HW120861   0.222   5.113   2.982
 6654SOL    HW220862   0.239   5.088   2.822
 6655SOL     OW20863   0.238   6.169   2.125
 6655SOL    HW120864   0.140   6.158   2.107
 6655SOL    HW220865   0.285   6.196   2.041
 6656SOL     OW20866   4.737   1.687   2.958
 6656SOL    HW120867   4.688   1.725   2.879
 6656SOL    HW220868   4.828   1.728   2.964
 6657SOL     OW20869   5.536   2.091   5.491
 6657SOL    HW120870   5.470   2.138   5.549
 6657SOL    HW220871   5.498   2.003   5.464
 6658SOL     OW20872   6.513   0.408   5.507
 6658SOL    HW120873   6.604   0.368   5.498
 6658SOL    HW220874   6.511   0.497   5.463
 6659SOL     OW20875   1.226   4.314   1.614
 6659SOL    HW120876   1.221   4.286   1.518
 6659SOL    HW220877   1.321   4.318   1.643
 6660SOL     OW20878   1.782   4.895   2.090
 6660SOL    HW120879   1.784   4.918   1.992
 6660SOL    HW220880   1.876   4.885   2.123
 6661SOL     OW20881   2.438   0.270   4.599
 6661SOL    HW120882   2.353   0.265   4.651
 6661SOL    HW220883   2.516   0.273   4.662
 6662SOL     OW20884   2.286   0.611   1.323
 6662SOL    HW120885   2.376   0.585   1.360
 6662SOL    HW220886   2.246   0.533   1.274
 6663SOL     OW20887   1.045   6.005   5.502
 6663SOL    HW120888   1.116   5.963   5.446
 6663SOL    HW220889   1.074   6.008   5.598
 6664SOL     OW20890   2.577   0.592   1.756
 6664SOL    HW120891   2.526   0.562   1.837
 6664SOL    HW220892   2.621   0.680   1.775
 6665SOL     OW20893   1.990   6.438   5.814
 6665SOL    HW120894   1.954   6.383   5.739
 6665SOL    HW220895   2.082   6.470   5.791
 6666SOL     OW20896   6.767   5.681   4.960
 6666SOL    HW120897   6.840   5.613   4.959
 6666SOL    HW220898   6.785   5.751   4.891
 6667SOL     OW20899   6.762   6.575   6.213
 6667SOL    HW120900   6.789   6.525   6.130
 6667SOL    HW220901   6.687   6.638   6.190
 6668SOL     OW20902   6.876   6.184   1.075
 6668SOL    HW120903   6.974   6.189   1.094
 6668SOL    HW220904   6.860   6.203   0.978
 6669SOL     OW20905   3.768   2.237   1.521
 6669SOL    HW120906   3.697   2.253   1.452
 6669SOL    HW220907   3.778   2.319   1.578
 6670SOL     OW20908   3.078   1.259   6.699
 6670SOL    HW120909   3.005   1.199   6.666
 6670SOL    HW220910   3.115   1.311   6.622
 6671SOL     OW20911   4.994   6.814   0.845
 6671SOL    HW120912   4.904   6.847   0.872
 6671SOL    HW220913   4.985   6.741   0.778
 6672SOL     OW20914   1.610   2.222   0.247
 6672SOL    HW120915   1.602   2.320   0.230
 6672SOL    HW220916   1.519   2.183   0.262
 6673SOL     OW20917   4.956   3.894   4.018
 6673SOL    HW120918   4.881   3.896   4.084
 6673SOL    HW220919   5.039   3.931   4.061
 6674SOL     OW20920   0.149   3.085   6.651
 6674SOL    HW120921   0.108   3.044   6.732
 6674SOL    HW220922   0.083   3.082   6.575
 6675SOL     OW20923   4.458   1.996   6.892
 6675SOL    HW120924   4.456   2.012   6.793
 6675SOL    HW220925   4.548   2.022   6.928
 6676SOL     OW20926   1.242   3.781   2.727
 6676SOL    HW120927   1.186   3.844   2.673
 6676SOL    HW220928   1.328   3.825   2.752
 6677SOL     OW20929   1.080   0.713   6.529
 6677SOL    HW120930   1.034   0.793   6.490
 6677SOL    HW220931   1.169   0.739   6.565
 6678SOL     OW20932   1.721   3.958   0.709
 6678SOL    HW120933   1.780   4.010   0.647
 6678SOL    HW220934   1.627   3.960   0.674
 6679SOL     OW20935   3.511   1.104   4.082
 6679SOL    HW120936   3.434   1.143   4.132
 6679SOL    HW220937   3.593   1.110   4.138
 6680SOL     OW20938   4.562   6.309   0.064
 6680SOL    HW120939   4.528   6.218   0.043
 6680SOL    HW220940   4.495   6.358   0.120
 6681SOL     OW20941   4.981   5.679   1.965
 6681SOL    HW120942   5.008   5.748   2.032
 6681SOL    HW220943   4.885   5.693   1.940
 6682SOL     OW20944   2.388   4.909   6.605
 6682SOL    HW120945   2.378   4.825   6.657
 6682SOL    HW220946   2.466   4.901   6.542
 6683SOL     OW20947   6.014   3.402   5.783
 6683SOL    HW120948   6.021   3.357   5.872
 6683SOL    HW220949   5.991   3.498   5.797
 6684SOL     OW20950   3.737   6.923   2.345
 6684SOL    HW120951   3.698   6.856   2.281
 6684SOL    HW220952   3.726   6.889   2.438
 6685SOL     OW20953   4.711   2.980   6.345
 6685SOL    HW120954   4.661   2.964   6.259
 6685SOL    HW220955   4.763   3.065   6.338
 6686SOL     OW20956   6.197   6.000   3.379
 6686SOL    HW120957   6.134   5.984   3.455
 6686SOL    HW220958   6.169   6.082   3.329
 6687SOL     OW20959   0.758   2.414   1.402
 6687SOL    HW120960   0.834   2.349   1.404
 6687SOL    HW220961   0.692   2.385   1.332
 6688SOL     OW20962   3.986   4.034   0.799
 6688SOL    HW120963   3.965   4.131   0.815
 6688SOL    HW220964   4.014   3.992   0.885
 6689SOL     OW20965   4.343   3.880   5.953
 6689SOL    HW120966   4.269   3.884   6.020
 6689SOL    HW220967   4.384   3.971   5.943
 6690SOL     OW20968   1.519   6.835   6.727
 6690SOL    HW120969   1.448   6.790   6.782
 6690SOL    HW220970   1.481   6.858   6.637
 6691SOL     OW20971   1.575   0.587   2.597
 6691SOL    HW120972   1.657   0.602   2.541
 6691SOL    HW220973   1.599   0.599   2.693
 6692SOL     OW20974   4.092   3.927   1.834
 6692SOL    HW120975   4.155   4.001   1.808
 6692SOL    HW220976   4.007   3.966   1.870
 6693SOL     OW20977   4.496   1.519   4.614
 6693SOL    HW120978   4.552   1.438   4.634
 6693SOL    HW220979   4.413   1.491   4.566
 6694SOL     OW20980   4.239   5.719   1.294
 6694SOL    HW120981   4.299   5.766   1.359
 6694SOL    HW220982   4.150   5.702   1.336
 6695SOL     OW20983   2.577   1.892   6.968
 6695SOL    HW120984   2.571   1.864   0.039
 6695SOL    HW220985   2.608   1.814   6.913
 6696SOL     OW20986   3.730   4.004   4.029
 6696SOL    HW120987   3.822   3.980   3.998
 6696SOL    HW220988   3.733   4.031   4.125
 6697SOL     OW20989   4.860   2.640   2.548
 6697SOL    HW120990   4.844   2.704   2.473
 6697SOL    HW220991   4.791   2.567   2.545
 6698SOL     OW20992   2.922   3.439   1.321
 6698SOL    HW120993   2.885   3.527   1.350
 6698SOL    HW220994   2.950   3.386   1.401
 6699SOL     OW20995   2.111   6.109   5.773
 6699SOL    HW120996   2.150   6.021   5.799
 6699SOL    HW220997   2.118   6.121   5.674
 6700SOL     OW20998   5.782   0.588   0.776
 6700SOL    HW120999   5.874   0.614   0.806
 6700SOL    HW221000   5.783   0.494   0.742
 6701SOL     OW21001   5.679   6.804   2.094
 6701SOL    HW121002   5.658   6.898   2.068
 6701SOL    HW221003   5.778   6.791   2.097
 6702SOL     OW21004   2.160   2.307   1.967
 6702SOL    HW121005   2.217   2.377   1.923
 6702SOL    HW221006   2.162   2.320   2.066
 6703SOL     OW21007   1.148   1.125   6.739
 6703SOL    HW121008   1.141   1.182   6.656
 6703SOL    HW221009   1.080   1.156   6.806
 6704SOL     OW21010   4.033   1.377   4.201
 6704SOL    HW121011   3.989   1.461   4.232
 6704SOL    HW221012   4.125   1.371   4.238
 6705SOL     OW21013   5.853   2.748   0.612
 6705SOL    HW121014   5.772   2.736   0.670
 6705SOL    HW221015   5.935   2.725   0.664
 6706SOL     OW21016   1.138   5.994   0.570
 6706SOL    HW121017   1.191   5.990   0.655
 6706SOL    HW221018   1.161   5.914   0.513
 6707SOL     OW21019   5.186   6.981   2.527
 6707SOL    HW121020   5.248   7.018   2.458
 6707SOL    HW221021   5.189   6.881   2.525
 6708SOL     OW21022   5.933   5.179   1.470
 6708SOL    HW121023   5.906   5.166   1.566
 6708SOL    HW221024   5.903   5.099   1.417
 6709SOL     OW21025   0.752   4.513   2.826
 6709SOL    HW121026   0.828   4.454   2.852
 6709SOL    HW221027   0.787   4.601   2.793
 6710SOL     OW21028   4.469   1.054   1.670
 6710SOL    HW121029   4.555   1.073   1.718
 6710SOL    HW221030   4.407   1.131   1.683
 6711SOL     OW21031   4.545   6.837   5.677
 6711SOL    HW121032   4.629   6.858   5.627
 6711SOL    HW221033   4.495   6.764   5.629
 6712SOL     OW21034   6.185   3.568   1.188
 6712SOL    HW121035   6.205   3.565   1.090
 6712SOL    HW221036   6.182   3.475   1.225
 6713SOL     OW21037   1.118   1.670   3.463
 6713SOL    HW121038   1.047   1.613   3.422
 6713SOL    HW221039   1.169   1.717   3.391
 6714SOL     OW21040   5.521   1.236   0.926
 6714SOL    HW121041   5.555   1.226   1.020
 6714SOL    HW221042   5.513   1.146   0.884
 6715SOL     OW21043   1.814   1.390   1.485
 6715SOL    HW121044   1.749   1.333   1.534
 6715SOL    HW221045   1.907   1.359   1.505
 6716SOL     OW21046   6.552   6.039   2.546
 6716SOL    HW121047   6.641   6.080   2.565
 6716SOL    HW221048   6.490   6.056   2.623
 6717SOL     OW21049   2.655   2.194   6.277
 6717SOL    HW121050   2.714   2.164   6.352
 6717SOL    HW221051   2.686   2.284   6.245
 6718SOL     OW21052   4.119   1.345   1.073
 6718SOL    HW121053   4.139   1.388   1.161
 6718SOL    HW221054   4.083   1.413   1.010
 6719SOL     OW21055   1.915   6.551   0.227
 6719SOL    HW121056   1.991   6.610   0.199
 6719SOL    HW221057   1.951   6.462   0.256
 6720SOL     OW21058   2.789   1.395   5.181
 6720SOL    HW121059   2.870   1.344   5.151
 6720SOL    HW221060   2.715   1.380   5.116
 6721SOL     OW21061   6.880   6.872   0.762
 6721SOL    HW121062   6.939   6.867   0.681
 6721SOL    HW221063   6.935   6.893   0.842
 6722SOL     OW21064   0.407   2.460   0.627
 6722SOL    HW121065   0.364   2.371   0.612
 6722SOL    HW221066   0.388   2.520   0.549
 6723SOL     OW21067   1.997   0.151   6.458
 6723SOL    HW121068   1.931   0.108   6.520
 6723SOL    HW221069   2.071   0.192   6.512
 6724SOL     OW21070   2.282   2.523   6.092
 6724SOL    HW121071   2.304   2.594   6.159
 6724SOL    HW221072   2.213   2.557   6.028
 6725SOL     OW21073   6.133   3.135   2.316
 6725SOL    HW121074   6.134   3.101   2.410
 6725SOL    HW221075   6.138   3.057   2.252
 6726SOL     OW21076   0.401   2.018   4.671
 6726SOL    HW121077   0.375   2.112   4.689
 6726SOL    HW221078   0.334   1.956   4.712
 6727SOL     OW21079   0.905   4.162   5.627
 6727SOL    HW121080   0.834   4.215   5.673
 6727SOL    HW221081   0.879   4.065   5.627
 6728SOL     OW21082   3.368   1.313   3.428
 6728SOL    HW121083   3.359   1.386   3.495
 6728SOL    HW221084   3.304   1.330   3.352
 6729SOL     OW21085   6.757   1.992   0.008
 6729SOL    HW121086   6.792   2.084   0.025
 6729SOL    HW221087   6.715   1.956   0.091
 6730SOL     OW21088   1.974   0.632   1.347
 6730SOL    HW121089   1.943   0.724   1.372
 6730SOL    HW221090   2.013   0.587   1.427
 6731SOL     OW21091   1.491   6.769   1.141
 6731SOL    HW121092   1.586   6.765   1.110
 6731SOL    HW221093   1.430   6.751   1.064
 6732SOL     OW21094   5.183   4.231   4.365
 6732SOL    HW121095   5.266   4.207   4.415
 6732SOL    HW221096   5.205   4.299   4.294
 6733SOL     OW21097   4.048   5.334   6.469
 6733SOL    HW121098   4.027   5.276   6.548
 6733SOL    HW221099   4.122   5.292   6.416
 6734SOL     OW21100   5.412   2.317   5.946
 6734SOL    HW121101   5.350   2.267   6.006
 6734SOL    HW221102   5.427   2.409   5.982
 6735SOL     OW21103   5.706   3.848   3.974
 6735SOL    HW121104   5.665   3.828   3.886
 6735SOL    HW221105   5.684   3.942   4.001
 6736SOL     OW21106   3.192   3.936   6.525
 6736SOL    HW121107   3.127   4.011   6.535
 6736SOL    HW221108   3.142   3.850   6.512
 6737SOL     OW21109   1.163   2.986   1.068
 6737SOL    HW121110   1.067   3.001   1.043
 6737SOL    HW221111   1.173   2.993   1.167
 6738SOL     OW21112   1.668   5.925   3.937
 6738SOL    HW121113   1.765   5.908   3.918
 6738SOL    HW221114   1.644   6.018   3.908
 6739SOL     OW21115   6.483   5.843   3.857
 6739SOL    HW121116   6.557   5.854   3.923
 6739SOL    HW221117   6.492   5.912   3.785
 6740SOL     OW21118   6.433   0.083   4.853
 6740SOL    HW121119   6.442   0.163   4.913
 6740SOL    HW221120   6.518   0.029   4.857
 6741SOL     OW21121   4.082   1.908   6.340
 6741SOL    HW121122   4.062   1.810   6.352
 6741SOL    HW221123   4.002   1.962   6.363
 6742SOL     OW21124   6.004   5.537   4.003
 6742SOL    HW121125   6.069   5.460   4.000
 6742SOL    HW221126   6.000   5.573   4.096
 6743SOL     OW21127   3.805   4.207   6.577
 6743SOL    HW121128   3.725   4.207   6.516
 6743SOL    HW221129   3.857   4.123   6.562
 6744SOL     OW21130   0.041   6.573   6.008
 6744SOL    HW121131   6.972   6.552   5.983
 6744SOL    HW221132   0.097   6.574   5.925
 6745SOL     OW21133   0.006   6.125   3.430
 6745SOL    HW121134   6.947   6.102   3.384
 6745SOL    HW221135   0.033   6.050   3.490
 6746SOL     OW21136   1.773   1.040   2.876
 6746SOL    HW121137   1.685   1.033   2.923
 6746SOL    HW221138   1.846   1.007   2.936
 6747SOL     OW21139   6.121   0.119   6.771
 6747SOL    HW121140   6.158   0.184   6.837
 6747SOL    HW221141   6.032   0.086   6.803
 6748SOL     OW21142   2.739   2.004   3.559
 6748SOL    HW121143   2.762   1.960   3.472
 6748SOL    HW221144   2.823   2.027   3.608
 6749SOL     OW21145   3.558   4.412   1.006
 6749SOL    HW121146   3.561   4.352   0.926
 6749SOL    HW221147   3.512   4.365   1.081
 6750SOL     OW21148   3.199   1.808   3.901
 6750SOL    HW121149   3.161   1.806   3.808
 6750SOL    HW221150   3.220   1.902   3.927
 6751SOL     OW21151   4.702   0.589   3.102
 6751SOL    HW121152   4.672   0.630   3.189
 6751SOL    HW221153   4.647   0.508   3.083
 6752SOL     OW21154   1.772   0.305   3.687
 6752SOL    HW121155   1.715   0.335   3.611
 6752SOL    HW221156   1.861   0.275   3.652
 6753SOL     OW21157   3.349   2.127   5.773
 6753SOL    HW121158   3.278   2.179   5.726
 6753SOL    HW221159   3.431   2.125   5.717
 6754SOL     OW21160   6.323   1.189   1.133
 6754SOL    HW121161   6.348   1.212   1.226
 6754SOL    HW221162   6.382   1.237   1.069
 6755SOL     OW21163   3.649   3.985   1.084
 6755SOL    HW121164   3.665   4.064   1.144
 6755SOL    HW221165   3.655   4.015   0.989
 6756SOL     OW21166   3.696   0.623   5.377
 6756SOL    HW121167   3.715   0.525   5.370
 6756SOL    HW221168   3.783   0.672   5.384
 6757SOL     OW21169   3.906   1.811   1.179
 6757SOL    HW121170   3.911   1.910   1.171
 6757SOL    HW221171   3.898   1.785   1.275
 6758SOL     OW21172   5.921   3.167   1.543
 6758SOL    HW121173   6.009   3.149   1.498
 6758SOL    HW221174   5.851   3.108   1.503
 6759SOL     OW21175   6.940   3.364   2.803
 6759SOL    HW121176   6.930   3.336   2.708
 6759SOL    HW221177   6.999   3.445   2.808
 6760SOL     OW21178   6.224   4.056   2.337
 6760SOL    HW121179   6.143   4.011   2.300
 6760SOL    HW221180   6.306   4.009   2.305
 6761SOL     OW21181   5.588   2.928   4.693
 6761SOL    HW121182   5.512   2.932   4.758
 6761SOL    HW221183   5.673   2.906   4.741
 6762SOL     OW21184   0.124   4.736   4.407
 6762SOL    HW121185   0.112   4.641   4.377
 6762SOL    HW221186   0.046   4.763   4.464
 6763SOL     OW21187   4.925   5.213   4.646
 6763SOL    HW121188   4.974   5.258   4.721
 6763SOL    HW221189   4.912   5.117   4.668
 6764SOL     OW21190   1.691   5.390   2.186
 6764SOL    HW121191   1.732   5.470   2.231
 6764SOL    HW221192   1.613   5.358   2.239
 6765SOL     OW21193   6.241   4.727   3.015
 6765SOL    HW121194   6.144   4.724   3.038
 6765SOL    HW221195   6.281   4.811   3.053
 6766SOL     OW21196   4.935   6.546   5.714
 6766SOL    HW121197   4.875   6.507   5.785
 6766SOL    HW221198   4.880   6.577   5.637
 6767SOL     OW21199   3.319   0.227   1.418
 6767SOL    HW121200   3.231   0.267   1.444
 6767SOL    HW221201   3.314   0.193   1.324
 6768SOL     OW21202   2.061   0.247   5.573
 6768SOL    HW121203   2.002   0.321   5.605
 6768SOL    HW221204   2.154   0.283   5.558
 6769SOL     OW21205   3.288   1.641   0.856
 6769SOL    HW121206   3.310   1.626   0.759
 6769SOL    HW221207   3.203   1.694   0.862
 6770SOL     OW21208   0.192   1.014   2.158
 6770SOL    HW121209   0.117   0.974   2.211
 6770SOL    HW221210   0.154   1.068   2.083
 6771SOL     OW21211   4.759   2.523   3.695
 6771SOL    HW121212   4.766   2.602   3.756
 6771SOL    HW221213   4.802   2.443   3.737
 6772SOL     OW21214   3.219   0.900   3.286
 6772SOL    HW121215   3.128   0.915   3.249
 6772SOL    HW221216   3.287   0.920   3.215
 6773SOL     OW21217   6.944   5.211   1.610
 6773SOL    HW121218   6.882   5.242   1.681
 6773SOL    HW221219   6.947   5.111   1.609
 6774SOL     OW21220   0.289   2.279   5.929
 6774SOL    HW121221   0.373   2.249   5.884
 6774SOL    HW221222   0.243   2.348   5.873
 6775SOL     OW21223   2.587   3.146   1.718
 6775SOL    HW121224   2.676   3.101   1.719
 6775SOL    HW221225   2.600   3.246   1.718
 6776SOL     OW21226   4.210   4.686   6.784
 6776SOL    HW121227   4.294   4.672   6.837
 6776SOL    HW221228   4.211   4.626   6.704
 6777SOL     OW21229   4.345   4.137   6.919
 6777SOL    HW121230   4.251   4.132   6.884
 6777SOL    HW221231   4.402   4.187   6.854
 6778SOL     OW21232   5.911   4.572   2.463
 6778SOL    HW121233   5.879   4.602   2.553
 6778SOL    HW221234   6.011   4.569   2.462
 6779SOL     OW21235   6.607   4.876   6.416
 6779SOL    HW121236   6.515   4.837   6.417
 6779SOL    HW221237   6.638   4.890   6.510
 6780SOL     OW21238   1.205   2.421   2.179
 6780SOL    HW121239   1.192   2.520   2.181
 6780SOL    HW221240   1.292   2.397   2.222
 6781SOL     OW21241   6.167   0.199   4.679
 6781SOL    HW121242   6.112   0.174   4.758
 6781SOL    HW221243   6.107   0.206   4.598
 6782SOL     OW21244   6.976   6.935   3.600
 6782SOL    HW121245   0.024   7.001   3.617
 6782SOL    HW221246   6.944   6.943   3.506
 6783SOL     OW21247   6.403   0.677   6.293
 6783SOL    HW121248   6.390   0.635   6.203
 6783SOL    HW221249   6.465   0.756   6.284
 6784SOL     OW21250   3.024   3.364   0.520
 6784SOL    HW121251   3.028   3.450   0.571
 6784SOL    HW221252   3.078   3.295   0.569
 6785SOL     OW21253   5.347   4.689   2.874
 6785SOL    HW121254   5.446   4.677   2.880
 6785SOL    HW221255   5.315   4.741   2.954
 6786SOL     OW21256   1.376   2.101   0.238
 6786SOL    HW121257   1.299   2.138   0.186
 6786SOL    HW221258   1.359   2.005   0.258
 6787SOL     OW21259   1.425   2.923   1.001
 6787SOL    HW121260   1.338   2.948   1.044
 6787SOL    HW221261   1.443   2.985   0.924
 6788SOL     OW21262   2.458   3.264   1.479
 6788SOL    HW121263   2.471   3.165   1.472
 6788SOL    HW221264   2.522   3.302   1.547
 6789SOL     OW21265   6.518   6.186   2.963
 6789SOL    HW121266   6.583   6.131   3.015
 6789SOL    HW221267   6.464   6.243   3.025
 6790SOL     OW21268   1.261   3.760   0.972
 6790SOL    HW121269   1.184   3.797   0.920
 6790SOL    HW221270   1.310   3.836   1.016
 6791SOL     OW21271   4.400   2.801   1.542
 6791SOL    HW121272   4.432   2.711   1.570
 6791SOL    HW221273   4.404   2.864   1.621
 6792SOL     OW21274   6.683   6.022   5.972
 6792SOL    HW121275   6.756   5.986   6.031
 6792SOL    HW221276   6.615   6.070   6.028
 6793SOL     OW21277   0.963   1.740   0.204
 6793SOL    HW121278   0.875   1.780   0.181
 6793SOL    HW221279   1.005   1.701   0.122
 6794SOL     OW21280   5.173   1.700   6.170
 6794SOL    HW121281   5.245   1.758   6.133
 6794SOL    HW221282   5.161   1.718   6.267
 6795SOL     OW21283   2.642   6.353   0.792
 6795SOL    HW121284   2.657   6.452   0.781
 6795SOL    HW221285   2.648   6.309   0.702
 6796SOL     OW21286   6.541   0.803   2.439
 6796SOL    HW121287   6.458   0.830   2.487
 6796SOL    HW221288   6.560   0.706   2.458
 6797SOL     OW21289   5.470   3.551   1.635
 6797SOL    HW121290   5.489   3.453   1.632
 6797SOL    HW221291   5.544   3.598   1.683
 6798SOL     OW21292   5.212   6.484   2.548
 6798SOL    HW121293   5.310   6.472   2.534
 6798SOL    HW221294   5.169   6.395   2.566
 6799SOL     OW21295   6.461   6.262   0.327
 6799SOL    HW121296   6.450   6.346   0.379
 6799SOL    HW221297   6.530   6.275   0.256
 6800SOL     OW21298   2.343   3.949   1.107
 6800SOL    HW121299   2.359   3.922   1.012
 6800SOL    HW221300   2.428   3.941   1.159
 6801SOL     OW21301   0.904   0.588   3.155
 6801SOL    HW121302   0.956   0.667   3.187
 6801SOL    HW221303   0.865   0.607   3.065
 6802SOL     OW21304   3.231   5.811   0.509
 6802SOL    HW121305   3.301   5.872   0.474
 6802SOL    HW221306   3.185   5.854   0.587
 6803SOL     OW21307   5.132   2.888   6.395
 6803SOL    HW121308   5.038   2.883   6.361
 6803SOL    HW221309   5.195   2.885   6.317
 6804SOL     OW21310   2.990   5.386   3.321
 6804SOL    HW121311   3.018   5.463   3.378
 6804SOL    HW221312   2.962   5.419   3.230
 6805SOL     OW21313   5.995   5.662   5.779
 6805SOL    HW121314   5.994   5.664   5.679
 6805SOL    HW221315   5.921   5.721   5.814
 6806SOL     OW21316   6.174   0.772   3.450
 6806SOL    HW121317   6.185   0.801   3.545
 6806SOL    HW221318   6.110   0.695   3.446
 6807SOL     OW21319   3.236   2.529   0.581
 6807SOL    HW121320   3.270   2.482   0.499
 6807SOL    HW221321   3.136   2.527   0.581
 6808SOL     OW21322   0.139   1.832   5.419
 6808SOL    HW121323   0.122   1.846   5.516
 6808SOL    HW221324   0.094   1.747   5.389
 6809SOL     OW21325   1.437   2.991   1.720
 6809SOL    HW121326   1.362   3.031   1.773
 6809SOL    HW221327   1.464   2.904   1.762
 6810SOL     OW21328   2.127   0.443   1.735
 6810SOL    HW121329   2.085   0.446   1.826
 6810SOL    HW221330   2.212   0.389   1.740
 6811SOL     OW21331   4.917   4.420   0.614
 6811SOL    HW121332   4.890   4.453   0.524
 6811SOL    HW221333   4.835   4.403   0.669
 6812SOL     OW21334   3.349   3.299   3.427
 6812SOL    HW121335   3.397   3.240   3.492
 6812SOL    HW221336   3.411   3.372   3.396
 6813SOL     OW21337   4.721   2.125   2.375
 6813SOL    HW121338   4.712   2.038   2.422
 6813SOL    HW221339   4.654   2.131   2.301
 6814SOL     OW21340   3.275   1.871   0.123
 6814SOL    HW121341   3.331   1.792   0.099
 6814SOL    HW221342   3.287   1.892   0.220
 6815SOL     OW21343   2.648   0.095   1.281
 6815SOL    HW121344   2.710   0.018   1.292
 6815SOL    HW221345   2.678   0.171   1.338
 6816SOL     OW21346   0.303   6.824   6.685
 6816SOL    HW121347   0.280   6.764   6.762
 6816SOL    HW221348   0.246   6.905   6.689
 6817SOL     OW21349   1.077   1.957   4.662
 6817SOL    HW121350   1.089   2.023   4.736
 6817SOL    HW221351   1.065   2.006   4.575
 6818SOL     OW21352   3.009   5.123   1.836
 6818SOL    HW121353   2.969   5.191   1.898
 6818SOL    HW221354   2.972   5.033   1.858
 6819SOL     OW21355   4.993   0.894   4.225
 6819SOL    HW121356   4.972   0.869   4.320
 6819SOL    HW221357   4.988   0.813   4.167
 6820SOL     OW21358   1.041   5.599   2.784
 6820SOL    HW121359   1.079   5.655   2.858
 6820SOL    HW221360   1.088   5.621   2.699
 6821SOL     OW21361   2.863   1.059   5.222
 6821SOL    HW121362   2.829   1.098   5.307
 6821SOL    HW221363   2.910   1.129   5.169
 6822SOL     OW21364   5.900   2.309   6.028
 6822SOL    HW121365   5.823   2.357   6.070
 6822SOL    HW221366   5.968   2.287   6.097
 6823SOL     OW21367   3.617   3.188   4.134
 6823SOL    HW121368   3.646   3.092   4.130
 6823SOL    HW221369   3.698   3.247   4.132
 6824SOL     OW21370   0.977   2.813   6.169
 6824SOL    HW121371   0.978   2.852   6.261
 6824SOL    HW221372   1.052   2.748   6.160
 6825SOL     OW21373   5.111   6.408   2.187
 6825SOL    HW121374   5.050   6.483   2.210
 6825SOL    HW221375   5.129   6.354   2.269
 6826SOL     OW21376   1.990   4.182   2.331
 6826SOL    HW121377   2.034   4.169   2.420
 6826SOL    HW221378   1.899   4.141   2.332
 6827SOL     OW21379   4.436   5.435   6.912
 6827SOL    HW121380   4.423   5.518   6.858
 6827SOL    HW221381   4.533   5.409   6.911
 6828SOL     OW21382   2.673   1.784   1.695
 6828SOL    HW121383   2.635   1.700   1.734
 6828SOL    HW221384   2.760   1.764   1.650
 6829SOL     OW21385   4.703   6.835   4.361
 6829SOL    HW121386   4.609   6.805   4.350
 6829SOL    HW221387   4.745   6.849   4.271
 6830SOL     OW21388   5.201   1.603   4.085
 6830SOL    HW121389   5.276   1.659   4.119
 6830SOL    HW221390   5.226   1.563   3.997
 6831SOL     OW21391   1.130   0.355   6.771
 6831SOL    HW121392   1.082   0.435   6.806
 6831SOL    HW221393   1.227   0.361   6.795
 6832SOL     OW21394   2.606   3.752   0.938
 6832SOL    HW121395   2.665   3.676   0.963
 6832SOL    HW221396   2.513   3.719   0.923
 6833SOL     OW21397   4.672   4.511   6.292
 6833SOL    HW121398   4.598   4.443   6.300
 6833SOL    HW221399   4.634   4.603   6.304
 6834SOL     OW21400   5.501   6.826   1.170
 6834SOL    HW121401   5.523   6.909   1.120
 6834SOL    HW221402   5.431   6.845   1.240
 6835SOL     OW21403   3.711   0.420   4.951
 6835SOL    HW121404   3.691   0.495   5.013
 6835SOL    HW221405   3.733   0.456   4.861
 6836SOL     OW21406   2.724   5.514   0.397
 6836SOL    HW121407   2.695   5.589   0.338
 6836SOL    HW221408   2.798   5.464   0.354
 6837SOL     OW21409   1.501   1.817   1.922
 6837SOL    HW121410   1.489   1.729   1.967
 6837SOL    HW221411   1.590   1.855   1.945
 6838SOL     OW21412   2.736   6.016   0.691
 6838SOL    HW121413   2.798   5.959   0.637
 6838SOL    HW221414   2.644   6.009   0.654
 6839SOL     OW21415   5.080   0.802   6.879
 6839SOL    HW121416   5.031   0.722   6.913
 6839SOL    HW221417   5.080   0.800   6.779
 6840SOL     OW21418   2.906   1.942   4.727
 6840SOL    HW121419   2.904   2.018   4.662
 6840SOL    HW221420   2.918   1.978   4.820
 6841SOL     OW21421   5.399   4.204   6.232
 6841SOL    HW121422   5.304   4.224   6.206
 6841SOL    HW221423   5.446   4.290   6.252
 6842SOL     OW21424   2.951   4.215   1.483
 6842SOL    HW121425   2.922   4.207   1.388
 6842SOL    HW221426   2.870   4.214   1.542
 6843SOL     OW21427   5.269   6.214   0.641
 6843SOL    HW121428   5.310   6.123   0.638
 6843SOL    HW221429   5.275   6.251   0.734
 6844SOL     OW21430   5.594   0.889   4.459
 6844SOL    HW121431   5.556   0.912   4.369
 6844SOL    HW221432   5.519   0.873   4.523
 6845SOL     OW21433   6.249   3.337   3.246
 6845SOL    HW121434   6.242   3.383   3.334
 6845SOL    HW221435   6.263   3.404   3.174
 6846SOL     OW21436   3.703   4.077   0.320
 6846SOL    HW121437   3.749   4.156   0.362
 6846SOL    HW221438   3.772   4.012   0.288
 6847SOL     OW21439   0.275   3.733   5.564
 6847SOL    HW121440   0.179   3.757   5.557
 6847SOL    HW221441   0.293   3.649   5.511
 6848SOL     OW21442   5.166   4.527   3.338
 6848SOL    HW121443   5.104   4.599   3.367
 6848SOL    HW221444   5.255   4.566   3.314
 6849SOL     OW21445   4.239   3.914   5.571
 6849SOL    HW121446   4.303   3.839   5.553
 6849SOL    HW221447   4.214   3.915   5.668
 6850SOL     OW21448   5.170   2.740   2.900
 6850SOL    HW121449   5.166   2.773   2.805
 6850SOL    HW221450   5.167   2.818   2.962
 6851SOL     OW21451   0.761   2.341   2.793
 6851SOL    HW121452   0.856   2.322   2.818
 6851SOL    HW221453   0.730   2.425   2.837
 6852SOL     OW21454   2.924   4.384   1.155
 6852SOL    HW121455   2.961   4.475   1.137
 6852SOL    HW221456   2.922   4.367   1.254
 6853SOL     OW21457   5.534   4.241   6.566
 6853SOL    HW121458   5.501   4.148   6.576
 6853SOL    HW221459   5.505   4.296   6.644
 6854SOL     OW21460   5.461   0.125   5.955
 6854SOL    HW121461   5.520   0.050   5.924
 6854SOL    HW221462   5.459   0.127   6.055
 6855SOL     OW21463   4.074   5.264   3.688
 6855SOL    HW121464   3.997   5.217   3.644
 6855SOL    HW221465   4.067   5.362   3.670
 6856SOL     OW21466   0.547   2.198   4.882
 6856SOL    HW121467   0.626   2.254   4.906
 6856SOL    HW221468   0.532   2.129   4.953
 6857SOL     OW21469   1.012   3.155   6.520
 6857SOL    HW121470   0.932   3.098   6.539
 6857SOL    HW221471   1.072   3.158   6.600
 6858SOL     OW21472   3.819   4.031   1.881
 6858SOL    HW121473   3.818   4.113   1.824
 6858SOL    HW221474   3.733   4.025   1.932
 6859SOL     OW21475   0.650   0.814   1.373
 6859SOL    HW121476   0.638   0.821   1.274
 6859SOL    HW221477   0.747   0.810   1.395
 6860SOL     OW21478   6.871   4.693   1.411
 6860SOL    HW121479   6.831   4.639   1.337
 6860SOL    HW221480   6.966   4.667   1.424
 6861SOL     OW21481   5.447   3.875   6.312
 6861SOL    HW121482   5.532   3.829   6.338
 6861SOL    HW221483   5.456   3.974   6.327
 6862SOL     OW21484   6.781   5.263   5.676
 6862SOL    HW121485   6.767   5.299   5.768
 6862SOL    HW221486   6.871   5.292   5.643
 6863SOL     OW21487   6.547   6.563   5.885
 6863SOL    HW121488   6.459   6.525   5.913
 6863SOL    HW221489   6.532   6.635   5.817
 6864SOL     OW21490   1.851   4.836   5.183
 6864SOL    HW121491   1.817   4.898   5.112
 6864SOL    HW221492   1.832   4.875   5.273
 6865SOL     OW21493   1.033   0.170   5.228
 6865SOL    HW121494   1.033   0.100   5.300
 6865SOL    HW221495   0.952   0.157   5.170
 6866SOL     OW21496   5.627   4.713   2.583
 6866SOL    HW121497   5.530   4.696   2.562
 6866SOL    HW221498   5.645   4.811   2.578
 6867SOL     OW21499   2.048   3.465   1.662
 6867SOL    HW121500   2.028   3.470   1.759
 6867SOL    HW221501   2.119   3.395   1.646
 6868SOL     OW21502   2.178   6.657   5.039
 6868SOL    HW121503   2.144   6.721   5.108
 6868SOL    HW221504   2.276   6.641   5.054
 6869SOL     OW21505   4.840   0.863   6.037
 6869SOL    HW121506   4.844   0.942   6.099
 6869SOL    HW221507   4.780   0.793   6.077
 6870SOL     OW21508   0.236   4.320   1.192
 6870SOL    HW121509   0.315   4.378   1.171
 6870SOL    HW221510   0.197   4.346   1.280
 6871SOL     OW21511   6.446   4.139   2.536
 6871SOL    HW121512   6.369   4.087   2.574
 6871SOL    HW221513   6.528   4.083   2.538
 6872SOL     OW21514   0.497   3.025   1.839
 6872SOL    HW121515   0.404   3.041   1.807
 6872SOL    HW221516   0.538   2.950   1.788
 6873SOL     OW21517   1.107   3.896   4.325
 6873SOL    HW121518   1.051   3.919   4.245
 6873SOL    HW221519   1.074   3.810   4.365
 6874SOL     OW21520   6.469   5.533   3.627
 6874SOL    HW121521   6.394   5.582   3.672
 6874SOL    HW221522   6.459   5.542   3.527
 6875SOL     OW21523   2.411   1.604   2.339
 6875SOL    HW121524   2.424   1.583   2.242
 6875SOL    HW221525   2.494   1.649   2.374
 6876SOL     OW21526   3.358   0.113   3.738
 6876SOL    HW121527   3.385   0.204   3.709
 6876SOL    HW221528   3.322   0.117   3.831
 6877SOL     OW21529   3.464   4.010   1.623
 6877SOL    HW121530   3.504   4.100   1.642
 6877SOL    HW221531   3.432   3.969   1.709
 6878SOL     OW21532   2.353   1.704   3.565
 6878SOL    HW121533   2.391   1.644   3.494
 6878SOL    HW221534   2.428   1.746   3.616
 6879SOL     OW21535   2.370   2.359   0.353
 6879SOL    HW121536   2.294   2.408   0.311
 6879SOL    HW221537   2.411   2.297   0.287
 6880SOL     OW21538   1.027   6.175   5.870
 6880SOL    HW121539   1.065   6.181   5.963
 6880SOL    HW221540   1.070   6.100   5.820
 6881SOL     OW21541   1.669   2.886   1.357
 6881SOL    HW121542   1.609   2.829   1.412
 6881SOL    HW221543   1.758   2.896   1.403
 6882SOL     OW21544   2.833   0.962   0.582
 6882SOL    HW121545   2.839   1.058   0.554
 6882SOL    HW221546   2.858   0.954   0.679
 6883SOL     OW21547   5.129   1.721   6.442
 6883SOL    HW121548   5.191   1.707   6.520
 6883SOL    HW221549   5.035   1.704   6.470
 6884SOL     OW21550   1.188   4.279   3.425
 6884SOL    HW121551   1.286   4.295   3.422
 6884SOL    HW221552   1.139   4.365   3.413
 6885SOL     OW21553   4.778   4.962   3.938
 6885SOL    HW121554   4.872   4.932   3.925
 6885SOL    HW221555   4.716   4.885   3.927
 6886SOL     OW21556   0.274   1.496   4.890
 6886SOL    HW121557   0.274   1.548   4.805
 6886SOL    HW221558   0.309   1.404   4.873
 6887SOL     OW21559   4.296   5.869   0.079
 6887SOL    HW121560   4.348   5.836   0.157
 6887SOL    HW221561   4.327   5.961   0.054
 6888SOL     OW21562   5.466   4.747   6.448
 6888SOL    HW121563   5.429   4.812   6.382
 6888SOL    HW221564   5.566   4.751   6.448
 6889SOL     OW21565   1.681   2.785   5.887
 6889SOL    HW121566   1.740   2.742   5.954
 6889SOL    HW221567   1.628   2.716   5.839
 6890SOL     OW21568   3.701   5.664   2.740
 6890SOL    HW121569   3.753   5.749   2.729
 6890SOL    HW221570   3.709   5.610   2.656
 6891SOL     OW21571   2.011   3.149   1.479
 6891SOL    HW121572   1.933   3.170   1.420
 6891SOL    HW221573   1.987   3.075   1.542
 6892SOL     OW21574   3.059   1.341   3.533
 6892SOL    HW121575   3.099   1.433   3.529
 6892SOL    HW221576   3.110   1.287   3.600
 6893SOL     OW21577   5.471   3.583   0.444
 6893SOL    HW121578   5.497   3.488   0.423
 6893SOL    HW221579   5.523   3.645   0.385
 6894SOL     OW21580   6.276   5.089   1.240
 6894SOL    HW121581   6.318   4.999   1.230
 6894SOL    HW221582   6.315   5.153   1.174
 6895SOL     OW21583   1.974   5.348   1.153
 6895SOL    HW121584   2.021   5.261   1.167
 6895SOL    HW221585   1.880   5.340   1.186
 6896SOL     OW21586   2.503   1.927   3.664
 6896SOL    HW121587   2.566   1.965   3.597
 6896SOL    HW221588   2.555   1.889   3.741
 6897SOL     OW21589   5.076   3.672   5.075
 6897SOL    HW121590   4.984   3.635   5.072
 6897SOL    HW221591   5.072   3.772   5.080
 6898SOL     OW21592   3.501   1.515   1.682
 6898SOL    HW121593   3.455   1.427   1.665
 6898SOL    HW221594   3.466   1.583   1.618
 6899SOL     OW21595   4.419   6.316   2.587
 6899SOL    HW121596   4.407   6.380   2.511
 6899SOL    HW221597   4.517   6.303   2.604
 6900SOL     OW21598   0.206   4.264   5.399
 6900SOL    HW121599   0.173   4.284   5.307
 6900SOL    HW221600   0.303   4.287   5.406
 6901SOL     OW21601   5.414   5.945   6.270
 6901SOL    HW121602   5.426   6.043   6.283
 6901SOL    HW221603   5.407   5.925   6.172
 6902SOL     OW21604   6.700   5.583   5.431
 6902SOL    HW121605   6.775   5.556   5.492
 6902SOL    HW221606   6.708   5.533   5.344
 6903SOL     OW21607   3.156   4.833   4.932
 6903SOL    HW121608   3.197   4.760   4.987
 6903SOL    HW221609   3.069   4.861   4.973
 6904SOL     OW21610   6.238   6.884   6.164
 6904SOL    HW121611   6.281   6.905   6.076
 6904SOL    HW221612   6.139   6.894   6.156
 6905SOL     OW21613   5.284   5.173   6.704
 6905SOL    HW121614   5.333   5.088   6.683
 6905SOL    HW221615   5.246   5.168   6.796
 6906SOL     OW21616   3.231   0.989   3.536
 6906SOL    HW121617   3.242   0.976   3.438
 6906SOL    HW221618   3.269   0.911   3.585
 6907SOL     OW21619   6.496   2.585   1.814
 6907SOL    HW121620   6.457   2.618   1.900
 6907SOL    HW221621   6.585   2.544   1.831
 6908SOL     OW21622   2.114   4.540   6.786
 6908SOL    HW121623   2.086   4.464   6.728
 6908SOL    HW221624   2.183   4.595   6.739
 6909SOL     OW21625   5.358   4.634   1.366
 6909SOL    HW121626   5.383   4.564   1.299
 6909SOL    HW221627   5.301   4.592   1.437
 6910SOL     OW21628   1.412   2.913   2.675
 6910SOL    HW121629   1.362   2.979   2.619
 6910SOL    HW221630   1.354   2.883   2.751
 6911SOL     OW21631   4.399   6.899   4.357
 6911SOL    HW121632   4.317   6.895   4.413
 6911SOL    HW221633   4.386   6.845   4.274
 6912SOL     OW21634   2.739   3.193   6.715
 6912SOL    HW121635   2.672   3.262   6.745
 6912SOL    HW221636   2.695   3.103   6.712
 6913SOL     OW21637   5.078   6.342   5.222
 6913SOL    HW121638   5.021   6.391   5.288
 6913SOL    HW221639   5.145   6.404   5.183
 6914SOL     OW21640   5.635   4.154   3.771
 6914SOL    HW121641   5.652   4.112   3.682
 6914SOL    HW221642   5.552   4.115   3.811
 6915SOL     OW21643   0.639   2.315   2.548
 6915SOL    HW121644   0.713   2.293   2.484
 6915SOL    HW221645   0.674   2.314   2.641
 6916SOL     OW21646   5.515   0.602   6.386
 6916SOL    HW121647   5.568   0.520   6.408
 6916SOL    HW221648   5.427   0.575   6.345
 6917SOL     OW21649   3.795   6.011   2.071
 6917SOL    HW121650   3.842   6.054   1.994
 6917SOL    HW221651   3.828   5.917   2.082
 6918SOL     OW21652   6.784   2.675   3.931
 6918SOL    HW121653   6.743   2.584   3.923
 6918SOL    HW221654   6.878   2.672   3.897
 6919SOL     OW21655   6.628   5.998   3.593
 6919SOL    HW121656   6.635   5.926   3.523
 6919SOL    HW221657   6.532   6.026   3.602
 6920SOL     OW21658   4.571   0.277   5.185
 6920SOL    HW121659   4.640   0.337   5.225
 6920SOL    HW221660   4.486   0.329   5.170
 6921SOL     OW21661   4.478   6.654   3.756
 6921SOL    HW121662   4.448   6.731   3.699
 6921SOL    HW221663   4.399   6.614   3.802
 6922SOL     OW21664   1.478   6.417   5.144
 6922SOL    HW121665   1.432   6.376   5.222
 6922SOL    HW221666   1.530   6.498   5.174
 6923SOL     OW21667   5.756   6.346   2.858
 6923SOL    HW121668   5.751   6.246   2.868
 6923SOL    HW221669   5.675   6.378   2.810
 6924SOL     OW21670   2.916   4.787   0.131
 6924SOL    HW121671   2.901   4.708   0.072
 6924SOL    HW221672   2.945   4.756   0.222
 6925SOL     OW21673   4.471   5.689   4.951
 6925SOL    HW121674   4.467   5.595   4.917
 6925SOL    HW221675   4.412   5.747   4.895
 6926SOL     OW21676   1.911   1.710   0.689
 6926SOL    HW121677   1.934   1.653   0.768
 6926SOL    HW221678   1.881   1.800   0.720
 6927SOL     OW21679   3.743   1.642   6.469
 6927SOL    HW121680   3.683   1.578   6.518
 6927SOL    HW221681   3.785   1.705   6.534
 6928SOL     OW21682   5.067   5.988   0.872
 6928SOL    HW121683   5.050   5.897   0.835
 6928SOL    HW221684   5.023   6.056   0.813
 6929SOL     OW21685   5.410   5.921   1.987
 6929SOL    HW121686   5.365   5.834   1.965
 6929SOL    HW221687   5.343   5.984   2.027
 6930SOL     OW21688   0.940   0.787   1.365
 6930SOL    HW121689   0.917   0.734   1.283
 6930SOL    HW221690   1.039   0.801   1.369
 6931SOL     OW21691   1.712   2.010   1.570
 6931SOL    HW121692   1.650   2.047   1.501
 6931SOL    HW221693   1.683   2.040   1.661
 6932SOL     OW21694   4.304   6.213   0.998
 6932SOL    HW121695   4.276   6.264   1.079
 6932SOL    HW221696   4.337   6.123   1.025
 6933SOL     OW21697   3.324   0.157   5.467
 6933SOL    HW121698   3.358   0.089   5.403
 6933SOL    HW221699   3.312   0.115   5.557
 6934SOL     OW21700   4.609   3.422   5.846
 6934SOL    HW121701   4.581   3.367   5.925
 6934SOL    HW221702   4.533   3.481   5.819
 6935SOL     OW21703   4.087   5.737   2.918
 6935SOL    HW121704   4.099   5.814   2.855
 6935SOL    HW221705   4.176   5.714   2.958
 6936SOL     OW21706   6.865   2.364   4.362
 6936SOL    HW121707   6.888   2.448   4.314
 6936SOL    HW221708   6.796   2.383   4.431
 6937SOL     OW21709   5.708   6.215   0.672
 6937SOL    HW121710   5.790   6.224   0.616
 6937SOL    HW221711   5.637   6.167   0.621
 6938SOL     OW21712   0.536   2.340   4.454
 6938SOL    HW121713   0.473   2.408   4.415
 6938SOL    HW221714   0.491   2.291   4.528
 6939SOL     OW21715   0.003   5.188   2.437
 6939SOL    HW121716   0.064   5.116   2.472
 6939SOL    HW221717   6.943   5.188   2.487
 6940SOL     OW21718   4.092   6.881   0.471
 6940SOL    HW121719   4.186   6.915   0.470
 6940SOL    HW221720   4.036   6.936   0.408
 6941SOL     OW21721   2.984   3.772   2.097
 6941SOL    HW121722   2.967   3.715   2.016
 6941SOL    HW221723   3.025   3.716   2.168
 6942SOL     OW21724   5.644   0.052   2.281
 6942SOL    HW121725   5.742   0.052   2.299
 6942SOL    HW221726   5.612   6.983   2.270
 6943SOL     OW21727   3.576   5.238   0.649
 6943SOL    HW121728   3.658   5.295   0.659
 6943SOL    HW221729   3.547   5.204   0.738
 6944SOL     OW21730   1.389   5.010   6.307
 6944SOL    HW121731   1.437   5.094   6.333
 6944SOL    HW221732   1.430   4.932   6.354
 6945SOL     OW21733   6.979   2.590   1.207
 6945SOL    HW121734   7.019   2.671   1.166
 6945SOL    HW221735   0.022   2.544   1.264
 6946SOL     OW21736   3.890   6.242   1.519
 6946SOL    HW121737   3.977   6.223   1.564
 6946SOL    HW221738   3.871   6.340   1.524
 6947SOL     OW21739   4.572   4.809   6.129
 6947SOL    HW121740   4.611   4.865   6.202
 6947SOL    HW221741   4.490   4.854   6.092
 6948SOL     OW21742   0.326   5.606   1.294
 6948SOL    HW121743   0.251   5.602   1.361
 6948SOL    HW221744   0.289   5.598   1.202
 6949SOL     OW21745   2.167   1.921   3.392
 6949SOL    HW121746   2.222   1.842   3.419
 6949SOL    HW221747   2.213   1.970   3.318
 6950SOL     OW21748   1.264   0.396   4.400
 6950SOL    HW121749   1.174   0.434   4.378
 6950SOL    HW221750   1.253   0.312   4.452
 6951SOL     OW21751   0.013   5.881   6.669
 6951SOL    HW121752   6.969   5.939   6.710
 6951SOL    HW221753   0.077   5.851   6.739
 6952SOL     OW21754   1.735   5.296   3.162
 6952SOL    HW121755   1.804   5.350   3.115
 6952SOL    HW221756   1.755   5.199   3.152
 6953SOL     OW21757   5.542   0.304   0.175
 6953SOL    HW121758   5.581   0.283   0.085
 6953SOL    HW221759   5.452   0.345   0.163
 6954SOL     OW21760   0.383   4.305   1.513
 6954SOL    HW121761   0.437   4.387   1.530
 6954SOL    HW221762   0.288   4.322   1.540
 6955SOL     OW21763   4.779   0.974   2.736
 6955SOL    HW121764   4.806   0.939   2.646
 6955SOL    HW221765   4.738   0.900   2.789
 6956SOL     OW21766   5.215   5.780   3.342
 6956SOL    HW121767   5.190   5.695   3.387
 6956SOL    HW221768   5.132   5.828   3.313
 6957SOL     OW21769   5.918   5.952   0.092
 6957SOL    HW121770   5.973   5.986   0.168
 6957SOL    HW221771   5.850   6.021   0.066
 6958SOL     OW21772   4.002   3.203   4.873
 6958SOL    HW121773   3.984   3.273   4.804
 6958SOL    HW221774   3.985   3.112   4.834
 6959SOL     OW21775   1.519   4.014   3.551
 6959SOL    HW121776   1.430   3.994   3.591
 6959SOL    HW221777   1.551   4.104   3.581
 6960SOL     OW21778   2.360   3.887   0.819
 6960SOL    HW121779   2.353   3.804   0.763
 6960SOL    HW221780   2.382   3.965   0.761
 6961SOL     OW21781   5.572   1.283   4.563
 6961SOL    HW121782   5.614   1.213   4.505
 6961SOL    HW221783   5.580   1.255   4.659
 6962SOL     OW21784   4.418   5.786   0.837
 6962SOL    HW121785   4.470   5.759   0.918
 6962SOL    HW221786   4.461   5.865   0.794
 6963SOL     OW21787   5.184   5.005   0.714
 6963SOL    HW121788   5.117   5.063   0.761
 6963SOL    HW221789   5.199   4.922   0.768
 6964SOL     OW21790   3.432   0.199   5.939
 6964SOL    HW121791   3.374   0.278   5.920
 6964SOL    HW221792   3.387   0.116   5.906
 6965SOL     OW21793   1.821   1.594   6.810
 6965SOL    HW121794   1.756   1.519   6.822
 6965SOL    HW221795   1.807   1.661   6.883
 6966SOL     OW21796   0.781   0.684   2.908
 6966SOL    HW121797   0.703   0.648   2.856
 6966SOL    HW221798   0.807   0.773   2.871
 6967SOL     OW21799   3.463   1.467   6.076
 6967SOL    HW121800   3.416   1.402   6.017
 6967SOL    HW221801   3.548   1.426   6.111
 6968SOL     OW21802   2.124   1.118   3.604
 6968SOL    HW121803   2.115   1.161   3.693
 6968SOL    HW221804   2.113   1.019   3.614
 6969SOL     OW21805   3.133   2.024   1.257
 6969SOL    HW121806   3.228   2.030   1.227
 6969SOL    HW221807   3.128   2.033   1.357
 6970SOL     OW21808   4.208   3.547   5.110
 6970SOL    HW121809   4.133   3.606   5.084
 6970SOL    HW221810   4.176   3.452   5.116
 6971SOL     OW21811   5.867   5.382   0.943
 6971SOL    HW121812   5.807   5.313   0.902
 6971SOL    HW221813   5.812   5.460   0.973
 6972SOL     OW21814   5.410   4.060   1.985
 6972SOL    HW121815   5.465   4.059   2.069
 6972SOL    HW221816   5.463   4.019   1.910
 6973SOL     OW21817   0.684   2.515   3.665
 6973SOL    HW121818   0.652   2.566   3.745
 6973SOL    HW221819   0.774   2.548   3.638
 6974SOL     OW21820   2.990   3.713   2.745
 6974SOL    HW121821   2.960   3.806   2.770
 6974SOL    HW221822   2.958   3.692   2.653
 6975SOL     OW21823   1.909   6.650   4.784
 6975SOL    HW121824   1.947   6.628   4.694
 6975SOL    HW221825   1.829   6.593   4.802
 6976SOL     OW21826   6.584   4.158   5.939
 6976SOL    HW121827   6.580   4.161   5.839
 6976SOL    HW221828   6.502   4.112   5.974
 6977SOL     OW21829   3.650   3.177   1.275
 6977SOL    HW121830   3.681   3.104   1.337
 6977SOL    HW221831   3.588   3.138   1.207
 6978SOL     OW21832   5.600   2.463   1.377
 6978SOL    HW121833   5.667   2.531   1.406
 6978SOL    HW221834   5.596   2.459   1.278
 6979SOL     OW21835   0.919   3.086   0.969
 6979SOL    HW121836   0.881   3.028   0.897
 6979SOL    HW221837   0.845   3.139   1.011
 6980SOL     OW21838   1.740   1.322   3.515
 6980SOL    HW121839   1.721   1.268   3.597
 6980SOL    HW221840   1.831   1.299   3.480
 6981SOL     OW21841   3.763   3.052   5.841
 6981SOL    HW121842   3.815   2.967   5.834
 6981SOL    HW221843   3.826   3.129   5.845
 6982SOL     OW21844   0.666   1.002   3.898
 6982SOL    HW121845   0.739   0.971   3.959
 6982SOL    HW221846   0.705   1.051   3.821
 6983SOL     OW21847   5.026   1.082   4.732
 6983SOL    HW121848   5.065   1.063   4.822
 6983SOL    HW221849   5.093   1.057   4.662
 6984SOL     OW21850   1.669   1.502   2.684
 6984SOL    HW121851   1.624   1.462   2.763
 6984SOL    HW221852   1.720   1.431   2.635
 6985SOL     OW21853   7.021   5.461   0.508
 6985SOL    HW121854   0.062   5.455   0.433
 6985SOL    HW221855   7.006   5.370   0.546
 6986SOL     OW21856   3.300   6.526   6.407
 6986SOL    HW121857   3.373   6.509   6.340
 6986SOL    HW221858   3.305   6.620   6.438
 6987SOL     OW21859   6.742   1.498   6.622
 6987SOL    HW121860   6.793   1.556   6.558
 6987SOL    HW221861   6.671   1.447   6.572
 6988SOL     OW21862   1.844   6.635   6.256
 6988SOL    HW121863   1.837   6.577   6.337
 6988SOL    HW221864   1.919   6.603   6.198
 6989SOL     OW21865   6.854   4.573   3.411
 6989SOL    HW121866   6.798   4.526   3.342
 6989SOL    HW221867   6.913   4.506   3.456
 6990SOL     OW21868   4.294   2.493   1.223
 6990SOL    HW121869   4.203   2.450   1.225
 6990SOL    HW221870   4.350   2.452   1.295
 6991SOL     OW21871   5.498   4.600   3.173
 6991SOL    HW121872   5.554   4.623   3.094
 6991SOL    HW221873   5.499   4.501   3.187
 6992SOL     OW21874   6.355   6.164   0.079
 6992SOL    HW121875   6.277   6.104   0.092
 6992SOL    HW221876   6.371   6.217   0.163
 6993SOL     OW21877   6.420   0.373   1.427
 6993SOL    HW121878   6.520   0.374   1.431
 6993SOL    HW221879   6.391   0.312   1.353
 6994SOL     OW21880   1.422   0.990   4.402
 6994SOL    HW121881   1.327   0.959   4.414
 6994SOL    HW221882   1.422   1.075   4.350
 6995SOL     OW21883   0.140   3.774   0.257
 6995SOL    HW121884   0.161   3.849   0.319
 6995SOL    HW221885   0.219   3.714   0.249
 6996SOL     OW21886   1.439   0.425   0.221
 6996SOL    HW121887   1.483   0.355   0.277
 6996SOL    HW221888   1.359   0.461   0.269
 6997SOL     OW21889   6.916   4.563   4.855
 6997SOL    HW121890   6.836   4.577   4.796
 6997SOL    HW221891   6.996   4.608   4.814
 6998SOL     OW21892   1.069   1.606   1.621
 6998SOL    HW121893   0.990   1.614   1.559
 6998SOL    HW221894   1.099   1.511   1.624
 6999SOL     OW21895   1.818   2.119   6.583
 6999SOL    HW121896   1.821   2.090   6.679
 6999SOL    HW221897   1.773   2.208   6.577
 7000SOL     OW21898   5.776   0.652   2.086
 7000SOL    HW121899   5.817   0.590   2.153
 7000SOL    HW221900   5.686   0.681   2.119
 7001SOL     OW21901   0.795   2.354   5.013
 7001SOL    HW121902   0.855   2.324   4.939
 7001SOL    HW221903   0.817   2.303   5.097
 7002SOL     OW21904   1.933   5.041   4.285
 7002SOL    HW121905   1.894   5.040   4.193
 7002SOL    HW221906   1.884   5.106   4.342
 7003SOL     OW21907   4.622   5.583   1.803
 7003SOL    HW121908   4.603   5.606   1.708
 7003SOL    HW221909   4.612   5.665   1.860
 7004SOL     OW21910   0.861   6.191   0.357
 7004SOL    HW121911   0.920   6.248   0.414
 7004SOL    HW221912   0.852   6.101   0.400
 7005SOL     OW21913   1.012   0.139   0.672
 7005SOL    HW121914   1.081   0.068   0.659
 7005SOL    HW221915   1.001   0.191   0.588
 7006SOL     OW21916   5.696   6.664   3.376
 7006SOL    HW121917   5.749   6.595   3.327
 7006SOL    HW221918   5.745   6.690   3.459
 7007SOL     OW21919   3.871   0.453   4.546
 7007SOL    HW121920   3.831   0.517   4.611
 7007SOL    HW221921   3.829   0.363   4.558
 7008SOL     OW21922   0.173   4.533   4.009
 7008SOL    HW121923   0.215   4.563   4.095
 7008SOL    HW221924   0.236   4.471   3.962
 7009SOL     OW21925   4.498   6.780   1.950
 7009SOL    HW121926   4.428   6.847   1.977
 7009SOL    HW221927   4.520   6.721   2.028
 7010SOL     OW21928   5.868   4.683   3.486
 7010SOL    HW121929   5.794   4.717   3.428
 7010SOL    HW221930   5.836   4.602   3.535
 7011SOL     OW21931   4.127   6.768   1.013
 7011SOL    HW121932   4.186   6.815   0.947
 7011SOL    HW221933   4.082   6.691   0.969
 7012SOL     OW21934   0.998   2.206   1.376
 7012SOL    HW121935   0.985   2.110   1.401
 7012SOL    HW221936   1.059   2.211   1.297
 7013SOL     OW21937   1.759   6.820   6.462
 7013SOL    HW121938   1.813   6.792   6.382
 7013SOL    HW221939   1.733   6.916   6.453
 7014SOL     OW21940   5.476   3.611   0.738
 7014SOL    HW121941   5.423   3.548   0.795
 7014SOL    HW221942   5.469   3.582   0.642
 7015SOL     OW21943   5.868   4.710   2.248
 7015SOL    HW121944   5.877   4.652   2.329
 7015SOL    HW221945   5.795   4.674   2.189
 7016SOL     OW21946   4.105   4.965   1.490
 7016SOL    HW121947   4.141   4.959   1.584
 7016SOL    HW221948   4.076   5.059   1.472
 7017SOL     OW21949   2.472   5.092   2.976
 7017SOL    HW121950   2.448   5.009   2.924
 7017SOL    HW221951   2.388   5.140   3.001
 7018SOL     OW21952   5.140   3.993   4.211
 7018SOL    HW121953   5.169   4.067   4.272
 7018SOL    HW221954   5.220   3.937   4.186
 7019SOL     OW21955   4.088   5.279   2.085
 7019SOL    HW121956   4.030   5.232   2.018
 7019SOL    HW221957   4.044   5.366   2.111
 7020SOL     OW21958   0.656   3.728   6.618
 7020SOL    HW121959   0.650   3.637   6.577
 7020SOL    HW221960   0.752   3.757   6.621
 7021SOL     OW21961   1.971   3.018   4.204
 7021SOL    HW121962   1.989   2.940   4.263
 7021SOL    HW221963   2.051   3.038   4.148
 7022SOL     OW21964   4.612   0.371   0.200
 7022SOL    HW121965   4.640   0.466   0.215
 7022SOL    HW221966   4.686   0.321   0.155
 7023SOL     OW21967   0.512   2.674   1.481
 7023SOL    HW121968   0.571   2.612   1.429
 7023SOL    HW221969   0.472   2.625   1.558
 7024SOL     OW21970   3.514   3.587   4.069
 7024SOL    HW121971   3.553   3.533   3.995
 7024SOL    HW221972   3.453   3.657   4.031
 7025SOL     OW21973   3.249   0.224   0.441
 7025SOL    HW121974   3.281   0.231   0.347
 7025SOL    HW221975   3.273   0.307   0.491
 7026SOL     OW21976   3.934   2.128   2.210
 7026SOL    HW121977   3.950   2.036   2.247
 7026SOL    HW221978   3.848   2.128   2.159
 7027SOL     OW21979   2.566   6.280   3.846
 7027SOL    HW121980   2.585   6.209   3.915
 7027SOL    HW221981   2.472   6.312   3.857
 7028SOL     OW21982   2.899   0.062   4.125
 7028SOL    HW121983   2.849   0.133   4.076
 7028SOL    HW221984   2.989   0.096   4.150
 7029SOL     OW21985   3.923   4.107   5.692
 7029SOL    HW121986   3.963   4.034   5.746
 7029SOL    HW221987   3.995   4.163   5.651
 7030SOL     OW21988   0.557   1.606   4.665
 7030SOL    HW121989   0.464   1.613   4.631
 7030SOL    HW221990   0.558   1.553   4.750
 7031SOL     OW21991   3.718   6.186   0.161
 7031SOL    HW121992   3.773   6.104   0.144
 7031SOL    HW221993   3.728   6.249   0.084
 7032SOL     OW21994   4.113   1.094   3.237
 7032SOL    HW121995   4.156   1.181   3.259
 7032SOL    HW221996   4.092   1.091   3.140
 7033SOL     OW21997   1.476   2.770   3.780
 7033SOL    HW121998   1.505   2.764   3.876
 7033SOL    HW221999   1.508   2.855   3.740
 7034SOL     OW22000   6.161   2.706   3.191
 7034SOL    HW122001   6.162   2.630   3.255
 7034SOL    HW222002   6.250   2.715   3.148
 7035SOL     OW22003   2.132   0.035   1.522
 7035SOL    HW122004   2.063   0.100   1.490
 7035SOL    HW222005   2.222   0.076   1.513
 7036SOL     OW22006   0.203   2.444   2.659
 7036SOL    HW122007   0.220   2.352   2.694
 7036SOL    HW222008   0.253   2.457   2.574
 7037SOL     OW22009   0.408   1.188   5.758
 7037SOL    HW122010   0.493   1.240   5.750
 7037SOL    HW222011   0.413   1.128   5.838
 7038SOL     OW22012   2.099   4.381   4.943
 7038SOL    HW122013   2.105   4.414   5.038
 7038SOL    HW222014   2.026   4.314   4.936
 7039SOL     OW22015   0.541   6.100   3.874
 7039SOL    HW122016   0.636   6.120   3.899
 7039SOL    HW222017   0.497   6.184   3.844
 7040SOL     OW22018   5.401   2.453   5.553
 7040SOL    HW122019   5.397   2.356   5.574
 7040SOL    HW222020   5.496   2.485   5.565
 7041SOL     OW22021   0.343   1.878   3.566
 7041SOL    HW122022   0.386   1.932   3.493
 7041SOL    HW222023   0.395   1.888   3.650
 7042SOL     OW22024   4.467   5.776   4.677
 7042SOL    HW122025   4.440   5.681   4.667
 7042SOL    HW222026   4.563   5.786   4.652
 7043SOL     OW22027   2.928   4.785   3.381
 7043SOL    HW122028   2.906   4.719   3.309
 7043SOL    HW222029   2.851   4.848   3.393
 7044SOL     OW22030   4.785   6.935   4.822
 7044SOL    HW122031   4.741   7.006   4.878
 7044SOL    HW222032   4.750   6.940   4.728
 7045SOL     OW22033   5.837   5.674   1.981
 7045SOL    HW122034   5.788   5.591   1.952
 7045SOL    HW222035   5.915   5.647   2.038
 7046SOL     OW22036   2.849   1.942   4.050
 7046SOL    HW122037   2.925   1.883   4.078
 7046SOL    HW222038   2.874   2.037   4.068
 7047SOL     OW22039   0.048   1.139   1.300
 7047SOL    HW122040   0.054   1.231   1.340
 7047SOL    HW222041   6.980   1.105   1.308
 7048SOL     OW22042   6.026   6.288   4.975
 7048SOL    HW122043   6.081   6.250   5.050
 7048SOL    HW222044   5.930   6.261   4.987
 7049SOL     OW22045   3.490   1.527   2.142
 7049SOL    HW122046   3.491   1.593   2.067
 7049SOL    HW222047   3.496   1.434   2.105
 7050SOL     OW22048   4.021   4.284   0.863
 7050SOL    HW122049   4.012   4.369   0.810
 7050SOL    HW222050   4.117   4.257   0.867
 7051SOL     OW22051   6.579   6.225   0.807
 7051SOL    HW122052   6.570   6.323   0.827
 7051SOL    HW222053   6.637   6.213   0.726
 7052SOL     OW22054   5.667   0.767   3.402
 7052SOL    HW122055   5.605   0.827   3.351
 7052SOL    HW222056   5.745   0.742   3.344
 7053SOL     OW22057   2.317   4.162   4.216
 7053SOL    HW122058   2.301   4.073   4.260
 7053SOL    HW222059   2.311   4.234   4.285
 7054SOL     OW22060   0.067   6.914   1.422
 7054SOL    HW122061   0.018   6.982   1.367
 7054SOL    HW222062   0.082   6.950   1.514
 7055SOL     OW22063   2.923   0.410   0.536
 7055SOL    HW122064   2.969   0.438   0.620
 7055SOL    HW222065   2.952   0.318   0.511
 7056SOL     OW22066   6.926   5.820   1.182
 7056SOL    HW122067   6.914   5.916   1.161
 7056SOL    HW222068   6.971   5.774   1.105
 7057SOL     OW22069   3.327   5.876   4.514
 7057SOL    HW122070   3.343   5.927   4.599
 7057SOL    HW222071   3.266   5.928   4.455
 7058SOL     OW22072   5.396   1.802   6.038
 7058SOL    HW122073   5.414   1.872   5.968
 7058SOL    HW222074   5.411   1.711   5.999
 7059SOL     OW22075   1.274   1.006   4.653
 7059SOL    HW122076   1.363   1.029   4.613
 7059SOL    HW222077   1.212   0.976   4.580
 7060SOL     OW22078   3.650   6.126   1.537
 7060SOL    HW122079   3.733   6.180   1.542
 7060SOL    HW222080   3.595   6.155   1.458
 7061SOL     OW22081   0.352   2.844   3.074
 7061SOL    HW122082   0.449   2.819   3.078
 7061SOL    HW222083   0.296   2.761   3.080
 7062SOL     OW22084   4.000   2.166   4.600
 7062SOL    HW122085   3.987   2.162   4.501
 7062SOL    HW222086   4.098   2.173   4.620
 7063SOL     OW22087   0.547   6.524   1.662
 7063SOL    HW122088   0.466   6.489   1.707
 7063SOL    HW222089   0.522   6.600   1.602
 7064SOL     OW22090   4.748   1.832   6.183
 7064SOL    HW122091   4.662   1.783   6.175
 7064SOL    HW222092   4.736   1.926   6.150
 7065SOL     OW22093   3.458   4.385   5.276
 7065SOL    HW122094   3.457   4.289   5.246
 7065SOL    HW222095   3.364   4.418   5.284
 7066SOL     OW22096   4.480   0.655   6.088
 7066SOL    HW122097   4.436   0.603   6.161
 7066SOL    HW222098   4.416   0.722   6.051
 7067SOL     OW22099   1.264   3.509   6.613
 7067SOL    HW122100   1.339   3.471   6.558
 7067SOL    HW222101   1.236   3.596   6.573
 7068SOL     OW22102   6.018   3.828   4.449
 7068SOL    HW122103   5.949   3.825   4.376
 7068SOL    HW222104   6.091   3.892   4.423
 7069SOL     OW22105   6.149   2.212   5.415
 7069SOL    HW122106   6.192   2.241   5.501
 7069SOL    HW222107   6.150   2.289   5.350
 7070SOL     OW22108   1.304   6.416   4.471
 7070SOL    HW122109   1.268   6.445   4.382
 7070SOL    HW222110   1.377   6.479   4.500
 7071SOL     OW22111   4.775   6.238   6.783
 7071SOL    HW122112   4.873   6.237   6.800
 7071SOL    HW222113   4.728   6.194   6.860
 7072SOL     OW22114   2.009   4.576   0.185
 7072SOL    HW122115   1.958   4.515   0.246
 7072SOL    HW222116   2.003   4.670   0.218
 7073SOL     OW22117   3.728   6.909   3.099
 7073SOL    HW122118   3.752   6.876   3.190
 7073SOL    HW222119   3.799   6.973   3.067
 7074SOL     OW22120   6.343   3.484   3.459
 7074SOL    HW122121   6.341   3.584   3.448
 7074SOL    HW222122   6.437   3.452   3.452
 7075SOL     OW22123   2.933   4.812   4.729
 7075SOL    HW122124   2.967   4.813   4.635
 7075SOL    HW222125   3.010   4.799   4.792
 7076SOL     OW22126   5.786   2.934   1.406
 7076SOL    HW122127   5.804   2.849   1.356
 7076SOL    HW222128   5.752   3.003   1.343
 7077SOL     OW22129   2.351   4.489   2.592
 7077SOL    HW122130   2.414   4.562   2.566
 7077SOL    HW222131   2.339   4.426   2.516
 7078SOL     OW22132   5.592   6.075   0.446
 7078SOL    HW122133   5.559   5.982   0.434
 7078SOL    HW222134   5.535   6.138   0.394
 7079SOL     OW22135   0.987   0.156   4.266
 7079SOL    HW122136   1.069   0.162   4.209
 7079SOL    HW222137   0.996   0.081   4.331
 7080SOL     OW22138   3.799   2.132   4.020
 7080SOL    HW122139   3.887   2.175   4.000
 7080SOL    HW222140   3.765   2.165   4.108
 7081SOL     OW22141   1.590   6.225   6.941
 7081SOL    HW122142   1.562   6.286   6.867
 7081SOL    HW222143   1.690   6.220   6.944
 7082SOL     OW22144   6.747   3.695   1.601
 7082SOL    HW122145   6.677   3.626   1.620
 7082SOL    HW222146   6.834   3.665   1.640
 7083SOL     OW22147   6.893   1.451   2.590
 7083SOL    HW122148   6.957   1.527   2.599
 7083SOL    HW222149   6.800   1.487   2.584
 7084SOL     OW22150   0.366   5.847   5.519
 7084SOL    HW122151   0.329   5.767   5.566
 7084SOL    HW222152   0.290   5.900   5.481
 7085SOL     OW22153   6.406   2.488   2.880
 7085SOL    HW122154   6.500   2.455   2.872
 7085SOL    HW222155   6.404   2.587   2.870
 7086SOL     OW22156   5.989   0.411   6.809
 7086SOL    HW122157   5.989   0.372   6.717
 7086SOL    HW222158   6.070   0.382   6.859
 7087SOL     OW22159   5.244   3.385   2.177
 7087SOL    HW122160   5.159   3.390   2.126
 7087SOL    HW222161   5.299   3.466   2.159
 7088SOL     OW22162   5.310   2.176   5.612
 7088SOL    HW122163   5.285   2.084   5.582
 7088SOL    HW222164   5.241   2.209   5.677
 7089SOL     OW22165   2.586   4.901   2.264
 7089SOL    HW122166   2.657   4.860   2.207
 7089SOL    HW222167   2.628   4.958   2.334
 7090SOL     OW22168   2.270   1.456   0.790
 7090SOL    HW122169   2.358   1.497   0.815
 7090SOL    HW222170   2.274   1.424   0.696
 7091SOL     OW22171   0.733   1.064   1.663
 7091SOL    HW122172   0.755   1.125   1.587
 7091SOL    HW222173   0.814   1.010   1.686
 7092SOL     OW22174   3.609   2.898   6.238
 7092SOL    HW122175   3.548   2.975   6.258
 7092SOL    HW222176   3.556   2.825   6.194
 7093SOL     OW22177   3.389   3.555   1.215
 7093SOL    HW122178   3.291   3.551   1.195
 7093SOL    HW222179   3.441   3.526   1.135
 7094SOL     OW22180   1.275   0.008   5.729
 7094SOL    HW122181   1.340   6.979   5.677
 7094SOL    HW222182   1.182   7.002   5.713
 7095SOL     OW22183   3.655   5.179   5.922
 7095SOL    HW122184   3.646   5.081   5.907
 7095SOL    HW222185   3.586   5.228   5.869
 7096SOL     OW22186   6.874   0.466   2.271
 7096SOL    HW122187   6.803   0.495   2.207
 7096SOL    HW222188   6.907   0.375   2.246
 7097SOL     OW22189   4.746   0.761   2.144
 7097SOL    HW122190   4.695   0.830   2.195
 7097SOL    HW222191   4.683   0.711   2.084
 7098SOL     OW22192   1.691   6.119   5.709
 7098SOL    HW122193   1.714   6.052   5.638
 7098SOL    HW222194   1.774   6.149   5.754
 7099SOL     OW22195   3.796   2.178   4.275
 7099SOL    HW122196   3.881   2.126   4.267
 7099SOL    HW222197   3.774   2.191   4.372
 7100SOL     OW22198   0.136   3.686   0.573
 7100SOL    HW122199   0.101   3.772   0.610
 7100SOL    HW222200   0.222   3.662   0.620
 7101SOL     OW22201   2.237   6.945   5.185
 7101SOL    HW122202   2.228   6.991   5.097
 7101SOL    HW222203   2.204   7.005   5.258
 7102SOL     OW22204   5.321   0.398   1.246
 7102SOL    HW122205   5.290   0.465   1.312
 7102SOL    HW222206   5.419   0.410   1.229
 7103SOL     OW22207   5.491   5.202   1.984
 7103SOL    HW122208   5.427   5.126   1.979
 7103SOL    HW222209   5.564   5.180   2.049
 7104SOL     OW22210   5.282   3.322   2.572
 7104SOL    HW122211   5.351   3.256   2.541
 7104SOL    HW222212   5.201   3.315   2.514
 7105SOL     OW22213   3.883   4.051   4.774
 7105SOL    HW122214   3.898   4.128   4.712
 7105SOL    HW222215   3.948   3.978   4.751
 7106SOL     OW22216   2.925   2.759   1.050
 7106SOL    HW122217   2.920   2.659   1.056
 7106SOL    HW222218   3.016   2.790   1.079
 7107SOL     OW22219   3.877   0.294   0.026
 7107SOL    HW122220   3.969   0.332   0.033
 7107SOL    HW222221   3.874   0.230   6.975
 7108SOL     OW22222   2.807   6.448   2.347
 7108SOL    HW122223   2.847   6.395   2.272
 7108SOL    HW222224   2.723   6.404   2.378
 7109SOL     OW22225   1.465   0.931   6.921
 7109SOL    HW122226   1.393   0.864   6.942
 7109SOL    HW222227   1.537   0.924   6.990
 7110SOL     OW22228   3.329   6.476   4.105
 7110SOL    HW122229   3.415   6.525   4.091
 7110SOL    HW222230   3.275   6.478   4.020
 7111SOL     OW22231   1.408   1.733   3.568
 7111SOL    HW122232   1.506   1.714   3.567
 7111SOL    HW222233   1.366   1.690   3.648
 7112SOL     OW22234   2.267   4.178   4.819
 7112SOL    HW122235   2.229   4.263   4.856
 7112SOL    HW222236   2.283   4.113   4.893
 7113SOL     OW22237   3.254   5.030   5.321
 7113SOL    HW122238   3.253   5.068   5.229
 7113SOL    HW222239   3.291   4.937   5.318
 7114SOL     OW22240   4.298   5.455   1.534
 7114SOL    HW122241   4.303   5.503   1.621
 7114SOL    HW222242   4.317   5.358   1.548
 7115SOL     OW22243   5.665   4.236   6.971
 7115SOL    HW122244   5.633   4.160   6.915
 7115SOL    HW222245   5.685   4.202   0.038
 7116SOL     OW22246   5.609   4.343   3.194
 7116SOL    HW122247   5.593   4.301   3.284
 7116SOL    HW222248   5.588   4.277   3.122
 7117SOL     OW22249   6.162   0.009   3.987
 7117SOL    HW122250   6.159   6.952   3.930
 7117SOL    HW222251   6.069   0.034   4.014
 7118SOL     OW22252   3.959   4.494   5.348
 7118SOL    HW122253   3.977   4.401   5.317
 7118SOL    HW222254   3.872   4.497   5.397
 7119SOL     OW22255   5.247   1.015   4.581
 7119SOL    HW122256   5.266   1.029   4.484
 7119SOL    HW222257   5.315   0.952   4.619
 7120SOL     OW22258   5.603   1.460   1.308
 7120SOL    HW122259   5.596   1.460   1.408
 7120SOL    HW222260   5.664   1.534   1.280
 7121SOL     OW22261   0.607   6.246   3.101
 7121SOL    HW122262   0.677   6.182   3.134
 7121SOL    HW222263   0.647   6.337   3.091
 7122SOL     OW22264   2.173   6.945   5.790
 7122SOL    HW122265   2.094   6.989   5.749
 7122SOL    HW222266   2.162   6.940   5.889
 7123SOL     OW22267   6.575   4.989   4.261
 7123SOL    HW122268   6.537   5.080   4.247
 7123SOL    HW222269   6.620   4.959   4.177
 7124SOL     OW22270   1.122   1.991   1.534
 7124SOL    HW122271   1.180   1.909   1.543
 7124SOL    HW222272   1.123   2.042   1.620
 7125SOL     OW22273   1.434   0.493   1.828
 7125SOL    HW122274   1.340   0.471   1.854
 7125SOL    HW222275   1.435   0.579   1.776
 7126SOL     OW22276   3.707   5.934   0.753
 7126SOL    HW122277   3.722   5.844   0.713
 7126SOL    HW222278   3.795   5.981   0.764
 7127SOL     OW22279   3.058   6.345   5.714
 7127SOL    HW122280   3.088   6.435   5.682
 7127SOL    HW222281   3.136   6.296   5.753
 7128SOL     OW22282   4.110   4.376   0.122
 7128SOL    HW122283   4.084   4.403   0.029
 7128SOL    HW222284   4.198   4.328   0.119
 7129SOL     OW22285   0.392   1.655   1.181
 7129SOL    HW122286   0.317   1.657   1.246
 7129SOL    HW222287   0.385   1.733   1.119
 7130SOL     OW22288   3.797   0.146   4.432
 7130SOL    HW122289   3.697   0.144   4.440
 7130SOL    HW222290   3.822   0.178   4.341
 7131SOL     OW22291   3.406   0.690   2.448
 7131SOL    HW122292   3.463   0.668   2.369
 7131SOL    HW222293   3.315   0.649   2.436
 7132SOL     OW22294   5.077   3.877   0.073
 7132SOL    HW122295   5.007   3.884   0.001
 7132SOL    HW222296   5.071   3.957   0.132
 7133SOL     OW22297   4.374   4.952   3.942
 7133SOL    HW122298   4.454   4.912   3.899
 7133SOL    HW222299   4.378   5.052   3.934
 7134SOL     OW22300   5.468   5.957   1.684
 7134SOL    HW122301   5.452   5.860   1.704
 7134SOL    HW222302   5.564   5.978   1.698
 7135SOL     OW22303   2.182   2.885   2.021
 7135SOL    HW122304   2.187   2.967   1.964
 7135SOL    HW222305   2.119   2.819   1.979
 7136SOL     OW22306   2.295   1.654   1.264
 7136SOL    HW122307   2.334   1.706   1.340
 7136SOL    HW222308   2.339   1.564   1.259
 7137SOL     OW22309   2.951   1.411   0.688
 7137SOL    HW122310   2.910   1.399   0.779
 7137SOL    HW222311   2.880   1.434   0.622
 7138SOL     OW22312   2.547   1.035   1.468
 7138SOL    HW122313   2.493   1.104   1.419
 7138SOL    HW222314   2.488   0.988   1.534
 7139SOL     OW22315   5.050   5.230   2.073
 7139SOL    HW122316   5.034   5.132   2.061
 7139SOL    HW222317   5.086   5.246   2.165
 7140SOL     OW22318   6.278   4.387   1.008
 7140SOL    HW122319   6.230   4.339   1.081
 7140SOL    HW222320   6.245   4.481   1.002
 7141SOL     OW22321   4.133   6.505   1.369
 7141SOL    HW122322   4.040   6.479   1.394
 7141SOL    HW222323   4.184   6.424   1.339
 7142SOL     OW22324   3.128   0.388   4.282
 7142SOL    HW122325   3.146   0.454   4.210
 7142SOL    HW222326   3.042   0.411   4.329
 7143SOL     OW22327   1.876   4.168   6.929
 7143SOL    HW122328   1.842   4.074   6.940
 7143SOL    HW222329   1.798   4.230   6.918
 7144SOL     OW22330   0.330   1.343   4.239
 7144SOL    HW122331   0.397   1.288   4.189
 7144SOL    HW222332   0.238   1.306   4.224
 7145SOL     OW22333   4.396   1.332   6.915
 7145SOL    HW122334   4.329   1.268   6.953
 7145SOL    HW222335   4.455   1.285   6.850
 7146SOL     OW22336   2.169   1.333   5.041
 7146SOL    HW122337   2.124   1.263   4.986
 7146SOL    HW222338   2.129   1.335   5.132
 7147SOL     OW22339   5.939   5.706   3.410
 7147SOL    HW122340   5.942   5.796   3.452
 7147SOL    HW222341   5.972   5.712   3.316
 7148SOL     OW22342   6.400   6.044   0.840
 7148SOL    HW122343   6.328   6.102   0.802
 7148SOL    HW222344   6.488   6.092   0.835
 7149SOL     OW22345   6.737   4.805   3.524
 7149SOL    HW122346   6.751   4.713   3.486
 7149SOL    HW222347   6.793   4.816   3.606
 7150SOL     OW22348   4.681   3.294   7.024
 7150SOL    HW122349   4.590   3.278   6.983
 7150SOL    HW222350   4.670   3.324   0.093
 7151SOL     OW22351   3.255   6.893   0.869
 7151SOL    HW122352   3.249   6.802   0.827
 7151SOL    HW222353   3.343   6.934   0.844
 7152SOL     OW22354   6.383   0.981   6.587
 7152SOL    HW122355   6.394   0.886   6.617
 7152SOL    HW222356   6.320   1.029   6.648
 7153SOL     OW22357   3.865   5.314   1.648
 7153SOL    HW122358   3.817   5.251   1.586
 7153SOL    HW222359   3.927   5.371   1.595
 7154SOL     OW22360   4.157   1.271   2.916
 7154SOL    HW122361   4.247   1.301   2.883
 7154SOL    HW222362   4.150   1.171   2.909
 7155SOL     OW22363   2.918   2.068   1.092
 7155SOL    HW122364   3.011   2.054   1.127
 7155SOL    HW222365   2.881   2.153   1.130
 7156SOL     OW22366   5.349   3.644   2.067
 7156SOL    HW122367   5.424   3.702   2.098
 7156SOL    HW222368   5.266   3.700   2.057
 7157SOL     OW22369   6.204   4.213   0.785
 7157SOL    HW122370   6.121   4.186   0.834
 7157SOL    HW222371   6.253   4.282   0.838
 7158SOL     OW22372   6.174   0.712   3.692
 7158SOL    HW122373   6.225   0.733   3.775
 7158SOL    HW222374   6.148   0.616   3.693
 7159SOL     OW22375   0.325   4.669   4.213
 7159SOL    HW122376   0.264   4.741   4.245
 7159SOL    HW222377   0.376   4.632   4.290
 7160SOL     OW22378   6.004   6.414   2.759
 7160SOL    HW122379   6.036   6.505   2.733
 7160SOL    HW222380   5.916   6.421   2.805
 7161SOL     OW22381   3.570   3.852   3.262
 7161SOL    HW122382   3.599   3.834   3.357
 7161SOL    HW222383   3.524   3.940   3.258
 7162SOL     OW22384   0.214   4.717   0.629
 7162SOL    HW122385   0.142   4.654   0.602
 7162SOL    HW222386   0.301   4.667   0.635
 7163SOL     OW22387   1.707   1.371   3.111
 7163SOL    HW122388   1.780   1.316   3.152
 7163SOL    HW222389   1.672   1.435   3.179
 7164SOL     OW22390   1.742   1.218   5.584
 7164SOL    HW122391   1.716   1.143   5.523
 7164SOL    HW222392   1.832   1.199   5.624
 7165SOL     OW22393   5.728   6.634   0.844
 7165SOL    HW122394   5.772   6.724   0.848
 7165SOL    HW222395   5.698   6.616   0.750
 7166SOL     OW22396   5.172   0.659   6.271
 7166SOL    HW122397   5.198   0.678   6.365
 7166SOL    HW222398   5.076   0.632   6.267
 7167SOL     OW22399   6.192   2.354   5.640
 7167SOL    HW122400   6.120   2.357   5.709
 7167SOL    HW222401   6.275   2.395   5.678
 7168SOL     OW22402   3.116   0.652   2.889
 7168SOL    HW122403   3.190   0.641   2.823
 7168SOL    HW222404   3.132   0.592   2.968
 7169SOL     OW22405   1.482   3.911   5.340
 7169SOL    HW122406   1.436   3.826   5.316
 7169SOL    HW222407   1.577   3.892   5.363
 7170SOL     OW22408   4.625   0.016   2.373
 7170SOL    HW122409   4.556   0.022   2.446
 7170SOL    HW222410   4.688   0.093   2.381
 7171SOL     OW22411   6.151   4.657   0.610
 7171SOL    HW122412   6.239   4.622   0.641
 7171SOL    HW222413   6.154   4.675   0.512
 7172SOL     OW22414   1.872   1.602   4.870
 7172SOL    HW122415   1.853   1.627   4.965
 7172SOL    HW222416   1.837   1.672   4.809
 7173SOL     OW22417   6.060   5.644   6.659
 7173SOL    HW122418   6.064   5.546   6.678
 7173SOL    HW222419   6.048   5.694   6.744
 7174SOL     OW22420   6.726   4.565   1.208
 7174SOL    HW122421   6.637   4.520   1.203
 7174SOL    HW222422   6.730   4.641   1.144
 7175SOL     OW22423   6.665   4.241   5.345
 7175SOL    HW122424   6.611   4.157   5.356
 7175SOL    HW222425   6.761   4.217   5.328
 7176SOL     OW22426   0.565   1.246   4.016
 7176SOL    HW122427   0.577   1.150   3.993
 7176SOL    HW222428   0.653   1.293   4.009
 7177SOL     OW22429   1.864   5.444   5.645
 7177SOL    HW122430   1.909   5.528   5.617
 7177SOL    HW222431   1.818   5.403   5.566
 7178SOL     OW22432   0.523   0.327   5.669
 7178SOL    HW122433   0.579   0.264   5.616
 7178SOL    HW222434   0.481   0.394   5.607
 7179SOL     OW22435   2.142   4.460   5.193
 7179SOL    HW122436   2.077   4.447   5.267
 7179SOL    HW222437   2.170   4.556   5.189
 7180SOL     OW22438   2.475   4.410   0.674
 7180SOL    HW122439   2.555   4.368   0.632
 7180SOL    HW222440   2.405   4.341   0.690
 7181SOL     OW22441   2.302   1.068   6.412
 7181SOL    HW122442   2.217   1.107   6.448
 7181SOL    HW222443   2.327   0.988   6.467
 7182SOL     OW22444   0.823   3.693   3.907
 7182SOL    HW122445   0.765   3.628   3.858
 7182SOL    HW222446   0.910   3.704   3.859
 7183SOL     OW22447   1.927   5.953   1.623
 7183SOL    HW122448   1.925   5.995   1.532
 7183SOL    HW222449   2.010   5.981   1.671
 7184SOL     OW22450   5.695   1.235   3.046
 7184SOL    HW122451   5.737   1.146   3.028
 7184SOL    HW222452   5.751   1.307   3.005
 7185SOL     OW22453   5.345   1.062   5.360
 7185SOL    HW122454   5.410   0.988   5.344
 7185SOL    HW222455   5.257   1.024   5.386
 7186SOL     OW22456   0.369   0.687   0.756
 7186SOL    HW122457   0.421   0.614   0.710
 7186SOL    HW222458   0.370   0.769   0.700
 7187SOL     OW22459   2.933   3.625   4.795
 7187SOL    HW122460   3.011   3.687   4.806
 7187SOL    HW222461   2.897   3.601   4.885
 7188SOL     OW22462   4.872   3.894   6.931
 7188SOL    HW122463   4.822   3.979   6.913
 7188SOL    HW222464   4.879   3.841   6.847
 7189SOL     OW22465   6.130   3.555   5.370
 7189SOL    HW122466   6.092   3.465   5.348
 7189SOL    HW222467   6.208   3.544   5.432
 7190SOL     OW22468   5.993   5.702   0.765
 7190SOL    HW122469   6.005   5.693   0.864
 7190SOL    HW222470   6.033   5.788   0.735
 7191SOL     OW22471   0.758   3.944   3.301
 7191SOL    HW122472   0.718   3.918   3.389
 7191SOL    HW222473   0.824   4.018   3.314
 7192SOL     OW22474   2.125   3.863   5.991
 7192SOL    HW122475   2.192   3.920   6.039
 7192SOL    HW222476   2.037   3.910   5.991
 7193SOL     OW22477   2.680   1.833   2.728
 7193SOL    HW122478   2.699   1.842   2.826
 7193SOL    HW222479   2.735   1.899   2.678
 7194SOL     OW22480   2.183   1.891   0.007
 7194SOL    HW122481   2.244   1.859   6.960
 7194SOL    HW222482   2.226   1.877   0.096
 7195SOL     OW22483   6.550   4.128   6.652
 7195SOL    HW122484   6.570   4.162   6.744
 7195SOL    HW222485   6.469   4.069   6.654
 7196SOL     OW22486   3.284   3.781   2.419
 7196SOL    HW122487   3.316   3.841   2.346
 7196SOL    HW222488   3.199   3.737   2.392
 7197SOL     OW22489   1.050   3.831   5.245
 7197SOL    HW122490   1.072   3.788   5.157
 7197SOL    HW222491   1.133   3.869   5.285
 7198SOL     OW22492   0.343   0.892   0.547
 7198SOL    HW122493   0.273   0.907   0.477
 7198SOL    HW222494   0.432   0.885   0.504
 7199SOL     OW22495   0.949   0.245   2.573
 7199SOL    HW122496   1.009   0.273   2.648
 7199SOL    HW222497   0.942   0.319   2.506
 7200SOL     OW22498   1.989   3.062   1.181
 7200SOL    HW122499   1.940   3.103   1.258
 7200SOL    HW222500   2.035   3.134   1.128
 7201SOL     OW22501   0.223   5.734   4.319
 7201SOL    HW122502   0.211   5.819   4.370
 7201SOL    HW222503   0.145   5.674   4.335
 7202SOL     OW22504   4.945   0.161   5.953
 7202SOL    HW122505   4.961   0.063   5.966
 7202SOL    HW222506   4.870   0.174   5.888
 7203SOL     OW22507   0.613   0.761   1.801
 7203SOL    HW122508   0.602   0.825   1.877
 7203SOL    HW222509   0.677   0.799   1.734
 7204SOL     OW22510   6.445   1.562   0.596
 7204SOL    HW122511   6.507   1.588   0.523
 7204SOL    HW222512   6.350   1.566   0.563
 7205SOL     OW22513   0.883   3.303   4.509
 7205SOL    HW122514   0.962   3.297   4.570
 7205SOL    HW222515   0.905   3.261   4.421
 7206SOL     OW22516   1.351   1.561   1.014
 7206SOL    HW122517   1.292   1.493   0.970
 7206SOL    HW222518   1.408   1.517   1.083
 7207SOL     OW22519   2.641   1.480   3.834
 7207SOL    HW122520   2.563   1.446   3.781
 7207SOL    HW222521   2.671   1.410   3.898
 7208SOL     OW22522   4.605   0.520   3.902
 7208SOL    HW122523   4.636   0.614   3.889
 7208SOL    HW222524   4.518   0.519   3.951
 7209SOL     OW22525   2.102   2.391   2.251
 7209SOL    HW122526   2.094   2.314   2.314
 7209SOL    HW222527   2.012   2.434   2.240
 7210SOL     OW22528   3.392   1.699   3.007
 7210SOL    HW122529   3.321   1.769   2.998
 7210SOL    HW222530   3.481   1.738   2.983
 7211SOL     OW22531   2.959   6.200   5.332
 7211SOL    HW122532   2.924   6.285   5.371
 7211SOL    HW222533   3.055   6.189   5.358
 7212SOL     OW22534   6.018   6.682   6.722
 7212SOL    HW122535   5.980   6.590   6.733
 7212SOL    HW222536   6.088   6.698   6.792
 7213SOL     OW22537   3.658   6.594   6.754
 7213SOL    HW122538   3.674   6.626   6.661
 7213SOL    HW222539   3.688   6.499   6.763
 7214SOL     OW22540   0.103   0.528   5.886
 7214SOL    HW122541   0.151   0.574   5.960
 7214SOL    HW222542   0.128   0.432   5.884
 7215SOL     OW22543   6.570   2.857   3.760
 7215SOL    HW122544   6.510   2.777   3.768
 7215SOL    HW222545   6.666   2.827   3.760
 7216SOL     OW22546   3.209   6.460   2.099
 7216SOL    HW122547   3.237   6.487   2.006
 7216SOL    HW222548   3.136   6.522   2.130
 7217SOL     OW22549   1.840   4.195   3.779
 7217SOL    HW122550   1.937   4.175   3.767
 7217SOL    HW222551   1.829   4.276   3.838
 7218SOL     OW22552   6.932   3.254   3.580
 7218SOL    HW122553   7.003   3.321   3.557
 7218SOL    HW222554   6.898   3.272   3.672
 7219SOL     OW22555   3.142   6.998   1.348
 7219SOL    HW122556   3.233   7.019   1.311
 7219SOL    HW222557   3.148   6.989   1.447
 7220SOL     OW22558   6.673   4.267   4.330
 7220SOL    HW122559   6.724   4.311   4.404
 7220SOL    HW222560   6.706   4.174   4.317
 7221SOL     OW22561   3.367   6.025   4.741
 7221SOL    HW122562   3.297   6.012   4.812
 7221SOL    HW222563   3.378   6.123   4.722
 7222SOL     OW22564   5.382   0.126   3.095
 7222SOL    HW122565   5.336   0.046   3.134
 7222SOL    HW222566   5.314   0.196   3.073
 7223SOL     OW22567   2.883   1.127   0.288
 7223SOL    HW122568   2.834   1.043   0.308
 7223SOL    HW222569   2.817   1.202   0.276
 7224SOL     OW22570   4.556   2.611   4.415
 7224SOL    HW122571   4.575   2.599   4.512
 7224SOL    HW222572   4.582   2.703   4.387
 7225SOL     OW22573   1.702   6.310   1.154
 7225SOL    HW122574   1.663   6.235   1.207
 7225SOL    HW222575   1.781   6.349   1.203
 7226SOL     OW22576   6.297   0.710   1.189
 7226SOL    HW122577   6.293   0.622   1.141
 7226SOL    HW222578   6.332   0.695   1.282
 7227SOL     OW22579   3.001   1.099   1.938
 7227SOL    HW122580   2.914   1.088   1.987
 7227SOL    HW222581   3.001   1.187   1.890
 7228SOL     OW22582   0.854   1.550   3.318
 7228SOL    HW122583   0.838   1.466   3.266
 7228SOL    HW222584   0.789   1.556   3.394
 7229SOL     OW22585   6.975   6.773   4.570
 7229SOL    HW122586   0.028   6.834   4.583
 7229SOL    HW222587   6.969   6.746   4.474
 7230SOL     OW22588   2.482   5.277   3.471
 7230SOL    HW122589   2.514   5.279   3.566
 7230SOL    HW222590   2.535   5.342   3.417
 7231SOL     OW22591   4.046   0.251   0.990
 7231SOL    HW122592   4.012   0.175   0.934
 7231SOL    HW222593   3.990   0.332   0.974
 7232SOL     OW22594   4.930   6.608   2.239
 7232SOL    HW122595   4.907   6.703   2.259
 7232SOL    HW222596   4.862   6.569   2.177
 7233SOL     OW22597   0.675   1.299   5.318
 7233SOL    HW122598   0.765   1.259   5.337
 7233SOL    HW222599   0.623   1.237   5.259
 7234SOL     OW22600   5.050   3.154   2.693
 7234SOL    HW122601   5.099   3.068   2.683
 7234SOL    HW222602   5.049   3.203   2.606
 7235SOL     OW22603   6.504   5.175   1.447
 7235SOL    HW122604   6.542   5.150   1.358
 7235SOL    HW222605   6.404   5.178   1.441
 7236SOL     OW22606   1.746   2.425   2.743
 7236SOL    HW122607   1.682   2.502   2.747
 7236SOL    HW222608   1.703   2.344   2.783
 7237SOL     OW22609   4.584   6.857   6.587
 7237SOL    HW122610   4.604   6.954   6.575
 7237SOL    HW222611   4.541   6.843   6.676
 7238SOL     OW22612   4.298   2.729   6.517
 7238SOL    HW122613   4.269   2.671   6.441
 7238SOL    HW222614   4.324   2.819   6.483
 7239SOL     OW22615   1.063   3.015   2.520
 7239SOL    HW122616   1.033   3.031   2.614
 7239SOL    HW222617   1.146   3.068   2.502
 7240SOL     OW22618   6.774   1.406   0.259
 7240SOL    HW122619   6.767   1.433   0.163
 7240SOL    HW222620   6.752   1.309   0.268
 7241SOL     OW22621   2.197   6.872   0.544
 7241SOL    HW122622   2.195   6.959   0.494
 7241SOL    HW222623   2.230   6.800   0.484
 7242SOL     OW22624   0.197   5.702   5.235
 7242SOL    HW122625   0.111   5.746   5.262
 7242SOL    HW222626   0.217   5.723   5.140
 7243SOL     OW22627   6.893   4.263   6.332
 7243SOL    HW122628   6.918   4.203   6.408
 7243SOL    HW222629   6.804   4.305   6.351
 7244SOL     OW22630   0.508   0.600   1.126
 7244SOL    HW122631   0.512   0.579   1.223
 7244SOL    HW222632   0.428   0.555   1.085
 7245SOL     OW22633   1.407   2.560   5.895
 7245SOL    HW122634   1.501   2.544   5.927
 7245SOL    HW222635   1.345   2.499   5.943
 7246SOL     OW22636   1.837   0.790   3.954
 7246SOL    HW122637   1.804   0.753   4.041
 7246SOL    HW222638   1.855   0.715   3.890
 7247SOL     OW22639   3.160   1.965   5.518
 7247SOL    HW122640   3.177   1.869   5.541
 7247SOL    HW222641   3.065   1.988   5.539
 7248SOL     OW22642   3.423   0.374   3.682
 7248SOL    HW122643   3.477   0.454   3.655
 7248SOL    HW222644   3.328   0.401   3.695
 7249SOL     OW22645   4.442   5.061   1.917
 7249SOL    HW122646   4.402   5.111   1.840
 7249SOL    HW222647   4.387   4.979   1.935
 7250SOL     OW22648   5.107   5.213   5.444
 7250SOL    HW122649   5.184   5.227   5.382
 7250SOL    HW222650   5.042   5.288   5.433
 7251SOL     OW22651   0.977   0.598   5.431
 7251SOL    HW122652   1.040   0.585   5.355
 7251SOL    HW222653   0.899   0.654   5.402
 7252SOL     OW22654   3.018   3.642   1.847
 7252SOL    HW122655   3.092   3.676   1.789
 7252SOL    HW222656   2.977   3.561   1.804
 7253SOL     OW22657   1.741   6.236   6.661
 7253SOL    HW122658   1.778   6.148   6.631
 7253SOL    HW222659   1.675   6.269   6.595
 7254SOL     OW22660   5.840   5.215   4.735
 7254SOL    HW122661   5.824   5.179   4.642
 7254SOL    HW222662   5.767   5.278   4.759
 7255SOL     OW22663   4.460   3.896   6.968
 7255SOL    HW122664   4.537   3.923   0.000
 7255SOL    HW222665   4.425   3.977   6.921
 7256SOL     OW22666   4.014   6.498   5.580
 7256SOL    HW122667   3.934   6.498   5.640
 7256SOL    HW222668   4.082   6.433   5.615
 7257SOL     OW22669   0.705   2.040   4.049
 7257SOL    HW122670   0.651   1.977   3.993
 7257SOL    HW222671   0.740   1.993   4.130
 7258SOL     OW22672   5.653   1.930   2.815
 7258SOL    HW122673   5.695   1.902   2.729
 7258SOL    HW222674   5.682   2.023   2.839
 7259SOL     OW22675   1.108   3.323   2.372
 7259SOL    HW122676   1.128   3.301   2.468
 7259SOL    HW222677   1.056   3.249   2.331
 7260SOL     OW22678   5.318   1.691   1.520
 7260SOL    HW122679   5.381   1.690   1.598
 7260SOL    HW222680   5.366   1.723   1.439
 7261SOL     OW22681   0.755   4.493   1.148
 7261SOL    HW122682   0.751   4.396   1.172
 7261SOL    HW222683   0.774   4.502   1.051
 7262SOL     OW22684   5.444   1.403   6.866
 7262SOL    HW122685   5.490   1.335   6.809
 7262SOL    HW222686   5.424   1.484   6.812
 7263SOL     OW22687   0.653   5.966   6.852
 7263SOL    HW122688   0.567   5.959   6.802
 7263SOL    HW222689   0.690   6.059   6.844
 7264SOL     OW22690   5.423   0.739   1.063
 7264SOL    HW122691   5.514   0.777   1.046
 7264SOL    HW222692   5.354   0.801   1.026
 7265SOL     OW22693   5.711   4.946   5.296
 7265SOL    HW122694   5.802   4.924   5.333
 7265SOL    HW222695   5.699   5.046   5.295
 7266SOL     OW22696   6.737   1.068   3.399
 7266SOL    HW122697   6.834   1.082   3.382
 7266SOL    HW222698   6.683   1.117   3.330
 7267SOL     OW22699   6.437   6.644   4.392
 7267SOL    HW122700   6.434   6.694   4.306
 7267SOL    HW222701   6.391   6.697   4.464
 7268SOL     OW22702   6.967   6.177   4.076
 7268SOL    HW122703   7.015   6.181   4.164
 7268SOL    HW222704   7.017   6.118   4.013
 7269SOL     OW22705   1.896   6.120   5.934
 7269SOL    HW122706   1.894   6.196   5.998
 7269SOL    HW222707   1.980   6.125   5.880
 7270SOL     OW22708   0.231   2.526   4.673
 7270SOL    HW122709   0.268   2.591   4.740
 7270SOL    HW222710   0.204   2.576   4.590
 7271SOL     OW22711   0.926   4.799   4.228
 7271SOL    HW122712   0.860   4.874   4.235
 7271SOL    HW222713   0.944   4.779   4.131
 7272SOL     OW22714   6.242   5.839   2.112
 7272SOL    HW122715   6.199   5.863   2.199
 7272SOL    HW222716   6.270   5.923   2.064
 7273SOL     OW22717   5.821   3.740   0.586
 7273SOL    HW122718   5.795   3.672   0.517
 7273SOL    HW222719   5.747   3.752   0.652
 7274SOL     OW22720   0.281   4.819   6.688
 7274SOL    HW122721   0.201   4.768   6.719
 7274SOL    HW222722   0.364   4.768   6.710
 7275SOL     OW22723   0.416   6.324   2.543
 7275SOL    HW122724   0.397   6.303   2.447
 7275SOL    HW222725   0.340   6.377   2.581
 7276SOL     OW22726   5.541   0.960   3.238
 7276SOL    HW122727   5.530   0.881   3.178
 7276SOL    HW222728   5.453   1.006   3.249
 7277SOL     OW22729   5.181   0.481   4.345
 7277SOL    HW122730   5.273   0.457   4.314
 7277SOL    HW222731   5.121   0.493   4.267
 7278SOL     OW22732   3.687   2.921   1.369
 7278SOL    HW122733   3.776   2.890   1.403
 7278SOL    HW222734   3.666   2.876   1.283
 7279SOL     OW22735   4.670   5.108   6.195
 7279SOL    HW122736   4.584   5.104   6.246
 7279SOL    HW222737   4.747   5.107   6.259
 7280SOL     OW22738   0.387   0.860   3.593
 7280SOL    HW122739   0.392   0.894   3.499
 7280SOL    HW222740   0.414   0.933   3.656
 7281SOL     OW22741   3.065   1.831   6.970
 7281SOL    HW122742   3.007   1.908   6.943
 7281SOL    HW222743   3.122   1.858   0.022
 7282SOL     OW22744   6.018   5.119   2.717
 7282SOL    HW122745   5.933   5.084   2.757
 7282SOL    HW222746   6.086   5.046   2.715
 7283SOL     OW22747   3.188   1.272   3.186
 7283SOL    HW122748   3.239   1.306   3.107
 7283SOL    HW222749   3.164   1.176   3.171
 7284SOL     OW22750   0.827   3.294   6.272
 7284SOL    HW122751   0.866   3.336   6.190
 7284SOL    HW222752   0.899   3.281   6.341
 7285SOL     OW22753   5.230   3.571   2.388
 7285SOL    HW122754   5.246   3.485   2.339
 7285SOL    HW222755   5.318   3.611   2.415
 7286SOL     OW22756   2.656   0.976   0.358
 7286SOL    HW122757   2.612   0.954   0.271
 7286SOL    HW222758   2.650   0.898   0.420
 7287SOL     OW22759   6.813   2.376   6.320
 7287SOL    HW122760   6.818   2.463   6.369
 7287SOL    HW222761   6.723   2.368   6.276
 7288SOL     OW22762   2.873   0.789   0.372
 7288SOL    HW122763   2.866   0.841   0.457
 7288SOL    HW222764   2.795   0.726   0.364
 7289SOL     OW22765   5.076   1.727   4.418
 7289SOL    HW122766   5.123   1.651   4.372
 7289SOL    HW222767   4.982   1.732   4.385
 7290SOL     OW22768   3.572   0.324   5.332
 7290SOL    HW122769   3.537   0.240   5.373
 7290SOL    HW222770   3.667   0.338   5.361
 7291SOL     OW22771   1.343   6.719   0.901
 7291SOL    HW122772   1.367   6.718   0.804
 7291SOL    HW222773   1.264   6.779   0.914
 7292SOL     OW22774   2.818   1.594   3.390
 7292SOL    HW122775   2.783   1.564   3.478
 7292SOL    HW222776   2.872   1.520   3.349
 7293SOL     OW22777   1.639   2.109   5.540
 7293SOL    HW122778   1.658   2.047   5.615
 7293SOL    HW222779   1.660   2.064   5.453
 7294SOL     OW22780   2.135   5.039   6.958
 7294SOL    HW122781   2.196   5.047   0.011
 7294SOL    HW222782   2.091   5.127   6.941
 7295SOL     OW22783   1.053   1.955   0.615
 7295SOL    HW122784   1.012   1.884   0.559
 7295SOL    HW222785   0.982   2.018   0.646
 7296SOL     OW22786   2.576   4.996   1.213
 7296SOL    HW122787   2.610   5.068   1.273
 7296SOL    HW222788   2.558   4.913   1.266
 7297SOL     OW22789   3.485   6.119   0.749
 7297SOL    HW122790   3.576   6.079   0.745
 7297SOL    HW222791   3.490   6.209   0.792
 7298SOL     OW22792   4.745   4.012   5.810
 7298SOL    HW122793   4.710   4.077   5.743
 7298SOL    HW222794   4.706   3.922   5.793
 7299SOL     OW22795   0.652   1.741   0.183
 7299SOL    HW122796   0.599   1.749   0.099
 7299SOL    HW222797   0.665   1.644   0.205
 7300SOL     OW22798   6.475   6.078   2.286
 7300SOL    HW122799   6.382   6.050   2.265
 7300SOL    HW222800   6.493   6.065   2.384
 7301SOL     OW22801   6.193   1.211   4.860
 7301SOL    HW122802   6.192   1.277   4.785
 7301SOL    HW222803   6.255   1.243   4.932
 7302SOL     OW22804   0.772   2.277   5.952
 7302SOL    HW122805   0.802   2.262   6.046
 7302SOL    HW222806   0.833   2.228   5.890
 7303SOL     OW22807   4.991   0.540   6.955
 7303SOL    HW122808   5.019   0.445   6.966
 7303SOL    HW222809   4.903   0.543   6.908
 7304SOL     OW22810   4.002   4.938   0.162
 7304SOL    HW122811   4.078   4.994   0.196
 7304SOL    HW222812   3.925   4.945   0.225
 7305SOL     OW22813   4.620   1.078   0.114
 7305SOL    HW122814   4.702   1.124   0.080
 7305SOL    HW222815   4.611   1.095   0.212
 7306SOL     OW22816   5.212   2.493   1.541
 7306SOL    HW122817   5.126   2.480   1.590
 7306SOL    HW222818   5.285   2.510   1.606
 7307SOL     OW22819   2.010   0.025   2.701
 7307SOL    HW122820   2.050   0.115   2.692
 7307SOL    HW222821   2.082   6.981   2.698
 7308SOL     OW22822   6.488   4.159   5.677
 7308SOL    HW122823   6.495   4.257   5.660
 7308SOL    HW222824   6.392   4.131   5.672
 7309SOL     OW22825   4.492   5.706   1.081
 7309SOL    HW122826   4.463   5.612   1.098
 7309SOL    HW222827   4.521   5.749   1.166
 7310SOL     OW22828   2.370   3.757   1.409
 7310SOL    HW122829   2.290   3.816   1.422
 7310SOL    HW222830   2.410   3.737   1.498
 7311SOL     OW22831   3.603   2.002   1.901
 7311SOL    HW122832   3.622   2.099   1.887
 7311SOL    HW222833   3.641   1.973   1.989
 7312SOL     OW22834   0.443   3.759   6.001
 7312SOL    HW122835   0.504   3.726   5.930
 7312SOL    HW222836   0.491   3.759   6.089
 7313SOL     OW22837   3.241   1.808   6.367
 7313SOL    HW122838   3.251   1.857   6.454
 7313SOL    HW222839   3.326   1.815   6.316
 7314SOL     OW22840   6.885   4.492   5.611
 7314SOL    HW122841   6.867   4.574   5.665
 7314SOL    HW222842   6.982   4.469   5.616
 7315SOL     OW22843   6.665   0.423   3.108
 7315SOL    HW122844   6.669   0.505   3.052
 7315SOL    HW222845   6.702   0.442   3.199
 7316SOL     OW22846   3.348   4.371   6.207
 7316SOL    HW122847   3.432   4.320   6.183
 7316SOL    HW222848   3.330   4.440   6.137
 7317SOL     OW22849   4.260   1.126   2.544
 7317SOL    HW122850   4.320   1.106   2.621
 7317SOL    HW222851   4.265   1.223   2.522
 7318SOL     OW22852   1.383   0.808   1.089
 7318SOL    HW122853   1.333   0.775   1.169
 7318SOL    HW222854   1.481   0.814   1.111
 7319SOL     OW22855   6.656   4.346   6.461
 7319SOL    HW122856   6.570   4.340   6.410
 7319SOL    HW222857   6.650   4.287   6.542
 7320SOL     OW22858   6.622   3.771   1.891
 7320SOL    HW122859   6.697   3.795   1.953
 7320SOL    HW222860   6.658   3.763   1.798
 7321SOL     OW22861   2.436   6.807   5.271
 7321SOL    HW122862   2.460   6.748   5.194
 7321SOL    HW222863   2.357   6.863   5.247
 7322SOL     OW22864   6.037   2.286   3.633
 7322SOL    HW122865   5.964   2.351   3.613
 7322SOL    HW222866   6.059   2.235   3.550
 7323SOL     OW22867   2.268   1.697   1.867
 7323SOL    HW122868   2.225   1.607   1.859
 7323SOL    HW222869   2.273   1.722   1.963
 7324SOL     OW22870   5.232   6.097   2.125
 7324SOL    HW122871   5.205   6.133   2.215
 7324SOL    HW222872   5.193   6.154   2.053
 7325SOL     OW22873   3.547   6.395   0.680
 7325SOL    HW122874   3.540   6.342   0.596
 7325SOL    HW222875   3.522   6.490   0.662
 7326SOL     OW22876   3.140   6.555   5.570
 7326SOL    HW122877   3.163   6.606   5.652
 7326SOL    HW222878   3.219   6.552   5.509
 7327SOL     OW22879   5.942   2.617   6.142
 7327SOL    HW122880   5.973   2.676   6.217
 7327SOL    HW222881   5.981   2.649   6.056
 7328SOL     OW22882   3.586   0.318   6.149
 7328SOL    HW122883   3.522   0.297   6.075
 7328SOL    HW222884   3.643   0.395   6.121
 7329SOL     OW22885   5.642   4.398   1.281
 7329SOL    HW122886   5.692   4.434   1.361
 7329SOL    HW222887   5.646   4.298   1.282
 7330SOL     OW22888   2.654   2.160   6.974
 7330SOL    HW122889   2.622   2.073   6.938
 7330SOL    HW222890   2.632   2.233   6.909
 7331SOL     OW22891   5.930   0.014   2.005
 7331SOL    HW122892   5.943   0.102   2.053
 7331SOL    HW222893   5.939   0.028   1.907
 7332SOL     OW22894   2.052   5.860   0.469
 7332SOL    HW122895   2.077   5.786   0.531
 7332SOL    HW222896   1.998   5.928   0.518
 7333SOL     OW22897   0.319   3.151   2.781
 7333SOL    HW122898   0.266   3.093   2.842
 7333SOL    HW222899   0.304   3.123   2.686
 7334SOL     OW22900   3.053   6.138   6.845
 7334SOL    HW122901   3.148   6.133   6.876
 7334SOL    HW222902   3.041   6.077   6.767
 7335SOL     OW22903   1.579   2.707   2.745
 7335SOL    HW122904   1.674   2.733   2.760
 7335SOL    HW222905   1.526   2.787   2.720
 7336SOL     OW22906   1.433   6.457   3.476
 7336SOL    HW122907   1.362   6.527   3.486
 7336SOL    HW222908   1.417   6.385   3.543
 7337SOL     OW22909   0.313   3.582   1.700
 7337SOL    HW122910   0.318   3.495   1.651
 7337SOL    HW222911   0.223   3.592   1.742
 7338SOL     OW22912   6.765   2.444   1.127
 7338SOL    HW122913   6.765   2.382   1.205
 7338SOL    HW222914   6.847   2.500   1.127
 7339SOL     OW22915   5.083   5.979   3.701
 7339SOL    HW122916   5.055   6.070   3.731
 7339SOL    HW222917   5.182   5.970   3.710
 7340SOL     OW22918   2.351   0.823   1.159
 7340SOL    HW122919   2.445   0.856   1.169
 7340SOL    HW222920   2.340   0.738   1.211
 7341SOL     OW22921   6.335   3.125   6.936
 7341SOL    HW122922   6.351   3.162   0.002
 7341SOL    HW222923   6.276   3.044   6.942
 7342SOL     OW22924   0.013   1.113   1.885
 7342SOL    HW122925   0.084   1.076   1.825
 7342SOL    HW222926   0.009   1.212   1.876
 7343SOL     OW22927   5.419   3.331   0.102
 7343SOL    HW122928   5.343   3.267   0.089
 7343SOL    HW222929   5.425   3.391   0.023
 7344SOL     OW22930   0.552   0.827   6.720
 7344SOL    HW122931   0.583   0.816   6.626
 7344SOL    HW222932   0.453   0.845   6.720
 7345SOL     OW22933   4.424   3.588   5.636
 7345SOL    HW122934   4.368   3.543   5.566
 7345SOL    HW222935   4.447   3.680   5.605
 7346SOL     OW22936   3.957   6.060   2.398
 7346SOL    HW122937   4.003   6.142   2.430
 7346SOL    HW222938   3.867   6.085   2.361
 7347SOL     OW22939   1.040   1.771   1.222
 7347SOL    HW122940   1.019   1.705   1.148
 7347SOL    HW222941   1.036   1.864   1.185
 7348SOL     OW22942   1.457   4.351   3.416
 7348SOL    HW122943   1.470   4.450   3.415
 7348SOL    HW222944   1.533   4.307   3.462
 7349SOL     OW22945   4.217   0.387   2.184
 7349SOL    HW122946   4.229   0.371   2.086
 7349SOL    HW222947   4.150   0.323   2.221
 7350SOL     OW22948   2.850   2.312   5.514
 7350SOL    HW122949   2.753   2.287   5.508
 7350SOL    HW222950   2.870   2.346   5.606
 7351SOL     OW22951   6.003   5.749   3.789
 7351SOL    HW122952   5.917   5.738   3.738
 7351SOL    HW222953   6.003   5.688   3.868
 7352SOL     OW22954   1.053   1.654   2.411
 7352SOL    HW122955   1.086   1.561   2.428
 7352SOL    HW222956   0.961   1.664   2.451
 7353SOL     OW22957   6.842   0.225   6.710
 7353SOL    HW122958   6.900   0.239   6.791
 7353SOL    HW222959   6.813   0.129   6.706
 7354SOL     OW22960   1.308   2.055   5.646
 7354SOL    HW122961   1.366   2.126   5.604
 7354SOL    HW222962   1.336   1.965   5.612
 7355SOL     OW22963   1.111   1.167   0.200
 7355SOL    HW122964   1.204   1.202   0.203
 7355SOL    HW222965   1.108   1.076   0.241
 7356SOL     OW22966   3.539   3.579   6.428
 7356SOL    HW122967   3.472   3.509   6.403
 7356SOL    HW222968   3.498   3.644   6.492
 7357SOL     OW22969   2.990   5.845   2.098
 7357SOL    HW122970   2.902   5.811   2.065
 7357SOL    HW222971   3.064   5.792   2.057
 7358SOL     OW22972   5.985   3.401   2.115
 7358SOL    HW122973   5.956   3.424   2.022
 7358SOL    HW222974   5.988   3.484   2.170
 7359SOL     OW22975   4.465   2.255   5.372
 7359SOL    HW122976   4.469   2.261   5.471
 7359SOL    HW222977   4.421   2.169   5.346
 7360SOL     OW22978   2.464   3.088   5.608
 7360SOL    HW122979   2.490   3.181   5.583
 7360SOL    HW222980   2.411   3.047   5.534
 7361SOL     OW22981   6.042   0.755   2.521
 7361SOL    HW122982   6.083   0.840   2.486
 7361SOL    HW222983   6.105   0.679   2.504
 7362SOL     OW22984   2.062   5.978   6.297
 7362SOL    HW122985   2.062   5.894   6.352
 7362SOL    HW222986   2.116   5.963   6.214
 7363SOL     OW22987   4.700   1.466   1.723
 7363SOL    HW122988   4.605   1.491   1.701
 7363SOL    HW222989   4.709   1.367   1.723
 7364SOL     OW22990   3.921   0.532   2.266
 7364SOL    HW122991   4.001   0.496   2.314
 7364SOL    HW222992   3.932   0.631   2.254
 7365SOL     OW22993   0.625   5.988   1.848
 7365SOL    HW122994   0.622   5.892   1.822
 7365SOL    HW222995   0.721   6.017   1.857
 7366SOL     OW22996   2.266   6.731   5.463
 7366SOL    HW122997   2.318   6.762   5.384
 7366SOL    HW222998   2.194   6.667   5.433
 7367SOL     OW22999   4.145   2.527   0.211
 7367SOL    HW123000   4.231   2.578   0.204
 7367SOL    HW223001   4.073   2.588   0.242
 7368SOL     OW23002   3.670   2.920   2.315
 7368SOL    HW123003   3.588   2.935   2.371
 7368SOL    HW223004   3.749   2.963   2.359
 7369SOL     OW23005   3.284   2.445   1.032
 7369SOL    HW123006   3.331   2.390   1.101
 7369SOL    HW223007   3.215   2.388   0.986
 7370SOL     OW23008   2.580   1.730   6.325
 7370SOL    HW123009   2.608   1.655   6.385
 7370SOL    HW223010   2.625   1.815   6.355
 7371SOL     OW23011   3.278   6.338   3.594
 7371SOL    HW123012   3.178   6.331   3.590
 7371SOL    HW223013   3.319   6.256   3.554
 7372SOL     OW23014   4.437   6.849   4.704
 7372SOL    HW123015   4.511   6.900   4.661
 7372SOL    HW223016   4.445   6.857   4.804
 7373SOL     OW23017   6.124   2.239   5.060
 7373SOL    HW123018   6.129   2.148   5.018
 7373SOL    HW223019   6.209   2.289   5.040
 7374SOL     OW23020   2.385   2.085   4.437
 7374SOL    HW123021   2.303   2.115   4.486
 7374SOL    HW223022   2.453   2.052   4.502
 7375SOL     OW23023   2.586   2.392   2.053
 7375SOL    HW123024   2.638   2.309   2.073
 7375SOL    HW223025   2.520   2.409   2.127
 7376SOL     OW23026   1.301   2.329   1.504
 7376SOL    HW123027   1.217   2.380   1.521
 7376SOL    HW223028   1.286   2.265   1.428
 7377SOL     OW23029   4.865   4.886   0.373
 7377SOL    HW123030   4.940   4.929   0.323
 7377SOL    HW223031   4.884   4.890   0.471
 7378SOL     OW23032   1.493   0.532   4.555
 7378SOL    HW123033   1.474   0.605   4.621
 7378SOL    HW223034   1.407   0.505   4.511
 7379SOL     OW23035   2.990   0.811   2.235
 7379SOL    HW123036   2.904   0.830   2.188
 7379SOL    HW223037   2.992   0.861   2.322
 7380SOL     OW23038   6.907   4.316   3.951
 7380SOL    HW123039   6.960   4.264   4.018
 7380SOL    HW223040   6.816   4.337   3.988
 7381SOL     OW23041   4.132   3.232   0.682
 7381SOL    HW123042   4.121   3.256   0.779
 7381SOL    HW223043   4.075   3.152   0.661
 7382SOL     OW23044   6.456   1.439   5.782
 7382SOL    HW123045   6.398   1.511   5.745
 7382SOL    HW223046   6.411   1.351   5.770
 7383SOL     OW23047   2.648   5.841   1.245
 7383SOL    HW123048   2.657   5.834   1.146
 7383SOL    HW223049   2.555   5.871   1.268
 7384SOL     OW23050   6.468   6.900   2.122
 7384SOL    HW123051   6.413   6.860   2.195
 7384SOL    HW223052   6.555   6.932   2.160
 7385SOL     OW23053   2.553   5.615   2.239
 7385SOL    HW123054   2.560   5.666   2.325
 7385SOL    HW223055   2.467   5.563   2.237
 7386SOL     OW23056   6.960   3.072   6.469
 7386SOL    HW123057   6.871   3.029   6.487
 7386SOL    HW223058   6.945   3.164   6.434
 7387SOL     OW23059   6.771   5.201   4.876
 7387SOL    HW123060   6.786   5.125   4.939
 7387SOL    HW223061   6.688   5.185   4.822
 7388SOL     OW23062   1.146   4.997   2.156
 7388SOL    HW123063   1.129   4.899   2.164
 7388SOL    HW223064   1.198   5.015   2.073
 7389SOL     OW23065   6.750   3.343   6.740
 7389SOL    HW123066   6.683   3.377   6.674
 7389SOL    HW223067   6.842   3.372   6.713
 7390SOL     OW23068   2.555   2.094   2.366
 7390SOL    HW123069   2.600   2.112   2.279
 7390SOL    HW223070   2.620   2.054   2.430
 7391SOL     OW23071   3.837   3.023   2.976
 7391SOL    HW123072   3.815   3.118   2.957
 7391SOL    HW223073   3.770   2.963   2.932
 7392SOL     OW23074   3.480   5.711   6.595
 7392SOL    HW123075   3.406   5.772   6.623
 7392SOL    HW223076   3.445   5.618   6.586
 7393SOL     OW23077   6.572   4.812   3.277
 7393SOL    HW123078   6.630   4.808   3.358
 7393SOL    HW223079   6.536   4.721   3.258
 7394SOL     OW23080   1.527   3.058   6.121
 7394SOL    HW123081   1.492   3.009   6.041
 7394SOL    HW223082   1.451   3.103   6.168
 7395SOL     OW23083   2.170   3.252   1.106
 7395SOL    HW123084   2.187   3.275   1.202
 7395SOL    HW223085   2.129   3.331   1.060
 7396SOL     OW23086   1.759   6.702   1.098
 7396SOL    HW123087   1.849   6.661   1.113
 7396SOL    HW223088   1.765   6.801   1.109
 7397SOL     OW23089   5.902   4.716   4.229
 7397SOL    HW123090   5.987   4.745   4.271
 7397SOL    HW223091   5.907   4.618   4.209
 7398SOL     OW23092   0.935   5.914   2.776
 7398SOL    HW123093   0.838   5.931   2.794
 7398SOL    HW223094   0.951   5.816   2.768
 7399SOL     OW23095   6.967   2.979   4.717
 7399SOL    HW123096   6.879   2.950   4.754
 7399SOL    HW223097   6.977   3.078   4.728
 7400SOL     OW23098   4.461   2.605   5.648
 7400SOL    HW123099   4.499   2.695   5.672
 7400SOL    HW223100   4.361   2.608   5.655
 7401SOL     OW23101   1.178   2.947   2.972
 7401SOL    HW123102   1.098   3.002   2.948
 7401SOL    HW223103   1.256   3.006   2.990
 7402SOL     OW23104   3.262   4.537   6.004
 7402SOL    HW123105   3.331   4.607   6.025
 7402SOL    HW223106   3.179   4.582   5.971
 7403SOL     OW23107   1.445   3.066   2.953
 7403SOL    HW123108   1.434   3.164   2.972
 7403SOL    HW223109   1.471   3.019   3.037
 7404SOL     OW23110   2.755   4.433   1.626
 7404SOL    HW123111   2.819   4.481   1.687
 7404SOL    HW223112   2.765   4.334   1.639
 7405SOL     OW23113   3.120   5.321   4.330
 7405SOL    HW123114   3.041   5.321   4.269
 7405SOL    HW223115   3.204   5.329   4.275
 7406SOL     OW23116   0.920   1.191   5.020
 7406SOL    HW123117   0.976   1.214   5.100
 7406SOL    HW223118   0.877   1.274   4.985
 7407SOL     OW23119   1.300   6.235   5.276
 7407SOL    HW123120   1.330   6.263   5.368
 7407SOL    HW223121   1.345   6.149   5.252
 7408SOL     OW23122   3.804   4.162   5.451
 7408SOL    HW123123   3.833   4.091   5.515
 7408SOL    HW223124   3.882   4.220   5.428
 7409SOL     OW23125   5.100   4.354   0.823
 7409SOL    HW123126   5.048   4.367   0.738
 7409SOL    HW223127   5.039   4.320   0.894
 7410SOL     OW23128   0.711   0.836   0.791
 7410SOL    HW123129   0.642   0.909   0.788
 7410SOL    HW223130   0.700   0.784   0.875
 7411SOL     OW23131   1.691   0.425   6.861
 7411SOL    HW123132   1.786   0.457   6.854
 7411SOL    HW223133   1.658   0.437   6.954
 7412SOL     OW23134   3.676   6.580   1.211
 7412SOL    HW123135   3.631   6.584   1.301
 7412SOL    HW223136   3.667   6.668   1.165
 7413SOL     OW23137   5.002   4.812   3.966
 7413SOL    HW123138   4.935   4.747   4.002
 7413SOL    HW223139   5.081   4.762   3.929
 7414SOL     OW23140   2.085   1.538   3.128
 7414SOL    HW123141   2.028   1.457   3.117
 7414SOL    HW223142   2.176   1.511   3.158
 7415SOL     OW23143   2.096   5.056   5.179
 7415SOL    HW123144   2.039   4.980   5.148
 7415SOL    HW223145   2.052   5.143   5.156
 7416SOL     OW23146   2.149   0.705   2.488
 7416SOL    HW123147   2.105   0.700   2.399
 7416SOL    HW223148   2.219   0.633   2.495
 7417SOL     OW23149   1.733   1.960   1.969
 7417SOL    HW123150   1.745   1.997   2.061
 7417SOL    HW223151   1.772   2.022   1.902
 7418SOL     OW23152   1.806   5.032   6.563
 7418SOL    HW123153   1.846   5.064   6.477
 7418SOL    HW223154   1.879   5.021   6.631
 7419SOL     OW23155   6.326   3.862   3.864
 7419SOL    HW123156   6.326   3.923   3.785
 7419SOL    HW223157   6.249   3.885   3.924
 7420SOL     OW23158   0.378   6.608   1.297
 7420SOL    HW123159   0.308   6.619   1.368
 7420SOL    HW223160   0.468   6.611   1.339
 7421SOL     OW23161   4.011   3.480   1.347
 7421SOL    HW123162   3.946   3.520   1.411
 7421SOL    HW223163   3.962   3.425   1.279
 7422SOL     OW23164   6.681   4.011   2.186
 7422SOL    HW123165   6.709   3.940   2.120
 7422SOL    HW223166   6.697   4.101   2.146
 7423SOL     OW23167   6.203   3.190   5.755
 7423SOL    HW123168   6.177   3.109   5.808
 7423SOL    HW223169   6.121   3.244   5.735
 7424SOL     OW23170   6.892   1.429   5.474
 7424SOL    HW123171   6.946   1.345   5.478
 7424SOL    HW223172   6.929   1.488   5.403
 7425SOL     OW23173   5.228   0.089   0.523
 7425SOL    HW123174   5.316   0.120   0.488
 7425SOL    HW223175   5.200   0.148   0.599
 7426SOL     OW23176   3.330   1.873   5.202
 7426SOL    HW123177   3.309   1.969   5.220
 7426SOL    HW223178   3.245   1.823   5.184
 7427SOL     OW23179   4.620   1.172   4.090
 7427SOL    HW123180   4.710   1.214   4.078
 7427SOL    HW223181   4.550   1.235   4.058
 7428SOL     OW23182   4.033   0.266   5.262
 7428SOL    HW123183   4.128   0.289   5.244
 7428SOL    HW223184   3.980   0.273   5.178
 7429SOL     OW23185   1.029   6.363   3.655
 7429SOL    HW123186   1.090   6.322   3.586
 7429SOL    HW223187   1.002   6.454   3.625
 7430SOL     OW23188   6.848   3.689   1.077
 7430SOL    HW123189   6.793   3.631   1.137
 7430SOL    HW223190   6.842   3.654   0.983
 7431SOL     OW23191   1.038   2.187   3.428
 7431SOL    HW123192   1.054   2.243   3.347
 7431SOL    HW223193   1.125   2.155   3.465
 7432SOL     OW23194   2.023   0.693   3.276
 7432SOL    HW123195   1.964   0.677   3.355
 7432SOL    HW223196   2.118   0.699   3.305
 7433SOL     OW23197   4.307   6.140   6.964
 7433SOL    HW123198   4.304   6.203   0.016
 7433SOL    HW223199   4.231   6.160   6.902
 7434SOL     OW23200   5.482   5.476   5.681
 7434SOL    HW123201   5.453   5.571   5.672
 7434SOL    HW223202   5.576   5.466   5.647
 7435SOL     OW23203   4.391   6.275   1.739
 7435SOL    HW123204   4.412   6.370   1.716
 7435SOL    HW223205   4.473   6.231   1.775
 7436SOL     OW23206   4.918   4.618   6.278
 7436SOL    HW123207   4.827   4.579   6.268
 7436SOL    HW223208   4.924   4.703   6.226
 7437SOL     OW23209   3.012   5.622   0.718
 7437SOL    HW123210   3.098   5.602   0.764
 7437SOL    HW223211   2.947   5.547   0.732
 7438SOL     OW23212   1.880   6.902   0.083
 7438SOL    HW123213   1.866   6.995   0.117
 7438SOL    HW223214   1.843   6.894   7.017
 7439SOL     OW23215   1.649   6.235   5.276
 7439SOL    HW123216   1.613   6.223   5.369
 7439SOL    HW223217   1.591   6.300   5.227
 7440SOL     OW23218   5.993   3.105   3.941
 7440SOL    HW123219   6.030   3.045   4.012
 7440SOL    HW223220   6.039   3.087   3.855
 7441SOL     OW23221   5.548   0.027   3.696
 7441SOL    HW123222   5.648   0.036   3.690
 7441SOL    HW223223   5.524   7.002   3.779
 7442SOL     OW23224   5.623   1.173   0.065
 7442SOL    HW123225   5.640   1.244   7.023
 7442SOL    HW223226   5.704   1.115   0.074
 7443SOL     OW23227   6.757   5.532   2.003
 7443SOL    HW123228   6.668   5.544   2.046
 7443SOL    HW223229   6.830   5.550   2.069
 7444SOL     OW23230   5.931   0.917   6.465
 7444SOL    HW123231   5.839   0.889   6.440
 7444SOL    HW223232   5.998   0.868   6.408
 7445SOL     OW23233   3.270   0.580   1.353
 7445SOL    HW123234   3.221   0.667   1.343
 7445SOL    HW223235   3.344   0.592   1.419
 7446SOL     OW23236   4.880   2.098   0.408
 7446SOL    HW123237   4.902   2.048   0.492
 7446SOL    HW223238   4.965   2.127   0.364
 7447SOL     OW23239   6.848   4.724   6.043
 7447SOL    HW123240   6.862   4.683   5.953
 7447SOL    HW223241   6.763   4.689   6.082
 7448SOL     OW23242   5.525   6.687   5.184
 7448SOL    HW123243   5.612   6.720   5.146
 7448SOL    HW223244   5.542   6.608   5.242
 7449SOL     OW23245   0.991   5.694   0.433
 7449SOL    HW123246   0.963   5.657   0.522
 7449SOL    HW223247   0.940   5.647   0.360
 7450SOL     OW23248   5.007   2.792   5.427
 7450SOL    HW123249   5.103   2.821   5.433
 7450SOL    HW223250   4.981   2.781   5.332
 7451SOL     OW23251   5.941   5.575   2.275
 7451SOL    HW123252   5.975   5.481   2.265
 7451SOL    HW223253   5.851   5.583   2.233
 7452SOL     OW23254   6.569   5.736   4.382
 7452SOL    HW123255   6.504   5.661   4.396
 7452SOL    HW223256   6.637   5.709   4.314
 7453SOL     OW23257   4.451   5.479   5.390
 7453SOL    HW123258   4.492   5.392   5.362
 7453SOL    HW223259   4.424   5.531   5.308
 7454SOL     OW23260   2.738   1.218   0.660
 7454SOL    HW123261   2.661   1.156   0.647
 7454SOL    HW223262   2.739   1.251   0.755
 7455SOL     OW23263   6.558   3.450   2.077
 7455SOL    HW123264   6.570   3.414   2.170
 7455SOL    HW223265   6.505   3.534   2.081
 7456SOL     OW23266   2.602   1.268   4.989
 7456SOL    HW123267   2.525   1.323   4.958
 7456SOL    HW223268   2.642   1.220   4.910
 7457SOL     OW23269   3.151   0.137   4.197
 7457SOL    HW123270   3.161   0.229   4.235
 7457SOL    HW223271   3.168   0.139   4.099
 7458SOL     OW23272   1.582   0.313   6.133
 7458SOL    HW123273   1.500   0.299   6.189
 7458SOL    HW223274   1.620   0.404   6.151
 7459SOL     OW23275   6.398   1.280   2.408
 7459SOL    HW123276   6.328   1.254   2.474
 7459SOL    HW223277   6.448   1.199   2.379
 7460SOL     OW23278   1.451   5.827   6.497
 7460SOL    HW123279   1.468   5.882   6.579
 7460SOL    HW223280   1.492   5.737   6.507
 7461SOL     OW23281   6.111   6.157   5.734
 7461SOL    HW123282   6.040   6.192   5.673
 7461SOL    HW223283   6.201   6.177   5.695
 7462SOL     OW23284   2.438   4.858   1.855
 7462SOL    HW123285   2.421   4.811   1.769
 7462SOL    HW223286   2.374   4.934   1.866
 7463SOL     OW23287   3.709   3.767   0.388
 7463SOL    HW123288   3.804   3.797   0.377
 7463SOL    HW223289   3.705   3.667   0.386
 7464SOL     OW23290   6.313   6.698   5.222
 7464SOL    HW123291   6.332   6.608   5.262
 7464SOL    HW223292   6.345   6.699   5.127
 7465SOL     OW23293   2.472   5.401   0.065
 7465SOL    HW123294   2.424   5.406   7.003
 7465SOL    HW223295   2.496   5.306   0.085
 7466SOL     OW23296   0.495   0.712   6.312
 7466SOL    HW123297   0.471   0.672   6.223
 7466SOL    HW223298   0.532   0.804   6.298
 7467SOL     OW23299   0.561   2.545   5.983
 7467SOL    HW123300   0.628   2.608   6.023
 7467SOL    HW223301   0.476   2.593   5.965
 7468SOL     OW23302   4.822   2.951   4.541
 7468SOL    HW123303   4.791   2.908   4.456
 7468SOL    HW223304   4.827   2.882   4.613
 7469SOL     OW23305   6.641   1.614   0.399
 7469SOL    HW123306   6.705   1.684   0.430
 7469SOL    HW223307   6.692   1.537   0.361
 7470SOL     OW23308   5.239   4.276   3.575
 7470SOL    HW123309   5.295   4.200   3.542
 7470SOL    HW223310   5.295   4.359   3.581
 7471SOL     OW23311   5.176   6.063   6.015
 7471SOL    HW123312   5.174   6.162   6.003
 7471SOL    HW223313   5.131   6.038   6.101
 7472SOL     OW23314   6.146   0.858   5.399
 7472SOL    HW123315   6.155   0.759   5.415
 7472SOL    HW223316   6.133   0.904   5.487
 7473SOL     OW23317   5.725   6.337   3.879
 7473SOL    HW123318   5.751   6.263   3.941
 7473SOL    HW223319   5.628   6.358   3.892
 7474SOL     OW23320   6.360   2.721   6.572
 7474SOL    HW123321   6.316   2.677   6.651
 7474SOL    HW223322   6.319   2.811   6.557
 7475SOL     OW23323   4.435   2.356   2.313
 7475SOL    HW123324   4.413   2.326   2.406
 7475SOL    HW223325   4.386   2.299   2.247
 7476SOL     OW23326   2.337   2.017   2.898
 7476SOL    HW123327   2.360   1.942   2.836
 7476SOL    HW223328   2.242   2.043   2.885
 7477SOL     OW23329   0.116   2.533   5.284
 7477SOL    HW123330   0.046   2.590   5.241
 7477SOL    HW223331   0.073   2.465   5.343
 7478SOL     OW23332   5.917   3.723   5.302
 7478SOL    HW123333   5.954   3.809   5.266
 7478SOL    HW223334   5.993   3.663   5.329
 7479SOL     OW23335   5.299   2.468   0.796
 7479SOL    HW123336   5.221   2.417   0.830
 7479SOL    HW223337   5.341   2.419   0.720
 7480SOL     OW23338   2.028   4.825   2.184
 7480SOL    HW123339   2.038   4.752   2.116
 7480SOL    HW223340   2.038   4.786   2.276
 7481SOL     OW23341   6.439   4.668   0.110
 7481SOL    HW123342   6.531   4.695   0.138
 7481SOL    HW223343   6.373   4.696   0.180
 7482SOL     OW23344   4.340   2.062   2.391
 7482SOL    HW123345   4.405   1.986   2.389
 7482SOL    HW223346   4.325   2.090   2.486
 7483SOL     OW23347   5.065   2.515   4.932
 7483SOL    HW123348   4.978   2.481   4.897
 7483SOL    HW223349   5.084   2.605   4.894
 7484SOL     OW23350   1.765   5.203   4.568
 7484SOL    HW123351   1.865   5.215   4.570
 7484SOL    HW223352   1.740   5.127   4.627
 7485SOL     OW23353   2.548   0.368   3.979
 7485SOL    HW123354   2.570   0.442   4.042
 7485SOL    HW223355   2.575   0.281   4.020
 7486SOL     OW23356   0.635   6.263   0.223
 7486SOL    HW123357   0.714   6.258   0.285
 7486SOL    HW223358   0.623   6.176   0.177
 7487SOL     OW23359   3.704   0.209   3.676
 7487SOL    HW123360   3.758   0.271   3.733
 7487SOL    HW223361   3.692   0.249   3.586
 7488SOL     OW23362   2.251   5.949   4.738
 7488SOL    HW123363   2.324   5.994   4.790
 7488SOL    HW223364   2.252   5.984   4.644
 7489SOL     OW23365   6.321   3.186   0.171
 7489SOL    HW123366   6.250   3.156   0.235
 7489SOL    HW223367   6.404   3.209   0.222
 7490SOL     OW23368   1.951   1.045   2.532
 7490SOL    HW123369   2.044   1.009   2.518
 7490SOL    HW223370   1.921   1.090   2.447
 7491SOL     OW23371   4.830   2.849   7.015
 7491SOL    HW123372   4.848   2.938   0.032
 7491SOL    HW223373   4.914   2.794   7.017
 7492SOL     OW23374   2.125   1.286   4.117
 7492SOL    HW123375   2.190   1.360   4.100
 7492SOL    HW223376   2.032   1.323   4.116
 7493SOL     OW23377   6.852   3.053   5.777
 7493SOL    HW123378   6.915   2.976   5.764
 7493SOL    HW223379   6.831   3.063   5.874
 7494SOL     OW23380   6.049   1.000   4.306
 7494SOL    HW123381   5.960   0.982   4.265
 7494SOL    HW223382   6.090   0.915   4.337
 7495SOL     OW23383   1.272   2.975   4.999
 7495SOL    HW123384   1.178   2.943   4.990
 7495SOL    HW223385   1.326   2.941   4.922
 7496SOL     OW23386   5.252   3.541   4.205
 7496SOL    HW123387   5.207   3.610   4.261
 7496SOL    HW223388   5.269   3.459   4.259
 7497SOL     OW23389   1.622   5.627   1.407
 7497SOL    HW123390   1.705   5.676   1.434
 7497SOL    HW223391   1.642   5.570   1.327
 7498SOL     OW23392   2.437   1.012   4.087
 7498SOL    HW123393   2.503   1.048   4.153
 7498SOL    HW223394   2.431   0.912   4.096
 7499SOL     OW23395   4.559   2.178   3.617
 7499SOL    HW123396   4.489   2.232   3.664
 7499SOL    HW223397   4.637   2.237   3.594
 7500SOL     OW23398   3.369   5.614   2.959
 7500SOL    HW123399   3.407   5.521   2.962
 7500SOL    HW223400   3.442   5.681   2.973
 7501SOL     OW23401   5.452   3.973   3.898
 7501SOL    HW123402   5.488   3.905   3.834
 7501SOL    HW223403   5.408   3.926   3.974
 7502SOL     OW23404   3.355   6.759   4.282
 7502SOL    HW123405   3.422   6.705   4.232
 7502SOL    HW223406   3.276   6.778   4.223
 7503SOL     OW23407   2.203   6.065   0.914
 7503SOL    HW123408   2.164   5.975   0.937
 7503SOL    HW223409   2.131   6.126   0.882
 7504SOL     OW23410   0.589   6.594   2.494
 7504SOL    HW123411   0.534   6.676   2.476
 7504SOL    HW223412   0.529   6.514   2.495
 7505SOL     OW23413   1.510   1.732   6.658
 7505SOL    HW123414   1.572   1.778   6.722
 7505SOL    HW223415   1.564   1.678   6.594
 7506SOL     OW23416   4.341   2.337   3.661
 7506SOL    HW123417   4.408   2.397   3.619
 7506SOL    HW223418   4.309   2.378   3.747
 7507SOL     OW23419   6.108   3.097   3.694
 7507SOL    HW123420   6.206   3.080   3.693
 7507SOL    HW223421   6.060   3.024   3.645
 7508SOL     OW23422   2.109   5.290   0.694
 7508SOL    HW123423   2.181   5.311   0.627
 7508SOL    HW223424   2.109   5.192   0.713
 7509SOL     OW23425   5.769   3.477   0.481
 7509SOL    HW123426   5.774   3.390   0.531
 7509SOL    HW223427   5.720   3.463   0.396
 7510SOL     OW23428   4.032   3.687   4.531
 7510SOL    HW123429   4.072   3.628   4.602
 7510SOL    HW223430   3.941   3.653   4.506
 7511SOL     OW23431   2.969   6.110   3.382
 7511SOL    HW123432   2.985   6.208   3.370
 7511SOL    HW223433   3.042   6.059   3.338
 7512SOL     OW23434   2.720   0.692   6.815
 7512SOL    HW123435   2.703   0.748   6.733
 7512SOL    HW223436   2.700   0.597   6.794
 7513SOL     OW23437   2.373   2.328   2.980
 7513SOL    HW123438   2.277   2.326   3.006
 7513SOL    HW223439   2.382   2.297   2.885
 7514SOL     OW23440   2.013   5.333   3.495
 7514SOL    HW123441   1.921   5.366   3.517
 7514SOL    HW223442   2.064   5.405   3.449
 7515SOL     OW23443   6.872   4.370   5.050
 7515SOL    HW123444   6.897   4.441   4.984
 7515SOL    HW223445   6.805   4.407   5.114
 7516SOL     OW23446   0.693   5.215   6.025
 7516SOL    HW123447   0.680   5.122   5.990
 7516SOL    HW223448   0.684   5.280   5.949
 7517SOL     OW23449   1.551   2.449   0.061
 7517SOL    HW123450   1.600   2.532   0.037
 7517SOL    HW223451   1.511   2.408   7.005
 7518SOL     OW23452   5.237   3.542   3.101
 7518SOL    HW123453   5.198   3.544   3.194
 7518SOL    HW223454   5.168   3.507   3.038
 7519SOL     OW23455   5.899   6.913   4.805
 7519SOL    HW123456   5.802   6.887   4.802
 7519SOL    HW223457   5.955   6.832   4.823
 7520SOL     OW23458   1.531   0.995   2.665
 7520SOL    HW123459   1.509   0.911   2.715
 7520SOL    HW223460   1.616   1.034   2.701
 7521SOL     OW23461   5.528   1.940   4.878
 7521SOL    HW123462   5.491   1.993   4.954
 7521SOL    HW223463   5.548   2.001   4.801
 7522SOL     OW23464   1.518   0.094   5.463
 7522SOL    HW123465   1.425   0.071   5.434
 7522SOL    HW223466   1.550   0.174   5.412
 7523SOL     OW23467   4.930   0.530   6.304
 7523SOL    HW123468   4.906   0.445   6.351
 7523SOL    HW223469   4.846   0.582   6.285
 7524SOL     OW23470   0.205   2.925   5.089
 7524SOL    HW123471   0.222   2.827   5.093
 7524SOL    HW223472   0.290   2.975   5.108
 7525SOL     OW23473   4.041   6.532   6.814
 7525SOL    HW123474   4.020   6.628   6.795
 7525SOL    HW223475   4.139   6.522   6.832
 7526SOL     OW23476   2.644   2.616   1.452
 7526SOL    HW123477   2.623   2.643   1.546
 7526SOL    HW223478   2.733   2.572   1.448
 7527SOL     OW23479   3.514   5.705   3.592
 7527SOL    HW123480   3.480   5.622   3.635
 7527SOL    HW223481   3.494   5.702   3.494
 7528SOL     OW23482   5.576   2.222   6.618
 7528SOL    HW123483   5.637   2.223   6.697
 7528SOL    HW223484   5.482   2.236   6.649
 7529SOL     OW23485   5.036   2.198   4.288
 7529SOL    HW123486   5.135   2.186   4.299
 7529SOL    HW223487   5.009   2.286   4.324
 7530SOL     OW23488   6.012   1.971   1.925
 7530SOL    HW123489   5.993   2.032   2.002
 7530SOL    HW223490   6.066   1.893   1.956
 7531SOL     OW23491   4.783   3.018   2.958
 7531SOL    HW123492   4.752   2.933   2.915
 7531SOL    HW223493   4.798   3.088   2.887
 7532SOL     OW23494   5.167   6.411   6.774
 7532SOL    HW123495   5.233   6.446   6.841
 7532SOL    HW223496   5.093   6.477   6.763
 7533SOL     OW23497   4.444   2.025   1.764
 7533SOL    HW123498   4.443   2.103   1.827
 7533SOL    HW223499   4.472   1.943   1.814
 7534SOL     OW23500   4.638   5.692   3.994
 7534SOL    HW123501   4.640   5.593   3.976
 7534SOL    HW223502   4.586   5.709   4.078
 7535SOL     OW23503   1.719   6.229   4.726
 7535SOL    HW123504   1.704   6.279   4.641
 7535SOL    HW223505   1.804   6.261   4.769
 7536SOL     OW23506   5.381   6.032   4.143
 7536SOL    HW123507   5.393   6.020   4.241
 7536SOL    HW223508   5.456   5.987   4.094
 7537SOL     OW23509   1.922   4.633   1.925
 7537SOL    HW123510   1.878   4.657   1.839
 7537SOL    HW223511   1.865   4.567   1.975
 7538SOL     OW23512   1.511   2.807   1.946
 7538SOL    HW123513   1.480   2.900   1.963
 7538SOL    HW223514   1.606   2.797   1.976
 7539SOL     OW23515   0.873   4.962   3.422
 7539SOL    HW123516   0.820   4.878   3.414
 7539SOL    HW223517   0.921   4.964   3.509
 7540SOL     OW23518   4.308   6.470   4.455
 7540SOL    HW123519   4.331   6.508   4.545
 7540SOL    HW223520   4.231   6.408   4.464
 7541SOL     OW23521   1.006   4.278   6.125
 7541SOL    HW123522   0.958   4.319   6.047
 7541SOL    HW223523   1.087   4.230   6.092
 7542SOL     OW23524   6.660   5.721   6.091
 7542SOL    HW123525   6.703   5.797   6.140
 7542SOL    HW223526   6.584   5.757   6.036
 7543SOL     OW23527   2.633   0.787   4.908
 7543SOL    HW123528   2.599   0.695   4.890
 7543SOL    HW223529   2.635   0.803   5.006
 7544SOL     OW23530   0.192   2.673   4.113
 7544SOL    HW123531   0.273   2.646   4.060
 7544SOL    HW223532   0.206   2.765   4.151
 7545SOL     OW23533   0.282   6.463   6.113
 7545SOL    HW123534   0.189   6.494   6.095
 7545SOL    HW223535   0.280   6.383   6.174
 7546SOL     OW23536   4.742   2.311   1.347
 7546SOL    HW123537   4.803   2.298   1.425
 7546SOL    HW223538   4.746   2.406   1.317
 7547SOL     OW23539   4.591   0.868   0.969
 7547SOL    HW123540   4.619   0.775   0.945
 7547SOL    HW223541   4.602   0.883   1.067
 7548SOL     OW23542   4.410   2.524   6.935
 7548SOL    HW123543   4.421   2.460   6.859
 7548SOL    HW223544   4.471   2.602   6.922
 7549SOL     OW23545   3.775   2.754   0.027
 7549SOL    HW123546   3.755   2.824   0.094
 7549SOL    HW223547   3.874   2.743   0.018
 7550SOL     OW23548   1.877   4.648   3.546
 7550SOL    HW123549   1.909   4.731   3.593
 7550SOL    HW223550   1.809   4.602   3.603
 7551SOL     OW23551   5.330   3.168   5.116
 7551SOL    HW123552   5.265   3.241   5.136
 7551SOL    HW223553   5.407   3.174   5.181
 7552SOL     OW23554   1.318   5.906   4.496
 7552SOL    HW123555   1.408   5.863   4.507
 7552SOL    HW223556   1.328   6.005   4.496
 7553SOL     OW23557   5.481   6.430   5.969
 7553SOL    HW123558   5.518   6.505   6.024
 7553SOL    HW223559   5.528   6.345   5.993
 7554SOL     OW23560   4.754   0.554   0.353
 7554SOL    HW123561   4.688   0.573   0.425
 7554SOL    HW223562   4.805   0.638   0.331
 7555SOL     OW23563   3.670   5.768   6.384
 7555SOL    HW123564   3.741   5.809   6.441
 7555SOL    HW223565   3.596   5.735   6.442
 7556SOL     OW23566   1.869   1.383   0.236
 7556SOL    HW123567   1.928   1.411   0.161
 7556SOL    HW223568   1.925   1.353   0.314
 7557SOL     OW23569   4.841   0.235   0.099
 7557SOL    HW123570   4.898   0.260   0.021
 7557SOL    HW223571   4.896   0.238   0.182
 7558SOL     OW23572   1.905   3.030   3.673
 7558SOL    HW123573   1.994   2.990   3.650
 7558SOL    HW223574   1.898   3.121   3.632
 7559SOL     OW23575   3.960   2.167   5.306
 7559SOL    HW123576   3.975   2.099   5.377
 7559SOL    HW223577   3.977   2.258   5.342
 7560SOL     OW23578   6.529   0.274   6.951
 7560SOL    HW123579   6.507   0.187   6.908
 7560SOL    HW223580   6.589   0.327   6.891
 7561SOL     OW23581   5.812   3.351   5.578
 7561SOL    HW123582   5.859   3.340   5.665
 7561SOL    HW223583   5.802   3.449   5.558
 7562SOL     OW23584   0.443   4.835   4.991
 7562SOL    HW123585   0.528   4.875   5.024
 7562SOL    HW223586   0.453   4.812   4.894
 7563SOL     OW23587   2.587   6.314   2.489
 7563SOL    HW123588   2.539   6.322   2.577
 7563SOL    HW223589   2.678   6.277   2.505
 7564SOL     OW23590   3.950   0.236   5.010
 7564SOL    HW123591   4.025   0.290   4.971
 7564SOL    HW223592   3.864   0.264   4.967
 7565SOL     OW23593   5.524   4.332   5.623
 7565SOL    HW123594   5.561   4.379   5.703
 7565SOL    HW223595   5.567   4.368   5.540
 7566SOL     OW23596   5.681   5.413   2.440
 7566SOL    HW123597   5.758   5.349   2.441
 7566SOL    HW223598   5.707   5.497   2.488
 7567SOL     OW23599   0.956   0.780   4.816
 7567SOL    HW123600   0.905   0.735   4.742
 7567SOL    HW223601   0.923   0.873   4.828
 7568SOL     OW23602   5.399   5.018   1.633
 7568SOL    HW123603   5.320   5.072   1.604
 7568SOL    HW223604   5.477   5.037   1.574
 7569SOL     OW23605   4.448   4.337   6.342
 7569SOL    HW123606   4.391   4.390   6.278
 7569SOL    HW223607   4.436   4.239   6.323
 7570SOL     OW23608   6.537   3.403   4.416
 7570SOL    HW123609   6.487   3.380   4.500
 7570SOL    HW223610   6.557   3.319   4.366
 7571SOL     OW23611   5.386   3.688   2.893
 7571SOL    HW123612   5.356   3.641   2.976
 7571SOL    HW223613   5.400   3.621   2.820
 7572SOL     OW23614   5.005   6.819   3.025
 7572SOL    HW123615   4.915   6.827   3.067
 7572SOL    HW223616   4.995   6.795   2.929
 7573SOL     OW23617   6.273   0.618   5.508
 7573SOL    HW123618   6.280   0.521   5.485
 7573SOL    HW223619   6.359   0.664   5.484
 7574SOL     OW23620   6.144   1.275   4.347
 7574SOL    HW123621   6.113   1.180   4.336
 7574SOL    HW223622   6.111   1.310   4.435
 7575SOL     OW23623   6.037   6.323   0.375
 7575SOL    HW123624   6.095   6.242   0.384
 7575SOL    HW223625   6.088   6.404   0.404
 7576SOL     OW23626   5.130   2.276   0.135
 7576SOL    HW123627   5.166   2.191   0.172
 7576SOL    HW223628   5.030   2.274   0.137
 7577SOL     OW23629   0.061   6.554   0.239
 7577SOL    HW123630   0.155   6.587   0.246
 7577SOL    HW223631   0.003   6.609   0.300
 7578SOL     OW23632   1.477   5.251   2.328
 7578SOL    HW123633   1.528   5.166   2.339
 7578SOL    HW223634   1.379   5.232   2.326
 7579SOL     OW23635   0.001   2.047   1.589
 7579SOL    HW123636   0.066   2.030   1.514
 7579SOL    HW223637   0.035   2.121   1.646
 7580SOL     OW23638   1.193   4.758   3.249
 7580SOL    HW123639   1.148   4.837   3.293
 7580SOL    HW223640   1.136   4.725   3.174
 7581SOL     OW23641   0.362   1.350   1.637
 7581SOL    HW123642   0.353   1.336   1.538
 7581SOL    HW223643   0.396   1.443   1.654
 7582SOL     OW23644   4.498   1.608   3.588
 7582SOL    HW123645   4.492   1.704   3.560
 7582SOL    HW223646   4.562   1.600   3.665
 7583SOL     OW23647   5.482   3.485   2.728
 7583SOL    HW123648   5.564   3.438   2.761
 7583SOL    HW223649   5.445   3.436   2.649
 7584SOL     OW23650   1.285   0.009   2.557
 7584SOL    HW123651   1.208   0.055   2.513
 7584SOL    HW223652   1.266   7.025   2.655
 7585SOL     OW23653   1.111   1.970   6.617
 7585SOL    HW123654   1.114   1.914   6.534
 7585SOL    HW223655   1.061   2.054   6.599
 7586SOL     OW23656   2.097   6.865   3.024
 7586SOL    HW123657   2.029   6.939   3.026
 7586SOL    HW223658   2.176   6.894   2.970
 7587SOL     OW23659   2.497   1.315   0.098
 7587SOL    HW123660   2.454   1.230   0.129
 7587SOL    HW223661   2.426   1.378   0.065
 7588SOL     OW23662   1.396   3.074   4.033
 7588SOL    HW123663   1.483   3.101   3.993
 7588SOL    HW223664   1.410   3.046   4.128
 7589SOL     OW23665   0.073   0.907   3.055
 7589SOL    HW123666   0.058   0.949   2.966
 7589SOL    HW223667   0.028   0.819   3.059
 7590SOL     OW23668   6.215   1.073   6.808
 7590SOL    HW123669   6.128   1.067   6.859
 7590SOL    HW223670   6.288   1.100   6.870
 7591SOL     OW23671   4.948   3.408   6.449
 7591SOL    HW123672   4.960   3.494   6.399
 7591SOL    HW223673   4.958   3.425   6.547
 7592SOL     OW23674   6.393   4.810   4.790
 7592SOL    HW123675   6.482   4.848   4.814
 7592SOL    HW223676   6.339   4.880   4.743
 7593SOL     OW23677   0.067   2.558   6.742
 7593SOL    HW123678   7.017   2.495   6.761
 7593SOL    HW223679   0.106   2.590   6.828
 7594SOL     OW23680   0.928   4.497   1.551
 7594SOL    HW123681   0.842   4.503   1.602
 7594SOL    HW223682   0.921   4.553   1.468
 7595SOL     OW23683   6.359   3.310   6.391
 7595SOL    HW123684   6.265   3.312   6.425
 7595SOL    HW223685   6.379   3.220   6.353
 7596SOL     OW23686   3.109   6.605   4.595
 7596SOL    HW123687   3.209   6.596   4.601
 7596SOL    HW223688   3.086   6.660   4.515
 7597SOL     OW23689   1.713   6.679   3.179
 7597SOL    HW123690   1.645   6.746   3.209
 7597SOL    HW223691   1.772   6.720   3.109
 7598SOL     OW23692   5.896   0.614   2.778
 7598SOL    HW123693   5.883   0.553   2.700
 7598SOL    HW223694   5.994   0.627   2.794
 7599SOL     OW23695   5.505   3.263   0.985
 7599SOL    HW123696   5.602   3.253   0.966
 7599SOL    HW223697   5.452   3.212   0.917
 7600SOL     OW23698   1.300   0.789   3.399
 7600SOL    HW123699   1.274   0.703   3.356
 7600SOL    HW223700   1.226   0.819   3.460
 7601SOL     OW23701   2.730   5.152   2.305
 7601SOL    HW123702   2.729   5.252   2.304
 7601SOL    HW223703   2.804   5.119   2.245
 7602SOL     OW23704   0.708   2.809   0.572
 7602SOL    HW123705   0.774   2.820   0.646
 7602SOL    HW223706   0.725   2.723   0.525
 7603SOL     OW23707   1.819   6.666   5.769
 7603SOL    HW123708   1.836   6.755   5.810
 7603SOL    HW223709   1.887   6.600   5.802
 7604SOL     OW23710   1.546   1.991   5.229
 7604SOL    HW123711   1.540   1.986   5.130
 7604SOL    HW223712   1.638   1.965   5.258
 7605SOL     OW23713   1.172   0.528   0.737
 7605SOL    HW123714   1.112   0.557   0.663
 7605SOL    HW223715   1.252   0.480   0.700
 7606SOL     OW23716   5.609   2.973   5.066
 7606SOL    HW123717   5.555   2.951   4.985
 7606SOL    HW223718   5.614   2.892   5.125
 7607SOL     OW23719   3.499   5.159   0.404
 7607SOL    HW123720   3.512   5.191   0.497
 7607SOL    HW223721   3.441   5.077   0.404
 7608SOL     OW23722   4.888   2.295   6.689
 7608SOL    HW123723   4.914   2.203   6.720
 7608SOL    HW223724   4.944   2.321   6.610
 7609SOL     OW23725   0.665   3.911   3.866
 7609SOL    HW123726   0.753   3.869   3.885
 7609SOL    HW223727   0.595   3.841   3.856
 7610SOL     OW23728   4.165   5.038   5.675
 7610SOL    HW123729   4.124   5.034   5.766
 7610SOL    HW223730   4.114   5.103   5.618
 7611SOL     OW23731   5.115   3.833   1.251
 7611SOL    HW123732   5.144   3.743   1.283
 7611SOL    HW223733   5.170   3.859   1.171
 7612SOL     OW23734   4.193   2.267   2.945
 7612SOL    HW123735   4.183   2.286   2.847
 7612SOL    HW223736   4.265   2.199   2.959
 7613SOL     OW23737   0.779   1.878   2.174
 7613SOL    HW123738   0.874   1.857   2.154
 7613SOL    HW223739   0.720   1.841   2.102
 7614SOL     OW23740   5.506   3.636   1.385
 7614SOL    HW123741   5.506   3.598   1.477
 7614SOL    HW223742   5.545   3.728   1.387
 7615SOL     OW23743   5.028   4.122   5.764
 7615SOL    HW123744   4.974   4.043   5.793
 7615SOL    HW223745   5.078   4.098   5.680
 7616SOL     OW23746   6.569   0.285   3.649
 7616SOL    HW123747   6.484   0.237   3.671
 7616SOL    HW223748   6.588   0.353   3.720
 7617SOL     OW23749   5.395   5.757   3.133
 7617SOL    HW123750   5.377   5.683   3.069
 7617SOL    HW223751   5.331   5.752   3.210
 7618SOL     OW23752   1.236   2.285   0.074
 7618SOL    HW123753   1.248   2.313   7.005
 7618SOL    HW223754   1.246   2.364   0.134
 7619SOL     OW23755   6.695   2.458   4.587
 7619SOL    HW123756   6.641   2.436   4.668
 7619SOL    HW223757   6.770   2.520   4.612
 7620SOL     OW23758   3.614   4.937   1.010
 7620SOL    HW123759   3.578   4.845   1.022
 7620SOL    HW223760   3.660   4.942   0.921
 7621SOL     OW23761   0.669   6.881   1.002
 7621SOL    HW123762   0.666   6.980   1.016
 7621SOL    HW223763   0.674   6.861   0.904
 7622SOL     OW23764   4.575   4.766   6.413
 7622SOL    HW123765   4.484   4.728   6.395
 7622SOL    HW223766   4.566   4.851   6.466
 7623SOL     OW23767   4.026   4.513   0.684
 7623SOL    HW123768   3.986   4.604   0.692
 7623SOL    HW223769   4.040   4.491   0.587
 7624SOL     OW23770   6.431   2.961   3.153
 7624SOL    HW123771   6.346   2.987   3.199
 7624SOL    HW223772   6.442   2.862   3.155
 7625SOL     OW23773   5.785   2.467   6.953
 7625SOL    HW123774   5.882   2.446   6.938
 7625SOL    HW223775   5.766   2.469   0.026
 7626SOL     OW23776   6.561   0.899   6.256
 7626SOL    HW123777   6.560   0.974   6.322
 7626SOL    HW223778   6.571   0.936   6.164
 7627SOL     OW23779   2.882   1.727   0.469
 7627SOL    HW123780   2.794   1.720   0.515
 7627SOL    HW223781   2.920   1.819   0.483
 7628SOL     OW23782   4.143   2.727   1.443
 7628SOL    HW123783   4.112   2.645   1.490
 7628SOL    HW223784   4.221   2.767   1.492
 7629SOL     OW23785   6.566   4.226   3.772
 7629SOL    HW123786   6.485   4.220   3.714
 7629SOL    HW223787   6.564   4.313   3.822
 7630SOL     OW23788   1.137   0.619   6.170
 7630SOL    HW123789   1.159   0.573   6.085
 7630SOL    HW223790   1.172   0.567   6.247
 7631SOL     OW23791   1.310   1.248   5.412
 7631SOL    HW123792   1.222   1.254   5.364
 7631SOL    HW223793   1.378   1.303   5.364
 7632SOL     OW23794   4.021   4.970   1.072
 7632SOL    HW123795   4.005   4.879   1.032
 7632SOL    HW223796   4.095   4.964   1.138
 7633SOL     OW23797   5.305   0.681   1.764
 7633SOL    HW123798   5.339   0.731   1.844
 7633SOL    HW223799   5.233   0.618   1.792
 7634SOL     OW23800   0.991   1.316   1.755
 7634SOL    HW123801   0.983   1.403   1.805
 7634SOL    HW223802   0.902   1.291   1.717
 7635SOL     OW23803   2.726   5.419   4.575
 7635SOL    HW123804   2.626   5.418   4.577
 7635SOL    HW223805   2.761   5.370   4.655
 7636SOL     OW23806   0.963   3.905   4.092
 7636SOL    HW123807   0.876   3.910   4.142
 7636SOL    HW223808   0.958   3.831   4.024
 7637SOL     OW23809   1.088   6.736   2.729
 7637SOL    HW123810   1.140   6.652   2.712
 7637SOL    HW223811   1.027   6.754   2.652
 7638SOL     OW23812   1.352   5.554   1.960
 7638SOL    HW123813   1.379   5.648   1.935
 7638SOL    HW223814   1.435   5.500   1.976
 7639SOL     OW23815   0.086   1.156   0.665
 7639SOL    HW123816   7.021   1.197   0.674
 7639SOL    HW223817   0.108   1.146   0.568
 7640SOL     OW23818   3.109   2.579   6.817
 7640SOL    HW123819   3.038   2.603   6.883
 7640SOL    HW223820   3.166   2.505   6.854
 7641SOL     OW23821   0.073   4.462   3.059
 7641SOL    HW123822   0.027   4.383   3.098
 7641SOL    HW223823   0.170   4.440   3.045
 7642SOL     OW23824   5.809   0.933   2.715
 7642SOL    HW123825   5.901   0.921   2.752
 7642SOL    HW223826   5.795   0.869   2.639
 7643SOL     OW23827   5.408   1.546   2.405
 7643SOL    HW123828   5.386   1.644   2.407
 7643SOL    HW223829   5.337   1.496   2.455
 7644SOL     OW23830   4.734   2.830   2.281
 7644SOL    HW123831   4.664   2.764   2.256
 7644SOL    HW223832   4.731   2.908   2.218
 7645SOL     OW23833   4.178   3.261   5.577
 7645SOL    HW123834   4.104   3.211   5.531
 7645SOL    HW223835   4.240   3.298   5.509
 7646SOL     OW23836   0.629   2.845   3.322
 7646SOL    HW123837   0.548   2.788   3.309
 7646SOL    HW223838   0.676   2.818   3.406
 7647SOL     OW23839   0.642   2.922   4.267
 7647SOL    HW123840   0.735   2.886   4.270
 7647SOL    HW223841   0.621   2.966   4.354
 7648SOL     OW23842   2.479   1.270   2.126
 7648SOL    HW123843   2.569   1.265   2.083
 7648SOL    HW223844   2.488   1.257   2.225
 7649SOL     OW23845   1.154   1.418   4.782
 7649SOL    HW123846   1.067   1.383   4.816
 7649SOL    HW223847   1.186   1.361   4.706
 7650SOL     OW23848   5.308   1.045   1.291
 7650SOL    HW123849   5.354   1.018   1.375
 7650SOL    HW223850   5.371   1.096   1.232
 7651SOL     OW23851   2.441   5.417   4.554
 7651SOL    HW123852   2.407   5.405   4.647
 7651SOL    HW223853   2.402   5.346   4.495
 7652SOL     OW23854   5.903   2.603   5.125
 7652SOL    HW123855   5.960   2.559   5.056
 7652SOL    HW223856   5.914   2.702   5.119
 7653SOL     OW23857   1.356   1.286   0.210
 7653SOL    HW123858   1.380   1.347   0.285
 7653SOL    HW223859   1.435   1.272   0.150
 7654SOL     OW23860   5.174   3.383   5.123
 7654SOL    HW123861   5.178   3.481   5.108
 7654SOL    HW223862   5.100   3.344   5.068
 7655SOL     OW23863   3.833   6.998   3.724
 7655SOL    HW123864   3.760   0.038   3.710
 7655SOL    HW223865   3.918   0.020   3.744
 7656SOL     OW23866   5.607   3.044   6.151
 7656SOL    HW123867   5.623   2.948   6.176
 7656SOL    HW223868   5.540   3.048   6.077
 7657SOL     OW23869   1.861   3.121   3.940
 7657SOL    HW123870   1.886   3.054   3.869
 7657SOL    HW223871   1.864   3.077   4.030
 7658SOL     OW23872   3.302   0.251   1.001
 7658SOL    HW123873   3.256   0.246   0.912
 7658SOL    HW223874   3.352   0.338   1.008
 7659SOL     OW23875   4.720   4.128   6.880
 7659SOL    HW123876   4.742   4.159   6.973
 7659SOL    HW223877   4.686   4.205   6.826
 7660SOL     OW23878   6.206   5.380   4.723
 7660SOL    HW123879   6.148   5.459   4.703
 7660SOL    HW223880   6.291   5.412   4.764
 7661SOL     OW23881   4.410   1.992   5.701
 7661SOL    HW123882   4.444   1.976   5.794
 7661SOL    HW223883   4.424   2.087   5.676
 7662SOL     OW23884   0.588   2.565   3.376
 7662SOL    HW123885   0.650   2.584   3.453
 7662SOL    HW223886   0.626   2.492   3.320
 7663SOL     OW23887   4.689   5.571   6.645
 7663SOL    HW123888   4.720   5.521   6.564
 7663SOL    HW223889   4.611   5.523   6.685
 7664SOL     OW23890   3.544   1.120   3.234
 7664SOL    HW123891   3.472   1.189   3.246
 7664SOL    HW223892   3.632   1.159   3.260
 7665SOL     OW23893   5.697   1.584   4.349
 7665SOL    HW123894   5.781   1.594   4.402
 7665SOL    HW223895   5.618   1.602   4.408
 7666SOL     OW23896   6.803   5.693   4.173
 7666SOL    HW123897   6.805   5.597   4.199
 7666SOL    HW223898   6.894   5.721   4.143
 7667SOL     OW23899   4.392   0.599   2.664
 7667SOL    HW123900   4.357   0.526   2.606
 7667SOL    HW223901   4.459   0.653   2.613
 7668SOL     OW23902   2.814   4.852   0.446
 7668SOL    HW123903   2.903   4.821   0.412
 7668SOL    HW223904   2.820   4.874   0.543
 7669SOL     OW23905   4.366   1.125   5.429
 7669SOL    HW123906   4.405   1.076   5.507
 7669SOL    HW223907   4.314   1.204   5.461
 7670SOL     OW23908   0.657   6.433   0.878
 7670SOL    HW123909   0.670   6.461   0.974
 7670SOL    HW223910   0.571   6.472   0.844
 7671SOL     OW23911   5.154   6.716   2.419
 7671SOL    HW123912   5.190   6.638   2.470
 7671SOL    HW223913   5.059   6.697   2.392
 7672SOL     OW23914   6.658   5.062   3.119
 7672SOL    HW123915   6.672   5.160   3.108
 7672SOL    HW223916   6.626   5.043   3.212
 7673SOL     OW23917   1.616   5.932   2.511
 7673SOL    HW123918   1.538   5.995   2.511
 7673SOL    HW223919   1.618   5.880   2.425
 7674SOL     OW23920   4.360   0.536   4.011
 7674SOL    HW123921   4.278   0.504   3.965
 7674SOL    HW223922   4.346   0.532   4.110
 7675SOL     OW23923   4.059   6.649   3.455
 7675SOL    HW123924   4.130   6.717   3.434
 7675SOL    HW223925   4.031   6.604   3.370
 7676SOL     OW23926   2.822   2.063   6.064
 7676SOL    HW123927   2.905   2.095   6.109
 7676SOL    HW223928   2.747   2.059   6.130
 7677SOL     OW23929   0.744   4.399   0.879
 7677SOL    HW123930   0.765   4.319   0.823
 7677SOL    HW223931   0.646   4.420   0.870
 7678SOL     OW23932   1.926   2.832   5.297
 7678SOL    HW123933   1.883   2.862   5.212
 7678SOL    HW223934   1.977   2.748   5.282
 7679SOL     OW23935   2.248   5.657   5.531
 7679SOL    HW123936   2.315   5.706   5.474
 7679SOL    HW223937   2.177   5.618   5.473
 7680SOL     OW23938   1.721   0.075   6.079
 7680SOL    HW123939   1.700   0.060   5.982
 7680SOL    HW223940   1.703   0.171   6.102
 7681SOL     OW23941   2.444   1.751   6.749
 7681SOL    HW123942   2.392   1.744   6.663
 7681SOL    HW223943   2.499   1.834   6.747
 7682SOL     OW23944   3.992   1.955   2.422
 7682SOL    HW123945   3.971   2.050   2.445
 7682SOL    HW223946   3.964   1.895   2.497
 7683SOL     OW23947   0.863   1.448   4.968
 7683SOL    HW123948   0.908   1.535   4.987
 7683SOL    HW223949   0.766   1.464   4.952
 7684SOL     OW23950   4.355   2.285   1.916
 7684SOL    HW123951   4.374   2.286   2.015
 7684SOL    HW223952   4.409   2.356   1.871
 7685SOL     OW23953   3.450   1.900   6.871
 7685SOL    HW123954   3.464   1.819   6.815
 7685SOL    HW223955   3.532   1.918   6.925
 7686SOL     OW23956   5.453   6.779   4.639
 7686SOL    HW123957   5.436   6.807   4.545
 7686SOL    HW223958   5.380   6.718   4.670
 7687SOL     OW23959   4.876   5.216   5.157
 7687SOL    HW123960   4.890   5.120   5.179
 7687SOL    HW223961   4.822   5.259   5.229
 7688SOL     OW23962   0.011   5.951   6.062
 7688SOL    HW123963   0.100   5.931   6.103
 7688SOL    HW223964   0.012   5.925   5.965
 7689SOL     OW23965   4.855   0.163   2.294
 7689SOL    HW123966   4.896   0.134   2.207
 7689SOL    HW223967   4.928   0.184   2.360
 7690SOL     OW23968   5.288   5.129   0.478
 7690SOL    HW123969   5.235   5.080   0.547
 7690SOL    HW223970   5.240   5.212   0.452
 7691SOL     OW23971   4.548   4.726   2.024
 7691SOL    HW123972   4.456   4.690   2.040
 7691SOL    HW223973   4.615   4.654   2.044
 7692SOL     OW23974   0.731   6.373   1.556
 7692SOL    HW123975   0.808   6.437   1.559
 7692SOL    HW223976   0.649   6.416   1.593
 7693SOL     OW23977   3.297   0.038   1.615
 7693SOL    HW123978   3.309   0.093   1.532
 7693SOL    HW223979   3.213   7.010   1.606
 7694SOL     OW23980   5.704   2.213   4.452
 7694SOL    HW123981   5.774   2.154   4.411
 7694SOL    HW223982   5.725   2.309   4.431
 7695SOL     OW23983   5.296   0.819   2.017
 7695SOL    HW123984   5.308   0.793   2.112
 7695SOL    HW223985   5.201   0.848   2.002
 7696SOL     OW23986   0.624   1.448   5.986
 7696SOL    HW123987   0.655   1.380   5.920
 7696SOL    HW223988   0.543   1.495   5.951
 7697SOL     OW23989   3.178   0.427   2.670
 7697SOL    HW123990   3.251   0.495   2.679
 7697SOL    HW223991   3.091   0.474   2.651
 7698SOL     OW23992   6.640   2.195   5.682
 7698SOL    HW123993   6.564   2.179   5.745
 7698SOL    HW223994   6.615   2.266   5.617
 7699SOL     OW23995   2.362   5.402   6.825
 7699SOL    HW123996   2.380   5.313   6.782
 7699SOL    HW223997   2.376   5.475   6.758
 7700SOL     OW23998   4.196   6.339   3.037
 7700SOL    HW123999   4.231   6.335   3.130
 7700SOL    HW224000   4.153   6.428   3.020
 7701SOL     OW24001   6.907   1.582   6.015
 7701SOL    HW124002   6.953   1.542   5.936
 7701SOL    HW224003   6.814   1.610   5.990
 7702SOL     OW24004   4.208   6.128   5.182
 7702SOL    HW124005   4.215   6.105   5.279
 7702SOL    HW224006   4.274   6.201   5.160
 7703SOL     OW24007   6.249   6.992   5.222
 7703SOL    HW124008   6.223   7.018   5.128
 7703SOL    HW224009   6.246   6.893   5.231
 7704SOL     OW24010   6.155   1.870   4.280
 7704SOL    HW124011   6.174   1.960   4.319
 7704SOL    HW224012   6.153   1.802   4.353
 7705SOL     OW24013   2.589   5.113   0.804
 7705SOL    HW124014   2.597   5.065   0.717
 7705SOL    HW224015   2.565   5.208   0.787
 7706SOL     OW24016   3.438   3.086   3.089
 7706SOL    HW124017   3.453   3.151   3.015
 7706SOL    HW224018   3.340   3.066   3.096
 7707SOL     OW24019   0.118   5.009   6.545
 7707SOL    HW124020   0.162   4.929   6.585
 7707SOL    HW224021   0.024   5.014   6.577
 7708SOL     OW24022   1.452   6.922   3.931
 7708SOL    HW124023   1.540   6.880   3.913
 7708SOL    HW224024   1.389   6.855   3.969
 7709SOL     OW24025   6.685   5.088   1.229
 7709SOL    HW124026   6.670   5.149   1.151
 7709SOL    HW224027   6.772   5.111   1.272
 7710SOL     OW24028   2.486   2.388   0.817
 7710SOL    HW124029   2.442   2.341   0.894
 7710SOL    HW224030   2.416   2.419   0.752
 7711SOL     OW24031   6.602   5.881   5.724
 7711SOL    HW124032   6.598   5.782   5.731
 7711SOL    HW224033   6.646   5.919   5.806
 7712SOL     OW24034   6.147   4.858   6.950
 7712SOL    HW124035   6.222   4.912   6.912
 7712SOL    HW224036   6.166   4.835   0.020
 7713SOL     OW24037   1.954   4.148   1.144
 7713SOL    HW124038   1.877   4.177   1.201
 7713SOL    HW224039   1.919   4.107   1.060
 7714SOL     OW24040   0.322   6.712   5.217
 7714SOL    HW124041   0.405   6.678   5.173
 7714SOL    HW224042   0.243   6.696   5.157
 7715SOL     OW24043   2.252   1.774   6.538
 7715SOL    HW124044   2.287   1.866   6.522
 7715SOL    HW224045   2.224   1.732   6.452
 7716SOL     OW24046   6.634   4.972   6.749
 7716SOL    HW124047   6.561   5.037   6.771
 7716SOL    HW224048   6.594   4.881   6.737
 7717SOL     OW24049   1.345   1.764   5.281
 7717SOL    HW124050   1.421   1.802   5.228
 7717SOL    HW224051   1.363   1.778   5.379
 7718SOL     OW24052   6.987   4.254   3.253
 7718SOL    HW124053   0.009   4.184   3.200
 7718SOL    HW224054   6.890   4.230   3.259
 7719SOL     OW24055   1.029   4.358   4.828
 7719SOL    HW124056   1.016   4.261   4.847
 7719SOL    HW224057   1.126   4.381   4.836
 7720SOL     OW24058   6.349   1.986   6.189
 7720SOL    HW124059   6.269   1.987   6.250
 7720SOL    HW224060   6.326   2.029   6.103
 7721SOL     OW24061   1.230   0.390   2.202
 7721SOL    HW124062   1.176   0.417   2.281
 7721SOL    HW224063   1.173   0.391   2.120
 7722SOL     OW24064   1.998   5.445   4.045
 7722SOL    HW124065   1.937   5.491   3.980
 7722SOL    HW224066   2.006   5.348   4.021
 7723SOL     OW24067   4.966   3.684   6.345
 7723SOL    HW124068   5.038   3.721   6.287
 7723SOL    HW224069   4.911   3.759   6.381
 7724SOL     OW24070   3.457   4.197   0.479
 7724SOL    HW124071   3.484   4.248   0.560
 7724SOL    HW224072   3.536   4.146   0.443
 7725SOL     OW24073   5.881   2.605   2.557
 7725SOL    HW124074   5.834   2.566   2.637
 7725SOL    HW224075   5.852   2.556   2.475
 7726SOL     OW24076   0.752   2.706   6.060
 7726SOL    HW124077   0.827   2.736   6.118
 7726SOL    HW224078   0.777   2.718   5.964
 7727SOL     OW24079   6.430   2.866   1.641
 7727SOL    HW124080   6.340   2.825   1.656
 7727SOL    HW224081   6.473   2.823   1.562
 7728SOL     OW24082   2.173   2.847   5.139
 7728SOL    HW124083   2.262   2.887   5.115
 7728SOL    HW224084   2.173   2.750   5.116
 7729SOL     OW24085   6.085   1.674   1.946
 7729SOL    HW124086   6.121   1.581   1.945
 7729SOL    HW224087   6.108   1.717   2.034
 7730SOL     OW24088   5.955   4.457   4.903
 7730SOL    HW124089   5.942   4.433   4.806
 7730SOL    HW224090   5.954   4.556   4.913
 7731SOL     OW24091   6.259   6.925   0.726
 7731SOL    HW124092   6.165   6.904   0.699
 7731SOL    HW224093   6.262   6.938   0.825
 7732SOL     OW24094   4.219   0.331   6.995
 7732SOL    HW124095   4.233   0.334   6.896
 7732SOL    HW224096   4.186   0.240   7.021
 7733SOL     OW24097   6.231   5.698   2.557
 7733SOL    HW124098   6.262   5.696   2.652
 7733SOL    HW224099   6.134   5.673   2.553
 7734SOL     OW24100   2.359   4.809   4.966
 7734SOL    HW124101   2.403   4.868   4.899
 7734SOL    HW224102   2.429   4.770   5.026
 7735SOL     OW24103   6.272   5.889   0.050
 7735SOL    HW124104   6.347   5.899   0.116
 7735SOL    HW224105   6.220   5.806   0.072
 7736SOL     OW24106   2.424   3.055   0.425
 7736SOL    HW124107   2.391   2.990   0.493
 7736SOL    HW224108   2.466   3.133   0.471
 7737SOL     OW24109   3.360   5.345   1.844
 7737SOL    HW124110   3.380   5.247   1.843
 7737SOL    HW224111   3.274   5.362   1.796
 7738SOL     OW24112   2.053   6.135   6.743
 7738SOL    HW124113   2.132   6.150   6.802
 7738SOL    HW224114   1.974   6.185   6.778
 7739SOL     OW24115   1.376   2.075   1.992
 7739SOL    HW124116   1.409   1.983   1.972
 7739SOL    HW224117   1.419   2.141   1.930
 7740SOL     OW24118   2.209   0.949   2.580
 7740SOL    HW124119   2.195   0.852   2.559
 7740SOL    HW224120   2.305   0.972   2.565
 7741SOL     OW24121   1.575   4.114   4.890
 7741SOL    HW124122   1.484   4.072   4.897
 7741SOL    HW224123   1.613   4.128   4.982
 7742SOL     OW24124   3.898   1.693   3.893
 7742SOL    HW124125   3.849   1.607   3.907
 7742SOL    HW224126   3.996   1.677   3.908
 7743SOL     OW24127   4.702   0.784   7.014
 7743SOL    HW124128   4.791   0.790   0.032
 7743SOL    HW224129   4.712   0.792   6.915
 7744SOL     OW24130   0.567   6.109   3.476
 7744SOL    HW124131   0.555   6.205   3.502
 7744SOL    HW224132   0.580   6.053   3.558
 7745SOL     OW24133   2.244   6.435   0.252
 7745SOL    HW124134   2.333   6.408   0.290
 7745SOL    HW224135   2.179   6.361   0.267
 7746SOL     OW24136   1.131   6.891   0.739
 7746SOL    HW124137   1.064   6.941   0.794
 7746SOL    HW224138   1.219   6.892   0.784
 7747SOL     OW24139   0.380   6.230   1.016
 7747SOL    HW124140   0.456   6.166   1.004
 7747SOL    HW224141   0.299   6.179   1.047
 7748SOL     OW24142   3.235   3.462   5.029
 7748SOL    HW124143   3.145   3.418   5.025
 7748SOL    HW224144   3.289   3.432   4.950
 7749SOL     OW24145   2.953   3.781   3.361
 7749SOL    HW124146   2.970   3.683   3.348
 7749SOL    HW224147   2.860   3.794   3.396
 7750SOL     OW24148   5.718   5.463   5.504
 7750SOL    HW124149   5.798   5.486   5.560
 7750SOL    HW224150   5.676   5.548   5.471
 7751SOL     OW24151   0.472   1.568   3.540
 7751SOL    HW124152   0.393   1.610   3.496
 7751SOL    HW224153   0.544   1.636   3.552
 7752SOL     OW24154   5.511   5.620   6.042
 7752SOL    HW124155   5.455   5.547   6.002
 7752SOL    HW224156   5.538   5.684   5.970
 7753SOL     OW24157   2.000   0.785   4.347
 7753SOL    HW124158   2.045   0.867   4.312
 7753SOL    HW224159   2.024   0.707   4.289
 7754SOL     OW24160   5.493   0.457   1.628
 7754SOL    HW124161   5.406   0.498   1.601
 7754SOL    HW224162   5.485   0.421   1.721
 7755SOL     OW24163   0.635   0.121   5.531
 7755SOL    HW124164   0.606   0.044   5.587
 7755SOL    HW224165   0.573   0.131   5.453
 7756SOL     OW24166   2.413   5.924   2.182
 7756SOL    HW124167   2.498   5.965   2.151
 7756SOL    HW224168   2.431   5.864   2.260
 7757SOL     OW24169   4.752   6.193   5.120
 7757SOL    HW124170   4.768   6.136   5.040
 7757SOL    HW224171   4.773   6.141   5.203
 7758SOL     OW24172   1.806   2.149   6.864
 7758SOL    HW124173   1.842   2.112   6.950
 7758SOL    HW224174   1.713   2.183   6.879
 7759SOL     OW24175   2.072   1.155   4.866
 7759SOL    HW124176   1.997   1.088   4.870
 7759SOL    HW224177   2.159   1.107   4.860
 7760SOL     OW24178   5.885   3.666   2.209
 7760SOL    HW124179   5.848   3.630   2.295
 7760SOL    HW224180   5.810   3.680   2.144
 7761SOL     OW24181   2.984   0.166   6.074
 7761SOL    HW124182   2.930   0.240   6.114
 7761SOL    HW224183   3.070   0.155   6.124
 7762SOL     OW24184   3.896   0.778   5.461
 7762SOL    HW124185   3.842   0.851   5.503
 7762SOL    HW224186   3.962   0.817   5.398
 7763SOL     OW24187   1.581   1.946   1.116
 7763SOL    HW124188   1.556   2.020   1.055
 7763SOL    HW224189   1.499   1.893   1.140
 7764SOL     OW24190   3.857   2.980   2.523
 7764SOL    HW124191   3.910   3.065   2.533
 7764SOL    HW224192   3.917   2.902   2.539
 7765SOL     OW24193   6.146   3.477   4.296
 7765SOL    HW124194   6.217   3.478   4.225
 7765SOL    HW224195   6.058   3.504   4.255
 7766SOL     OW24196   5.239   1.947   6.961
 7766SOL    HW124197   5.317   1.998   6.997
 7766SOL    HW224198   5.216   1.872   7.023
 7767SOL     OW24199   3.997   6.581   4.214
 7767SOL    HW124200   3.901   6.609   4.206
 7767SOL    HW224201   4.055   6.643   4.161
 7768SOL     OW24202   4.258   5.026   2.847
 7768SOL    HW124203   4.352   5.051   2.824
 7768SOL    HW224204   4.235   4.940   2.802
 7769SOL     OW24205   5.187   1.453   1.842
 7769SOL    HW124206   5.104   1.423   1.796
 7769SOL    HW224207   5.265   1.450   1.779
 7770SOL     OW24208   2.019   4.062   1.892
 7770SOL    HW124209   2.053   3.979   1.848
 7770SOL    HW224210   2.078   4.087   1.968
 7771SOL     OW24211   2.786   2.514   5.294
 7771SOL    HW124212   2.813   2.609   5.312
 7771SOL    HW224213   2.759   2.470   5.380
 7772SOL     OW24214   5.207   1.131   3.587
 7772SOL    HW124215   5.182   1.228   3.588
 7772SOL    HW224216   5.182   1.092   3.498
 7773SOL     OW24217   3.207   4.736   5.518
 7773SOL    HW124218   3.161   4.732   5.429
 7773SOL    HW224219   3.197   4.649   5.565
 7774SOL     OW24220   5.821   1.846   5.906
 7774SOL    HW124221   5.799   1.936   5.869
 7774SOL    HW224222   5.804   1.846   6.005
 7775SOL     OW24223   3.562   6.711   3.002
 7775SOL    HW124224   3.528   6.761   2.922
 7775SOL    HW224225   3.628   6.768   3.051
 7776SOL     OW24226   2.985   2.784   6.250
 7776SOL    HW124227   3.032   2.696   6.254
 7776SOL    HW224228   3.033   2.844   6.187
 7777SOL     OW24229   2.635   1.818   5.477
 7777SOL    HW124230   2.611   1.909   5.443
 7777SOL    HW224231   2.673   1.763   5.402
 7778SOL     OW24232   4.943   6.776   0.003
 7778SOL    HW124233   4.961   6.729   0.089
 7778SOL    HW224234   4.986   6.867   0.005
 7779SOL     OW24235   3.937   3.037   0.642
 7779SOL    HW124236   4.002   2.987   0.585
 7779SOL    HW224237   3.846   2.995   0.634
 7780SOL     OW24238   1.780   5.382   4.824
 7780SOL    HW124239   1.732   5.469   4.838
 7780SOL    HW224240   1.716   5.314   4.787
 7781SOL     OW24241   1.440   3.756   6.066
 7781SOL    HW124242   1.445   3.791   6.159
 7781SOL    HW224243   1.491   3.670   6.060
 7782SOL     OW24244   1.704   3.216   5.541
 7782SOL    HW124245   1.661   3.145   5.485
 7782SOL    HW224246   1.790   3.244   5.499
 7783SOL     OW24247   3.090   6.591   6.031
 7783SOL    HW124248   3.137   6.657   6.090
 7783SOL    HW224249   2.993   6.613   6.028
 7784SOL     OW24250   2.288   2.192   0.557
 7784SOL    HW124251   2.375   2.142   0.557
 7784SOL    HW224252   2.287   2.257   0.480
 7785SOL     OW24253   1.571   6.593   3.942
 7785SOL    HW124254   1.484   6.550   3.917
 7785SOL    HW224255   1.641   6.568   3.875
 7786SOL     OW24256   3.592   5.293   6.439
 7786SOL    HW124257   3.672   5.246   6.403
 7786SOL    HW224258   3.535   5.325   6.363
 7787SOL     OW24259   1.997   3.105   5.392
 7787SOL    HW124260   1.985   3.006   5.389
 7787SOL    HW224261   1.968   3.145   5.305
 7788SOL     OW24262   1.366   0.984   1.613
 7788SOL    HW124263   1.304   0.982   1.535
 7788SOL    HW224264   1.353   1.069   1.664
 7789SOL     OW24265   2.747   0.202   0.539
 7789SOL    HW124266   2.813   0.154   0.481
 7789SOL    HW224267   2.768   0.300   0.538
 7790SOL     OW24268   5.941   4.880   2.474
 7790SOL    HW124269   6.036   4.862   2.501
 7790SOL    HW224270   5.918   4.825   2.394
 7791SOL     OW24271   2.970   6.817   3.832
 7791SOL    HW124272   2.992   6.854   3.742
 7791SOL    HW224273   2.996   6.721   3.837
 7792SOL     OW24274   1.078   5.447   6.123
 7792SOL    HW124275   1.087   5.543   6.096
 7792SOL    HW224276   1.068   5.440   6.222
 7793SOL     OW24277   1.843   0.807   6.218
 7793SOL    HW124278   1.759   0.805   6.272
 7793SOL    HW224279   1.919   0.839   6.274
 7794SOL     OW24280   5.355   5.394   3.972
 7794SOL    HW124281   5.257   5.375   3.968
 7794SOL    HW224282   5.406   5.308   3.960
 7795SOL     OW24283   2.086   4.013   5.138
 7795SOL    HW124284   2.090   4.027   5.237
 7795SOL    HW224285   2.178   4.006   5.101
 7796SOL     OW24286   3.078   3.972   3.952
 7796SOL    HW124287   3.067   3.967   4.051
 7796SOL    HW224288   3.173   3.991   3.929
 7797SOL     OW24289   0.755   5.681   2.396
 7797SOL    HW124290   0.674   5.668   2.453
 7797SOL    HW224291   0.765   5.604   2.334
 7798SOL     OW24292   1.449   4.786   6.468
 7798SOL    HW124293   1.374   4.753   6.525
 7798SOL    HW224294   1.531   4.796   6.524
 7799SOL     OW24295   0.005   6.208   1.871
 7799SOL    HW124296   6.949   6.264   1.891
 7799SOL    HW224297   0.019   6.205   1.772
 7800SOL     OW24298   1.322   4.906   1.019
 7800SOL    HW124299   1.277   4.991   0.992
 7800SOL    HW224300   1.258   4.851   1.074
 7801SOL     OW24301   2.593   1.542   1.453
 7801SOL    HW124302   2.692   1.529   1.460
 7801SOL    HW224303   2.571   1.639   1.466
 7802SOL     OW24304   5.529   2.430   1.105
 7802SOL    HW124305   5.592   2.362   1.068
 7802SOL    HW224306   5.440   2.389   1.121
 7803SOL     OW24307   4.227   3.521   5.838
 7803SOL    HW124308   4.151   3.472   5.795
 7803SOL    HW224309   4.278   3.571   5.768
 7804SOL     OW24310   6.497   1.165   3.620
 7804SOL    HW124311   6.541   1.130   3.538
 7804SOL    HW224312   6.538   1.122   3.701
 7805SOL     OW24313   5.445   1.212   1.583
 7805SOL    HW124314   5.401   1.287   1.533
 7805SOL    HW224315   5.409   1.208   1.676
 7806SOL     OW24316   5.676   2.763   5.630
 7806SOL    HW124317   5.727   2.819   5.694
 7806SOL    HW224318   5.578   2.780   5.641
 7807SOL     OW24319   0.380   5.098   6.537
 7807SOL    HW124320   0.280   5.088   6.537
 7807SOL    HW224321   0.409   5.152   6.616
 7808SOL     OW24322   7.015   3.586   4.459
 7808SOL    HW124323   6.950   3.602   4.533
 7808SOL    HW224324   6.981   3.512   4.400
 7809SOL     OW24325   3.023   5.977   5.125
 7809SOL    HW124326   2.994   6.054   5.181
 7809SOL    HW224327   2.969   5.896   5.147
 7810SOL     OW24328   3.934   0.168   5.556
 7810SOL    HW124329   3.902   0.091   5.612
 7810SOL    HW224330   4.033   0.162   5.544
 7811SOL     OW24331   6.681   4.394   4.069
 7811SOL    HW124332   6.692   4.347   4.157
 7811SOL    HW224333   6.584   4.406   4.050
 7812SOL     OW24334   1.157   1.843   4.134
 7812SOL    HW124335   1.243   1.876   4.171
 7812SOL    HW224336   1.090   1.834   4.208
 7813SOL     OW24337   4.615   2.246   5.986
 7813SOL    HW124338   4.588   2.298   6.066
 7813SOL    HW224339   4.659   2.308   5.920
 7814SOL     OW24340   6.885   2.865   3.684
 7814SOL    HW124341   6.961   2.903   3.630
 7814SOL    HW224342   6.894   2.766   3.688
 7815SOL     OW24343   4.919   0.986   0.014
 7815SOL    HW124344   4.982   0.932   6.984
 7815SOL    HW224345   4.900   1.072   6.993
 7816SOL     OW24346   1.717   2.363   6.539
 7816SOL    HW124347   1.772   2.424   6.481
 7816SOL    HW224348   1.620   2.375   6.518
 7817SOL     OW24349   6.146   3.735   4.077
 7817SOL    HW124350   6.086   3.815   4.081
 7817SOL    HW224351   6.111   3.670   4.009
 7818SOL     OW24352   4.328   0.849   2.820
 7818SOL    HW124353   4.379   0.772   2.783
 7818SOL    HW224354   4.288   0.902   2.746
 7819SOL     OW24355   6.824   3.054   1.761
 7819SOL    HW124356   6.795   3.096   1.675
 7819SOL    HW224357   6.917   3.082   1.782
 7820SOL     OW24358   1.630   2.197   4.771
 7820SOL    HW124359   1.717   2.245   4.755
 7820SOL    HW224360   1.607   2.142   4.691
 7821SOL     OW24361   4.826   6.062   1.208
 7821SOL    HW124362   4.779   6.067   1.120
 7821SOL    HW224363   4.925   6.056   1.192
 7822SOL     OW24364   0.142   0.671   5.074
 7822SOL    HW124365   0.126   0.573   5.071
 7822SOL    HW224366   0.227   0.692   5.025
 7823SOL     OW24367   2.162   3.870   4.832
 7823SOL    HW124368   2.065   3.876   4.857
 7823SOL    HW224369   2.216   3.930   4.891
 7824SOL     OW24370   6.396   2.018   5.298
 7824SOL    HW124371   6.404   1.963   5.215
 7824SOL    HW224372   6.313   2.073   5.293
 7825SOL     OW24373   1.840   2.958   0.209
 7825SOL    HW124374   1.934   2.932   0.233
 7825SOL    HW224375   1.824   3.054   0.235
 7826SOL     OW24376   6.073   1.281   1.168
 7826SOL    HW124377   6.068   1.351   1.097
 7826SOL    HW224378   6.157   1.228   1.158
 7827SOL     OW24379   1.709   5.879   1.055
 7827SOL    HW124380   1.761   5.796   1.038
 7827SOL    HW224381   1.749   5.929   1.132
 7828SOL     OW24382   6.163   4.509   0.313
 7828SOL    HW124383   6.201   4.480   0.225
 7828SOL    HW224384   6.134   4.428   0.365
 7829SOL     OW24385   3.255   3.283   1.025
 7829SOL    HW124386   3.223   3.375   1.046
 7829SOL    HW224387   3.179   3.228   0.991
 7830SOL     OW24388   3.190   5.133   5.766
 7830SOL    HW124389   3.131   5.076   5.709
 7830SOL    HW224390   3.199   5.091   5.857
 7831SOL     OW24391   1.966   0.383   2.227
 7831SOL    HW124392   2.058   0.353   2.254
 7831SOL    HW224393   1.898   0.322   2.267
 7832SOL     OW24394   6.098   0.557   4.659
 7832SOL    HW124395   6.190   0.544   4.622
 7832SOL    HW224396   6.079   0.655   4.665
 7833SOL     OW24397   1.207   0.887   4.897
 7833SOL    HW124398   1.132   0.824   4.876
 7833SOL    HW224399   1.239   0.930   4.812
 7834SOL     OW24400   6.960   1.955   3.058
 7834SOL    HW124401   6.904   1.969   3.140
 7834SOL    HW224402   6.901   1.944   2.978
 7835SOL     OW24403   4.291   1.641   5.020
 7835SOL    HW124404   4.246   1.631   5.109
 7835SOL    HW224405   4.222   1.664   4.951
 7836SOL     OW24406   3.156   4.093   5.414
 7836SOL    HW124407   3.093   4.117   5.487
 7836SOL    HW224408   3.157   4.166   5.345
 7837SOL     OW24409   4.835   5.940   0.132
 7837SOL    HW124410   4.751   5.889   0.114
 7837SOL    HW224411   4.888   5.947   0.047
 7838SOL     OW24412   4.235   6.281   1.281
 7838SOL    HW124413   4.215   6.183   1.279
 7838SOL    HW224414   4.329   6.295   1.310
 7839SOL     OW24415   5.798   4.171   5.262
 7839SOL    HW124416   5.852   4.127   5.190
 7839SOL    HW224417   5.860   4.215   5.327
 7840SOL     OW24418   0.214   3.651   4.634
 7840SOL    HW124419   0.307   3.653   4.596
 7840SOL    HW224420   0.148   3.637   4.560
 7841SOL     OW24421   4.717   1.482   6.541
 7841SOL    HW124422   4.708   1.581   6.540
 7841SOL    HW224423   4.804   1.455   6.581
 7842SOL     OW24424   2.106   1.228   2.364
 7842SOL    HW124425   2.129   1.297   2.433
 7842SOL    HW224426   2.187   1.205   2.311
 7843SOL     OW24427   0.265   6.671   3.824
 7843SOL    HW124428   0.296   6.664   3.919
 7843SOL    HW224429   0.343   6.691   3.765
 7844SOL     OW24430   3.881   0.186   2.341
 7844SOL    HW124431   3.783   0.191   2.319
 7844SOL    HW224432   3.934   0.186   2.256
 7845SOL     OW24433   5.390   1.797   2.346
 7845SOL    HW124434   5.468   1.771   2.290
 7845SOL    HW224435   5.399   1.892   2.376
 7846SOL     OW24436   1.044   2.365   0.872
 7846SOL    HW124437   0.988   2.292   0.912
 7846SOL    HW224438   1.103   2.404   0.943
 7847SOL     OW24439   6.519   1.496   3.713
 7847SOL    HW124440   6.478   1.409   3.741
 7847SOL    HW224441   6.594   1.479   3.648
 7848SOL     OW24442   3.014   4.256   0.944
 7848SOL    HW124443   2.954   4.185   0.908
 7848SOL    HW224444   2.965   4.311   1.012
 7849SOL     OW24445   5.835   3.976   4.980
 7849SOL    HW124446   5.888   4.009   4.902
 7849SOL    HW224447   5.797   3.886   4.959
 7850SOL     OW24448   0.112   1.984   3.719
 7850SOL    HW124449   0.185   1.942   3.664
 7850SOL    HW224450   0.053   1.913   3.757
 7851SOL     OW24451   1.036   2.878   1.802
 7851SOL    HW124452   1.018   2.965   1.755
 7851SOL    HW224453   1.020   2.802   1.739
 7852SOL     OW24454   3.087   0.734   0.197
 7852SOL    HW124455   3.007   0.746   0.257
 7852SOL    HW224456   3.115   0.823   0.162
 7853SOL     OW24457   4.746   3.083   1.532
 7853SOL    HW124458   4.666   3.027   1.512
 7853SOL    HW224459   4.822   3.055   1.474
 7854SOL     OW24460   3.460   2.683   6.190
 7854SOL    HW124461   3.539   2.654   6.244
 7854SOL    HW224462   3.376   2.658   6.238
 7855SOL     OW24463   4.402   6.060   4.850
 7855SOL    HW124464   4.306   6.077   4.825
 7855SOL    HW224465   4.456   6.049   4.767
 7856SOL     OW24466   0.242   5.228   5.441
 7856SOL    HW124467   0.333   5.247   5.404
 7856SOL    HW224468   0.233   5.130   5.461
 7857SOL     OW24469   4.864   3.658   0.475
 7857SOL    HW124470   4.864   3.676   0.377
 7857SOL    HW224471   4.953   3.619   0.502
 7858SOL     OW24472   6.798   6.323   4.458
 7858SOL    HW124473   6.832   6.343   4.551
 7858SOL    HW224474   6.777   6.226   4.451
 7859SOL     OW24475   4.448   3.701   6.769
 7859SOL    HW124476   4.492   3.612   6.760
 7859SOL    HW224477   4.481   3.747   6.851
 7860SOL     OW24478   4.137   1.074   4.577
 7860SOL    HW124479   4.041   1.066   4.605
 7860SOL    HW224480   4.168   1.168   4.592
 7861SOL     OW24481   2.645   5.278   1.663
 7861SOL    HW124482   2.688   5.279   1.754
 7861SOL    HW224483   2.690   5.209   1.606
 7862SOL     OW24484   2.155   5.996   2.226
 7862SOL    HW124485   2.252   5.977   2.217
 7862SOL    HW224486   2.107   5.967   2.143
 7863SOL     OW24487   0.738   4.713   3.726
 7863SOL    HW124488   0.732   4.794   3.784
 7863SOL    HW224489   0.834   4.692   3.707
 7864SOL     OW24490   1.657   5.526   6.329
 7864SOL    HW124491   1.734   5.585   6.307
 7864SOL    HW224492   1.576   5.557   6.279
 7865SOL     OW24493   6.507   5.456   4.375
 7865SOL    HW124494   6.580   5.398   4.338
 7865SOL    HW224495   6.420   5.430   4.334
 7866SOL     OW24496   1.696   0.719   5.813
 7866SOL    HW124497   1.677   0.790   5.745
 7866SOL    HW224498   1.794   0.710   5.826
 7867SOL     OW24499   5.508   6.833   3.255
 7867SOL    HW124500   5.428   6.804   3.306
 7867SOL    HW224501   5.584   6.771   3.274
 7868SOL     OW24502   3.414   5.671   0.843
 7868SOL    HW124503   3.403   5.669   0.744
 7868SOL    HW224504   3.480   5.742   0.868
 7869SOL     OW24505   4.991   4.743   5.568
 7869SOL    HW124506   4.970   4.823   5.512
 7869SOL    HW224507   5.086   4.716   5.555
 7870SOL     OW24508   5.191   6.915   4.794
 7870SOL    HW124509   5.094   6.909   4.818
 7870SOL    HW224510   5.246   6.874   4.867
 7871SOL     OW24511   5.405   1.832   1.946
 7871SOL    HW124512   5.390   1.918   1.898
 7871SOL    HW224513   5.320   1.780   1.949
 7872SOL     OW24514   1.703   4.618   2.370
 7872SOL    HW124515   1.695   4.630   2.271
 7872SOL    HW224516   1.716   4.521   2.392
 7873SOL     OW24517   6.368   0.542   0.335
 7873SOL    HW124518   6.435   0.487   0.286
 7873SOL    HW224519   6.277   0.526   0.296
 7874SOL     OW24520   4.783   2.319   0.911
 7874SOL    HW124521   4.790   2.219   0.913
 7874SOL    HW224522   4.730   2.350   0.990
 7875SOL     OW24523   3.855   3.468   0.272
 7875SOL    HW124524   3.907   3.518   0.341
 7875SOL    HW224525   3.776   3.425   0.314
 7876SOL     OW24526   1.207   6.648   3.517
 7876SOL    HW124527   1.153   6.708   3.576
 7876SOL    HW224528   1.302   6.648   3.549
 7877SOL     OW24529   6.762   1.869   2.871
 7877SOL    HW124530   6.677   1.817   2.864
 7877SOL    HW224531   6.787   1.904   2.781
 7878SOL     OW24532   4.734   4.132   3.446
 7878SOL    HW124533   4.723   4.101   3.352
 7878SOL    HW224534   4.789   4.065   3.497
 7879SOL     OW24535   3.542   4.954   2.562
 7879SOL    HW124536   3.636   4.968   2.531
 7879SOL    HW224537   3.501   5.043   2.583
 7880SOL     OW24538   2.513   3.352   0.808
 7880SOL    HW124539   2.550   3.299   0.885
 7880SOL    HW224540   2.465   3.432   0.844
 7881SOL     OW24541   4.900   4.108   4.219
 7881SOL    HW124542   4.889   4.098   4.318
 7881SOL    HW224543   4.989   4.071   4.192
 7882SOL     OW24544   2.242   3.294   1.701
 7882SOL    HW124545   2.318   3.242   1.662
 7882SOL    HW224546   2.277   3.363   1.764
 7883SOL     OW24547   1.076   0.049   6.067
 7883SOL    HW124548   1.076   0.126   6.131
 7883SOL    HW224549   0.987   0.044   6.021
 7884SOL     OW24550   0.842   4.305   4.202
 7884SOL    HW124551   0.864   4.253   4.284
 7884SOL    HW224552   0.795   4.390   4.228
 7885SOL     OW24553   6.389   5.791   0.651
 7885SOL    HW124554   6.395   5.859   0.724
 7885SOL    HW224555   6.338   5.830   0.574
 7886SOL     OW24556   4.405   5.721   0.284
 7886SOL    HW124557   4.433   5.626   0.265
 7886SOL    HW224558   4.477   5.767   0.336
 7887SOL     OW24559   3.538   2.305   0.011
 7887SOL    HW124560   3.472   2.232   7.019
 7887SOL    HW224561   3.609   2.272   0.073
 7888SOL     OW24562   5.566   0.382   3.668
 7888SOL    HW124563   5.567   0.315   3.594
 7888SOL    HW224564   5.472   0.410   3.687
 7889SOL     OW24565   1.560   5.179   1.724
 7889SOL    HW124566   1.514   5.259   1.762
 7889SOL    HW224567   1.616   5.207   1.646
 7890SOL     OW24568   1.872   3.890   2.576
 7890SOL    HW124569   1.906   3.799   2.556
 7890SOL    HW224570   1.821   3.925   2.498
 7891SOL     OW24571   1.937   4.796   2.792
 7891SOL    HW124572   1.937   4.772   2.889
 7891SOL    HW224573   1.992   4.728   2.742
 7892SOL     OW24574   1.999   2.449   4.232
 7892SOL    HW124575   1.992   2.402   4.144
 7892SOL    HW224576   2.086   2.427   4.275
 7893SOL     OW24577   6.132   6.711   1.805
 7893SOL    HW124578   6.175   6.623   1.782
 7893SOL    HW224579   6.045   6.694   1.851
 7894SOL     OW24580   2.794   6.347   1.678
 7894SOL    HW124581   2.850   6.264   1.675
 7894SOL    HW224582   2.841   6.416   1.732
 7895SOL     OW24583   6.058   1.326   5.628
 7895SOL    HW124584   6.074   1.351   5.723
 7895SOL    HW224585   6.025   1.406   5.578
 7896SOL     OW24586   4.817   4.128   6.452
 7896SOL    HW124587   4.791   4.166   6.363
 7896SOL    HW224588   4.874   4.195   6.500
 7897SOL     OW24589   2.761   3.612   6.193
 7897SOL    HW124590   2.824   3.567   6.255
 7897SOL    HW224591   2.791   3.600   6.098
 7898SOL     OW24592   4.863   2.293   3.800
 7898SOL    HW124593   4.805   2.232   3.853
 7898SOL    HW224594   4.941   2.323   3.856
 7899SOL     OW24595   6.583   1.851   1.636
 7899SOL    HW124596   6.655   1.916   1.611
 7899SOL    HW224597   6.616   1.757   1.620
 7900SOL     OW24598   1.447   5.244   1.197
 7900SOL    HW124599   1.544   5.233   1.172
 7900SOL    HW224600   1.396   5.276   1.117
 7901SOL     OW24601   4.848   0.424   6.001
 7901SOL    HW124602   4.875   0.328   6.005
 7901SOL    HW224603   4.926   0.482   6.022
 7902SOL     OW24604   4.859   5.440   1.645
 7902SOL    HW124605   4.933   5.433   1.712
 7902SOL    HW224606   4.771   5.438   1.693
 7903SOL     OW24607   5.776   2.282   0.417
 7903SOL    HW124608   5.844   2.302   0.346
 7903SOL    HW224609   5.816   2.221   0.485
 7904SOL     OW24610   6.132   0.661   2.869
 7904SOL    HW124611   6.177   0.647   2.957
 7904SOL    HW224612   6.197   0.644   2.795
 7905SOL     OW24613   4.669   1.617   0.406
 7905SOL    HW124614   4.755   1.635   0.455
 7905SOL    HW224615   4.594   1.612   0.471
 7906SOL     OW24616   0.200   5.800   6.853
 7906SOL    HW124617   0.246   5.864   6.915
 7906SOL    HW224618   0.210   5.707   6.888
 7907SOL     OW24619   6.287   2.443   4.346
 7907SOL    HW124620   6.317   2.493   4.427
 7907SOL    HW224621   6.188   2.431   4.349
 7908SOL     OW24622   1.415   1.239   4.027
 7908SOL    HW124623   1.356   1.304   4.074
 7908SOL    HW224624   1.434   1.271   3.935
 7909SOL     OW24625   4.922   3.743   4.793
 7909SOL    HW124626   4.905   3.689   4.876
 7909SOL    HW224627   4.932   3.682   4.715
 7910SOL     OW24628   3.379   3.093   5.282
 7910SOL    HW124629   3.440   3.084   5.361
 7910SOL    HW224630   3.430   3.131   5.205
 7911SOL     OW24631   0.363   4.210   6.891
 7911SOL    HW124632   0.433   4.179   6.827
 7911SOL    HW224633   0.286   4.249   6.841
 7912SOL     OW24634   7.026   5.328   0.123
 7912SOL    HW124635   7.016   5.296   0.029
 7912SOL    HW224636   6.955   5.397   0.142
 7913SOL     OW24637   0.689   5.383   6.820
 7913SOL    HW124638   0.721   5.292   6.848
 7913SOL    HW224639   0.737   5.410   6.736
 7914SOL     OW24640   0.417   4.792   7.016
 7914SOL    HW124641   0.410   4.739   6.931
 7914SOL    HW224642   0.390   4.736   0.068
 7915SOL     OW24643   4.774   2.342   2.518
 7915SOL    HW124644   4.757   2.263   2.459
 7915SOL    HW224645   4.687   2.388   2.537
 7916SOL     OW24646   5.433   3.907   5.105
 7916SOL    HW124647   5.512   3.900   5.043
 7916SOL    HW224648   5.349   3.907   5.052
 7917SOL     OW24649   4.022   3.212   3.728
 7917SOL    HW124650   3.971   3.252   3.804
 7917SOL    HW224651   4.002   3.114   3.723
 7918SOL     OW24652   6.600   1.771   1.272
 7918SOL    HW124653   6.592   1.775   1.172
 7918SOL    HW224654   6.618   1.863   1.308
 7919SOL     OW24655   6.835   3.951   3.574
 7919SOL    HW124656   6.889   3.921   3.495
 7919SOL    HW224657   6.895   3.997   3.639
 7920SOL     OW24658   6.939   5.147   1.314
 7920SOL    HW124659   6.997   5.181   1.388
 7920SOL    HW224660   6.989   5.079   1.261
 7921SOL     OW24661   3.646   6.407   0.324
 7921SOL    HW124662   3.675   6.326   0.273
 7921SOL    HW224663   3.551   6.395   0.355
 7922SOL     OW24664   6.644   5.917   6.861
 7922SOL    HW124665   6.597   5.840   6.904
 7922SOL    HW224666   6.584   5.997   6.860
 7923SOL     OW24667   1.950   0.956   3.054
 7923SOL    HW124668   1.916   1.017   3.126
 7923SOL    HW224669   1.956   0.863   3.090
 7924SOL     OW24670   3.579   6.472   3.293
 7924SOL    HW124671   3.487   6.507   3.311
 7924SOL    HW224672   3.604   6.406   3.364
 7925SOL     OW24673   0.120   1.552   6.578
 7925SOL    HW124674   0.208   1.553   6.531
 7925SOL    HW224675   0.068   1.634   6.553
 7926SOL     OW24676   4.262   1.042   3.854
 7926SOL    HW124677   4.319   0.987   3.915
 7926SOL    HW224678   4.288   1.138   3.861
 7927SOL     OW24679   4.167   5.621   4.978
 7927SOL    HW124680   4.177   5.708   5.026
 7927SOL    HW224681   4.127   5.637   4.887
 7928SOL     OW24682   1.020   4.177   3.745
 7928SOL    HW124683   1.012   4.207   3.840
 7928SOL    HW224684   1.001   4.254   3.685
 7929SOL     OW24685   4.000   3.680   4.983
 7929SOL    HW124686   3.902   3.662   4.994
 7929SOL    HW224687   4.025   3.761   5.037
 7930SOL     OW24688   4.677   5.616   3.372
 7930SOL    HW124689   4.709   5.530   3.413
 7930SOL    HW224690   4.693   5.691   3.436
 7931SOL     OW24691   1.968   2.068   0.044
 7931SOL    HW124692   2.023   1.986   0.031
 7931SOL    HW224693   2.014   2.146   0.002
 7932SOL     OW24694   2.542   0.111   6.928
 7932SOL    HW124695   2.450   0.080   6.951
 7932SOL    HW224696   2.581   0.162   7.005
 7933SOL     OW24697   0.292   0.180   0.446
 7933SOL    HW124698   0.306   0.269   0.404
 7933SOL    HW224699   0.286   0.191   0.546
 7934SOL     OW24700   2.330   3.418   0.074
 7934SOL    HW124701   2.286   3.336   0.037
 7934SOL    HW224702   2.355   3.402   0.169
 7935SOL     OW24703   5.310   5.688   0.078
 7935SOL    HW124704   5.349   5.780   0.077
 7935SOL    HW224705   5.377   5.623   0.042
 7936SOL     OW24706   3.284   5.566   2.693
 7936SOL    HW124707   3.188   5.560   2.664
 7936SOL    HW224708   3.289   5.557   2.792
 7937SOL     OW24709   5.335   6.814   4.356
 7937SOL    HW124710   5.259   6.795   4.294
 7937SOL    HW224711   5.405   6.868   4.308
 7938SOL     OW24712   4.922   4.932   4.634
 7938SOL    HW124713   4.988   4.869   4.676
 7938SOL    HW224714   4.847   4.880   4.595
 7939SOL     OW24715   1.051   1.424   6.163
 7939SOL    HW124716   1.059   1.331   6.125
 7939SOL    HW224717   0.963   1.432   6.211
 7940SOL     OW24718   2.726   5.231   1.926
 7940SOL    HW124719   2.725   5.131   1.936
 7940SOL    HW224720   2.796   5.270   1.987
 7941SOL     OW24721   6.532   6.750   1.747
 7941SOL    HW124722   6.476   6.697   1.811
 7941SOL    HW224723   6.508   6.724   1.653
 7942SOL     OW24724   6.901   6.570   2.815
 7942SOL    HW124725   6.999   6.589   2.813
 7942SOL    HW224726   6.883   6.489   2.871
 7943SOL     OW24727   5.793   1.878   1.034
 7943SOL    HW124728   5.843   1.958   1.001
 7943SOL    HW224729   5.857   1.804   1.052
 7944SOL     OW24730   6.980   3.211   1.067
 7944SOL    HW124731   6.913   3.269   1.113
 7944SOL    HW224732   0.028   3.268   1.030
 7945SOL     OW24733   5.554   6.856   2.399
 7945SOL    HW124734   5.500   6.935   2.428
 7945SOL    HW224735   5.567   6.794   2.476
 7946SOL     OW24736   1.348   2.754   5.705
 7946SOL    HW124737   1.354   2.743   5.606
 7946SOL    HW224738   1.392   2.676   5.750
 7947SOL     OW24739   3.882   3.151   6.847
 7947SOL    HW124740   3.915   3.115   6.935
 7947SOL    HW224741   3.913   3.091   6.773
 7948SOL     OW24742   6.519   6.621   1.441
 7948SOL    HW124743   6.545   6.661   1.353
 7948SOL    HW224744   6.535   6.522   1.439
 7949SOL     OW24745   5.131   5.224   4.023
 7949SOL    HW124746   5.160   5.143   4.074
 7949SOL    HW224747   5.130   5.203   3.926
 7950SOL     OW24748   5.193   5.027   3.550
 7950SOL    HW124749   5.160   5.099   3.610
 7950SOL    HW224750   5.293   5.018   3.560
 7951SOL     OW24751   3.124   3.514   1.091
 7951SOL    HW124752   3.087   3.592   1.041
 7951SOL    HW224753   3.057   3.482   1.159
 7952SOL     OW24754   0.294   3.117   6.410
 7952SOL    HW124755   0.241   3.110   6.494
 7952SOL    HW224756   0.269   3.042   6.348
 7953SOL     OW24757   1.965   2.798   2.996
 7953SOL    HW124758   1.893   2.864   3.019
 7953SOL    HW224759   1.974   2.731   3.069
 7954SOL     OW24760   4.506   5.405   4.818
 7954SOL    HW124761   4.442   5.350   4.871
 7954SOL    HW224762   4.591   5.415   4.868
 7955SOL     OW24763   7.008   6.550   6.542
 7955SOL    HW124764   7.018   6.518   6.636
 7955SOL    HW224765   0.069   6.589   6.510
 7956SOL     OW24766   0.629   5.457   2.812
 7956SOL    HW124767   0.722   5.474   2.781
 7956SOL    HW224768   0.631   5.411   2.901
 7957SOL     OW24769   2.417   1.724   0.593
 7957SOL    HW124770   2.442   1.674   0.676
 7957SOL    HW224771   2.333   1.777   0.610
 7958SOL     OW24772   3.356   5.559   4.210
 7958SOL    HW124773   3.358   5.622   4.132
 7958SOL    HW224774   3.412   5.479   4.189
 7959SOL     OW24775   4.133   5.070   0.655
 7959SOL    HW124776   4.141   5.123   0.740
 7959SOL    HW224777   4.036   5.064   0.629
 7960SOL     OW24778   3.673   2.010   1.051
 7960SOL    HW124779   3.657   1.957   0.968
 7960SOL    HW224780   3.595   2.000   1.112
 7961SOL     OW24781   2.309   6.177   6.307
 7961SOL    HW124782   2.384   6.113   6.290
 7961SOL    HW224783   2.225   6.140   6.266
 7962SOL     OW24784   2.177   0.561   0.931
 7962SOL    HW124785   2.137   0.641   0.975
 7962SOL    HW224786   2.128   0.540   0.847
 7963SOL     OW24787   6.925   1.402   4.530
 7963SOL    HW124788   6.919   1.310   4.568
 7963SOL    HW224789   7.021   1.426   4.517
 7964SOL     OW24790   5.915   5.305   3.704
 7964SOL    HW124791   6.009   5.289   3.734
 7964SOL    HW224792   5.872   5.218   3.681
 7965SOL     OW24793   4.255   3.130   0.067
 7965SOL    HW124794   4.241   3.031   0.068
 7965SOL    HW224795   4.232   3.168   0.156
 7966SOL     OW24796   1.026   3.575   4.772
 7966SOL    HW124797   1.091   3.532   4.710
 7966SOL    HW224798   0.973   3.505   4.819
 7967SOL     OW24799   3.007   6.529   3.781
 7967SOL    HW124800   2.923   6.497   3.736
 7967SOL    HW224801   3.000   6.511   3.879
 7968SOL     OW24802   2.162   3.008   3.148
 7968SOL    HW124803   2.102   2.948   3.096
 7968SOL    HW224804   2.213   2.955   3.215
 7969SOL     OW24805   4.528   0.102   2.114
 7969SOL    HW124806   4.559   0.062   2.201
 7969SOL    HW224807   4.454   0.045   2.077
 7970SOL     OW24808   0.277   4.097   2.604
 7970SOL    HW124809   0.371   4.128   2.620
 7970SOL    HW224810   0.264   4.083   2.506
 7971SOL     OW24811   3.270   1.264   1.817
 7971SOL    HW124812   3.226   1.185   1.775
 7971SOL    HW224813   3.208   1.342   1.815
 7972SOL     OW24814   6.819   4.104   1.263
 7972SOL    HW124815   6.903   4.128   1.214
 7972SOL    HW224816   6.831   4.017   1.310
 7973SOL     OW24817   5.237   3.375   3.728
 7973SOL    HW124818   5.243   3.472   3.704
 7973SOL    HW224819   5.165   3.331   3.675
 7974SOL     OW24820   5.976   0.471   4.418
 7974SOL    HW124821   5.905   0.531   4.381
 7974SOL    HW224822   5.993   0.495   4.513
 7975SOL     OW24823   5.281   0.445   3.735
 7975SOL    HW124824   5.255   0.530   3.782
 7975SOL    HW224825   5.285   0.370   3.801
 7976SOL     OW24826   0.404   6.388   5.802
 7976SOL    HW124827   0.460   6.402   5.721
 7976SOL    HW224828   0.312   6.424   5.786
 7977SOL     OW24829   4.297   5.961   2.420
 7977SOL    HW124830   4.343   5.932   2.504
 7977SOL    HW224831   4.236   6.038   2.440
 7978SOL     OW24832   5.906   4.347   6.052
 7978SOL    HW124833   5.894   4.445   6.036
 7978SOL    HW224834   5.996   4.319   6.019
 7979SOL     OW24835   2.688   0.256   4.782
 7979SOL    HW124836   2.691   0.170   4.833
 7979SOL    HW224837   2.768   0.311   4.805
 7980SOL     OW24838   3.965   5.512   0.123
 7980SOL    HW124839   3.982   5.503   0.221
 7980SOL    HW224840   3.930   5.604   0.103
 7981SOL     OW24841   1.068   5.584   1.669
 7981SOL    HW124842   1.136   5.517   1.698
 7981SOL    HW224843   0.978   5.541   1.664
 7982SOL     OW24844   6.673   2.191   0.696
 7982SOL    HW124845   6.751   2.235   0.740
 7982SOL    HW224846   6.605   2.260   0.671
 7983SOL     OW24847   5.180   1.976   3.172
 7983SOL    HW124848   5.128   1.904   3.218
 7983SOL    HW224849   5.186   2.056   3.231
 7984SOL     OW24850   1.313   1.663   1.730
 7984SOL    HW124851   1.223   1.632   1.701
 7984SOL    HW224852   1.356   1.716   1.656
 7985SOL     OW24853   1.909   0.037   3.059
 7985SOL    HW124854   1.943   0.109   2.998
 7985SOL    HW224855   1.813   0.021   3.041
 7986SOL     OW24856   3.374   1.330   0.053
 7986SOL    HW124857   3.294   1.332   0.113
 7986SOL    HW224858   3.351   1.374   6.991
 7987SOL     OW24859   0.589   3.516   6.477
 7987SOL    HW124860   0.669   3.456   6.473
 7987SOL    HW224861   0.528   3.495   6.400
 7988SOL     OW24862   2.461   2.451   4.427
 7988SOL    HW124863   2.537   2.435   4.490
 7988SOL    HW224864   2.466   2.384   4.352
 7989SOL     OW24865   3.453   2.753   5.315
 7989SOL    HW124866   3.484   2.670   5.361
 7989SOL    HW224867   3.353   2.750   5.305
 7990SOL     OW24868   0.489   3.640   3.241
 7990SOL    HW124869   0.503   3.612   3.336
 7990SOL    HW224870   0.426   3.718   3.239
 7991SOL     OW24871   6.775   2.226   5.949
 7991SOL    HW124872   6.860   2.278   5.942
 7991SOL    HW224873   6.743   2.202   5.857
 7992SOL     OW24874   1.287   6.447   0.960
 7992SOL    HW124875   1.378   6.407   0.973
 7992SOL    HW224876   1.296   6.546   0.950
 7993SOL     OW24877   1.900   5.686   6.631
 7993SOL    HW124878   1.905   5.757   6.562
 7993SOL    HW224879   1.858   5.604   6.591
 7994SOL     OW24880   4.619   0.400   3.649
 7994SOL    HW124881   4.703   0.433   3.606
 7994SOL    HW224882   4.608   0.444   3.738
 7995SOL     OW24883   3.857   5.124   3.553
 7995SOL    HW124884   3.838   5.038   3.600
 7995SOL    HW224885   3.781   5.188   3.569
 7996SOL     OW24886   3.293   6.305   4.308
 7996SOL    HW124887   3.300   6.212   4.272
 7996SOL    HW224888   3.302   6.371   4.233
 7997SOL     OW24889   6.334   1.788   1.361
 7997SOL    HW124890   6.427   1.752   1.354
 7997SOL    HW224891   6.269   1.712   1.363
 7998SOL     OW24892   4.331   5.074   0.475
 7998SOL    HW124893   4.245   5.079   0.525
 7998SOL    HW224894   4.406   5.061   0.539
 7999SOL     OW24895   1.245   0.198   5.916
 7999SOL    HW124896   1.294   0.132   5.859
 7999SOL    HW224897   1.186   0.149   5.980
 8000SOL     OW24898   5.641   0.184   6.628
 8000SOL    HW124899   5.599   0.123   6.561
 8000SOL    HW224900   5.606   0.277   6.615
 8001SOL     OW24901   2.906   6.075   1.733
 8001SOL    HW124902   2.854   5.995   1.703
 8001SOL    HW224903   2.903   6.082   1.833
 8002SOL     OW24904   0.516   3.243   5.802
 8002SOL    HW124905   0.417   3.250   5.789
 8002SOL    HW224906   0.550   3.326   5.847
 8003SOL     OW24907   2.772   4.698   2.679
 8003SOL    HW124908   2.809   4.704   2.587
 8003SOL    HW224909   2.845   4.669   2.742
 8004SOL     OW24910   1.781   4.822   3.283
 8004SOL    HW124911   1.782   4.738   3.336
 8004SOL    HW224912   1.732   4.807   3.197
 8005SOL     OW24913   3.577   1.470   2.423
 8005SOL    HW124914   3.536   1.497   2.336
 8005SOL    HW224915   3.522   1.508   2.498
 8006SOL     OW24916   2.517   5.870   0.605
 8006SOL    HW124917   2.513   5.843   0.509
 8006SOL    HW224918   2.588   5.817   0.651
 8007SOL     OW24919   0.626   0.339   3.901
 8007SOL    HW124920   0.550   0.291   3.857
 8007SOL    HW224921   0.661   0.284   3.976
 8008SOL     OW24922   4.565   6.529   5.970
 8008SOL    HW124923   4.485   6.473   5.947
 8008SOL    HW224924   4.550   6.623   5.940
 8009SOL     OW24925   6.163   0.181   2.700
 8009SOL    HW124926   6.120   0.225   2.621
 8009SOL    HW224927   6.111   0.202   2.783
 8010SOL     OW24928   2.032   1.419   7.010
 8010SOL    HW124929   2.006   1.513   6.987
 8010SOL    HW224930   2.022   1.360   6.930
 8011SOL     OW24931   2.056   2.577   1.474
 8011SOL    HW124932   2.109   2.652   1.513
 8011SOL    HW224933   2.102   2.543   1.391
 8012SOL     OW24934   1.491   5.864   1.258
 8012SOL    HW124935   1.530   5.779   1.293
 8012SOL    HW224936   1.518   5.876   1.162
 8013SOL     OW24937   0.262   5.345   4.596
 8013SOL    HW124938   0.217   5.270   4.644
 8013SOL    HW224939   0.253   5.429   4.650
 8014SOL     OW24940   1.493   6.220   5.495
 8014SOL    HW124941   1.488   6.320   5.502
 8014SOL    HW224942   1.456   6.179   5.578
 8015SOL     OW24943   3.076   1.550   0.483
 8015SOL    HW124944   3.007   1.620   0.464
 8015SOL    HW224945   3.048   1.497   0.563
 8016SOL     OW24946   4.435   0.023   0.049
 8016SOL    HW124947   4.387   6.971   0.088
 8016SOL    HW224948   4.451   0.092   0.120
 8017SOL     OW24949   0.188   4.763   5.940
 8017SOL    HW124950   0.156   4.813   5.860
 8017SOL    HW224951   0.148   4.671   5.940
 8018SOL     OW24952   4.898   2.393   5.936
 8018SOL    HW124953   4.954   2.390   5.853
 8018SOL    HW224954   4.814   2.445   5.918
 8019SOL     OW24955   1.907   3.680   6.981
 8019SOL    HW124956   1.988   3.693   0.011
 8019SOL    HW224957   1.918   3.598   6.924
 8020SOL     OW24958   5.622   6.585   0.182
 8020SOL    HW124959   5.721   6.581   0.196
 8020SOL    HW224960   5.582   6.496   0.205
 8021SOL     OW24961   1.206   1.759   1.958
 8021SOL    HW124962   1.234   1.735   1.864
 8021SOL    HW224963   1.287   1.767   2.016
 8022SOL     OW24964   4.146   0.997   2.958
 8022SOL    HW124965   4.212   0.936   2.914
 8022SOL    HW224966   4.058   0.951   2.966
 8023SOL     OW24967   5.687   6.315   3.592
 8023SOL    HW124968   5.698   6.308   3.691
 8023SOL    HW224969   5.774   6.294   3.547
 8024SOL     OW24970   3.308   5.342   6.911
 8024SOL    HW124971   3.399   5.332   6.871
 8024SOL    HW224972   3.315   5.351   7.010
 8025SOL     OW24973   3.560   6.437   5.781
 8025SOL    HW124974   3.548   6.431   5.681
 8025SOL    HW224975   3.554   6.345   5.820
 8026SOL     OW24976   0.487   3.658   6.820
 8026SOL    HW124977   0.447   3.743   6.855
 8026SOL    HW224978   0.538   3.677   6.736
 8027SOL     OW24979   4.780   2.335   5.456
 8027SOL    HW124980   4.698   2.290   5.491
 8027SOL    HW224981   4.757   2.428   5.427
 8028SOL     OW24982   3.631   4.665   5.386
 8028SOL    HW124983   3.667   4.573   5.380
 8028SOL    HW224984   3.691   4.729   5.337
 8029SOL     OW24985   5.631   3.904   6.626
 8029SOL    HW124986   5.669   3.924   6.536
 8029SOL    HW224987   5.608   3.806   6.631
 8030SOL     OW24988   5.781   4.011   5.672
 8030SOL    HW124989   5.702   4.006   5.611
 8030SOL    HW224990   5.769   3.946   5.747
 8031SOL     OW24991   5.310   5.746   2.351
 8031SOL    HW124992   5.410   5.748   2.344
 8031SOL    HW224993   5.274   5.680   2.285
 8032SOL     OW24994   6.061   4.365   5.141
 8032SOL    HW124995   6.157   4.374   5.116
 8032SOL    HW224996   6.003   4.396   5.066
 8033SOL     OW24997   5.135   3.201   6.821
 8033SOL    HW124998   5.038   3.178   6.827
 8033SOL    HW224999   5.179   3.180   6.909
 8034SOL     OW25000   6.265   1.220   5.389
 8034SOL    HW125001   6.246   1.267   5.302
 8034SOL    HW225002   6.323   1.278   5.446
 8035SOL     OW25003   4.901   0.034   5.129
 8035SOL    HW125004   4.886   6.965   5.102
 8035SOL    HW225005   4.821   0.089   5.106
 8036SOL     OW25006   1.447   3.561   1.805
 8036SOL    HW125007   1.351   3.572   1.832
 8036SOL    HW225008   1.477   3.469   1.827
 8037SOL     OW25009   1.545   3.276   1.761
 8037SOL    HW125010   1.507   3.183   1.751
 8037SOL    HW225011   1.640   3.276   1.730
 8038SOL     OW25012   5.182   1.942   2.917
 8038SOL    HW125013   5.262   1.967   2.863
 8038SOL    HW225014   5.199   1.959   3.014
 8039SOL     OW25015   1.700   6.841   3.617
 8039SOL    HW125016   1.790   6.873   3.590
 8039SOL    HW225017   1.709   6.765   3.682
 8040SOL     OW25018   0.777   5.298   0.860
 8040SOL    HW125019   0.762   5.258   0.770
 8040SOL    HW225020   0.730   5.386   0.866
 8041SOL     OW25021   3.761   1.835   2.169
 8041SOL    HW125022   3.685   1.893   2.198
 8041SOL    HW225023   3.840   1.851   2.229
 8042SOL     OW25024   3.479   2.817   1.947
 8042SOL    HW125025   3.384   2.837   1.972
 8042SOL    HW225026   3.538   2.890   1.982
 8043SOL     OW25027   3.094   6.859   0.483
 8043SOL    HW125028   3.002   6.882   0.514
 8043SOL    HW225029   3.090   6.820   0.391
 8044SOL     OW25030   3.090   3.143   1.308
 8044SOL    HW125031   3.120   3.168   1.216
 8044SOL    HW225032   2.991   3.130   1.309
 8045SOL     OW25033   5.572   1.249   2.079
 8045SOL    HW125034   5.583   1.182   2.005
 8045SOL    HW225035   5.487   1.300   2.066
 8046SOL     OW25036   6.086   4.441   6.297
 8046SOL    HW125037   6.047   4.349   6.293
 8046SOL    HW225038   6.107   4.463   6.392
 8047SOL     OW25039   3.280   5.135   4.812
 8047SOL    HW125040   3.251   5.113   4.719
 8047SOL    HW225041   3.372   5.098   4.827
 8048SOL     OW25042   5.713   1.291   5.055
 8048SOL    HW125043   5.777   1.363   5.081
 8048SOL    HW225044   5.737   1.206   5.103
 8049SOL     OW25045   1.064   6.576   1.768
 8049SOL    HW125046   1.030   6.609   1.856
 8049SOL    HW225047   1.152   6.530   1.781
 8050SOL     OW25048   0.930   3.978   1.220
 8050SOL    HW125049   0.977   4.037   1.285
 8050SOL    HW225050   0.950   4.009   1.127
 8051SOL     OW25051   5.245   0.013   3.558
 8051SOL    HW125052   5.262   6.983   3.477
 8051SOL    HW225053   5.292   0.101   3.548
 8052SOL     OW25054   3.256   1.548   2.267
 8052SOL    HW125055   3.268   1.615   2.339
 8052SOL    HW225056   3.338   1.546   2.209
 8053SOL     OW25057   3.885   3.597   2.935
 8053SOL    HW125058   3.867   3.511   2.983
 8053SOL    HW225059   3.811   3.662   2.954
 8054SOL     OW25060   5.107   6.546   4.707
 8054SOL    HW125061   5.047   6.595   4.769
 8054SOL    HW225062   5.194   6.527   4.753
 8055SOL     OW25063   0.836   0.513   5.637
 8055SOL    HW125064   0.897   0.532   5.560
 8055SOL    HW225065   0.745   0.548   5.617
 8056SOL     OW25066   4.835   0.989   3.414
 8056SOL    HW125067   4.795   1.026   3.330
 8056SOL    HW225068   4.907   0.923   3.392
 8057SOL     OW25069   2.733   1.002   2.557
 8057SOL    HW125070   2.822   1.001   2.513
 8057SOL    HW225071   2.730   1.075   2.625
 8058SOL     OW25072   3.530   0.090   2.993
 8058SOL    HW125073   3.562   7.022   3.007
 8058SOL    HW225074   3.586   0.153   3.047
 8059SOL     OW25075   3.848   2.026   4.866
 8059SOL    HW125076   3.917   2.095   4.844
 8059SOL    HW225077   3.894   1.939   4.885
 8060SOL     OW25078   0.304   1.285   4.587
 8060SOL    HW125079   0.231   1.228   4.624
 8060SOL    HW225080   0.294   1.378   4.622
 8061SOL     OW25081   6.889   5.621   1.768
 8061SOL    HW125082   6.823   5.677   1.718
 8061SOL    HW225083   6.846   5.585   1.851
 8062SOL     OW25084   2.141   4.423   3.974
 8062SOL    HW125085   2.148   4.413   3.875
 8062SOL    HW225086   2.224   4.390   4.017
 8063SOL     OW25087   2.105   3.647   0.111
 8063SOL    HW125088   2.189   3.594   0.103
 8063SOL    HW225089   2.121   3.727   0.169
 8064SOL     OW25090   0.533   4.933   0.230
 8064SOL    HW125091   0.455   4.906   0.287
 8064SOL    HW225092   0.557   4.859   0.168
 8065SOL     OW25093   4.298   6.578   3.935
 8065SOL    HW125094   4.209   6.533   3.931
 8065SOL    HW225095   4.361   6.522   3.989
 8066SOL     OW25096   1.247   1.168   6.254
 8066SOL    HW125097   1.326   1.186   6.196
 8066SOL    HW225098   1.164   1.166   6.197
 8067SOL     OW25099   4.126   3.365   1.610
 8067SOL    HW125100   4.084   3.448   1.574
 8067SOL    HW225101   4.056   3.295   1.623
 8068SOL     OW25102   6.349   5.910   5.315
 8068SOL    HW125103   6.276   5.973   5.340
 8068SOL    HW225104   6.433   5.935   5.363
 8069SOL     OW25105   2.352   6.107   1.522
 8069SOL    HW125106   2.276   6.142   1.467
 8069SOL    HW225107   2.354   6.008   1.518
 8070SOL     OW25108   2.845   4.607   0.881
 8070SOL    HW125109   2.856   4.527   0.822
 8070SOL    HW225110   2.935   4.644   0.904
 8071SOL     OW25111   3.884   6.396   5.200
 8071SOL    HW125112   3.817   6.470   5.194
 8071SOL    HW225113   3.973   6.435   5.226
 8072SOL     OW25114   3.460   1.506   0.330
 8072SOL    HW125115   3.416   1.588   0.368
 8072SOL    HW225116   3.391   1.445   0.293
 8073SOL     OW25117   5.068   0.124   6.666
 8073SOL    HW125118   5.027   0.044   6.622
 8073SOL    HW225119   5.168   0.118   6.658
 8074SOL     OW25120   3.327   2.722   0.022
 8074SOL    HW125121   3.382   2.779   0.083
 8074SOL    HW225122   3.387   2.667   6.990
 8075SOL     OW25123   6.628   1.577   1.617
 8075SOL    HW125124   6.609   1.549   1.522
 8075SOL    HW225125   6.544   1.569   1.671
 8076SOL     OW25126   4.538   2.711   5.948
 8076SOL    HW125127   4.629   2.749   5.966
 8076SOL    HW225128   4.506   2.660   6.028
 8077SOL     OW25129   0.747   6.910   1.640
 8077SOL    HW125130   0.836   6.933   1.679
 8077SOL    HW225131   0.703   6.841   1.697
 8078SOL     OW25132   6.363   2.177   0.472
 8078SOL    HW125133   6.267   2.206   0.473
 8078SOL    HW225134   6.375   2.100   0.535
 8079SOL     OW25135   5.617   2.012   3.306
 8079SOL    HW125136   5.556   2.090   3.296
 8079SOL    HW225137   5.710   2.044   3.322
 8080SOL     OW25138   1.968   3.649   0.687
 8080SOL    HW125139   1.875   3.633   0.656
 8080SOL    HW225140   2.031   3.642   0.609
 8081SOL     OW25141   5.885   0.742   5.528
 8081SOL    HW125142   5.885   0.653   5.482
 8081SOL    HW225143   5.873   0.814   5.459
 8082SOL     OW25144   5.610   2.190   3.002
 8082SOL    HW125145   5.570   2.179   2.911
 8082SOL    HW225146   5.555   2.141   3.069
 8083SOL     OW25147   4.988   3.036   1.948
 8083SOL    HW125148   4.909   3.018   2.007
 8083SOL    HW225149   5.072   3.011   1.995
 8084SOL     OW25150   6.076   6.390   1.193
 8084SOL    HW125151   6.022   6.314   1.230
 8084SOL    HW225152   6.165   6.355   1.161
 8085SOL     OW25153   5.971   0.087   1.751
 8085SOL    HW125154   5.978   0.005   1.694
 8085SOL    HW225155   6.023   0.162   1.710
 8086SOL     OW25156   3.858   0.206   4.184
 8086SOL    HW125157   3.945   0.234   4.144
 8086SOL    HW225158   3.819   0.132   4.131
 8087SOL     OW25159   2.218   1.768   1.023
 8087SOL    HW125160   2.255   1.718   1.101
 8087SOL    HW225161   2.172   1.705   0.961
 8088SOL     OW25162   6.459   1.946   2.062
 8088SOL    HW125163   6.516   2.019   2.102
 8088SOL    HW225164   6.507   1.859   2.069
 8089SOL     OW25165   5.015   2.044   6.798
 8089SOL    HW125166   5.062   1.978   6.857
 8089SOL    HW225167   5.030   2.020   6.703
 8090SOL     OW25168   5.084   2.239   6.522
 8090SOL    HW125169   5.103   2.141   6.514
 8090SOL    HW225170   5.163   2.285   6.563
 8091SOL     OW25171   3.223   4.170   0.001
 8091SOL    HW125172   3.146   4.140   0.056
 8091SOL    HW225173   3.193   4.186   6.932
 8092SOL     OW25174   1.639   1.155   4.511
 8092SOL    HW125175   1.693   1.236   4.532
 8092SOL    HW225176   1.592   1.168   4.423
 8093SOL     OW25177   6.257   6.242   1.078
 8093SOL    HW125178   6.224   6.233   0.984
 8093SOL    HW225179   6.356   6.231   1.080
 8094SOL     OW25180   1.943   4.426   5.359
 8094SOL    HW125181   1.895   4.509   5.329
 8094SOL    HW225182   1.940   4.419   5.458
 8095SOL     OW25183   6.021   3.365   4.029
 8095SOL    HW125184   5.956   3.376   4.104
 8095SOL    HW225185   6.027   3.269   4.002
 8096SOL     OW25186   2.500   5.848   3.217
 8096SOL    HW125187   2.432   5.879   3.284
 8096SOL    HW225188   2.577   5.912   3.215
 8097SOL     OW25189   5.289   0.940   3.746
 8097SOL    HW125190   5.252   1.006   3.681
 8097SOL    HW225191   5.374   0.901   3.710
 8098SOL     OW25192   2.321   6.456   4.354
 8098SOL    HW125193   2.317   6.525   4.427
 8098SOL    HW225194   2.237   6.402   4.355
 8099SOL     OW25195   6.390   0.818   4.025
 8099SOL    HW125196   6.426   0.768   3.946
 8099SOL    HW225197   6.451   0.893   4.048
 8100SOL     OW25198   0.451   6.998   0.366
 8100SOL    HW125199   0.516   6.986   0.441
 8100SOL    HW225200   0.385   0.043   0.391
 8101SOL     OW25201   1.573   0.099   4.794
 8101SOL    HW125202   1.656   0.085   4.848
 8101SOL    HW225203   1.598   0.138   4.705
 8102SOL     OW25204   1.342   5.409   6.647
 8102SOL    HW125205   1.336   5.314   6.617
 8102SOL    HW225206   1.254   5.454   6.631
 8103SOL     OW25207   4.102   1.085   1.703
 8103SOL    HW125208   4.145   0.998   1.678
 8103SOL    HW225209   4.025   1.103   1.643
 8104SOL     OW25210   3.320   6.811   6.547
 8104SOL    HW125211   3.340   6.795   6.643
 8104SOL    HW225212   3.405   6.825   6.496
 8105SOL     OW25213   2.360   2.423   3.380
 8105SOL    HW125214   2.308   2.370   3.446
 8105SOL    HW225215   2.406   2.362   3.316
 8106SOL     OW25216   1.682   5.464   3.704
 8106SOL    HW125217   1.672   5.453   3.605
 8106SOL    HW225218   1.637   5.388   3.750
 8107SOL     OW25219   1.898   6.358   5.576
 8107SOL    HW125220   1.927   6.287   5.512
 8107SOL    HW225221   1.876   6.441   5.526
 8108SOL     OW25222   6.729   2.910   4.819
 8108SOL    HW125223   6.683   2.879   4.903
 8108SOL    HW225224   6.661   2.920   4.746
 8109SOL     OW25225   1.908   4.162   5.003
 8109SOL    HW125226   1.951   4.103   5.071
 8109SOL    HW225227   1.897   4.111   4.917
 8110SOL     OW25228   3.361   6.515   0.346
 8110SOL    HW125229   3.345   6.546   0.253
 8110SOL    HW225230   3.274   6.510   0.395
 8111SOL     OW25231   2.920   0.106   5.535
 8111SOL    HW125232   2.981   0.027   5.524
 8111SOL    HW225233   2.828   0.081   5.506
 8112SOL     OW25234   2.638   0.744   5.394
 8112SOL    HW125235   2.559   0.685   5.377
 8112SOL    HW225236   2.720   0.687   5.405
 8113SOL     OW25237   3.146   2.827   0.216
 8113SOL    HW125238   3.201   2.776   0.149
 8113SOL    HW225239   3.052   2.834   0.183
 8114SOL     OW25240   2.362   2.466   2.248
 8114SOL    HW125241   2.361   2.565   2.235
 8114SOL    HW225242   2.269   2.430   2.238
 8115SOL     OW25243   3.874   1.135   1.469
 8115SOL    HW125244   3.777   1.138   1.448
 8115SOL    HW225245   3.927   1.149   1.386
 8116SOL     OW25246   5.280   0.105   4.900
 8116SOL    HW125247   5.249   0.023   4.851
 8116SOL    HW225248   5.379   0.098   4.915
 8117SOL     OW25249   1.663   2.094   3.618
 8117SOL    HW125250   1.643   2.054   3.707
 8117SOL    HW225251   1.598   2.059   3.550
 8118SOL     OW25252   0.713   3.916   5.999
 8118SOL    HW125253   0.618   3.932   6.027
 8118SOL    HW225254   0.764   4.003   6.002
 8119SOL     OW25255   0.449   5.792   4.185
 8119SOL    HW125256   0.377   5.761   4.246
 8119SOL    HW225257   0.431   5.759   4.092
 8120SOL     OW25258   3.970   3.978   6.984
 8120SOL    HW125259   3.901   4.030   0.008
 8120SOL    HW225260   4.022   4.040   6.925
 8121SOL     OW25261   6.845   6.350   2.976
 8121SOL    HW125262   6.802   6.266   2.945
 8121SOL    HW225263   6.940   6.333   3.000
 8122SOL     OW25264   0.142   4.975   2.512
 8122SOL    HW125265   0.113   4.945   2.602
 8122SOL    HW225266   0.234   5.012   2.517
 8123SOL     OW25267   0.911   0.293   6.515
 8123SOL    HW125268   0.824   0.244   6.520
 8123SOL    HW225269   0.902   0.382   6.558
 8124SOL     OW25270   1.142   6.775   1.579
 8124SOL    HW125271   1.210   6.842   1.610
 8124SOL    HW225272   1.090   6.742   1.658
 8125SOL     OW25273   6.230   5.335   3.309
 8125SOL    HW125274   6.161   5.392   3.355
 8125SOL    HW225275   6.283   5.392   3.246
 8126SOL     OW25276   5.907   4.952   2.114
 8126SOL    HW125277   5.879   4.869   2.162
 8126SOL    HW225278   6.007   4.959   2.115
 8127SOL     OW25279   2.349   5.341   0.412
 8127SOL    HW125280   2.444   5.310   0.409
 8127SOL    HW225281   2.345   5.432   0.454
 8128SOL     OW25282   3.551   2.591   6.941
 8128SOL    HW125283   3.628   2.649   6.968
 8128SOL    HW225284   3.585   2.500   6.919
 8129SOL     OW25285   5.303   1.041   6.752
 8129SOL    HW125286   5.334   0.946   6.763
 8129SOL    HW225287   5.352   1.099   6.817
 8130SOL     OW25288   0.999   5.233   6.009
 8130SOL    HW125289   1.032   5.320   6.045
 8130SOL    HW225290   0.900   5.227   6.023
 8131SOL     OW25291   3.004   1.317   0.071
 8131SOL    HW125292   2.935   1.293   0.139
 8131SOL    HW225293   3.045   1.233   0.035
 8132SOL     OW25294   5.456   5.995   5.977
 8132SOL    HW125295   5.356   6.003   5.985
 8132SOL    HW225296   5.477   5.929   5.904
 8133SOL     OW25297   3.184   4.939   3.034
 8133SOL    HW125298   3.176   5.020   2.976
 8133SOL    HW225299   3.204   4.967   3.128
 8134SOL     OW25300   2.004   1.845   3.928
 8134SOL    HW125301   2.103   1.845   3.942
 8134SOL    HW225302   1.967   1.755   3.953
 8135SOL     OW25303   2.991   5.101   2.177
 8135SOL    HW125304   3.036   5.039   2.112
 8135SOL    HW225305   2.989   5.193   2.138
 8136SOL     OW25306   4.301   5.255   3.034
 8136SOL    HW125307   4.216   5.283   3.076
 8136SOL    HW225308   4.283   5.186   2.964
 8137SOL     OW25309   2.210   3.112   4.448
 8137SOL    HW125310   2.309   3.099   4.456
 8137SOL    HW225311   2.190   3.210   4.443
 8138SOL     OW25312   6.221   2.222   2.132
 8138SOL    HW125313   6.219   2.158   2.209
 8138SOL    HW225314   6.269   2.180   2.055
 8139SOL     OW25315   0.967   3.100   3.688
 8139SOL    HW125316   1.041   3.104   3.755
 8139SOL    HW225317   0.913   3.017   3.703
 8140SOL     OW25318   3.917   7.018   0.309
 8140SOL    HW125319   3.930   6.991   0.213
 8140SOL    HW225320   3.822   0.023   0.322
 8141SOL     OW25321   5.070   0.381   5.096
 8141SOL    HW125322   5.049   0.359   5.191
 8141SOL    HW225323   5.063   0.298   5.040
 8142SOL     OW25324   2.088   5.535   0.420
 8142SOL    HW125325   2.086   5.559   0.323
 8142SOL    HW225326   2.167   5.579   0.463
 8143SOL     OW25327   5.164   5.175   1.638
 8143SOL    HW125328   5.199   5.228   1.716
 8143SOL    HW225329   5.064   5.181   1.637
 8144SOL     OW25330   0.185   5.872   5.805
 8144SOL    HW125331   0.190   5.774   5.829
 8144SOL    HW225332   0.260   5.920   5.850
 8145SOL     OW25333   4.870   5.332   0.467
 8145SOL    HW125334   4.822   5.392   0.404
 8145SOL    HW225335   4.815   5.251   0.485
 8146SOL     OW25336   6.288   0.575   5.051
 8146SOL    HW125337   6.277   0.481   5.083
 8146SOL    HW225338   6.361   0.579   4.983
 8147SOL     OW25339   0.440   0.742   0.164
 8147SOL    HW125340   0.351   0.769   0.127
 8147SOL    HW225341   0.453   0.644   0.151
 8148SOL     OW25342   4.093   4.159   6.814
 8148SOL    HW125343   4.058   4.240   6.861
 8148SOL    HW225344   4.127   4.185   6.723
 8149SOL     OW25345   1.848   6.523   4.388
 8149SOL    HW125346   1.798   6.607   4.406
 8149SOL    HW225347   1.944   6.535   4.412
 8150SOL     OW25348   0.789   3.075   0.701
 8150SOL    HW125349   0.787   3.030   0.612
 8150SOL    HW225350   0.696   3.084   0.737
 8151SOL     OW25351   6.289   5.705   3.752
 8151SOL    HW125352   6.197   5.737   3.775
 8151SOL    HW225353   6.357   5.769   3.787
 8152SOL     OW25354   4.415   2.085   2.971
 8152SOL    HW125355   4.490   2.056   3.030
 8152SOL    HW225356   4.437   2.064   2.876
 8153SOL     OW25357   0.874   0.849   3.626
 8153SOL    HW125358   0.854   0.754   3.601
 8153SOL    HW225359   0.824   0.910   3.565
 8154SOL     OW25360   3.045   1.620   2.964
 8154SOL    HW125361   3.043   1.696   2.899
 8154SOL    HW225362   3.087   1.541   2.921
 8155SOL     OW25363   1.486   3.892   2.535
 8155SOL    HW125364   1.456   3.978   2.577
 8155SOL    HW225365   1.458   3.891   2.439
 8156SOL     OW25366   5.703   6.028   1.219
 8156SOL    HW125367   5.617   6.046   1.267
 8156SOL    HW225368   5.685   5.974   1.137
 8157SOL     OW25369   5.995   3.464   6.231
 8157SOL    HW125370   5.929   3.488   6.302
 8157SOL    HW225371   6.085   3.499   6.256
 8158SOL     OW25372   5.567   5.014   6.048
 8158SOL    HW125373   5.621   4.941   6.006
 8158SOL    HW225374   5.615   5.048   6.129
 8159SOL     OW25375   3.815   6.593   5.811
 8159SOL    HW125376   3.738   6.535   5.785
 8159SOL    HW225377   3.870   6.547   5.881
 8160SOL     OW25378   5.003   0.806   3.343
 8160SOL    HW125379   4.992   0.746   3.263
 8160SOL    HW225380   5.098   0.803   3.374
 8161SOL     OW25381   5.629   3.697   0.247
 8161SOL    HW125382   5.587   3.717   0.159
 8161SOL    HW225383   5.722   3.663   0.234
 8162SOL     OW25384   0.458   5.061   6.958
 8162SOL    HW125385   0.430   4.972   6.992
 8162SOL    HW225386   0.533   5.096   7.014
 8163SOL     OW25387   3.914   5.136   5.345
 8163SOL    HW125388   3.919   5.143   5.445
 8163SOL    HW225389   3.834   5.186   5.312
 8164SOL     OW25390   4.012   0.686   6.808
 8164SOL    HW125391   4.024   0.708   6.905
 8164SOL    HW225392   4.072   0.744   6.753
 8165SOL     OW25393   6.534   3.821   6.430
 8165SOL    HW125394   6.549   3.746   6.494
 8165SOL    HW225395   6.622   3.864   6.407
 8166SOL     OW25396   2.006   2.115   3.795
 8166SOL    HW125397   1.981   2.019   3.782
 8166SOL    HW225398   2.106   2.124   3.794
 8167SOL     OW25399   6.879   1.420   3.622
 8167SOL    HW125400   6.899   1.357   3.547
 8167SOL    HW225401   6.884   1.370   3.709
 8168SOL     OW25402   2.592   0.597   1.263
 8168SOL    HW125403   2.590   0.688   1.304
 8168SOL    HW225404   2.685   0.561   1.268
 8169SOL     OW25405   4.146   1.866   0.571
 8169SOL    HW125406   4.190   1.843   0.658
 8169SOL    HW225407   4.210   1.916   0.513
 8170SOL     OW25408   6.533   4.261   1.929
 8170SOL    HW125409   6.592   4.181   1.936
 8170SOL    HW225410   6.584   4.337   1.888
 8171SOL     OW25411   1.534   0.992   6.621
 8171SOL    HW125412   1.502   0.952   6.707
 8171SOL    HW225413   1.458   1.000   6.557
 8172SOL     OW25414   0.173   2.502   2.287
 8172SOL    HW125415   0.185   2.506   2.188
 8172SOL    HW225416   0.259   2.473   2.330
 8173SOL     OW25417   5.878   2.222   2.539
 8173SOL    HW125418   5.938   2.281   2.486
 8173SOL    HW225419   5.810   2.181   2.479
 8174SOL     OW25420   1.196   6.407   2.359
 8174SOL    HW125421   1.146   6.480   2.406
 8174SOL    HW225422   1.158   6.319   2.387
 8175SOL     OW25423   0.597   2.538   4.128
 8175SOL    HW125424   0.594   2.438   4.140
 8175SOL    HW225425   0.571   2.562   4.035
 8176SOL     OW25426   2.026   4.513   1.352
 8176SOL    HW125427   1.951   4.459   1.390
 8176SOL    HW225428   2.037   4.490   1.255
 8177SOL     OW25429   3.332   0.633   2.748
 8177SOL    HW125430   3.338   0.693   2.669
 8177SOL    HW225431   3.421   0.626   2.793
 8178SOL     OW25432   3.418   6.457   1.190
 8178SOL    HW125433   3.494   6.474   1.253
 8178SOL    HW225434   3.346   6.406   1.237
 8179SOL     OW25435   6.163   0.778   4.137
 8179SOL    HW125436   6.171   0.831   4.222
 8179SOL    HW225437   6.248   0.787   4.085
 8180SOL     OW25438   6.215   0.329   6.938
 8180SOL    HW125439   6.210   0.288   0.003
 8180SOL    HW225440   6.281   0.404   6.940
 8181SOL     OW25441   0.797   1.086   1.183
 8181SOL    HW125442   0.714   1.136   1.158
 8181SOL    HW225443   0.784   0.989   1.163
 8182SOL     OW25444   3.723   3.519   4.993
 8182SOL    HW125445   3.751   3.496   4.900
 8182SOL    HW225446   3.624   3.523   4.999
 8183SOL     OW25447   6.660   1.287   5.374
 8183SOL    HW125448   6.582   1.344   5.349
 8183SOL    HW225449   6.736   1.345   5.405
 8184SOL     OW25450   0.904   7.015   0.333
 8184SOL    HW125451   0.833   7.025   0.403
 8184SOL    HW225452   0.925   6.918   0.321
 8185SOL     OW25453   2.016   0.542   0.700
 8185SOL    HW125454   2.003   0.489   0.617
 8185SOL    HW225455   1.968   0.629   0.692
 8186SOL     OW25456   2.323   4.236   5.612
 8186SOL    HW125457   2.257   4.213   5.540
 8186SOL    HW225458   2.378   4.155   5.633
 8187SOL     OW25459   2.557   1.837   5.108
 8187SOL    HW125460   2.608   1.873   5.030
 8187SOL    HW225461   2.470   1.799   5.076
 8188SOL     OW25462   4.217   1.972   3.985
 8188SOL    HW125463   4.145   1.976   3.915
 8188SOL    HW225464   4.253   1.879   3.990
 8189SOL     OW25465   5.722   5.470   3.075
 8189SOL    HW125466   5.803   5.412   3.085
 8189SOL    HW225467   5.742   5.544   3.010
 8190SOL     OW25468   5.060   4.083   3.432
 8190SOL    HW125469   4.980   4.038   3.473
 8190SOL    HW225470   5.116   4.014   3.386
 8191SOL     OW25471   4.349   5.435   2.410
 8191SOL    HW125472   4.323   5.430   2.507
 8191SOL    HW225473   4.271   5.466   2.356
 8192SOL     OW25474   2.015   5.401   1.916
 8192SOL    HW125475   1.971   5.338   1.981
 8192SOL    HW225476   2.072   5.349   1.853
 8193SOL     OW25477   6.628   5.868   4.614
 8193SOL    HW125478   6.647   5.789   4.556
 8193SOL    HW225479   6.554   5.845   4.678
 8194SOL     OW25480   4.153   0.683   1.055
 8194SOL    HW125481   4.158   0.750   0.981
 8194SOL    HW225482   4.113   0.598   1.022
 8195SOL     OW25483   5.892   0.074   4.009
 8195SOL    HW125484   5.817   0.010   4.025
 8195SOL    HW225485   5.911   0.125   4.093
 8196SOL     OW25486   5.278   0.335   6.934
 8196SOL    HW125487   5.305   0.402   6.865
 8196SOL    HW225488   5.351   0.269   6.948
 8197SOL     OW25489   4.453   1.749   1.602
 8197SOL    HW125490   4.378   1.806   1.567
 8197SOL    HW225491   4.541   1.790   1.578
 8198SOL     OW25492   2.843   0.232   2.164
 8198SOL    HW125493   2.858   0.322   2.206
 8198SOL    HW225494   2.931   0.189   2.145
 8199SOL     OW25495   4.914   3.360   5.818
 8199SOL    HW125496   4.915   3.260   5.820
 8199SOL    HW225497   4.820   3.392   5.822
 8200SOL     OW25498   5.942   4.261   2.031
 8200SOL    HW125499   5.899   4.313   2.105
 8200SOL    HW225500   6.041   4.267   2.040
 8201SOL     OW25501   0.120   1.069   5.285
 8201SOL    HW125502   0.110   0.971   5.302
 8201SOL    HW225503   0.213   1.088   5.252
 8202SOL     OW25504   6.813   6.154   2.582
 8202SOL    HW125505   6.907   6.121   2.573
 8202SOL    HW225506   6.808   6.251   2.557
 8203SOL     OW25507   2.106   2.004   0.394
 8203SOL    HW125508   2.007   1.989   0.394
 8203SOL    HW225509   2.128   2.080   0.455
 8204SOL     OW25510   3.971   3.861   0.580
 8204SOL    HW125511   3.968   3.884   0.483
 8204SOL    HW225512   3.966   3.945   0.634
 8205SOL     OW25513   0.296   3.039   0.162
 8205SOL    HW125514   0.205   3.053   0.201
 8205SOL    HW225515   0.307   2.943   0.136
 8206SOL     OW25516   4.820   1.134   0.511
 8206SOL    HW125517   4.721   1.133   0.499
 8206SOL    HW225518   4.860   1.053   0.467
 8207SOL     OW25519   3.392   3.877   4.591
 8207SOL    HW125520   3.450   3.885   4.510
 8207SOL    HW225521   3.304   3.838   4.565
 8208SOL     OW25522   0.986   1.042   0.709
 8208SOL    HW125523   0.970   0.961   0.765
 8208SOL    HW225524   0.905   1.062   0.654
 8209SOL     OW25525   7.008   0.857   4.893
 8209SOL    HW125526   0.013   0.796   4.966
 8209SOL    HW225527   6.936   0.917   4.928
 8210SOL     OW25528   1.992   2.523   0.332
 8210SOL    HW125529   1.978   2.490   0.425
 8210SOL    HW225530   2.062   2.468   0.287
 8211SOL     OW25531   3.644   3.714   1.355
 8211SOL    HW125532   3.734   3.687   1.323
 8211SOL    HW225533   3.601   3.637   1.403
 8212SOL     OW25534   1.514   2.532   2.983
 8212SOL    HW125535   1.532   2.440   2.948
 8212SOL    HW225536   1.515   2.597   2.907
 8213SOL     OW25537   6.660   5.342   1.608
 8213SOL    HW125538   6.615   5.262   1.566
 8213SOL    HW225539   6.701   5.314   1.695
 8214SOL     OW25540   5.980   4.463   3.743
 8214SOL    HW125541   5.985   4.416   3.831
 8214SOL    HW225542   5.904   4.426   3.689
 8215SOL     OW25543   3.202   6.134   5.374
 8215SOL    HW125544   3.256   6.176   5.447
 8215SOL    HW225545   3.198   6.035   5.387
 8216SOL     OW25546   5.672   5.890   4.286
 8216SOL    HW125547   5.589   5.887   4.341
 8216SOL    HW225548   5.667   5.820   4.215
 8217SOL     OW25549   2.459   5.038   6.943
 8217SOL    HW125550   2.389   5.086   6.889
 8217SOL    HW225551   2.475   4.948   6.904
 8218SOL     OW25552   0.800   1.223   6.689
 8218SOL    HW125553   0.763   1.148   6.743
 8218SOL    HW225554   0.858   1.281   6.747
 8219SOL     OW25555   4.731   1.410   0.246
 8219SOL    HW125556   4.829   1.390   0.235
 8219SOL    HW225557   4.720   1.495   0.298
 8220SOL     OW25558   3.859   3.431   3.184
 8220SOL    HW125559   3.804   3.469   3.258
 8220SOL    HW225560   3.949   3.405   3.219
 8221SOL     OW25561   4.488   6.104   4.518
 8221SOL    HW125562   4.534   6.183   4.477
 8221SOL    HW225563   4.391   6.107   4.498
 8222SOL     OW25564   5.134   1.825   2.231
 8222SOL    HW125565   5.097   1.733   2.236
 8222SOL    HW225566   5.222   1.829   2.278
 8223SOL     OW25567   1.602   3.549   6.027
 8223SOL    HW125568   1.670   3.590   5.967
 8223SOL    HW225569   1.609   3.449   6.023
 8224SOL     OW25570   0.623   2.739   3.027
 8224SOL    HW125571   0.706   2.760   3.079
 8224SOL    HW225572   0.624   2.789   2.941
 8225SOL     OW25573   3.644   0.904   0.119
 8225SOL    HW125574   3.630   0.807   0.141
 8225SOL    HW225575   3.567   0.957   0.155
 8226SOL     OW25576   4.458   0.144   2.581
 8226SOL    HW125577   4.409   0.062   2.611
 8226SOL    HW225578   4.506   0.186   2.658
 8227SOL     OW25579   0.117   2.659   3.575
 8227SOL    HW125580   0.025   2.664   3.612
 8227SOL    HW225581   0.136   2.565   3.546
 8228SOL     OW25582   0.174   2.405   5.660
 8228SOL    HW125583   0.232   2.484   5.676
 8228SOL    HW225584   0.228   2.332   5.617
 8229SOL     OW25585   3.511   4.502   0.577
 8229SOL    HW125586   3.519   4.549   0.665
 8229SOL    HW225587   3.417   4.510   0.544
 8230SOL     OW25588   4.614   0.095   5.382
 8230SOL    HW125589   4.610   0.155   5.462
 8230SOL    HW225590   4.596   0.148   5.300
 8231SOL     OW25591   3.771   5.524   1.048
 8231SOL    HW125592   3.723   5.579   1.116
 8231SOL    HW225593   3.864   5.560   1.034
 8232SOL     OW25594   4.964   1.261   0.948
 8232SOL    HW125595   5.042   1.307   0.990
 8232SOL    HW225596   4.917   1.205   1.016
 8233SOL     OW25597   0.384   6.236   6.255
 8233SOL    HW125598   0.408   6.139   6.264
 8233SOL    HW225599   0.372   6.276   6.346
 8234SOL     OW25600   2.961   3.786   0.009
 8234SOL    HW125601   3.032   3.821   0.070
 8234SOL    HW225602   2.945   3.851   6.961
 8235SOL     OW25603   1.795   3.536   0.441
 8235SOL    HW125604   1.783   3.587   0.356
 8235SOL    HW225605   1.879   3.483   0.437
 8236SOL     OW25606   6.659   3.952   0.012
 8236SOL    HW125607   6.717   4.021   6.994
 8236SOL    HW225608   6.602   3.995   0.082
 8237SOL     OW25609   5.269   6.228   4.544
 8237SOL    HW125610   5.237   6.247   4.451
 8237SOL    HW225611   5.343   6.292   4.567
 8238SOL     OW25612   1.673   4.712   0.587
 8238SOL    HW125613   1.607   4.783   0.610
 8238SOL    HW225614   1.640   4.659   0.508
 8239SOL     OW25615   6.650   1.127   5.659
 8239SOL    HW125616   6.562   1.146   5.702
 8239SOL    HW225617   6.640   1.129   5.560
 8240SOL     OW25618   3.493   3.926   2.783
 8240SOL    HW125619   3.421   3.964   2.726
 8240SOL    HW225620   3.506   3.984   2.864
 8241SOL     OW25621   3.950   6.885   0.088
 8241SOL    HW125622   3.938   6.792   0.123
 8241SOL    HW225623   3.882   6.904   0.018
 8242SOL     OW25624   1.410   4.387   6.021
 8242SOL    HW125625   1.383   4.317   5.955
 8242SOL    HW225626   1.330   4.419   6.071
 8243SOL     OW25627   1.180   2.767   0.338
 8243SOL    HW125628   1.278   2.758   0.357
 8243SOL    HW225629   1.146   2.852   0.378
 8244SOL     OW25630   0.915   6.838   3.527
 8244SOL    HW125631   0.997   6.844   3.584
 8244SOL    HW225632   0.898   6.928   3.485
 8245SOL     OW25633   3.648   1.394   2.936
 8245SOL    HW125634   3.555   1.425   2.954
 8245SOL    HW225635   3.670   1.409   2.839
 8246SOL     OW25636   6.951   3.143   5.502
 8246SOL    HW125637   6.914   3.053   5.483
 8246SOL    HW225638   0.021   3.135   5.529
 8247SOL     OW25639   1.240   0.124   2.164
 8247SOL    HW125640   1.229   0.223   2.161
 8247SOL    HW225641   1.155   0.080   2.137
 8248SOL     OW25642   5.687   5.452   3.627
 8248SOL    HW125643   5.713   5.484   3.536
 8248SOL    HW225644   5.762   5.400   3.667
 8249SOL     OW25645   2.260   3.246   5.216
 8249SOL    HW125646   2.241   3.188   5.296
 8249SOL    HW225647   2.209   3.211   5.138
 8250SOL     OW25648   3.319   4.119   2.445
 8250SOL    HW125649   3.318   4.099   2.543
 8250SOL    HW225650   3.403   4.169   2.422
 8251SOL     OW25651   6.056   2.950   4.177
 8251SOL    HW125652   5.961   2.981   4.175
 8251SOL    HW225653   6.092   2.957   4.270
 8252SOL     OW25654   3.617   3.084   6.534
 8252SOL    HW125655   3.677   3.057   6.459
 8252SOL    HW225656   3.650   3.169   6.575
 8253SOL     OW25657   4.016   4.258   5.232
 8253SOL    HW125658   4.115   4.253   5.241
 8253SOL    HW225659   3.988   4.207   5.151
 8254SOL     OW25660   4.654   4.568   4.613
 8254SOL    HW125661   4.686   4.658   4.642
 8254SOL    HW225662   4.577   4.580   4.550
 8255SOL     OW25663   2.977   6.301   5.083
 8255SOL    HW125664   2.942   6.278   5.174
 8255SOL    HW225665   3.073   6.328   5.090
 8256SOL     OW25666   6.476   0.939   2.053
 8256SOL    HW125667   6.556   0.878   2.056
 8256SOL    HW225668   6.464   0.974   1.960
 8257SOL     OW25669   6.298   3.998   3.640
 8257SOL    HW125670   6.363   4.061   3.598
 8257SOL    HW225671   6.296   3.912   3.588
 8258SOL     OW25672   5.204   1.277   0.644
 8258SOL    HW125673   5.164   1.194   0.684
 8258SOL    HW225674   5.153   1.301   0.561
 8259SOL     OW25675   4.524   1.850   3.427
 8259SOL    HW125676   4.612   1.896   3.441
 8259SOL    HW225677   4.533   1.784   3.353
 8260SOL     OW25678   2.613   0.102   2.171
 8260SOL    HW125679   2.702   0.146   2.165
 8260SOL    HW225680   2.625   0.002   2.171
 8261SOL     OW25681   6.717   1.187   1.959
 8261SOL    HW125682   6.679   1.225   1.875
 8261SOL    HW225683   6.711   1.088   1.956
 8262SOL     OW25684   0.694   2.721   0.889
 8262SOL    HW125685   0.717   2.624   0.879
 8262SOL    HW225686   0.770   2.776   0.854
 8263SOL     OW25687   1.186   2.313   0.382
 8263SOL    HW125688   1.257   2.273   0.324
 8263SOL    HW225689   1.175   2.257   0.465
 8264SOL     OW25690   2.222   6.210   2.364
 8264SOL    HW125691   2.183   6.277   2.300
 8264SOL    HW225692   2.194   6.118   2.336
 8265SOL     OW25693   0.889   6.872   1.355
 8265SOL    HW125694   0.932   6.948   1.404
 8265SOL    HW225695   0.790   6.873   1.371
 8266SOL     OW25696   2.028   1.233   3.845
 8266SOL    HW125697   2.058   1.217   3.939
 8266SOL    HW225698   2.082   1.306   3.804
 8267SOL     OW25699   1.598   3.175   1.173
 8267SOL    HW125700   1.561   3.082   1.169
 8267SOL    HW225701   1.647   3.195   1.089
 8268SOL     OW25702   2.503   6.451   5.463
 8268SOL    HW125703   2.412   6.431   5.428
 8268SOL    HW225704   2.497   6.484   5.557
 8269SOL     OW25705   5.251   1.397   1.487
 8269SOL    HW125706   5.262   1.496   1.490
 8269SOL    HW225707   5.159   1.373   1.519
 8270SOL     OW25708   3.005   6.642   5.087
 8270SOL    HW125709   2.983   6.594   5.002
 8270SOL    HW225710   3.093   6.609   5.121
 8271SOL     OW25711   0.123   0.707   2.716
 8271SOL    HW125712   0.202   0.718   2.656
 8271SOL    HW225713   0.055   0.649   2.672
 8272SOL     OW25714   4.875   1.687   1.612
 8272SOL    HW125715   4.875   1.734   1.700
 8272SOL    HW225716   4.840   1.594   1.623
 8273SOL     OW25717   2.021   6.242   0.830
 8273SOL    HW125718   1.942   6.181   0.824
 8273SOL    HW225719   2.002   6.327   0.781
 8274SOL     OW25720   4.778   4.582   3.238
 8274SOL    HW125721   4.818   4.504   3.285
 8274SOL    HW225722   4.723   4.635   3.303
 8275SOL     OW25723   4.989   1.728   5.638
 8275SOL    HW125724   5.000   1.724   5.738
 8275SOL    HW225725   4.926   1.802   5.615
 8276SOL     OW25726   1.599   2.645   3.411
 8276SOL    HW125727   1.621   2.659   3.508
 8276SOL    HW225728   1.502   2.664   3.395
 8277SOL     OW25729   6.855   1.006   0.054
 8277SOL    HW125730   6.814   0.914   0.050
 8277SOL    HW225731   6.953   0.997   0.074
 8278SOL     OW25732   2.884   1.931   5.551
 8278SOL    HW125733   2.871   1.926   5.650
 8278SOL    HW225734   2.803   1.893   5.505
 8279SOL     OW25735   1.653   0.452   4.083
 8279SOL    HW125736   1.611   0.508   4.012
 8279SOL    HW225737   1.711   0.509   4.141
 8280SOL     OW25738   2.382   2.644   0.599
 8280SOL    HW125739   2.466   2.684   0.563
 8280SOL    HW225740   2.306   2.661   0.536
 8281SOL     OW25741   2.176   4.937   1.388
 8281SOL    HW125742   2.085   4.927   1.429
 8281SOL    HW225743   2.184   4.876   1.309
 8282SOL     OW25744   5.244   3.656   0.052
 8282SOL    HW125745   5.185   3.728   0.089
 8282SOL    HW225746   5.208   3.625   6.990
 8283SOL     OW25747   2.194   5.003   0.226
 8283SOL    HW125748   2.095   5.000   0.235
 8283SOL    HW225749   2.222   5.095   0.199
 8284SOL     OW25750   0.928   3.727   0.339
 8284SOL    HW125751   0.955   3.639   0.378
 8284SOL    HW225752   0.929   3.721   0.239
 8285SOL     OW25753   3.288   2.911   4.625
 8285SOL    HW125754   3.204   2.874   4.585
 8285SOL    HW225755   3.271   2.935   4.721
 8286SOL     OW25756   5.510   3.345   6.503
 8286SOL    HW125757   5.490   3.311   6.595
 8286SOL    HW225758   5.428   3.335   6.446
 8287SOL     OW25759   2.008   5.436   4.336
 8287SOL    HW125760   1.963   5.519   4.304
 8287SOL    HW225761   2.025   5.375   4.258
 8288SOL     OW25762   2.875   1.550   1.451
 8288SOL    HW125763   2.915   1.626   1.502
 8288SOL    HW225764   2.917   1.464   1.483
 8289SOL     OW25765   0.602   5.926   1.588
 8289SOL    HW125766   0.683   5.985   1.582
 8289SOL    HW225767   0.523   5.975   1.552
 8290SOL     OW25768   5.859   0.693   1.097
 8290SOL    HW125769   5.934   0.671   1.035
 8290SOL    HW225770   5.793   0.752   1.050
 8291SOL     OW25771   5.227   6.337   5.986
 8291SOL    HW125772   5.323   6.359   5.968
 8291SOL    HW225773   5.174   6.422   5.991
 8292SOL     OW25774   2.401   6.211   0.073
 8292SOL    HW125775   2.466   6.137   0.089
 8292SOL    HW225776   2.424   6.258   7.013
 8293SOL     OW25777   3.179   6.903   0.051
 8293SOL    HW125778   3.250   6.897   0.122
 8293SOL    HW225779   3.115   6.827   0.062
 8294SOL     OW25780   5.926   4.728   4.860
 8294SOL    HW125781   5.884   4.784   4.931
 8294SOL    HW225782   5.907   4.767   4.770
 8295SOL     OW25783   4.872   5.836   1.613
 8295SOL    HW125784   4.794   5.853   1.552
 8295SOL    HW225785   4.902   5.922   1.653
 8296SOL     OW25786   2.336   6.616   6.573
 8296SOL    HW125787   2.248   6.620   6.525
 8296SOL    HW225788   2.328   6.664   6.661
 8297SOL     OW25789   6.523   2.671   2.311
 8297SOL    HW125790   6.623   2.665   2.317
 8297SOL    HW225791   6.483   2.653   2.401
 8298SOL     OW25792   5.763   2.298   1.043
 8298SOL    HW125793   5.794   2.220   1.098
 8298SOL    HW225794   5.810   2.380   1.073
 8299SOL     OW25795   0.263   2.582   1.963
 8299SOL    HW125796   0.207   2.616   1.887
 8299SOL    HW225797   0.299   2.660   2.014
 8300SOL     OW25798   0.507   6.017   5.140
 8300SOL    HW125799   0.534   5.979   5.228
 8300SOL    HW225800   0.412   5.995   5.121
 8301SOL     OW25801   4.289   1.777   1.958
 8301SOL    HW125802   4.240   1.693   1.937
 8301SOL    HW225803   4.227   1.855   1.951
 8302SOL     OW25804   6.091   6.315   6.444
 8302SOL    HW125805   6.096   6.226   6.490
 8302SOL    HW225806   6.181   6.359   6.448
 8303SOL     OW25807   6.638   1.267   4.025
 8303SOL    HW125808   6.557   1.267   3.967
 8303SOL    HW225809   6.675   1.360   4.029
 8304SOL     OW25810   1.345   3.507   0.858
 8304SOL    HW125811   1.332   3.603   0.884
 8304SOL    HW225812   1.256   3.462   0.853
 8305SOL     OW25813   3.954   4.921   4.415
 8305SOL    HW125814   4.014   4.986   4.368
 8305SOL    HW225815   3.867   4.915   4.366
 8306SOL     OW25816   6.859   2.929   5.143
 8306SOL    HW125817   6.904   3.013   5.116
 8306SOL    HW225818   6.878   2.910   5.240
 8307SOL     OW25819   4.179   5.022   1.743
 8307SOL    HW125820   4.107   5.067   1.796
 8307SOL    HW225821   4.203   4.935   1.788
 8308SOL     OW25822   3.957   5.817   1.009
 8308SOL    HW125823   3.963   5.901   1.063
 8308SOL    HW225824   4.028   5.818   0.938
 8309SOL     OW25825   6.344   5.798   3.291
 8309SOL    HW125826   6.298   5.871   3.341
 8309SOL    HW225827   6.403   5.838   3.220
 8310SOL     OW25828   1.073   4.365   0.718
 8310SOL    HW125829   1.120   4.281   0.689
 8310SOL    HW225830   1.089   4.379   0.816
 8311SOL     OW25831   0.394   1.249   4.909
 8311SOL    HW125832   0.309   1.197   4.913
 8311SOL    HW225833   0.466   1.190   4.871
 8312SOL     OW25834   4.226   6.442   0.824
 8312SOL    HW125835   4.157   6.500   0.867
 8312SOL    HW225836   4.253   6.370   0.887
 8313SOL     OW25837   4.924   1.364   2.771
 8313SOL    HW125838   4.843   1.318   2.808
 8313SOL    HW225839   4.979   1.298   2.719
 8314SOL     OW25840   4.476   0.033   1.016
 8314SOL    HW125841   4.412   7.005   1.070
 8314SOL    HW225842   4.562   7.009   1.006
 8315SOL     OW25843   4.101   3.542   0.925
 8315SOL    HW125844   4.190   3.580   0.949
 8315SOL    HW225845   4.102   3.443   0.940
 8316SOL     OW25846   1.061   1.963   1.860
 8316SOL    HW125847   1.111   2.032   1.913
 8316SOL    HW225848   1.064   1.876   1.907
 8317SOL     OW25849   2.444   2.270   2.565
 8317SOL    HW125850   2.485   2.211   2.496
 8317SOL    HW225851   2.476   2.243   2.656
 8318SOL     OW25852   4.404   1.265   4.809
 8318SOL    HW125853   4.469   1.267   4.734
 8318SOL    HW225854   4.449   1.234   4.893
 8319SOL     OW25855   2.817   1.330   6.276
 8319SOL    HW125856   2.740   1.394   6.273
 8319SOL    HW225857   2.866   1.331   6.189
 8320SOL     OW25858   3.244   3.537   1.462
 8320SOL    HW125859   3.318   3.478   1.493
 8320SOL    HW225860   3.276   3.593   1.386
 8321SOL     OW25861   0.005   0.941   0.405
 8321SOL    HW125862   0.055   1.009   0.352
 8321SOL    HW225863   6.967   0.988   0.467
 8322SOL     OW25864   0.033   0.849   0.722
 8322SOL    HW125865   0.018   0.946   0.742
 8322SOL    HW225866   0.078   0.840   0.634
 8323SOL     OW25867   5.867   5.958   2.633
 8323SOL    HW125868   5.875   6.046   2.588
 8323SOL    HW225869   5.783   5.912   2.605
 8324SOL     OW25870   5.678   1.171   1.806
 8324SOL    HW125871   5.621   1.249   1.781
 8324SOL    HW225872   5.633   1.086   1.779
 8325SOL     OW25873   3.333   3.376   5.273
 8325SOL    HW125874   3.380   3.288   5.266
 8325SOL    HW225875   3.311   3.410   5.182
 8326SOL     OW25876   4.714   3.368   5.362
 8326SOL    HW125877   4.706   3.429   5.284
 8326SOL    HW225878   4.792   3.395   5.418
 8327SOL     OW25879   6.189   2.065   6.442
 8327SOL    HW125880   6.229   1.988   6.492
 8327SOL    HW225881   6.091   2.050   6.431
 8328SOL     OW25882   2.645   4.252   5.774
 8328SOL    HW125883   2.698   4.274   5.692
 8328SOL    HW225884   2.592   4.169   5.759
 8329SOL     OW25885   0.050   3.763   6.139
 8329SOL    HW125886   0.011   3.853   6.158
 8329SOL    HW225887   0.146   3.772   6.114
 8330SOL     OW25888   2.981   0.157   0.433
 8330SOL    HW125889   3.079   0.152   0.451
 8330SOL    HW225890   2.965   0.159   0.335
 8331SOL     OW25891   2.526   1.225   0.990
 8331SOL    HW125892   2.442   1.264   1.030
 8331SOL    HW225893   2.537   1.131   1.021
 8332SOL     OW25894   4.778   4.676   2.459
 8332SOL    HW125895   4.848   4.732   2.505
 8332SOL    HW225896   4.805   4.580   2.464
 8333SOL     OW25897   0.505   6.520   6.515
 8333SOL    HW125898   0.521   6.545   6.611
 8333SOL    HW225899   0.450   6.437   6.511
 8334SOL     OW25900   4.600   1.571   4.023
 8334SOL    HW125901   4.547   1.486   4.018
 8334SOL    HW225902   4.681   1.556   4.080
 8335SOL     OW25903   6.410   5.480   6.524
 8335SOL    HW125904   6.475   5.450   6.595
 8335SOL    HW225905   6.409   5.413   6.450
 8336SOL     OW25906   6.421   6.729   2.559
 8336SOL    HW125907   6.511   6.771   2.543
 8336SOL    HW225908   6.387   6.758   2.649
 8337SOL     OW25909   0.815   6.401   3.401
 8337SOL    HW125910   0.813   6.500   3.384
 8337SOL    HW225911   0.876   6.357   3.335
 8338SOL     OW25912   2.278   5.067   1.822
 8338SOL    HW125913   2.343   5.124   1.872
 8338SOL    HW225914   2.208   5.126   1.781
 8339SOL     OW25915   5.878   0.558   1.814
 8339SOL    HW125916   5.805   0.577   1.748
 8339SOL    HW225917   5.852   0.592   1.904
 8340SOL     OW25918   5.297   3.955   1.470
 8340SOL    HW125919   5.245   3.898   1.406
 8340SOL    HW225920   5.256   4.046   1.474
 8341SOL     OW25921   2.062   6.855   6.901
 8341SOL    HW125922   2.001   6.885   6.975
 8341SOL    HW225923   2.008   6.830   6.821
 8342SOL     OW25924   3.798   0.209   1.708
 8342SOL    HW125925   3.780   0.118   1.746
 8342SOL    HW225926   3.722   0.235   1.648
 8343SOL     OW25927   1.151   4.830   6.315
 8343SOL    HW125928   1.235   4.852   6.365
 8343SOL    HW225929   1.102   4.914   6.293
 8344SOL     OW25930   4.595   0.544   5.327
 8344SOL    HW125931   4.651   0.597   5.390
 8344SOL    HW225932   4.501   0.580   5.327
 8345SOL     OW25933   5.097   1.803   3.488
 8345SOL    HW125934   5.135   1.871   3.550
 8345SOL    HW225935   5.015   1.762   3.529
 8346SOL     OW25936   2.942   4.294   6.999
 8346SOL    HW125937   2.966   4.216   0.031
 8346SOL    HW225938   3.013   4.364   7.007
 8347SOL     OW25939   3.805   5.746   4.273
 8347SOL    HW125940   3.827   5.841   4.297
 8347SOL    HW225941   3.784   5.695   4.357
 8348SOL     OW25942   1.079   6.941   2.051
 8348SOL    HW125943   1.134   6.861   2.075
 8348SOL    HW225944   1.024   6.969   2.130
 8349SOL     OW25945   6.470   6.011   1.290
 8349SOL    HW125946   6.478   6.071   1.211
 8349SOL    HW225947   6.547   5.947   1.290
 8350SOL     OW25948   4.867   0.919   4.542
 8350SOL    HW125949   4.841   0.963   4.627
 8350SOL    HW225950   4.785   0.896   4.489
 8351SOL     OW25951   4.427   5.363   4.372
 8351SOL    HW125952   4.391   5.278   4.333
 8351SOL    HW225953   4.490   5.406   4.307
 8352SOL     OW25954   6.769   6.442   2.593
 8352SOL    HW125955   6.671   6.436   2.574
 8352SOL    HW225956   6.785   6.513   2.661
 8353SOL     OW25957   6.652   3.219   1.575
 8353SOL    HW125958   6.653   3.266   1.487
 8353SOL    HW225959   6.571   3.161   1.581
 8354SOL     OW25960   3.939   0.405   6.761
 8354SOL    HW125961   3.968   0.494   6.797
 8354SOL    HW225962   4.019   0.352   6.734
 8355SOL     OW25963   2.807   0.482   0.001
 8355SOL    HW125964   2.792   0.573   0.039
 8355SOL    HW225965   2.786   0.483   6.929
 8356SOL     OW25966   1.413   6.226   0.716
 8356SOL    HW125967   1.448   6.257   0.804
 8356SOL    HW225968   1.377   6.133   0.726
 8357SOL     OW25969   3.918   0.243   6.026
 8357SOL    HW125970   3.870   0.321   6.066
 8357SOL    HW225971   3.978   0.275   5.952
 8358SOL     OW25972   0.948   3.326   5.657
 8358SOL    HW125973   0.925   3.232   5.631
 8358SOL    HW225974   1.001   3.369   5.584
 8359SOL     OW25975   3.025   6.264   4.356
 8359SOL    HW125976   2.980   6.306   4.435
 8359SOL    HW225977   3.116   6.303   4.345
 8360SOL     OW25978   3.681   5.926   1.233
 8360SOL    HW125979   3.746   5.970   1.171
 8360SOL    HW225980   3.632   5.996   1.285
 8361SOL     OW25981   2.182   0.234   2.688
 8361SOL    HW125982   2.269   0.205   2.649
 8361SOL    HW225983   2.157   0.323   2.650
 8362SOL     OW25984   2.985   1.530   1.063
 8362SOL    HW125985   3.028   1.613   1.028
 8362SOL    HW225986   2.907   1.554   1.121
 8363SOL     OW25987   0.630   2.479   0.193
 8363SOL    HW125988   0.717   2.498   0.149
 8363SOL    HW225989   0.566   2.441   0.125
 8364SOL     OW25990   6.566   3.375   2.549
 8364SOL    HW125991   6.508   3.446   2.589
 8364SOL    HW225992   6.579   3.302   2.616
 8365SOL     OW25993   1.735   4.427   1.792
 8365SOL    HW125994   1.818   4.374   1.775
 8365SOL    HW225995   1.725   4.443   1.890
 8366SOL     OW25996   3.341   5.221   2.262
 8366SOL    HW125997   3.277   5.270   2.321
 8366SOL    HW225998   3.343   5.124   2.289
 8367SOL     OW25999   3.911   6.128   4.030
 8367SOL    HW126000   4.007   6.153   4.035
 8367SOL    HW226001   3.900   6.050   3.968
 8368SOL     OW26002   2.201   6.669   5.740
 8368SOL    HW126003   2.221   6.758   5.781
 8368SOL    HW226004   2.228   6.671   5.643
 8369SOL     OW26005   1.747   6.619   6.684
 8369SOL    HW126006   1.831   6.610   6.631
 8369SOL    HW226007   1.755   6.698   6.745
 8370SOL     OW26008   2.583   2.277   5.584
 8370SOL    HW126009   2.483   2.278   5.585
 8370SOL    HW226010   2.617   2.238   5.669
 8371SOL     OW26011   1.900   4.217   1.495
 8371SOL    HW126012   1.929   4.255   1.583
 8371SOL    HW226013   1.973   4.162   1.456
 8372SOL     OW26014   0.459   5.747   2.286
 8372SOL    HW126015   0.361   5.735   2.271
 8372SOL    HW226016   0.506   5.660   2.268
 8373SOL     OW26017   1.253   0.505   4.106
 8373SOL    HW126018   1.254   0.450   4.189
 8373SOL    HW226019   1.295   0.594   4.123
 8374SOL     OW26020   6.814   0.805   6.305
 8374SOL    HW126021   6.720   0.832   6.283
 8374SOL    HW226022   6.877   0.879   6.283
 8375SOL     OW26023   3.046   0.071   5.833
 8375SOL    HW126024   3.006   0.089   5.923
 8375SOL    HW226025   2.983   0.104   5.762
 8376SOL     OW26026   1.847   0.363   4.361
 8376SOL    HW126027   1.930   0.310   4.344
 8376SOL    HW226028   1.767   0.311   4.330
 8377SOL     OW26029   5.848   5.416   1.385
 8377SOL    HW126030   5.748   5.422   1.392
 8377SOL    HW226031   5.879   5.328   1.420
 8378SOL     OW26032   4.951   4.730   3.047
 8378SOL    HW126033   4.902   4.815   3.026
 8378SOL    HW226034   4.896   4.675   3.110
 8379SOL     OW26035   6.392   2.301   1.071
 8379SOL    HW126036   6.428   2.212   1.100
 8379SOL    HW226037   6.467   2.364   1.055
 8380SOL     OW26038   6.582   1.489   2.583
 8380SOL    HW126039   6.578   1.518   2.488
 8380SOL    HW226040   6.541   1.398   2.592
 8381SOL     OW26041   0.194   4.034   4.939
 8381SOL    HW126042   0.110   4.070   4.978
 8381SOL    HW226043   0.208   4.070   4.847
 8382SOL     OW26044   1.322   0.820   2.173
 8382SOL    HW126045   1.366   0.906   2.147
 8382SOL    HW226046   1.377   0.773   2.242
 8383SOL     OW26047   2.323   0.281   5.838
 8383SOL    HW126048   2.312   0.376   5.866
 8383SOL    HW226049   2.315   0.275   5.738
 8384SOL     OW26050   0.456   0.470   0.212
 8384SOL    HW126051   0.482   0.377   0.188
 8384SOL    HW226052   0.477   0.488   0.308
 8385SOL     OW26053   5.788   2.625   1.446
 8385SOL    HW126054   5.810   2.692   1.518
 8385SOL    HW226055   5.853   2.550   1.449
 8386SOL     OW26056   0.816   4.201   2.616
 8386SOL    HW126057   0.827   4.142   2.696
 8386SOL    HW226058   0.897   4.196   2.559
 8387SOL     OW26059   0.760   1.284   1.518
 8387SOL    HW126060   0.700   1.317   1.445
 8387SOL    HW226061   0.855   1.310   1.497
 8388SOL     OW26062   1.655   6.298   0.376
 8388SOL    HW126063   1.717   6.322   0.451
 8388SOL    HW226064   1.683   6.210   0.336
 8389SOL     OW26065   6.282   4.045   3.008
 8389SOL    HW126066   6.299   3.973   2.940
 8389SOL    HW226067   6.342   4.123   2.990
 8390SOL     OW26068   4.006   1.340   6.684
 8390SOL    HW126069   3.934   1.272   6.673
 8390SOL    HW226070   4.077   1.305   6.746
 8391SOL     OW26071   6.092   5.727   0.206
 8391SOL    HW126072   6.099   5.629   0.185
 8391SOL    HW226073   6.024   5.769   0.146
 8392SOL     OW26074   6.280   3.751   3.409
 8392SOL    HW126075   6.226   3.714   3.484
 8392SOL    HW226076   6.220   3.795   3.342
 8393SOL     OW26077   6.483   0.983   2.849
 8393SOL    HW126078   6.435   1.051   2.904
 8393SOL    HW226079   6.561   1.025   2.803
 8394SOL     OW26080   5.546   3.087   1.556
 8394SOL    HW126081   5.635   3.047   1.580
 8394SOL    HW226082   5.479   3.014   1.543
 8395SOL     OW26083   2.916   6.752   5.323
 8395SOL    HW126084   2.931   6.703   5.237
 8395SOL    HW226085   2.829   6.801   5.318
 8396SOL     OW26086   5.261   4.829   3.079
 8396SOL    HW126087   5.164   4.813   3.096
 8396SOL    HW226088   5.303   4.869   3.161
 8397SOL     OW26089   0.977   1.165   3.486
 8397SOL    HW126090   1.054   1.168   3.549
 8397SOL    HW226091   0.998   1.220   3.405
 8398SOL     OW26092   5.260   2.741   5.871
 8398SOL    HW126093   5.269   2.674   5.944
 8398SOL    HW226094   5.163   2.753   5.847
 8399SOL     OW26095   6.264   6.357   6.748
 8399SOL    HW126096   6.205   6.335   6.825
 8399SOL    HW226097   6.274   6.277   6.689
 8400SOL     OW26098   1.928   2.269   4.049
 8400SOL    HW126099   1.950   2.181   4.091
 8400SOL    HW226100   1.933   2.260   3.949
 8401SOL     OW26101   1.921   1.484   5.184
 8401SOL    HW126102   1.877   1.414   5.128
 8401SOL    HW226103   1.869   1.569   5.178
 8402SOL     OW26104   5.573   1.857   6.281
 8402SOL    HW126105   5.484   1.833   6.243
 8402SOL    HW226106   5.578   1.956   6.295
 8403SOL     OW26107   0.435   3.205   4.331
 8403SOL    HW126108   0.496   3.140   4.375
 8403SOL    HW226109   0.344   3.199   4.373
 8404SOL     OW26110   3.701   0.083   5.964
 8404SOL    HW126111   3.784   0.124   6.002
 8404SOL    HW226112   3.629   0.152   5.959
 8405SOL     OW26113   3.145   1.781   6.080
 8405SOL    HW126114   3.230   1.775   6.131
 8405SOL    HW226115   3.152   1.852   6.010
 8406SOL     OW26116   4.164   0.158   0.367
 8406SOL    HW126117   4.091   0.099   0.331
 8406SOL    HW226118   4.252   0.112   0.356
 8407SOL     OW26119   4.000   6.320   3.400
 8407SOL    HW126120   4.004   6.223   3.377
 8407SOL    HW226121   3.982   6.330   3.498
 8408SOL     OW26122   5.480   4.877   0.798
 8408SOL    HW126123   5.513   4.906   0.888
 8408SOL    HW226124   5.454   4.958   0.745
 8409SOL     OW26125   4.859   2.299   1.982
 8409SOL    HW126126   4.772   2.250   1.978
 8409SOL    HW226127   4.880   2.323   2.076
 8410SOL     OW26128   6.198   2.108   1.773
 8410SOL    HW126129   6.287   2.062   1.764
 8410SOL    HW226130   6.136   2.050   1.826
 8411SOL     OW26131   0.280   5.887   1.294
 8411SOL    HW126132   0.348   5.869   1.223
 8411SOL    HW226133   0.245   5.800   1.329
 8412SOL     OW26134   3.912   2.079   1.190
 8412SOL    HW126135   3.899   2.125   1.278
 8412SOL    HW226136   3.828   2.086   1.136
 8413SOL     OW26137   4.491   5.751   6.103
 8413SOL    HW126138   4.496   5.801   6.190
 8413SOL    HW226139   4.532   5.661   6.115
 8414SOL     OW26140   2.300   0.910   3.240
 8414SOL    HW126141   2.333   0.817   3.228
 8414SOL    HW226142   2.229   0.929   3.172
 8415SOL     OW26143   1.803   6.769   4.091
 8415SOL    HW126144   1.822   6.833   4.016
 8415SOL    HW226145   1.708   6.779   4.120
 8416SOL     OW26146   6.484   1.551   4.829
 8416SOL    HW126147   6.537   1.612   4.888
 8416SOL    HW226148   6.510   1.566   4.734
 8417SOL     OW26149   1.314   2.969   5.278
 8417SOL    HW126150   1.330   2.973   5.179
 8417SOL    HW226151   1.221   2.999   5.298
 8418SOL     OW26152   0.163   5.177   1.993
 8418SOL    HW126153   0.129   5.208   2.082
 8418SOL    HW226154   0.106   5.102   1.960
 8419SOL     OW26155   5.804   1.182   2.604
 8419SOL    HW126156   5.832   1.261   2.659
 8419SOL    HW226157   5.812   1.098   2.657
 8420SOL     OW26158   3.259   6.562   1.835
 8420SOL    HW126159   3.229   6.642   1.886
 8420SOL    HW226160   3.292   6.590   1.745
 8421SOL     OW26161   3.714   4.619   0.073
 8421SOL    HW126162   3.731   4.653   7.007
 8421SOL    HW226163   3.685   4.523   0.069
 8422SOL     OW26164   3.942   1.789   2.699
 8422SOL    HW126165   3.954   1.690   2.713
 8422SOL    HW226166   4.031   1.834   2.703
 8423SOL     OW26167   4.559   4.102   5.580
 8423SOL    HW126168   4.485   4.137   5.639
 8423SOL    HW226169   4.568   4.160   5.499
 8424SOL     OW26170   2.127   2.393   3.076
 8424SOL    HW126171   2.064   2.405   2.999
 8424SOL    HW226172   2.159   2.482   3.107
 8425SOL     OW26173   4.112   3.540   4.767
 8425SOL    HW126174   4.066   3.595   4.837
 8425SOL    HW226175   4.205   3.521   4.796
 8426SOL     OW26176   3.626   3.289   2.698
 8426SOL    HW126177   3.631   3.189   2.696
 8426SOL    HW226178   3.532   3.317   2.714
 8427SOL     OW26179   3.198   3.623   3.654
 8427SOL    HW126180   3.202   3.642   3.556
 8427SOL    HW226181   3.164   3.531   3.669
 8428SOL     OW26182   0.051   6.624   1.733
 8428SOL    HW126183   0.088   6.715   1.757
 8428SOL    HW226184   6.977   6.630   1.725
 8429SOL     OW26185   1.600   5.577   5.690
 8429SOL    HW126186   1.641   5.522   5.617
 8429SOL    HW226187   1.518   5.531   5.724
 8430SOL     OW26188   4.115   5.120   4.246
 8430SOL    HW126189   4.113   5.040   4.186
 8430SOL    HW226190   4.131   5.202   4.190
 8431SOL     OW26191   3.943   3.916   0.263
 8431SOL    HW126192   3.951   3.848   0.191
 8431SOL    HW226193   4.033   3.955   0.283
 8432SOL     OW26194   6.525   5.251   5.559
 8432SOL    HW126195   6.472   5.333   5.580
 8432SOL    HW226196   6.610   5.253   5.612
 8433SOL     OW26197   4.514   2.810   0.717
 8433SOL    HW126198   4.550   2.794   0.809
 8433SOL    HW226199   4.414   2.799   0.719
 8434SOL     OW26200   2.600   6.834   4.402
 8434SOL    HW126201   2.563   6.812   4.312
 8434SOL    HW226202   2.683   6.779   4.418
 8435SOL     OW26203   5.709   0.305   2.836
 8435SOL    HW126204   5.680   0.282   2.744
 8435SOL    HW226205   5.686   0.401   2.855
 8436SOL     OW26206   3.247   6.456   3.840
 8436SOL    HW126207   3.284   6.466   3.748
 8436SOL    HW226208   3.149   6.477   3.839
 8437SOL     OW26209   2.283   2.550   2.536
 8437SOL    HW126210   2.323   2.524   2.448
 8437SOL    HW226211   2.184   2.563   2.525
 8438SOL     OW26212   2.416   4.499   3.150
 8438SOL    HW126213   2.406   4.406   3.184
 8438SOL    HW226214   2.334   4.552   3.171
 8439SOL     OW26215   6.514   4.850   2.757
 8439SOL    HW126216   6.420   4.841   2.790
 8439SOL    HW226217   6.576   4.850   2.836
 8440SOL     OW26218   2.499   2.276   3.214
 8440SOL    HW126219   2.563   2.200   3.209
 8440SOL    HW226220   2.441   2.277   3.133
 8441SOL     OW26221   6.014   6.370   6.129
 8441SOL    HW126222   6.020   6.366   6.229
 8441SOL    HW226223   6.085   6.311   6.089
 8442SOL     OW26224   3.794   1.317   4.500
 8442SOL    HW126225   3.753   1.405   4.526
 8442SOL    HW226226   3.827   1.323   4.406
 8443SOL     OW26227   2.309   4.975   3.620
 8443SOL    HW126228   2.320   4.905   3.691
 8443SOL    HW226229   2.396   5.023   3.607
 8444SOL     OW26230   3.022   6.953   3.558
 8444SOL    HW126231   2.993   0.020   3.537
 8444SOL    HW226232   3.115   6.938   3.526
 8445SOL     OW26233   2.941   0.374   0.917
 8445SOL    HW126234   2.893   0.303   0.866
 8445SOL    HW226235   2.913   0.370   1.013
 8446SOL     OW26236   6.466   5.070   5.392
 8446SOL    HW126237   6.546   5.062   5.333
 8446SOL    HW226238   6.489   5.126   5.471
 8447SOL     OW26239   3.823   1.298   1.750
 8447SOL    HW126240   3.726   1.286   1.772
 8447SOL    HW226241   3.843   1.255   1.662
 8448SOL     OW26242   4.815   6.370   3.473
 8448SOL    HW126243   4.723   6.410   3.468
 8448SOL    HW226244   4.870   6.405   3.397
 8449SOL     OW26245   0.209   3.167   3.313
 8449SOL    HW126246   0.121   3.210   3.297
 8449SOL    HW226247   0.249   3.138   3.226
 8450SOL     OW26248   0.438   0.962   1.529
 8450SOL    HW126249   0.518   0.908   1.502
 8450SOL    HW226250   0.459   1.015   1.611
 8451SOL     OW26251   3.215   0.948   0.116
 8451SOL    HW126252   3.177   1.014   0.050
 8451SOL    HW226253   3.307   0.976   0.142
 8452SOL     OW26254   5.459   2.750   4.893
 8452SOL    HW126255   5.380   2.810   4.906
 8452SOL    HW226256   5.434   2.656   4.917
 8453SOL     OW26257   0.183   5.450   0.290
 8453SOL    HW126258   0.183   5.540   0.246
 8453SOL    HW226259   0.124   5.388   0.239
 8454SOL     OW26260   0.360   5.353   0.480
 8454SOL    HW126261   0.412   5.285   0.429
 8454SOL    HW226262   0.303   5.406   0.417
 8455SOL     OW26263   6.582   2.390   3.201
 8455SOL    HW126264   6.585   2.407   3.102
 8455SOL    HW226265   6.537   2.302   3.218
 8456SOL     OW26266   4.291   0.504   3.495
 8456SOL    HW126267   4.355   0.428   3.484
 8456SOL    HW226268   4.338   0.582   3.535
 8457SOL     OW26269   6.880   5.889   4.765
 8457SOL    HW126270   6.944   5.966   4.771
 8457SOL    HW226271   6.810   5.910   4.697
 8458SOL     OW26272   1.756   0.217   0.378
 8458SOL    HW126273   1.796   0.132   0.411
 8458SOL    HW226274   1.658   0.206   0.366
 8459SOL     OW26275   1.921   5.783   3.110
 8459SOL    HW126276   2.009   5.738   3.098
 8459SOL    HW226277   1.887   5.813   3.020
 8460SOL     OW26278   4.492   3.816   5.484
 8460SOL    HW126279   4.502   3.769   5.396
 8460SOL    HW226280   4.564   3.885   5.493
 8461SOL     OW26281   0.710   2.606   5.110
 8461SOL    HW126282   0.728   2.522   5.057
 8461SOL    HW226283   0.737   2.592   5.205
 8462SOL     OW26284   3.361   1.658   6.737
 8462SOL    HW126285   3.310   1.679   6.654
 8462SOL    HW226286   3.297   1.636   6.811
 8463SOL     OW26287   6.617   0.317   2.208
 8463SOL    HW126288   6.571   0.356   2.129
 8463SOL    HW226289   6.697   0.265   2.178
 8464SOL     OW26290   5.525   4.385   3.958
 8464SOL    HW126291   5.574   4.473   3.965
 8464SOL    HW226292   5.577   4.324   3.899
 8465SOL     OW26293   1.731   2.209   0.511
 8465SOL    HW126294   1.673   2.139   0.553
 8465SOL    HW226295   1.673   2.274   0.462
 8466SOL     OW26296   1.255   6.752   4.001
 8466SOL    HW126297   1.282   6.669   3.951
 8466SOL    HW226298   1.159   6.744   4.029
 8467SOL     OW26299   2.800   5.774   0.534
 8467SOL    HW126300   2.899   5.775   0.547
 8467SOL    HW226301   2.774   5.688   0.489
 8468SOL     OW26302   3.210   1.415   0.958
 8468SOL    HW126303   3.271   1.489   0.929
 8468SOL    HW226304   3.126   1.454   0.996
 8469SOL     OW26305   3.294   2.773   6.727
 8469SOL    HW126306   3.228   2.705   6.759
 8469SOL    HW226307   3.277   2.793   6.630
 8470SOL     OW26308   2.560   3.452   1.240
 8470SOL    HW126309   2.478   3.501   1.212
 8470SOL    HW226310   2.535   3.374   1.297
 8471SOL     OW26311   2.765   0.940   3.352
 8471SOL    HW126312   2.731   0.943   3.446
 8471SOL    HW226313   2.705   0.884   3.296
 8472SOL     OW26314   0.041   6.789   4.115
 8472SOL    HW126315   7.009   6.823   4.041
 8472SOL    HW226316   0.101   6.862   4.148
 8473SOL     OW26317   0.220   5.417   6.813
 8473SOL    HW126318   0.138   5.371   6.848
 8473SOL    HW226319   0.292   5.350   6.797
 8474SOL     OW26320   3.133   3.151   1.821
 8474SOL    HW126321   3.200   3.146   1.747
 8474SOL    HW226322   3.148   3.235   1.874
 8475SOL     OW26323   6.842   1.307   2.821
 8475SOL    HW126324   6.754   1.332   2.861
 8475SOL    HW226325   6.841   1.327   2.723
 8476SOL     OW26326   6.362   0.583   2.220
 8476SOL    HW126327   6.346   0.596   2.122
 8476SOL    HW226328   6.351   0.670   2.267
 8477SOL     OW26329   2.958   6.524   1.382
 8477SOL    HW126330   3.001   6.436   1.401
 8477SOL    HW226331   2.867   6.509   1.343
 8478SOL     OW26332   1.085   0.751   5.643
 8478SOL    HW126333   1.046   0.691   5.712
 8478SOL    HW226334   1.080   0.706   5.553
 8479SOL     OW26335   5.987   1.325   0.376
 8479SOL    HW126336   6.081   1.292   0.365
 8479SOL    HW226337   5.923   1.249   0.366
 8480SOL     OW26338   3.277   1.070   1.397
 8480SOL    HW126339   3.261   1.151   1.341
 8480SOL    HW226340   3.206   1.003   1.379
 8481SOL     OW26341   4.372   1.714   4.101
 8481SOL    HW126342   4.458   1.671   4.074
 8481SOL    HW226343   4.382   1.756   4.191
 8482SOL     OW26344   2.168   0.122   2.061
 8482SOL    HW126345   2.155   0.154   1.967
 8482SOL    HW226346   2.079   0.104   2.102
 8483SOL     OW26347   3.536   5.885   2.126
 8483SOL    HW126348   3.624   5.927   2.103
 8483SOL    HW226349   3.519   5.893   2.224
 8484SOL     OW26350   6.891   4.884   3.134
 8484SOL    HW126351   6.927   4.887   3.227
 8484SOL    HW226352   6.811   4.945   3.127
 8485SOL     OW26353   1.726   3.525   6.737
 8485SOL    HW126354   1.645   3.574   6.766
 8485SOL    HW226355   1.799   3.590   6.716
 8486SOL     OW26356   5.406   1.226   2.966
 8486SOL    HW126357   5.494   1.193   2.998
 8486SOL    HW226358   5.404   1.224   2.866
 8487SOL     OW26359   5.335   6.808   0.684
 8487SOL    HW126360   5.264   6.843   0.745
 8487SOL    HW226361   5.307   6.819   0.589
 8488SOL     OW26362   5.679   5.244   5.338
 8488SOL    HW126363   5.691   5.324   5.398
 8488SOL    HW226364   5.666   5.276   5.244
 8489SOL     OW26365   6.124   6.892   1.324
 8489SOL    HW126366   6.077   6.810   1.292
 8489SOL    HW226367   6.211   6.867   1.365
 8490SOL     OW26368   4.477   6.250   3.399
 8490SOL    HW126369   4.481   6.231   3.497
 8490SOL    HW226370   4.476   6.164   3.348
 8491SOL     OW26371   2.465   0.407   1.530
 8491SOL    HW126372   2.549   0.359   1.506
 8491SOL    HW226373   2.485   0.479   1.596
 8492SOL     OW26374   4.593   3.782   5.828
 8492SOL    HW126375   4.513   3.809   5.881
 8492SOL    HW226376   4.571   3.700   5.774
 8493SOL     OW26377   3.338   2.124   6.984
 8493SOL    HW126378   3.339   2.082   0.049
 8493SOL    HW226379   3.363   2.056   6.915
 8494SOL     OW26380   1.713   4.690   6.329
 8494SOL    HW126381   1.785   4.708   6.263
 8494SOL    HW226382   1.635   4.647   6.284
 8495SOL     OW26383   0.110   3.393   0.868
 8495SOL    HW126384   0.153   3.329   0.805
 8495SOL    HW226385   0.175   3.466   0.890
 8496SOL     OW26386   0.330   2.259   3.044
 8496SOL    HW126387   0.363   2.345   3.007
 8496SOL    HW226388   0.230   2.260   3.049
 8497SOL     OW26389   5.482   6.377   4.224
 8497SOL    HW126390   5.581   6.369   4.240
 8497SOL    HW226391   5.465   6.395   4.127
 8498SOL     OW26392   0.361   6.173   1.861
 8498SOL    HW126393   0.269   6.193   1.828
 8498SOL    HW226394   0.399   6.096   1.809
 8499SOL     OW26395   2.316   5.616   6.228
 8499SOL    HW126396   2.276   5.529   6.197
 8499SOL    HW226397   2.408   5.600   6.263
 8500SOL     OW26398   2.391   0.612   5.621
 8500SOL    HW126399   2.394   0.579   5.715
 8500SOL    HW226400   2.376   0.711   5.621
 8501SOL     OW26401   1.591   2.108   0.009
 8501SOL    HW126402   1.613   2.145   0.099
 8501SOL    HW226403   1.546   2.019   0.019
 8502SOL     OW26404   1.096   5.082   1.449
 8502SOL    HW126405   1.088   5.012   1.520
 8502SOL    HW226406   1.193   5.105   1.435
 8503SOL     OW26407   1.175   5.225   2.651
 8503SOL    HW126408   1.230   5.173   2.586
 8503SOL    HW226409   1.090   5.176   2.670
 8504SOL     OW26410   1.780   6.179   3.219
 8504SOL    HW126411   1.699   6.213   3.267
 8504SOL    HW226412   1.755   6.154   3.125
 8505SOL     OW26413   5.047   4.289   3.137
 8505SOL    HW126414   4.954   4.315   3.110
 8505SOL    HW226415   5.113   4.330   3.073
 8506SOL     OW26416   0.714   7.002   0.542
 8506SOL    HW126417   0.737   6.945   0.621
 8506SOL    HW226418   0.688   0.067   0.573
 8507SOL     OW26419   2.087   0.629   5.354
 8507SOL    HW126420   2.087   0.536   5.390
 8507SOL    HW226421   1.992   0.663   5.350
 8508SOL     OW26422   0.102   2.739   4.523
 8508SOL    HW126423   0.177   2.767   4.462
 8508SOL    HW226424   0.086   2.810   4.591
 8509SOL     OW26425   6.503   1.601   4.555
 8509SOL    HW126426   6.586   1.561   4.516
 8509SOL    HW226427   6.423   1.559   4.511
 8510SOL     OW26428   6.692   5.063   3.412
 8510SOL    HW126429   6.770   5.098   3.361
 8510SOL    HW226430   6.709   4.967   3.437
 8511SOL     OW26431   5.837   4.444   1.821
 8511SOL    HW126432   5.880   4.360   1.855
 8511SOL    HW226433   5.904   4.498   1.771
 8512SOL     OW26434   3.895   2.381   0.359
 8512SOL    HW126435   3.859   2.431   0.280
 8512SOL    HW226436   3.993   2.366   0.347
 8513SOL     OW26437   4.814   4.113   1.364
 8513SOL    HW126438   4.841   4.017   1.358
 8513SOL    HW226439   4.737   4.122   1.427
 8514SOL     OW26440   2.503   2.641   3.286
 8514SOL    HW126441   2.419   2.604   3.326
 8514SOL    HW226442   2.492   2.652   3.188
 8515SOL     OW26443   0.418   1.346   6.884
 8515SOL    HW126444   0.319   1.339   6.868
 8515SOL    HW226445   0.457   1.255   6.890
 8516SOL     OW26446   6.218   3.159   1.485
 8516SOL    HW126447   6.274   3.156   1.568
 8516SOL    HW226448   6.254   3.093   1.419
 8517SOL     OW26449   1.952   2.347   6.045
 8517SOL    HW126450   1.911   2.257   6.033
 8517SOL    HW226451   1.986   2.380   5.957
 8518SOL     OW26452   5.223   4.239   5.962
 8518SOL    HW126453   5.153   4.215   5.894
 8518SOL    HW226454   5.216   4.336   5.984
 8519SOL     OW26455   0.701   4.861   0.790
 8519SOL    HW126456   0.627   4.903   0.738
 8519SOL    HW226457   0.787   4.870   0.739
 8520SOL     OW26458   3.176   2.921   6.094
 8520SOL    HW126459   3.227   2.859   6.035
 8520SOL    HW226460   3.189   3.015   6.063
 8521SOL     OW26461   1.962   5.722   5.727
 8521SOL    HW126462   2.053   5.748   5.759
 8521SOL    HW226463   1.919   5.661   5.794
 8522SOL     OW26464   0.461   0.057   1.512
 8522SOL    HW126465   0.531   0.063   1.584
 8522SOL    HW226466   0.371   0.072   1.552
 8523SOL     OW26467   2.310   6.786   6.778
 8523SOL    HW126468   2.214   6.800   6.803
 8523SOL    HW226469   2.368   6.799   6.858
 8524SOL     OW26470   1.102   3.854   4.683
 8524SOL    HW126471   1.197   3.871   4.658
 8524SOL    HW226472   1.098   3.779   4.749
 8525SOL     OW26473   5.926   4.959   0.944
 8525SOL    HW126474   5.839   4.920   0.912
 8525SOL    HW226475   5.949   5.038   0.888
 8526SOL     OW26476   3.427   6.634   0.954
 8526SOL    HW126477   3.401   6.566   1.022
 8526SOL    HW226478   3.486   6.703   0.995
 8527SOL     OW26479   3.635   0.430   6.919
 8527SOL    HW126480   3.548   0.405   6.962
 8527SOL    HW226481   3.710   0.391   6.972
 8528SOL     OW26482   3.573   1.442   0.816
 8528SOL    HW126483   3.613   1.508   0.880
 8528SOL    HW226484   3.646   1.397   0.765
 8529SOL     OW26485   1.232   6.861   0.381
 8529SOL    HW126486   1.208   6.958   0.386
 8529SOL    HW226487   1.252   6.837   0.286
 8530SOL     OW26488   3.884   3.350   5.195
 8530SOL    HW126489   3.853   3.414   5.125
 8530SOL    HW226490   3.976   3.319   5.173
 8531SOL     OW26491   0.059   5.687   2.630
 8531SOL    HW126492   0.104   5.617   2.574
 8531SOL    HW226493   0.127   5.749   2.668
 8532SOL     OW26494   3.957   6.038   4.297
 8532SOL    HW126495   4.042   5.989   4.280
 8532SOL    HW226496   3.946   6.110   4.228
 8533SOL     OW26497   1.665   5.912   0.210
 8533SOL    HW126498   1.638   5.823   0.247
 8533SOL    HW226499   1.599   5.941   0.142
 8534SOL     OW26500   4.912   2.756   4.048
 8534SOL    HW126501   4.969   2.802   3.980
 8534SOL    HW226502   4.857   2.685   4.003
 8535SOL     OW26503   5.867   1.430   3.832
 8535SOL    HW126504   5.781   1.446   3.880
 8535SOL    HW226505   5.889   1.509   3.775
 8536SOL     OW26506   0.530   1.746   5.307
 8536SOL    HW126507   0.608   1.684   5.310
 8536SOL    HW226508   0.459   1.707   5.248
 8537SOL     OW26509   5.703   1.599   3.494
 8537SOL    HW126510   5.737   1.506   3.499
 8537SOL    HW226511   5.603   1.599   3.508
 8538SOL     OW26512   1.965   1.194   6.804
 8538SOL    HW126513   1.955   1.095   6.794
 8538SOL    HW226514   1.875   1.238   6.801
 8539SOL     OW26515   6.696   1.903   2.255
 8539SOL    HW126516   6.768   1.972   2.262
 8539SOL    HW226517   6.660   1.883   2.346
 8540SOL     OW26518   5.843   0.078   6.782
 8540SOL    HW126519   5.837   7.008   6.811
 8540SOL    HW226520   5.768   0.098   6.718
 8541SOL     OW26521   3.673   1.675   3.460
 8541SOL    HW126522   3.591   1.723   3.428
 8541SOL    HW226523   3.743   1.677   3.389
 8542SOL     OW26524   3.852   4.477   6.273
 8542SOL    HW126525   3.822   4.383   6.292
 8542SOL    HW226526   3.809   4.540   6.338
 8543SOL     OW26527   1.958   1.638   1.655
 8543SOL    HW126528   1.910   1.650   1.569
 8543SOL    HW226529   2.012   1.719   1.675
 8544SOL     OW26530   5.671   3.269   4.257
 8544SOL    HW126531   5.728   3.350   4.256
 8544SOL    HW226532   5.617   3.267   4.342
 8545SOL     OW26533   4.450   0.064   5.738
 8545SOL    HW126534   4.491   7.001   5.717
 8545SOL    HW226535   4.510   0.137   5.706
 8546SOL     OW26536   5.917   2.124   4.230
 8546SOL    HW126537   5.886   2.029   4.225
 8546SOL    HW226538   5.854   2.182   4.179
 8547SOL     OW26539   0.545   6.493   6.020
 8547SOL    HW126540   0.499   6.462   5.937
 8547SOL    HW226541   0.484   6.481   6.098
 8548SOL     OW26542   5.993   2.870   5.174
 8548SOL    HW126543   5.918   2.873   5.240
 8548SOL    HW226544   6.032   2.962   5.165
 8549SOL     OW26545   0.479   3.685   3.822
 8549SOL    HW126546   0.389   3.652   3.792
 8549SOL    HW226547   0.545   3.610   3.818
 8550SOL     OW26548   2.142   4.663   6.020
 8550SOL    HW126549   2.135   4.568   6.052
 8550SOL    HW226550   2.236   4.681   5.989
 8551SOL     OW26551   3.511   4.024   6.418
 8551SOL    HW126552   3.548   3.998   6.329
 8551SOL    HW226553   3.496   3.942   6.473
 8552SOL     OW26554   2.707   6.119   4.193
 8552SOL    HW126555   2.724   6.067   4.276
 8552SOL    HW226556   2.742   6.068   4.114
 8553SOL     OW26557   5.537   5.646   6.669
 8553SOL    HW126558   5.514   5.574   6.603
 8553SOL    HW226559   5.494   5.626   6.757
 8554SOL     OW26560   0.686   4.778   0.440
 8554SOL    HW126561   0.750   4.824   0.501
 8554SOL    HW226562   0.648   4.845   0.376
 8555SOL     OW26563   0.817   0.395   3.324
 8555SOL    HW126564   0.877   0.316   3.337
 8555SOL    HW226565   0.858   0.457   3.258
 8556SOL     OW26566   0.761   6.691   3.340
 8556SOL    HW126567   0.752   6.767   3.276
 8556SOL    HW226568   0.828   6.714   3.411
 8557SOL     OW26569   6.539   1.644   1.972
 8557SOL    HW126570   6.633   1.672   1.954
 8557SOL    HW226571   6.490   1.637   1.886
 8558SOL     OW26572   2.333   5.897   3.009
 8558SOL    HW126573   2.305   5.985   3.046
 8558SOL    HW226574   2.401   5.855   3.070
 8559SOL     OW26575   6.354   0.631   2.687
 8559SOL    HW126576   6.450   0.603   2.696
 8559SOL    HW226577   6.349   0.723   2.649
 8560SOL     OW26578   6.874   0.209   1.288
 8560SOL    HW126579   6.947   0.234   1.352
 8560SOL    HW226580   6.787   0.208   1.336
 8561SOL     OW26581   3.459   6.230   2.177
 8561SOL    HW126582   3.427   6.226   2.082
 8561SOL    HW226583   3.384   6.259   2.236
 8562SOL     OW26584   4.780   6.773   5.127
 8562SOL    HW126585   4.737   6.694   5.084
 8562SOL    HW226586   4.721   6.808   5.200
 8563SOL     OW26587   2.422   3.031   6.894
 8563SOL    HW126588   2.350   2.961   6.893
 8563SOL    HW226589   2.493   3.007   6.828
 8564SOL     OW26590   2.388   0.924   3.573
 8564SOL    HW126591   2.306   0.888   3.618
 8564SOL    HW226592   2.368   0.941   3.476
 8565SOL     OW26593   4.997   6.913   1.334
 8565SOL    HW126594   5.002   7.006   1.297
 8565SOL    HW226595   4.903   6.880   1.327
 8566SOL     OW26596   1.184   1.104   2.230
 8566SOL    HW126597   1.259   1.089   2.165
 8566SOL    HW226598   1.198   1.047   2.310
 8567SOL     OW26599   0.033   1.889   1.809
 8567SOL    HW126600   0.128   1.870   1.782
 8567SOL    HW226601   7.013   1.940   1.737
 8568SOL     OW26602   4.517   1.236   6.682
 8568SOL    HW126603   4.513   1.252   6.584
 8568SOL    HW226604   4.521   1.138   6.700
 8569SOL     OW26605   4.812   1.305   5.934
 8569SOL    HW126606   4.879   1.304   6.009
 8569SOL    HW226607   4.848   1.251   5.857
 8570SOL     OW26608   1.132   2.592   6.147
 8570SOL    HW126609   1.062   2.565   6.213
 8570SOL    HW226610   1.166   2.511   6.099
 8571SOL     OW26611   6.811   5.401   5.917
 8571SOL    HW126612   6.878   5.457   5.966
 8571SOL    HW226613   6.768   5.337   5.980
 8572SOL     OW26614   3.023   5.289   5.947
 8572SOL    HW126615   3.023   5.207   5.891
 8572SOL    HW226616   3.100   5.287   6.010
 8573SOL     OW26617   3.736   6.184   6.852
 8573SOL    HW126618   3.669   6.111   6.864
 8573SOL    HW226619   3.718   6.233   6.767
 8574SOL     OW26620   0.205   4.893   5.156
 8574SOL    HW126621   0.284   4.871   5.098
 8574SOL    HW226622   0.135   4.823   5.144
 8575SOL     OW26623   3.026   2.475   0.187
 8575SOL    HW126624   2.955   2.404   0.190
 8575SOL    HW226625   3.107   2.439   0.141
 8576SOL     OW26626   0.952   6.712   0.623
 8576SOL    HW126627   1.031   6.773   0.624
 8576SOL    HW226628   0.923   6.697   0.528
 8577SOL     OW26629   6.383   5.038   4.652
 8577SOL    HW126630   6.365   5.131   4.684
 8577SOL    HW226631   6.481   5.025   4.640
 8578SOL     OW26632   4.969   0.537   4.174
 8578SOL    HW126633   4.964   0.500   4.081
 8578SOL    HW226634   4.886   0.588   4.194
 8579SOL     OW26635   1.628   5.760   3.687
 8579SOL    HW126636   1.611   5.667   3.719
 8579SOL    HW226637   1.620   5.823   3.765
 8580SOL     OW26638   2.298   6.867   1.980
 8580SOL    HW126639   2.277   6.960   2.009
 8580SOL    HW226640   2.329   6.813   2.058
 8581SOL     OW26641   3.135   2.743   1.757
 8581SOL    HW126642   3.160   2.794   1.840
 8581SOL    HW226643   3.198   2.666   1.746
 8582SOL     OW26644   4.431   4.468   2.419
 8582SOL    HW126645   4.523   4.468   2.379
 8582SOL    HW226646   4.382   4.387   2.389
 8583SOL     OW26647   5.991   0.742   5.981
 8583SOL    HW126648   6.042   0.692   5.911
 8583SOL    HW226649   5.906   0.778   5.941
 8584SOL     OW26650   0.580   4.004   6.546
 8584SOL    HW126651   0.592   3.912   6.583
 8584SOL    HW226652   0.509   4.002   6.475
 8585SOL     OW26653   6.925   6.705   0.412
 8585SOL    HW126654   6.969   6.751   0.489
 8585SOL    HW226655   6.828   6.729   0.410
 8586SOL     OW26656   2.628   6.278   3.288
 8586SOL    HW126657   2.687   6.355   3.262
 8586SOL    HW226658   2.574   6.303   3.369
 8587SOL     OW26659   1.216   0.163   3.072
 8587SOL    HW126660   1.306   0.177   3.112
 8587SOL    HW226661   1.171   0.252   3.059
 8588SOL     OW26662   2.923   0.968   0.074
 8588SOL    HW126663   2.961   0.938   0.161
 8588SOL    HW226664   2.875   1.055   0.086
 8589SOL     OW26665   4.454   2.027   4.808
 8589SOL    HW126666   4.356   2.034   4.791
 8589SOL    HW226667   4.505   2.057   4.727
 8590SOL     OW26668   6.725   5.917   3.985
 8590SOL    HW126669   6.789   5.858   3.936
 8590SOL    HW226670   6.746   5.916   4.082
 8591SOL     OW26671   0.919   4.654   6.247
 8591SOL    HW126672   0.999   4.712   6.257
 8591SOL    HW226673   0.874   4.673   6.159
 8592SOL     OW26674   6.984   4.080   0.168
 8592SOL    HW126675   0.048   4.099   0.128
 8592SOL    HW226676   6.973   3.982   0.182
 8593SOL     OW26677   1.260   6.760   2.174
 8593SOL    HW126678   1.331   6.818   2.214
 8593SOL    HW226679   1.301   6.677   2.138
 8594SOL     OW26680   3.464   3.694   5.096
 8594SOL    HW126681   3.403   3.768   5.123
 8594SOL    HW226682   3.415   3.607   5.102
 8595SOL     OW26683   2.281   1.421   2.510
 8595SOL    HW126684   2.308   1.501   2.458
 8595SOL    HW226685   2.341   1.344   2.489
 8596SOL     OW26686   6.036   5.297   2.270
 8596SOL    HW126687   6.123   5.320   2.312
 8596SOL    HW226688   5.981   5.244   2.334
 8597SOL     OW26689   4.248   2.153   1.307
 8597SOL    HW126690   4.174   2.162   1.373
 8597SOL    HW226691   4.215   2.105   1.226
 8598SOL     OW26692   0.233   5.395   1.619
 8598SOL    HW126693   0.133   5.402   1.611
 8598SOL    HW226694   0.271   5.486   1.637
 8599SOL     OW26695   1.120   3.053   4.061
 8599SOL    HW126696   1.219   3.062   4.051
 8599SOL    HW226697   1.093   2.960   4.035
 8600SOL     OW26698   5.682   5.108   6.839
 8600SOL    HW126699   5.747   5.048   6.794
 8600SOL    HW226700   5.694   5.202   6.806
 8601SOL     OW26701   0.471   1.097   4.595
 8601SOL    HW126702   0.524   1.090   4.680
 8601SOL    HW226703   0.421   1.184   4.594
 8602SOL     OW26704   2.291   6.438   2.482
 8602SOL    HW126705   2.269   6.352   2.436
 8602SOL    HW226706   2.292   6.424   2.581
 8603SOL     OW26707   3.750   4.286   0.595
 8603SOL    HW126708   3.718   4.380   0.599
 8603SOL    HW226709   3.838   4.282   0.547
 8604SOL     OW26710   6.205   3.010   3.298
 8604SOL    HW126711   6.166   3.095   3.333
 8604SOL    HW226712   6.131   2.947   3.275
 8605SOL     OW26713   3.367   5.001   4.517
 8605SOL    HW126714   3.271   5.006   4.486
 8605SOL    HW226715   3.385   4.911   4.556
 8606SOL     OW26716   2.094   4.531   5.572
 8606SOL    HW126717   2.185   4.526   5.531
 8606SOL    HW226718   2.095   4.484   5.660
 8607SOL     OW26719   2.798   4.917   1.091
 8607SOL    HW126720   2.723   4.946   1.151
 8607SOL    HW226721   2.784   4.822   1.063
 8608SOL     OW26722   5.036   5.038   3.011
 8608SOL    HW126723   5.041   5.035   3.110
 8608SOL    HW226724   4.953   4.993   2.979
 8609SOL     OW26725   4.161   0.867   4.190
 8609SOL    HW126726   4.092   0.804   4.225
 8609SOL    HW226727   4.142   0.959   4.222
 8610SOL     OW26728   1.151   0.321   2.727
 8610SOL    HW126729   1.223   0.316   2.658
 8610SOL    HW226730   1.182   0.378   2.803
 8611SOL     OW26731   1.808   2.544   3.830
 8611SOL    HW126732   1.777   2.617   3.769
 8611SOL    HW226733   1.811   2.457   3.779
 8612SOL     OW26734   3.254   3.141   6.702
 8612SOL    HW126735   3.265   3.159   6.604
 8612SOL    HW226736   3.324   3.076   6.733
 8613SOL     OW26737   2.344   1.186   1.334
 8613SOL    HW126738   2.381   1.267   1.287
 8613SOL    HW226739   2.248   1.174   1.309
 8614SOL     OW26740   0.856   4.021   2.808
 8614SOL    HW126741   0.795   4.002   2.885
 8614SOL    HW226742   0.838   3.956   2.734
 8615SOL     OW26743   5.279   1.828   4.839
 8615SOL    HW126744   5.305   1.755   4.774
 8615SOL    HW226745   5.358   1.886   4.857
 8616SOL     OW26746   0.988   5.168   0.980
 8616SOL    HW126747   0.963   5.133   1.070
 8616SOL    HW226748   0.905   5.196   0.932
 8617SOL     OW26749   6.239   1.228   0.386
 8617SOL    HW126750   6.286   1.314   0.363
 8617SOL    HW226751   6.245   1.165   0.308
 8618SOL     OW26752   5.334   6.953   1.376
 8618SOL    HW126753   5.290   0.007   1.336
 8618SOL    HW226754   5.265   6.895   1.420
 8619SOL     OW26755   3.744   4.949   0.781
 8619SOL    HW126756   3.772   4.884   0.710
 8619SOL    HW226757   3.822   5.005   0.808
 8620SOL     OW26758   6.118   6.792   3.341
 8620SOL    HW126759   6.082   6.834   3.258
 8620SOL    HW226760   6.217   6.806   3.345
 8621SOL     OW26761   6.020   1.402   3.583
 8621SOL    HW126762   6.072   1.327   3.625
 8621SOL    HW226763   5.924   1.376   3.575
 8622SOL     OW26764   4.623   4.815   0.781
 8622SOL    HW126765   4.633   4.745   0.711
 8622SOL    HW226766   4.593   4.900   0.739
 8623SOL     OW26767   0.332   4.451   3.012
 8623SOL    HW126768   0.396   4.426   2.939
 8623SOL    HW226769   0.375   4.519   3.071
 8624SOL     OW26770   1.236   4.905   3.684
 8624SOL    HW126771   1.225   4.818   3.636
 8624SOL    HW226772   1.253   4.888   3.781
 8625SOL     OW26773   4.768   0.682   4.210
 8625SOL    HW126774   4.726   0.758   4.161
 8625SOL    HW226775   4.708   0.652   4.284
 8626SOL     OW26776   4.004   3.104   4.345
 8626SOL    HW126777   4.017   3.091   4.444
 8626SOL    HW226778   4.019   3.200   4.322
 8627SOL     OW26779   1.369   0.405   2.561
 8627SOL    HW126780   1.408   0.326   2.513
 8627SOL    HW226781   1.442   0.467   2.590
 8628SOL     OW26782   6.475   6.872   1.255
 8628SOL    HW126783   6.494   6.929   1.335
 8628SOL    HW226784   6.536   6.896   1.181
 8629SOL     OW26785   1.713   5.527   4.532
 8629SOL    HW126786   1.716   5.432   4.499
 8629SOL    HW226787   1.806   5.560   4.546
 8630SOL     OW26788   6.266   3.964   4.737
 8630SOL    HW126789   6.285   3.888   4.798
 8630SOL    HW226790   6.197   3.937   4.670
 8631SOL     OW26791   4.089   6.169   6.540
 8631SOL    HW126792   4.025   6.243   6.517
 8631SOL    HW226793   4.049   6.113   6.612
 8632SOL     OW26794   3.702   6.161   3.537
 8632SOL    HW126795   3.732   6.099   3.610
 8632SOL    HW226796   3.702   6.255   3.570
 8633SOL     OW26797   5.177   1.073   4.300
 8633SOL    HW126798   5.145   1.168   4.300
 8633SOL    HW226799   5.118   1.018   4.241
 8634SOL     OW26800   6.239   3.090   0.804
 8634SOL    HW126801   6.221   2.999   0.767
 8634SOL    HW226802   6.330   3.120   0.777
 8635SOL     OW26803   6.092   4.106   5.993
 8635SOL    HW126804   6.045   4.021   5.967
 8635SOL    HW226805   6.190   4.088   6.003
 8636SOL     OW26806   5.461   5.284   6.989
 8636SOL    HW126807   5.368   5.252   7.009
 8636SOL    HW226808   5.514   5.209   6.948
 8637SOL     OW26809   1.642   0.415   0.545
 8637SOL    HW126810   1.710   0.356   0.501
 8637SOL    HW226811   1.664   0.511   0.527
 8638SOL     OW26812   2.027   3.443   0.273
 8638SOL    HW126813   2.030   3.531   0.226
 8638SOL    HW226814   1.968   3.380   0.222
 8639SOL     OW26815   6.183   2.748   1.668
 8639SOL    HW126816   6.185   2.654   1.701
 8639SOL    HW226817   6.091   2.785   1.677
 8640SOL     OW26818   4.740   4.078   0.702
 8640SOL    HW126819   4.770   4.029   0.620
 8640SOL    HW226820   4.741   4.015   0.780
 8641SOL     OW26821   6.906   4.105   4.714
 8641SOL    HW126822   6.949   4.136   4.799
 8641SOL    HW226823   6.971   4.110   4.639
 8642SOL     OW26824   4.107   0.425   2.445
 8642SOL    HW126825   4.199   0.390   2.427
 8642SOL    HW226826   4.051   0.351   2.483
 8643SOL     OW26827   4.209   6.951   6.834
 8643SOL    HW126828   4.162   6.867   6.807
 8643SOL    HW226829   4.305   6.930   6.854
 8644SOL     OW26830   4.661   2.441   5.751
 8644SOL    HW126831   4.579   2.478   5.707
 8644SOL    HW226832   4.742   2.489   5.716
 8645SOL     OW26833   5.381   4.746   1.639
 8645SOL    HW126834   5.377   4.846   1.644
 8645SOL    HW226835   5.371   4.717   1.544
 8646SOL     OW26836   5.697   0.973   1.345
 8646SOL    HW126837   5.790   0.935   1.352
 8646SOL    HW226838   5.632   0.911   1.387
 8647SOL     OW26839   3.961   4.944   6.173
 8647SOL    HW126840   3.912   4.876   6.118
 8647SOL    HW226841   4.020   4.998   6.113
 8648SOL     OW26842   5.701   1.563   4.774
 8648SOL    HW126843   5.649   1.609   4.702
 8648SOL    HW226844   5.649   1.566   4.860
 8649SOL     OW26845   5.703   5.228   5.840
 8649SOL    HW126846   5.665   5.202   5.751
 8649SOL    HW226847   5.637   5.204   5.912
 8650SOL     OW26848   1.538   4.812   4.654
 8650SOL    HW126849   1.488   4.796   4.739
 8650SOL    HW226850   1.539   4.729   4.599
 8651SOL     OW26851   3.884   0.712   0.711
 8651SOL    HW126852   3.860   0.743   0.619
 8651SOL    HW226853   3.815   0.647   0.743
 8652SOL     OW26854   1.616   4.415   3.130
 8652SOL    HW126855   1.552   4.489   3.153
 8652SOL    HW226856   1.575   4.327   3.156
 8653SOL     OW26857   5.993   2.434   5.805
 8653SOL    HW126858   6.013   2.526   5.836
 8653SOL    HW226859   5.947   2.383   5.878
 8654SOL     OW26860   0.896   6.155   1.849
 8654SOL    HW126861   0.871   6.239   1.896
 8654SOL    HW226862   0.964   6.174   1.779
 8655SOL     OW26863   5.886   0.785   3.655
 8655SOL    HW126864   5.841   0.699   3.633
 8655SOL    HW226865   5.981   0.767   3.681
 8656SOL     OW26866   6.583   1.472   1.376
 8656SOL    HW126867   6.599   1.558   1.328
 8656SOL    HW226868   6.644   1.402   1.340
 8657SOL     OW26869   4.454   4.930   6.737
 8657SOL    HW126870   4.397   4.848   6.725
 8657SOL    HW226871   4.532   4.926   6.676
 8658SOL     OW26872   4.566   5.984   0.201
 8658SOL    HW126873   4.620   5.966   0.283
 8658SOL    HW226874   4.590   5.918   0.130
 8659SOL     OW26875   4.767   1.165   3.195
 8659SOL    HW126876   4.720   1.218   3.266
 8659SOL    HW226877   4.772   1.219   3.111
 8660SOL     OW26878   5.075   3.584   0.708
 8660SOL    HW126879   5.064   3.679   0.735
 8660SOL    HW226880   5.050   3.524   0.784
 8661SOL     OW26881   5.591   3.953   1.789
 8661SOL    HW126882   5.604   3.861   1.824
 8661SOL    HW226883   5.673   4.007   1.807
 8662SOL     OW26884   4.896   6.362   1.873
 8662SOL    HW126885   4.976   6.304   1.891
 8662SOL    HW226886   4.880   6.367   1.774
 8663SOL     OW26887   2.382   5.600   0.487
 8663SOL    HW126888   2.477   5.570   0.482
 8663SOL    HW226889   2.372   5.688   0.440
 8664SOL     OW26890   3.492   5.169   0.931
 8664SOL    HW126891   3.439   5.227   0.993
 8664SOL    HW226892   3.515   5.084   0.977
 8665SOL     OW26893   5.365   5.574   5.355
 8665SOL    HW126894   5.353   5.618   5.266
 8665SOL    HW226895   5.365   5.475   5.343
 8666SOL     OW26896   5.592   2.339   5.192
 8666SOL    HW126897   5.640   2.272   5.248
 8666SOL    HW226898   5.637   2.345   5.102
 8667SOL     OW26899   4.705   2.444   3.035
 8667SOL    HW126900   4.656   2.393   3.106
 8667SOL    HW226901   4.677   2.410   2.945
 8668SOL     OW26902   5.194   2.603   3.644
 8668SOL    HW126903   5.245   2.589   3.559
 8668SOL    HW226904   5.127   2.677   3.631
 8669SOL     OW26905   2.904   6.948   6.819
 8669SOL    HW126906   2.917   6.852   6.793
 8669SOL    HW226907   2.844   6.992   6.753
 8670SOL     OW26908   3.400   4.760   5.257
 8670SOL    HW126909   3.311   4.721   5.277
 8670SOL    HW226910   3.469   4.719   5.317
 8671SOL     OW26911   5.707   1.181   3.815
 8671SOL    HW126912   5.612   1.185   3.783
 8671SOL    HW226913   5.749   1.272   3.807
 8672SOL     OW26914   2.461   6.022   4.141
 8672SOL    HW126915   2.466   5.962   4.061
 8672SOL    HW226916   2.548   6.069   4.153
 8673SOL     OW26917   0.545   1.111   6.848
 8673SOL    HW126918   0.565   1.115   6.946
 8673SOL    HW226919   0.534   1.015   6.820
 8674SOL     OW26920   6.655   5.770   1.298
 8674SOL    HW126921   6.651   5.749   1.396
 8674SOL    HW226922   6.746   5.805   1.276
 8675SOL     OW26923   3.468   1.803   3.855
 8675SOL    HW126924   3.505   1.836   3.942
 8675SOL    HW226925   3.371   1.781   3.866
 8676SOL     OW26926   3.806   6.818   3.372
 8676SOL    HW126927   3.741   6.816   3.449
 8676SOL    HW226928   3.877   6.750   3.387
 8677SOL     OW26929   2.245   5.865   5.789
 8677SOL    HW126930   2.264   5.900   5.697
 8677SOL    HW226931   2.284   5.774   5.799
 8678SOL     OW26932   0.447   0.440   0.607
 8678SOL    HW126933   0.381   0.471   0.538
 8678SOL    HW226934   0.401   0.383   0.675
 8679SOL     OW26935   6.399   2.894   4.904
 8679SOL    HW126936   6.462   2.892   4.981
 8679SOL    HW226937   6.315   2.844   4.927
 8680SOL     OW26938   0.496   3.775   1.159
 8680SOL    HW126939   0.524   3.830   1.080
 8680SOL    HW226940   0.422   3.714   1.133
 8681SOL     OW26941   4.364   4.591   0.528
 8681SOL    HW126942   4.358   4.667   0.463
 8681SOL    HW226943   4.459   4.580   0.557
 8682SOL     OW26944   4.018   6.845   2.440
 8682SOL    HW126945   3.954   6.842   2.517
 8682SOL    HW226946   3.970   6.876   2.357
 8683SOL     OW26947   1.220   2.502   1.791
 8683SOL    HW126948   1.189   2.427   1.849
 8683SOL    HW226949   1.176   2.496   1.701
 8684SOL     OW26950   0.502   3.135   4.734
 8684SOL    HW126951   0.406   3.163   4.740
 8684SOL    HW226952   0.560   3.216   4.739
 8685SOL     OW26953   1.007   2.601   5.878
 8685SOL    HW126954   0.932   2.584   5.814
 8685SOL    HW226955   0.971   2.611   5.970
 8686SOL     OW26956   6.375   1.914   1.777
 8686SOL    HW126957   6.403   1.914   1.873
 8686SOL    HW226958   6.453   1.887   1.720
 8687SOL     OW26959   3.456   6.181   2.974
 8687SOL    HW126960   3.412   6.160   3.061
 8687SOL    HW226961   3.543   6.131   2.967
 8688SOL     OW26962   2.539   6.405   0.273
 8688SOL    HW126963   2.531   6.374   0.178
 8688SOL    HW226964   2.538   6.505   0.275
 8689SOL     OW26965   3.489   4.747   0.166
 8689SOL    HW126966   3.535   4.833   0.145
 8689SOL    HW226967   3.556   4.673   0.169
 8690SOL     OW26968   1.824   2.725   3.648
 8690SOL    HW126969   1.893   2.743   3.718
 8690SOL    HW226970   1.815   2.805   3.588
 8691SOL     OW26971   4.283   2.579   6.282
 8691SOL    HW126972   4.230   2.499   6.309
 8691SOL    HW226973   4.243   2.619   6.199
 8692SOL     OW26974   3.419   2.005   2.612
 8692SOL    HW126975   3.504   1.954   2.626
 8692SOL    HW226976   3.377   1.977   2.526
 8693SOL     OW26977   5.513   1.752   0.938
 8693SOL    HW126978   5.601   1.798   0.943
 8693SOL    HW226979   5.501   1.712   0.847
 8694SOL     OW26980   4.211   1.105   6.397
 8694SOL    HW126981   4.191   1.024   6.342
 8694SOL    HW226982   4.174   1.186   6.352
 8695SOL     OW26983   4.230   2.696   6.028
 8695SOL    HW126984   4.288   2.768   5.988
 8695SOL    HW226985   4.200   2.634   5.955
 8696SOL     OW26986   3.213   6.036   0.825
 8696SOL    HW126987   3.299   6.082   0.801
 8696SOL    HW226988   3.141   6.103   0.838
 8697SOL     OW26989   6.412   3.584   0.829
 8697SOL    HW126990   6.465   3.575   0.745
 8697SOL    HW226991   6.462   3.642   0.894
 8698SOL     OW26992   5.946   5.948   4.008
 8698SOL    HW126993   6.013   5.879   3.980
 8698SOL    HW226994   5.989   6.012   4.072
 8699SOL     OW26995   1.507   2.522   5.439
 8699SOL    HW126996   1.576   2.528   5.512
 8699SOL    HW226997   1.474   2.614   5.418
 8700SOL     OW26998   2.564   1.224   4.466
 8700SOL    HW126999   2.587   1.133   4.499
 8700SOL    HW227000   2.465   1.231   4.454
 8701SOL     OW27001   1.340   0.577   6.918
 8701SOL    HW127002   1.372   0.523   6.841
 8701SOL    HW227003   1.245   0.552   6.939
 8702SOL     OW27004   5.404   4.910   0.348
 8702SOL    HW127005   5.381   5.004   0.376
 8702SOL    HW227006   5.450   4.864   0.423
 8703SOL     OW27007   2.571   5.468   1.292
 8703SOL    HW127008   2.559   5.470   1.391
 8703SOL    HW227009   2.651   5.522   1.266
 8704SOL     OW27010   6.043   3.721   2.612
 8704SOL    HW127011   6.014   3.727   2.707
 8704SOL    HW227012   5.999   3.643   2.568
 8705SOL     OW27013   4.805   0.930   0.742
 8705SOL    HW127014   4.839   0.836   0.749
 8705SOL    HW227015   4.778   0.962   0.832
 8706SOL     OW27016   4.527   1.979   5.945
 8706SOL    HW127017   4.574   2.067   5.953
 8706SOL    HW227018   4.472   1.964   6.027
 8707SOL     OW27019   5.120   2.311   6.864
 8707SOL    HW127020   5.108   2.214   6.844
 8707SOL    HW227021   5.105   2.326   6.962
 8708SOL     OW27022   4.219   2.158   2.152
 8708SOL    HW127023   4.121   2.170   2.169
 8708SOL    HW227024   4.264   2.123   2.234
 8709SOL     OW27025   6.766   6.056   6.443
 8709SOL    HW127026   6.770   5.961   6.474
 8709SOL    HW227027   6.792   6.116   6.518
 8710SOL     OW27028   1.970   3.522   3.004
 8710SOL    HW127029   2.012   3.527   3.094
 8710SOL    HW227030   2.038   3.492   2.937
 8711SOL     OW27031   0.052   6.100   2.587
 8711SOL    HW127032   0.084   6.191   2.614
 8711SOL    HW227033   0.129   6.035   2.590
 8712SOL     OW27034   4.299   2.133   4.330
 8712SOL    HW127035   4.316   2.118   4.233
 8712SOL    HW227036   4.350   2.213   4.361
 8713SOL     OW27037   0.263   4.277   3.485
 8713SOL    HW127038   0.360   4.304   3.482
 8713SOL    HW227039   0.207   4.357   3.504
 8714SOL     OW27040   0.281   0.924   5.827
 8714SOL    HW127041   0.314   0.901   5.919
 8714SOL    HW227042   0.212   0.996   5.833
 8715SOL     OW27043   4.958   0.335   0.958
 8715SOL    HW127044   4.904   0.279   0.895
 8715SOL    HW227045   4.923   0.325   1.050
 8716SOL     OW27046   0.746   0.545   1.638
 8716SOL    HW127047   0.784   0.633   1.608
 8716SOL    HW227048   0.646   0.550   1.639
 8717SOL     OW27049   4.101   3.342   2.908
 8717SOL    HW127050   4.027   3.341   2.841
 8717SOL    HW227051   4.115   3.435   2.942
 8718SOL     OW27052   0.668   2.959   5.343
 8718SOL    HW127053   0.763   2.940   5.367
 8718SOL    HW227054   0.626   3.017   5.413
 8719SOL     OW27055   1.967   0.087   6.205
 8719SOL    HW127056   1.879   0.097   6.159
 8719SOL    HW227057   1.963   0.128   6.295
 8720SOL     OW27058   6.273   5.151   5.840
 8720SOL    HW127059   6.225   5.176   5.756
 8720SOL    HW227060   6.359   5.106   5.817
 8721SOL     OW27061   5.525   2.110   3.867
 8721SOL    HW127062   5.617   2.083   3.840
 8721SOL    HW227063   5.466   2.030   3.869
 8722SOL     OW27064   3.721   0.529   0.831
 8722SOL    HW127065   3.661   0.464   0.784
 8722SOL    HW227066   3.666   0.593   0.884
 8723SOL     OW27067   5.425   6.027   1.217
 8723SOL    HW127068   5.379   6.011   1.130
 8723SOL    HW227069   5.368   5.993   1.292
 8724SOL     OW27070   6.198   6.965   4.947
 8724SOL    HW127071   6.137   0.012   4.916
 8724SOL    HW227072   6.285   6.972   4.898
 8725SOL     OW27073   2.716   0.049   6.658
 8725SOL    HW127074   2.673   0.108   6.727
 8725SOL    HW227075   2.650   7.005   6.629
 8726SOL     OW27076   6.475   1.014   1.767
 8726SOL    HW127077   6.383   0.988   1.738
 8726SOL    HW227078   6.543   0.958   1.720
 8727SOL     OW27079   6.867   6.994   1.747
 8727SOL    HW127080   6.879   6.909   1.799
 8727SOL    HW227081   6.815   0.033   1.802
 8728SOL     OW27082   4.077   0.102   4.465
 8728SOL    HW127083   3.978   0.093   4.466
 8728SOL    HW227084   4.119   0.013   4.482
 8729SOL     OW27085   4.790   6.094   3.363
 8729SOL    HW127086   4.781   6.184   3.404
 8729SOL    HW227087   4.730   6.029   3.411
 8730SOL     OW27088   6.421   4.735   2.509
 8730SOL    HW127089   6.464   4.768   2.592
 8730SOL    HW227090   6.484   4.675   2.460
 8731SOL     OW27091   2.033   1.810   2.657
 8731SOL    HW127092   2.049   1.711   2.658
 8731SOL    HW227093   2.034   1.845   2.750
 8732SOL     OW27094   5.082   4.802   1.876
 8732SOL    HW127095   5.146   4.729   1.899
 8732SOL    HW227096   5.031   4.777   1.794
 8733SOL     OW27097   1.333   5.812   3.345
 8733SOL    HW127098   1.406   5.751   3.372
 8733SOL    HW227099   1.345   5.838   3.249
 8734SOL     OW27100   0.590   4.579   1.971
 8734SOL    HW127101   0.492   4.560   1.987
 8734SOL    HW227102   0.611   4.672   2.000
 8735SOL     OW27103   0.842   1.404   6.908
 8735SOL    HW127104   0.889   1.492   6.913
 8735SOL    HW227105   0.893   1.335   6.960
 8736SOL     OW27106   0.614   6.648   0.036
 8736SOL    HW127107   0.713   6.639   0.026
 8736SOL    HW227108   0.588   6.744   0.032
 8737SOL     OW27109   3.005   6.812   5.774
 8737SOL    HW127110   3.034   6.908   5.771
 8737SOL    HW227111   3.067   6.757   5.718
 8738SOL     OW27112   1.710   4.538   3.750
 8738SOL    HW127113   1.746   4.604   3.815
 8738SOL    HW227114   1.690   4.452   3.796
 8739SOL     OW27115   5.885   4.980   5.901
 8739SOL    HW127116   5.849   5.038   5.828
 8739SOL    HW227117   5.943   4.909   5.861
 8740SOL     OW27118   4.652   1.425   5.336
 8740SOL    HW127119   4.751   1.421   5.354
 8740SOL    HW227120   4.632   1.377   5.251
 8741SOL     OW27121   2.446   0.854   2.228
 8741SOL    HW127122   2.389   0.913   2.171
 8741SOL    HW227123   2.394   0.771   2.251
 8742SOL     OW27124   5.438   5.456   1.590
 8742SOL    HW127125   5.436   5.450   1.490
 8742SOL    HW227126   5.361   5.405   1.627
 8743SOL     OW27127   2.274   6.703   2.421
 8743SOL    HW127128   2.181   6.737   2.409
 8743SOL    HW227129   2.271   6.603   2.431
 8744SOL     OW27130   3.998   2.249   6.486
 8744SOL    HW127131   4.029   2.295   6.403
 8744SOL    HW227132   4.048   2.285   6.565
 8745SOL     OW27133   6.244   2.524   6.339
 8745SOL    HW127134   6.178   2.550   6.268
 8745SOL    HW227135   6.222   2.573   6.423
 8746SOL     OW27136   4.519   4.186   5.309
 8746SOL    HW127137   4.585   4.158   5.239
 8746SOL    HW227138   4.489   4.279   5.290
 8747SOL     OW27139   0.852   2.795   3.153
 8747SOL    HW127140   0.940   2.842   3.162
 8747SOL    HW227141   0.797   2.811   3.236
 8748SOL     OW27142   0.113   1.292   6.602
 8748SOL    HW127143   0.105   1.391   6.613
 8748SOL    HW227144   0.073   1.264   6.515
 8749SOL     OW27145   2.814   0.081   5.185
 8749SOL    HW127146   2.908   0.048   5.178
 8749SOL    HW227147   2.761   0.019   5.242
 8750SOL     OW27148   2.929   3.117   5.201
 8750SOL    HW127149   2.976   3.186   5.146
 8750SOL    HW227150   2.833   3.111   5.173
 8751SOL     OW27151   6.230   6.998   2.248
 8751SOL    HW127152   6.254   6.933   2.320
 8751SOL    HW227153   6.223   6.950   2.161
 8752SOL     OW27154   2.917   4.546   6.713
 8752SOL    HW127155   2.848   4.474   6.713
 8752SOL    HW227156   2.982   4.531   6.787
 8753SOL     OW27157   4.983   1.486   4.564
 8753SOL    HW127158   5.028   1.503   4.652
 8753SOL    HW227159   5.040   1.424   4.509
 8754SOL     OW27160   1.445   1.662   5.972
 8754SOL    HW127161   1.398   1.599   6.033
 8754SOL    HW227162   1.525   1.700   6.018
 8755SOL     OW27163   2.558   1.194   6.537
 8755SOL    HW127164   2.502   1.246   6.472
 8755SOL    HW227165   2.524   1.209   6.630
 8756SOL     OW27166   2.092   3.472   3.241
 8756SOL    HW127167   2.115   3.375   3.240
 8756SOL    HW227168   2.113   3.510   3.331
 8757SOL     OW27169   5.528   6.810   5.884
 8757SOL    HW127170   5.482   6.857   5.959
 8757SOL    HW227171   5.476   6.824   5.799
 8758SOL     OW27172   4.851   6.254   2.162
 8758SOL    HW127173   4.792   6.336   2.160
 8758SOL    HW227174   4.947   6.283   2.157
 8759SOL     OW27175   4.220   2.080   6.494
 8759SOL    HW127176   4.165   2.164   6.498
 8759SOL    HW227177   4.170   2.011   6.442
 8760SOL     OW27178   2.364   1.727   4.941
 8760SOL    HW127179   2.278   1.700   4.984
 8760SOL    HW227180   2.397   1.654   4.882
 8761SOL     OW27181   4.345   0.563   1.199
 8761SOL    HW127182   4.279   0.496   1.233
 8761SOL    HW227183   4.304   0.617   1.126
 8762SOL     OW27184   1.281   3.531   2.871
 8762SOL    HW127185   1.190   3.495   2.893
 8762SOL    HW227186   1.272   3.600   2.799
 8763SOL     OW27187   5.967   5.788   4.747
 8763SOL    HW127188   5.947   5.691   4.762
 8763SOL    HW227189   6.052   5.797   4.695
 8764SOL     OW27190   4.547   0.895   4.425
 8764SOL    HW127191   4.571   0.842   4.344
 8764SOL    HW227192   4.498   0.978   4.397
 8765SOL     OW27193   6.073   6.684   4.841
 8765SOL    HW127194   6.132   6.764   4.843
 8765SOL    HW227195   6.117   6.609   4.889
 8766SOL     OW27196   3.651   4.956   3.209
 8766SOL    HW127197   3.745   4.923   3.195
 8766SOL    HW227198   3.589   4.908   3.147
 8767SOL     OW27199   4.150   0.679   3.330
 8767SOL    HW127200   4.189   0.611   3.392
 8767SOL    HW227201   4.159   0.770   3.371
 8768SOL     OW27202   1.583   2.833   0.089
 8768SOL    HW127203   1.641   2.820   0.170
 8768SOL    HW227204   1.610   2.767   0.019
 8769SOL     OW27205   1.126   7.011   4.913
 8769SOL    HW127206   1.205   6.968   4.869
 8769SOL    HW227207   1.138   0.085   4.913
 8770SOL     OW27208   5.021   4.374   2.215
 8770SOL    HW127209   5.091   4.401   2.149
 8770SOL    HW227210   5.032   4.277   2.238
 8771SOL     OW27211   1.974   0.756   5.810
 8771SOL    HW127212   2.009   0.778   5.719
 8771SOL    HW227213   2.050   0.740   5.873
 8772SOL     OW27214   6.075   6.841   0.270
 8772SOL    HW127215   6.168   6.828   0.303
 8772SOL    HW227216   6.077   6.872   0.175
 8773SOL     OW27217   4.736   2.076   3.362
 8773SOL    HW127218   4.781   2.137   3.427
 8773SOL    HW227219   4.794   1.996   3.346
 8774SOL     OW27220   1.957   1.226   0.478
 8774SOL    HW127221   2.019   1.157   0.515
 8774SOL    HW227222   1.874   1.228   0.534
 8775SOL     OW27223   6.081   0.522   4.130
 8775SOL    HW127224   6.110   0.615   4.107
 8775SOL    HW227225   6.008   0.525   4.199
 8776SOL     OW27226   3.126   3.183   4.794
 8776SOL    HW127227   3.177   3.116   4.849
 8776SOL    HW227228   3.082   3.136   4.717
 8777SOL     OW27229   7.024   4.186   1.113
 8777SOL    HW127230   0.076   4.246   1.132
 8777SOL    HW227231   0.031   4.094   1.092
 8778SOL     OW27232   6.967   2.578   4.214
 8778SOL    HW127233   0.039   2.589   4.193
 8778SOL    HW227234   6.922   2.667   4.210
 8779SOL     OW27235   2.447   5.245   1.976
 8779SOL    HW127236   2.438   5.169   2.040
 8779SOL    HW227237   2.542   5.250   1.944
 8780SOL     OW27238   1.303   5.806   3.784
 8780SOL    HW127239   1.218   5.810   3.837
 8780SOL    HW227240   1.294   5.736   3.713
 8781SOL     OW27241   6.565   2.072   4.117
 8781SOL    HW127242   6.480   2.121   4.138
 8781SOL    HW227243   6.641   2.116   4.164
 8782SOL     OW27244   5.842   0.845   1.691
 8782SOL    HW127245   5.805   0.762   1.650
 8782SOL    HW227246   5.870   0.908   1.618
 8783SOL     OW27247   5.646   3.544   3.711
 8783SOL    HW127248   5.730   3.566   3.662
 8783SOL    HW227249   5.621   3.449   3.696
 8784SOL     OW27250   5.084   4.388   5.011
 8784SOL    HW127251   5.040   4.456   4.951
 8784SOL    HW227252   5.094   4.427   5.103
 8785SOL     OW27253   5.881   3.293   0.184
 8785SOL    HW127254   5.833   3.247   0.259
 8785SOL    HW227255   5.902   3.387   0.211
 8786SOL     OW27256   2.466   6.755   6.998
 8786SOL    HW127257   2.553   6.710   7.021
 8786SOL    HW227258   2.392   6.689   7.004
 8787SOL     OW27259   1.467   2.562   2.042
 8787SOL    HW127260   1.458   2.658   2.014
 8787SOL    HW227261   1.484   2.557   2.140
 8788SOL     OW27262   6.420   2.050   5.795
 8788SOL    HW127263   6.366   2.024   5.715
 8788SOL    HW227264   6.483   1.976   5.819
 8789SOL     OW27265   6.219   0.337   5.466
 8789SOL    HW127266   6.128   0.303   5.491
 8789SOL    HW227267   6.287   0.268   5.487
 8790SOL     OW27268   6.810   1.067   0.545
 8790SOL    HW127269   6.830   1.134   0.616
 8790SOL    HW227270   6.722   1.022   0.565
 8791SOL     OW27271   5.082   6.875   5.569
 8791SOL    HW127272   5.037   6.823   5.496
 8791SOL    HW227273   5.088   6.971   5.542
 8792SOL     OW27274   3.760   6.515   3.115
 8792SOL    HW127275   3.717   6.539   3.028
 8792SOL    HW227276   3.691   6.512   3.186
 8793SOL     OW27277   2.180   5.950   4.066
 8793SOL    HW127278   2.265   5.908   4.098
 8793SOL    HW227279   2.187   6.049   4.074
 8794SOL     OW27280   3.861   6.511   1.771
 8794SOL    HW127281   3.950   6.537   1.810
 8794SOL    HW227282   3.842   6.415   1.790
 8795SOL     OW27283   1.333   6.760   5.108
 8795SOL    HW127284   1.294   6.678   5.065
 8795SOL    HW227285   1.363   6.823   5.037
 8796SOL     OW27286   4.163   0.909   5.362
 8796SOL    HW127287   4.170   0.847   5.440
 8796SOL    HW227288   4.246   0.964   5.356
 8797SOL     OW27289   0.979   0.083   5.481
 8797SOL    HW127290   0.963   0.134   5.566
 8797SOL    HW227291   0.965   7.011   5.498
 8798SOL     OW27292   5.268   4.707   5.189
 8798SOL    HW127293   5.349   4.703   5.131
 8798SOL    HW227294   5.192   4.747   5.138
 8799SOL     OW27295   2.085   4.980   3.016
 8799SOL    HW127296   2.085   4.967   3.116
 8799SOL    HW227297   2.110   4.894   2.972
 8800SOL     OW27298   5.279   3.937   4.776
 8800SOL    HW127299   5.217   3.958   4.852
 8800SOL    HW227300   5.234   3.961   4.690
 8801SOL     OW27301   2.249   1.338   4.384
 8801SOL    HW127302   2.237   1.288   4.298
 8801SOL    HW227303   2.234   1.435   4.368
 8802SOL     OW27304   1.388   0.363   1.167
 8802SOL    HW127305   1.401   0.443   1.225
 8802SOL    HW227306   1.350   0.288   1.221
 8803SOL     OW27307   1.460   4.766   5.854
 8803SOL    HW127308   1.543   4.717   5.882
 8803SOL    HW227309   1.429   4.823   5.930
 8804SOL     OW27310   3.707   0.820   1.952
 8804SOL    HW127311   3.747   0.864   2.033
 8804SOL    HW227312   3.661   0.736   1.980
 8805SOL     OW27313   2.294   0.564   3.881
 8805SOL    HW127314   2.319   0.550   3.977
 8805SOL    HW227315   2.279   0.662   3.865
 8806SOL     OW27316   2.160   5.376   1.496
 8806SOL    HW127317   2.211   5.305   1.448
 8806SOL    HW227318   2.220   5.454   1.516
 8807SOL     OW27319   6.383   6.013   6.088
 8807SOL    HW127320   6.406   5.934   6.031
 8807SOL    HW227321   6.395   5.990   6.185
 8808SOL     OW27322   5.718   1.629   0.476
 8808SOL    HW127323   5.679   1.607   0.387
 8808SOL    HW227324   5.646   1.630   0.545
 8809SOL     OW27325   5.399   4.530   2.233
 8809SOL    HW127326   5.465   4.482   2.292
 8809SOL    HW227327   5.334   4.464   2.196
 8810SOL     OW27328   5.752   1.231   5.456
 8810SOL    HW127329   5.819   1.210   5.527
 8810SOL    HW227330   5.795   1.219   5.366
 8811SOL     OW27331   2.355   1.699   4.093
 8811SOL    HW127332   2.442   1.720   4.137
 8811SOL    HW227333   2.334   1.768   4.024
 8812SOL     OW27334   1.108   0.717   0.946
 8812SOL    HW127335   1.198   0.744   0.982
 8812SOL    HW227336   1.121   0.672   0.857
 8813SOL     OW27337   1.159   4.569   1.742
 8813SOL    HW127338   1.089   4.558   1.813
 8813SOL    HW227339   1.134   4.513   1.663
 8814SOL     OW27340   6.316   0.932   0.737
 8814SOL    HW127341   6.251   0.971   0.672
 8814SOL    HW227342   6.284   0.948   0.830
 8815SOL     OW27343   6.727   6.155   0.600
 8815SOL    HW127344   6.780   6.071   0.611
 8815SOL    HW227345   6.778   6.220   0.544
 8816SOL     OW27346   1.622   0.369   0.810
 8816SOL    HW127347   1.632   0.362   0.711
 8816SOL    HW227348   1.606   0.464   0.835
 8817SOL     OW27349   0.598   5.714   5.887
 8817SOL    HW127350   0.602   5.812   5.868
 8817SOL    HW227351   0.620   5.663   5.803
 8818SOL     OW27352   6.823   3.668   3.153
 8818SOL    HW127353   6.921   3.661   3.133
 8818SOL    HW227354   6.808   3.656   3.251
 8819SOL     OW27355   4.274   5.776   4.018
 8819SOL    HW127356   4.275   5.686   3.974
 8819SOL    HW227357   4.242   5.845   3.953
 8820SOL     OW27358   2.591   2.090   3.939
 8820SOL    HW127359   2.549   2.035   4.011
 8820SOL    HW227360   2.681   2.121   3.969
 8821SOL     OW27361   1.539   6.441   6.779
 8821SOL    HW127362   1.613   6.503   6.754
 8821SOL    HW227363   1.451   6.486   6.763
 8822SOL     OW27364   0.955   0.178   3.343
 8822SOL    HW127365   1.016   0.168   3.421
 8822SOL    HW227366   0.994   0.129   3.264
 8823SOL     OW27367   2.086   0.734   1.132
 8823SOL    HW127368   2.166   0.783   1.168
 8823SOL    HW227369   2.053   0.669   1.201
 8824SOL     OW27370   1.936   3.790   0.911
 8824SOL    HW127371   1.962   3.886   0.897
 8824SOL    HW227372   1.929   3.744   0.823
 8825SOL     OW27373   1.855   0.691   3.529
 8825SOL    HW127374   1.854   0.625   3.605
 8825SOL    HW227375   1.762   0.721   3.510
 8826SOL     OW27376   6.257   2.516   0.375
 8826SOL    HW127377   6.168   2.504   0.331
 8826SOL    HW227378   6.299   2.601   0.342
 8827SOL     OW27379   2.945   1.410   3.160
 8827SOL    HW127380   2.985   1.500   3.143
 8827SOL    HW227381   3.016   1.348   3.194
 8828SOL     OW27382   4.131   5.354   4.104
 8828SOL    HW127383   4.166   5.430   4.050
 8828SOL    HW227384   4.073   5.388   4.177
 8829SOL     OW27385   0.184   2.533   7.003
 8829SOL    HW127386   0.265   2.570   6.959
 8829SOL    HW227387   0.204   2.442   0.013
 8830SOL     OW27388   0.385   1.861   1.007
 8830SOL    HW127389   0.448   1.830   0.936
 8830SOL    HW227390   0.292   1.863   0.971
 8831SOL     OW27391   5.444   1.413   3.477
 8831SOL    HW127392   5.358   1.423   3.426
 8831SOL    HW227393   5.511   1.366   3.419
 8832SOL     OW27394   6.250   6.293   2.590
 8832SOL    HW127395   6.163   6.293   2.639
 8832SOL    HW227396   6.310   6.223   2.628
 8833SOL     OW27397   1.793   6.643   5.502
 8833SOL    HW127398   1.804   6.666   5.599
 8833SOL    HW227399   1.746   6.718   5.455
 8834SOL     OW27400   5.563   3.683   4.478
 8834SOL    HW127401   5.509   3.643   4.552
 8834SOL    HW227402   5.535   3.643   4.391
 8835SOL     OW27403   6.165   0.405   5.754
 8835SOL    HW127404   6.262   0.390   5.774
 8835SOL    HW227405   6.145   0.503   5.762
 8836SOL     OW27406   4.269   0.892   0.017
 8836SOL    HW127407   4.260   0.925   0.111
 8836SOL    HW227408   4.193   0.830   7.023
 8837SOL     OW27409   0.688   0.190   2.586
 8837SOL    HW127410   0.777   0.233   2.578
 8837SOL    HW227411   0.620   0.258   2.613
 8838SOL     OW27412   2.737   5.129   2.856
 8838SOL    HW127413   2.727   5.091   2.764
 8838SOL    HW227414   2.647   5.147   2.895
 8839SOL     OW27415   5.634   5.562   2.183
 8839SOL    HW127416   5.668   5.527   2.096
 8839SOL    HW227417   5.624   5.487   2.248
 8840SOL     OW27418   6.959   2.344   1.975
 8840SOL    HW127419   6.907   2.394   2.044
 8840SOL    HW227420   7.020   2.279   2.020
 8841SOL     OW27421   1.383   0.761   5.324
 8841SOL    HW127422   1.464   0.810   5.295
 8841SOL    HW227423   1.318   0.824   5.366
 8842SOL     OW27424   3.552   2.693   0.545
 8842SOL    HW127425   3.569   2.601   0.508
 8842SOL    HW227426   3.454   2.709   0.550
 8843SOL     OW27427   1.720   2.841   5.442
 8843SOL    HW127428   1.707   2.774   5.514
 8843SOL    HW227429   1.810   2.828   5.400
 8844SOL     OW27430   5.375   1.070   0.024
 8844SOL    HW127431   5.328   1.156   0.042
 8844SOL    HW227432   5.473   1.082   0.039
 8845SOL     OW27433   4.367   4.257   0.147
 8845SOL    HW127434   4.457   4.247   0.189
 8845SOL    HW227435   4.364   4.204   0.062
 8846SOL     OW27436   2.222   6.212   4.003
 8846SOL    HW127437   2.269   6.211   4.092
 8846SOL    HW227438   2.225   6.304   3.965
 8847SOL     OW27439   2.931   0.862   2.858
 8847SOL    HW127440   2.985   0.932   2.811
 8847SOL    HW227441   2.991   0.788   2.888
 8848SOL     OW27442   2.684   0.850   1.355
 8848SOL    HW127443   2.642   0.920   1.413
 8848SOL    HW227444   2.704   0.769   1.410
 8849SOL     OW27445   3.033   6.382   3.328
 8849SOL    HW127446   3.079   6.348   3.246
 8849SOL    HW227447   2.941   6.414   3.303
 8850SOL     OW27448   1.364   1.654   0.168
 8850SOL    HW127449   1.315   1.727   0.215
 8850SOL    HW227450   1.400   1.590   0.236
 8851SOL     OW27451   1.893   4.327   2.651
 8851SOL    HW127452   1.847   4.323   2.739
 8851SOL    HW227453   1.944   4.242   2.636
 8852SOL     OW27454   1.099   1.932   5.367
 8852SOL    HW127455   1.182   1.935   5.421
 8852SOL    HW227456   1.118   1.964   5.274
 8853SOL     OW27457   3.298   0.691   2.038
 8853SOL    HW127458   3.286   0.639   2.122
 8853SOL    HW227459   3.273   0.786   2.053
 8854SOL     OW27460   2.122   3.371   4.585
 8854SOL    HW127461   2.108   3.380   4.486
 8854SOL    HW227462   2.118   3.461   4.628
 8855SOL     OW27463   6.413   4.917   1.518
 8855SOL    HW127464   6.317   4.924   1.545
 8855SOL    HW227465   6.460   5.003   1.539
 8856SOL     OW27466   6.868   6.059   6.797
 8856SOL    HW127467   6.850   6.142   6.743
 8856SOL    HW227468   6.782   6.009   6.809
 8857SOL     OW27469   6.588   1.672   5.179
 8857SOL    HW127470   6.623   1.680   5.086
 8857SOL    HW227471   6.653   1.715   5.243
 8858SOL     OW27472   0.102   4.710   4.779
 8858SOL    HW127473   0.179   4.773   4.784
 8858SOL    HW227474   0.134   4.620   4.749
 8859SOL     OW27475   1.305   0.955   3.957
 8859SOL    HW127476   1.209   0.928   3.947
 8859SOL    HW227477   1.314   1.054   3.943
 8860SOL     OW27478   0.170   2.935   1.256
 8860SOL    HW127479   0.071   2.946   1.252
 8860SOL    HW227480   0.198   2.857   1.200
 8861SOL     OW27481   3.984   1.302   0.262
 8861SOL    HW127482   4.080   1.276   0.270
 8861SOL    HW227483   3.977   1.401   0.252
 8862SOL     OW27484   4.781   5.926   4.037
 8862SOL    HW127485   4.807   5.939   4.133
 8862SOL    HW227486   4.721   5.847   4.030
 8863SOL     OW27487   1.761   5.045   3.026
 8863SOL    HW127488   1.691   4.974   3.031
 8863SOL    HW227489   1.850   5.003   3.013
 8864SOL     OW27490   4.881   3.748   6.693
 8864SOL    HW127491   4.847   3.679   6.757
 8864SOL    HW227492   4.815   3.759   6.618
 8865SOL     OW27493   2.964   0.963   5.908
 8865SOL    HW127494   2.947   1.059   5.930
 8865SOL    HW227495   2.931   0.942   5.817
 8866SOL     OW27496   4.951   6.575   2.661
 8866SOL    HW127497   5.008   6.533   2.590
 8866SOL    HW227498   4.998   6.570   2.749
 8867SOL     OW27499   6.066   3.497   3.798
 8867SOL    HW127500   6.028   3.426   3.858
 8867SOL    HW227501   6.088   3.457   3.709
 8868SOL     OW27502   6.792   3.488   2.406
 8868SOL    HW127503   6.878   3.483   2.458
 8868SOL    HW227504   6.724   3.429   2.449
 8869SOL     OW27505   4.074   5.731   4.729
 8869SOL    HW127506   4.035   5.655   4.678
 8869SOL    HW227507   4.101   5.803   4.665
 8870SOL     OW27508   2.035   6.801   1.582
 8870SOL    HW127509   1.941   6.774   1.560
 8870SOL    HW227510   2.050   6.895   1.553
 8871SOL     OW27511   1.500   1.144   3.356
 8871SOL    HW127512   1.486   1.127   3.454
 8871SOL    HW227513   1.498   1.242   3.338
 8872SOL     OW27514   1.483   4.606   6.209
 8872SOL    HW127515   1.414   4.577   6.143
 8872SOL    HW227516   1.438   4.651   6.286
 8873SOL     OW27517   1.879   0.635   1.616
 8873SOL    HW127518   1.818   0.697   1.566
 8873SOL    HW227519   1.931   0.687   1.684
 8874SOL     OW27520   1.425   5.824   1.839
 8874SOL    HW127521   1.389   5.816   1.746
 8874SOL    HW227522   1.513   5.871   1.837
 8875SOL     OW27523   0.239   3.310   4.027
 8875SOL    HW127524   0.169   3.375   3.998
 8875SOL    HW227525   0.205   3.257   4.104
 8876SOL     OW27526   3.037   0.690   6.490
 8876SOL    HW127527   3.079   0.708   6.579
 8876SOL    HW227528   3.103   0.708   6.417
 8877SOL     OW27529   1.567   3.681   2.818
 8877SOL    HW127530   1.531   3.626   2.743
 8877SOL    HW227531   1.504   3.757   2.837
 8878SOL     OW27532   3.116   4.524   0.519
 8878SOL    HW127533   3.150   4.441   0.475
 8878SOL    HW227534   3.107   4.509   0.617
 8879SOL     OW27535   6.514   4.942   2.360
 8879SOL    HW127536   6.494   4.869   2.425
 8879SOL    HW227537   6.435   5.002   2.350
 8880SOL     OW27538   3.768   6.397   3.996
 8880SOL    HW127539   3.736   6.383   4.089
 8880SOL    HW227540   3.851   6.343   3.981
 8881SOL     OW27541   5.365   5.152   4.694
 8881SOL    HW127542   5.316   5.066   4.706
 8881SOL    HW227543   5.385   5.167   4.597
 8882SOL     OW27544   3.628   0.711   0.348
 8882SOL    HW127545   3.582   0.793   0.382
 8882SOL    HW227546   3.712   0.696   0.400
 8883SOL     OW27547   0.768   6.240   5.643
 8883SOL    HW127548   0.783   6.151   5.687
 8883SOL    HW227549   0.798   6.236   5.548
 8884SOL     OW27550   6.049   4.242   5.385
 8884SOL    HW127551   6.132   4.276   5.429
 8884SOL    HW227552   6.054   4.257   5.287
 8885SOL     OW27553   5.264   4.928   0.037
 8885SOL    HW127554   5.324   4.852   0.013
 8885SOL    HW227555   5.196   4.896   0.103
 8886SOL     OW27556   3.852   5.770   6.146
 8886SOL    HW127557   3.894   5.686   6.112
 8886SOL    HW227558   3.780   5.747   6.212
 8887SOL     OW27559   4.174   0.954   0.952
 8887SOL    HW127560   4.270   0.983   0.953
 8887SOL    HW227561   4.145   0.940   0.858
 8888SOL     OW27562   2.061   2.454   3.604
 8888SOL    HW127563   1.987   2.421   3.663
 8888SOL    HW227564   2.025   2.472   3.513
 8889SOL     OW27565   6.687   6.474   6.463
 8889SOL    HW127566   6.700   6.515   6.373
 8889SOL    HW227567   6.609   6.516   6.508
 8890SOL     OW27568   0.673   6.257   6.775
 8890SOL    HW127569   0.713   6.265   6.683
 8890SOL    HW227570   0.598   6.322   6.784
 8891SOL     OW27571   4.431   4.614   6.915
 8891SOL    HW127572   4.526   4.583   6.916
 8891SOL    HW227573   4.388   4.594   7.003
 8892SOL     OW27574   4.015   4.859   4.086
 8892SOL    HW127575   3.921   4.867   4.120
 8892SOL    HW227576   4.017   4.879   3.989
 8893SOL     OW27577   1.123   5.429   5.253
 8893SOL    HW127578   1.057   5.363   5.215
 8893SOL    HW227579   1.200   5.438   5.190
 8894SOL     OW27580   4.659   1.703   0.112
 8894SOL    HW127581   4.706   1.790   0.128
 8894SOL    HW227582   4.622   1.668   0.199
 8895SOL     OW27583   0.422   2.849   0.669
 8895SOL    HW127584   0.385   2.797   0.592
 8895SOL    HW227585   0.521   2.861   0.657
 8896SOL     OW27586   1.379   2.845   4.773
 8896SOL    HW127587   1.326   2.810   4.697
 8896SOL    HW227588   1.477   2.830   4.757
 8897SOL     OW27589   2.169   3.834   3.642
 8897SOL    HW127590   2.178   3.795   3.734
 8897SOL    HW227591   2.168   3.934   3.649
 8898SOL     OW27592   5.786   4.106   2.283
 8898SOL    HW127593   5.823   4.088   2.374
 8898SOL    HW227594   5.809   4.199   2.255
 8899SOL     OW27595   6.922   4.964   6.702
 8899SOL    HW127596   6.829   4.961   6.739
 8899SOL    HW227597   6.986   4.933   6.773
 8900SOL     OW27598   5.626   2.726   3.121
 8900SOL    HW127599   5.540   2.775   3.111
 8900SOL    HW227600   5.610   2.639   3.168
 8901SOL     OW27601   0.548   2.223   3.547
 8901SOL    HW127602   0.533   2.318   3.575
 8901SOL    HW227603   0.645   2.208   3.528
 8902SOL     OW27604   1.677   5.356   0.247
 8902SOL    HW127605   1.740   5.359   0.325
 8902SOL    HW227606   1.709   5.287   0.182
 8903SOL     OW27607   1.528   1.645   5.075
 8903SOL    HW127608   1.532   1.722   5.010
 8903SOL    HW227609   1.506   1.561   5.026
 8904SOL     OW27610   1.149   1.887   3.253
 8904SOL    HW127611   1.093   1.928   3.180
 8904SOL    HW227612   1.241   1.870   3.218
 8905SOL     OW27613   1.676   3.275   2.660
 8905SOL    HW127614   1.741   3.219   2.710
 8905SOL    HW227615   1.715   3.300   2.571
 8906SOL     OW27616   0.609   6.169   0.853
 8906SOL    HW127617   0.621   6.265   0.878
 8906SOL    HW227618   0.668   6.112   0.910
 8907SOL     OW27619   3.185   2.787   5.345
 8907SOL    HW127620   3.134   2.701   5.345
 8907SOL    HW227621   3.143   2.850   5.280
 8908SOL     OW27622   1.587   4.563   0.389
 8908SOL    HW127623   1.550   4.473   0.414
 8908SOL    HW227624   1.552   4.589   0.299
 8909SOL     OW27625   2.740   1.027   6.453
 8909SOL    HW127626   2.671   1.096   6.476
 8909SOL    HW227627   2.770   1.041   6.359
 8910SOL     OW27628   0.504   2.754   5.250
 8910SOL    HW127629   0.547   2.707   5.173
 8910SOL    HW227630   0.571   2.814   5.294
 8911SOL     OW27631   5.310   2.328   4.759
 8911SOL    HW127632   5.345   2.413   4.798
 8911SOL    HW227633   5.259   2.277   4.829
 8912SOL     OW27634   3.198   2.751   5.626
 8912SOL    HW127635   3.190   2.781   5.531
 8912SOL    HW227636   3.247   2.820   5.679
 8913SOL     OW27637   4.713   5.118   0.536
 8913SOL    HW127638   4.771   5.053   0.585
 8913SOL    HW227639   4.636   5.145   0.595
 8914SOL     OW27640   4.851   6.650   4.818
 8914SOL    HW127641   4.768   6.597   4.805
 8914SOL    HW227642   4.827   6.746   4.832
 8915SOL     OW27643   1.426   1.709   4.672
 8915SOL    HW127644   1.499   1.661   4.625
 8915SOL    HW227645   1.338   1.686   4.630
 8916SOL     OW27646   5.918   2.003   6.425
 8916SOL    HW127647   5.938   1.969   6.517
 8916SOL    HW227648   5.875   2.093   6.431
 8917SOL     OW27649   5.871   1.825   0.674
 8917SOL    HW127650   5.828   1.832   0.764
 8917SOL    HW227651   5.823   1.756   0.620
 8918SOL     OW27652   1.604   5.517   1.159
 8918SOL    HW127653   1.527   5.478   1.211
 8918SOL    HW227654   1.641   5.447   1.098
 8919SOL     OW27655   5.076   4.867   6.612
 8919SOL    HW127656   5.130   4.885   6.530
 8919SOL    HW227657   4.998   4.809   6.589
 8920SOL     OW27658   0.791   1.704   6.847
 8920SOL    HW127659   0.724   1.738   6.912
 8920SOL    HW227660   0.771   1.608   6.826
 8921SOL     OW27661   1.572   2.386   1.452
 8921SOL    HW127662   1.579   2.464   1.390
 8921SOL    HW227663   1.477   2.373   1.480
 8922SOL     OW27664   3.812   6.754   2.007
 8922SOL    HW127665   3.739   6.777   2.072
 8922SOL    HW227666   3.784   6.674   1.953
 8923SOL     OW27667   1.170   2.193   5.853
 8923SOL    HW127668   1.181   2.287   5.821
 8923SOL    HW227669   1.212   2.130   5.787
 8924SOL     OW27670   5.241   5.748   4.899
 8924SOL    HW127671   5.299   5.742   4.981
 8924SOL    HW227672   5.156   5.697   4.914
 8925SOL     OW27673   6.849   0.160   2.522
 8925SOL    HW127674   6.769   0.101   2.511
 8925SOL    HW227675   6.820   0.248   2.562
 8926SOL     OW27676   6.617   3.692   5.178
 8926SOL    HW127677   6.522   3.716   5.195
 8926SOL    HW227678   6.662   3.668   5.264
 8927SOL     OW27679   6.668   1.551   5.581
 8927SOL    HW127680   6.735   1.481   5.556
 8927SOL    HW227681   6.602   1.512   5.645
 8928SOL     OW27682   1.415   6.945   6.236
 8928SOL    HW127683   1.350   6.881   6.196
 8928SOL    HW227684   1.505   6.933   6.194
 8929SOL     OW27685   6.405   1.907   5.056
 8929SOL    HW127686   6.476   1.930   4.989
 8929SOL    HW227687   6.315   1.918   5.015
 8930SOL     OW27688   0.857   3.564   2.966
 8930SOL    HW127689   0.944   3.612   2.952
 8930SOL    HW227690   0.831   3.568   3.062
 8931SOL     OW27691   3.235   3.109   1.563
 8931SOL    HW127692   3.181   3.107   1.479
 8931SOL    HW227693   3.327   3.075   1.544
 8932SOL     OW27694   0.017   2.544   2.821
 8932SOL    HW127695   6.984   2.464   2.832
 8932SOL    HW227696   0.092   2.522   2.759
 8933SOL     OW27697   3.103   2.560   6.539
 8933SOL    HW127698   3.009   2.575   6.509
 8933SOL    HW227699   3.106   2.552   6.639
 8934SOL     OW27700   3.604   5.099   4.911
 8934SOL    HW127701   3.609   5.194   4.941
 8934SOL    HW227702   3.594   5.039   4.990
 8935SOL     OW27703   0.414   4.367   0.488
 8935SOL    HW127704   0.491   4.303   0.488
 8935SOL    HW227705   0.445   4.457   0.516
 8936SOL     OW27706   1.774   3.635   0.182
 8936SOL    HW127707   1.820   3.647   0.094
 8936SOL    HW227708   1.692   3.579   0.169
 8937SOL     OW27709   0.811   0.006   5.154
 8937SOL    HW127710   0.724   6.985   5.171
 8937SOL    HW227711   0.886   6.975   5.187
 8938SOL     OW27712   0.604   5.507   0.879
 8938SOL    HW127713   0.517   5.501   0.926
 8938SOL    HW227714   0.600   5.580   0.810
 8939SOL     OW27715   4.907   2.668   4.491
 8939SOL    HW127716   4.979   2.610   4.453
 8939SOL    HW227717   4.874   2.730   4.421
 8940SOL     OW27718   0.297   0.847   3.998
 8940SOL    HW127719   0.283   0.944   4.015
 8940SOL    HW227720   0.224   0.813   3.939
 8941SOL     OW27721   5.590   2.260   5.743
 8941SOL    HW127722   5.622   2.341   5.694
 8941SOL    HW227723   5.541   2.288   5.826
 8942SOL     OW27724   0.802   3.620   5.672
 8942SOL    HW127725   0.850   3.533   5.667
 8942SOL    HW227726   0.795   3.659   5.580
 8943SOL     OW27727   4.152   4.028   0.356
 8943SOL    HW127728   4.136   4.120   0.320
 8943SOL    HW227729   4.189   4.035   0.449
 8944SOL     OW27730   4.837   4.939   5.188
 8944SOL    HW127731   4.879   4.931   5.278
 8944SOL    HW227732   4.740   4.914   5.195
 8945SOL     OW27733   2.144   0.786   3.933
 8945SOL    HW127734   2.156   0.859   4.001
 8945SOL    HW227735   2.050   0.753   3.936
 8946SOL     OW27736   3.021   1.372   5.580
 8946SOL    HW127737   3.015   1.422   5.493
 8946SOL    HW227738   3.007   1.275   5.563
 8947SOL     OW27739   1.098   3.712   4.991
 8947SOL    HW127740   1.058   3.663   4.913
 8947SOL    HW227741   1.194   3.686   5.000
 8948SOL     OW27742   6.044   5.688   4.218
 8948SOL    HW127743   6.129   5.739   4.207
 8948SOL    HW227744   5.983   5.738   4.279
 8949SOL     OW27745   1.843   0.168   1.057
 8949SOL    HW127746   1.893   0.254   1.050
 8949SOL    HW227747   1.745   0.185   1.045
 8950SOL     OW27748   4.930   3.012   5.579
 8950SOL    HW127749   5.026   3.040   5.585
 8950SOL    HW227750   4.921   2.940   5.510
 8951SOL     OW27751   1.360   2.266   5.197
 8951SOL    HW127752   1.416   2.225   5.269
 8951SOL    HW227753   1.407   2.346   5.160
 8952SOL     OW27754   1.120   0.669   2.054
 8952SOL    HW127755   1.195   0.713   2.103
 8952SOL    HW227756   1.157   0.600   1.991
 8953SOL     OW27757   1.012   3.847   6.932
 8953SOL    HW127758   0.960   3.819   6.851
 8953SOL    HW227759   0.997   3.781   7.006
 8954SOL     OW27760   0.544   5.978   5.817
 8954SOL    HW127761   0.491   5.993   5.734
 8954SOL    HW227762   0.528   6.054   5.881
 8955SOL     OW27763   0.550   4.473   2.406
 8955SOL    HW127764   0.530   4.453   2.310
 8955SOL    HW227765   0.483   4.538   2.442
 8956SOL     OW27766   7.007   1.539   0.339
 8956SOL    HW127767   6.924   1.486   0.353
 8956SOL    HW227768   7.024   1.597   0.418
 8957SOL     OW27769   3.167   4.043   1.505
 8957SOL    HW127770   3.190   4.095   1.587
 8957SOL    HW227771   3.079   4.072   1.470
 8958SOL     OW27772   1.151   0.620   3.883
 8958SOL    HW127773   1.056   0.628   3.914
 8958SOL    HW227774   1.205   0.571   3.951
 8959SOL     OW27775   1.848   4.498   0.921
 8959SOL    HW127776   1.776   4.551   0.876
 8959SOL    HW227777   1.810   4.414   0.958
 8960SOL     OW27778   5.188   5.548   2.192
 8960SOL    HW127779   5.089   5.562   2.197
 8960SOL    HW227780   5.212   5.466   2.244
 8961SOL     OW27781   1.908   2.135   4.449
 8961SOL    HW127782   1.961   2.070   4.396
 8961SOL    HW227783   1.892   2.098   4.541
 8962SOL     OW27784   6.399   6.650   1.982
 8962SOL    HW127785   6.313   6.603   2.000
 8962SOL    HW227786   6.390   6.747   2.005
 8963SOL     OW27787   4.766   6.573   4.463
 8963SOL    HW127788   4.863   6.548   4.472
 8963SOL    HW227789   4.759   6.663   4.421
 8964SOL     OW27790   5.852   3.881   3.113
 8964SOL    HW127791   5.763   3.924   3.100
 8964SOL    HW227792   5.881   3.838   3.027
 8965SOL     OW27793   1.987   4.689   1.079
 8965SOL    HW127794   2.077   4.686   1.123
 8965SOL    HW227795   1.970   4.602   1.033
 8966SOL     OW27796   1.836   3.713   5.536
 8966SOL    HW127797   1.900   3.648   5.495
 8966SOL    HW227798   1.762   3.663   5.582
 8967SOL     OW27799   3.121   5.706   1.607
 8967SOL    HW127800   3.179   5.770   1.557
 8967SOL    HW227801   3.039   5.686   1.553
 8968SOL     OW27802   4.932   5.656   2.246
 8968SOL    HW127803   4.979   5.739   2.218
 8968SOL    HW227804   4.884   5.617   2.167
 8969SOL     OW27805   6.225   0.322   3.988
 8969SOL    HW127806   6.206   0.226   4.006
 8969SOL    HW227807   6.166   0.379   4.045
 8970SOL     OW27808   3.059   2.231   0.389
 8970SOL    HW127809   3.028   2.218   0.295
 8970SOL    HW227810   3.146   2.281   0.388
 8971SOL     OW27811   3.772   5.702   2.408
 8971SOL    HW127812   3.839   5.631   2.427
 8971SOL    HW227813   3.727   5.683   2.320
 8972SOL     OW27814   4.855   5.862   6.227
 8972SOL    HW127815   4.888   5.812   6.307
 8972SOL    HW227816   4.850   5.800   6.149
 8973SOL     OW27817   1.008   3.504   2.173
 8973SOL    HW127818   1.058   3.477   2.255
 8973SOL    HW227819   0.952   3.427   2.142
 8974SOL     OW27820   1.174   4.223   5.601
 8974SOL    HW127821   1.220   4.196   5.686
 8974SOL    HW227822   1.075   4.210   5.611
 8975SOL     OW27823   2.463   0.534   6.872
 8975SOL    HW127824   2.470   0.623   6.828
 8975SOL    HW227825   2.533   0.473   6.834
 8976SOL     OW27826   0.785   5.260   5.323
 8976SOL    HW127827   0.778   5.161   5.311
 8976SOL    HW227828   0.696   5.295   5.353
 8977SOL     OW27829   5.690   1.823   6.644
 8977SOL    HW127830   5.647   1.749   6.594
 8977SOL    HW227831   5.775   1.850   6.598
 8978SOL     OW27832   6.023   6.642   6.409
 8978SOL    HW127833   6.038   6.684   6.498
 8978SOL    HW227834   5.954   6.695   6.359
 8979SOL     OW27835   1.172   3.394   4.342
 8979SOL    HW127836   1.253   3.399   4.283
 8979SOL    HW227837   1.109   3.325   4.307
 8980SOL     OW27838   2.314   3.008   5.396
 8980SOL    HW127839   2.226   2.975   5.362
 8980SOL    HW227840   2.381   3.005   5.322
 8981SOL     OW27841   3.734   1.604   4.922
 8981SOL    HW127842   3.742   1.586   4.824
 8981SOL    HW227843   3.645   1.647   4.941
 8982SOL     OW27844   1.603   2.457   0.393
 8982SOL    HW127845   1.651   2.523   0.335
 8982SOL    HW227846   1.515   2.496   0.421
 8983SOL     OW27847   2.811   6.551   6.339
 8983SOL    HW127848   2.837   6.505   6.254
 8983SOL    HW227849   2.828   6.490   6.416
 8984SOL     OW27850   0.972   6.708   4.069
 8984SOL    HW127851   0.913   6.777   4.028
 8984SOL    HW227852   0.920   6.656   4.137
 8985SOL     OW27853   3.746   2.079   0.615
 8985SOL    HW127854   3.797   2.011   0.563
 8985SOL    HW227855   3.786   2.170   0.598
 8986SOL     OW27856   4.286   5.312   2.722
 8986SOL    HW127857   4.267   5.341   2.815
 8986SOL    HW227858   4.372   5.261   2.719
 8987SOL     OW27859   4.212   6.463   2.046
 8987SOL    HW127860   4.183   6.485   1.953
 8987SOL    HW227861   4.266   6.539   2.083
 8988SOL     OW27862   1.260   4.614   4.577
 8988SOL    HW127863   1.268   4.692   4.515
 8988SOL    HW227864   1.278   4.643   4.671
 8989SOL     OW27865   4.811   3.546   6.885
 8989SOL    HW127866   4.747   3.472   6.904
 8989SOL    HW227867   4.848   3.581   6.971
 8990SOL     OW27868   1.320   5.287   4.698
 8990SOL    HW127869   1.343   5.352   4.626
 8990SOL    HW227870   1.404   5.257   4.745
 8991SOL     OW27871   1.888   3.100   4.518
 8991SOL    HW127872   1.907   3.019   4.575
 8991SOL    HW227873   1.971   3.126   4.469
 8992SOL     OW27874   4.210   1.485   0.699
 8992SOL    HW127875   4.298   1.521   0.729
 8992SOL    HW227876   4.198   1.505   0.602
 8993SOL     OW27877   4.576   2.291   0.184
 8993SOL    HW127878   4.555   2.319   0.277
 8993SOL    HW227879   4.571   2.370   0.123
 8994SOL     OW27880   1.559   3.974   5.615
 8994SOL    HW127881   1.538   3.890   5.664
 8994SOL    HW227882   1.503   3.979   5.532
 8995SOL     OW27883   0.792   2.202   6.977
 8995SOL    HW127884   0.823   2.291   7.009
 8995SOL    HW227885   0.863   2.161   6.918
 8996SOL     OW27886   5.153   4.211   6.788
 8996SOL    HW127887   5.206   4.126   6.797
 8996SOL    HW227888   5.157   4.261   6.874
 8997SOL     OW27889   5.045   1.959   6.511
 8997SOL    HW127890   4.955   1.953   6.468
 8997SOL    HW227891   5.099   1.879   6.485
 8998SOL     OW27892   6.206   3.641   4.565
 8998SOL    HW127893   6.183   3.727   4.519
 8998SOL    HW227894   6.184   3.564   4.506
 8999SOL     OW27895   4.847   6.363   6.476
 8999SOL    HW127896   4.899   6.290   6.521
 8999SOL    HW227897   4.787   6.408   6.542
 9000SOL     OW27898   1.827   3.402   1.942
 9000SOL    HW127899   1.748   3.354   1.981
 9000SOL    HW227900   1.804   3.499   1.931
 9001SOL     OW27901   1.268   4.746   2.085
 9001SOL    HW127902   1.234   4.689   2.159
 9001SOL    HW227903   1.362   4.719   2.062
 9002SOL     OW27904   1.800   5.076   5.011
 9002SOL    HW127905   1.720   5.112   5.059
 9002SOL    HW227906   1.876   5.141   5.019
 9003SOL     OW27907   5.907   4.232   1.299
 9003SOL    HW127908   5.880   4.149   1.347
 9003SOL    HW227909   5.860   4.311   1.338
 9004SOL     OW27910   4.183   5.550   0.846
 9004SOL    HW127911   4.263   5.546   0.787
 9004SOL    HW227912   4.161   5.646   0.866
 9005SOL     OW27913   6.606   1.799   5.458
 9005SOL    HW127914   6.518   1.833   5.493
 9005SOL    HW227915   6.614   1.701   5.479
 9006SOL     OW27916   1.985   5.830   1.276
 9006SOL    HW127917   1.953   5.915   1.233
 9006SOL    HW227918   2.020   5.768   1.205
 9007SOL     OW27919   3.518   0.630   3.614
 9007SOL    HW127920   3.515   0.730   3.610
 9007SOL    HW227921   3.603   0.598   3.573
 9008SOL     OW27922   0.874   5.380   2.709
 9008SOL    HW127923   0.912   5.318   2.641
 9008SOL    HW227924   0.946   5.440   2.743
 9009SOL     OW27925   2.817   5.410   0.765
 9009SOL    HW127926   2.839   5.360   0.849
 9009SOL    HW227927   2.854   5.361   0.686
 9010SOL     OW27928   1.772   6.254   4.148
 9010SOL    HW127929   1.819   6.333   4.107
 9010SOL    HW227930   1.833   6.175   4.146
 9011SOL     OW27931   4.625   0.920   1.229
 9011SOL    HW127932   4.664   0.874   1.309
 9011SOL    HW227933   4.547   0.976   1.257
 9012SOL     OW27934   2.029   4.985   6.712
 9012SOL    HW127935   2.080   4.946   6.635
 9012SOL    HW227936   2.081   4.975   6.796
 9013SOL     OW27937   0.363   0.558   6.102
 9013SOL    HW127938   0.445   0.517   6.061
 9013SOL    HW227939   0.329   0.498   6.174
 9014SOL     OW27940   0.055   2.144   0.773
 9014SOL    HW127941   0.055   2.224   0.831
 9014SOL    HW227942   0.086   2.064   0.825
 9015SOL     OW27943   4.515   2.497   1.854
 9015SOL    HW127944   4.579   2.558   1.902
 9015SOL    HW227945   4.566   2.421   1.813
 9016SOL     OW27946   6.564   6.434   6.870
 9016SOL    HW127947   6.593   6.338   6.874
 9016SOL    HW227948   6.507   6.448   6.790
 9017SOL     OW27949   4.858   1.748   4.261
 9017SOL    HW127950   4.764   1.740   4.295
 9017SOL    HW227951   4.873   1.682   4.187
 9018SOL     OW27952   2.561   2.894   5.785
 9018SOL    HW127953   2.657   2.893   5.758
 9018SOL    HW227954   2.511   2.956   5.725
 9019SOL     OW27955   1.472   5.166   2.674
 9019SOL    HW127956   1.401   5.117   2.623
 9019SOL    HW227957   1.454   5.158   2.772
 9020SOL     OW27958   0.056   3.920   1.101
 9020SOL    HW127959   7.019   3.843   1.113
 9020SOL    HW227960   0.132   3.892   1.043
 9021SOL     OW27961   0.150   1.068   3.586
 9021SOL    HW127962   0.222   1.136   3.602
 9021SOL    HW227963   0.160   1.030   3.494
 9022SOL     OW27964   2.605   0.905   0.103
 9022SOL    HW127965   2.626   0.948   0.015
 9022SOL    HW227966   2.618   0.806   0.096
 9023SOL     OW27967   3.382   3.447   1.791
 9023SOL    HW127968   3.395   3.431   1.693
 9023SOL    HW227969   3.437   3.526   1.819
 9024SOL     OW27970   1.357   3.856   5.828
 9024SOL    HW127971   1.363   3.787   5.756
 9024SOL    HW227972   1.398   3.821   5.912
 9025SOL     OW27973   0.713   5.254   0.587
 9025SOL    HW127974   0.762   5.232   0.503
 9025SOL    HW227975   0.617   5.230   0.577
 9026SOL     OW27976   3.387   2.574   0.827
 9026SOL    HW127977   3.360   2.517   0.905
 9026SOL    HW227978   3.312   2.578   0.761
 9027SOL     OW27979   0.220   3.389   2.728
 9027SOL    HW127980   0.220   3.291   2.747
 9027SOL    HW227981   0.278   3.435   2.795
 9028SOL     OW27982   3.177   2.998   5.153
 9028SOL    HW127983   3.243   3.039   5.216
 9028SOL    HW227984   3.086   3.036   5.170
 9029SOL     OW27985   3.723   6.743   4.942
 9029SOL    HW127986   3.809   6.792   4.946
 9029SOL    HW227987   3.658   6.793   4.885
 9030SOL     OW27988   2.158   2.193   3.464
 9030SOL    HW127989   2.131   2.273   3.411
 9030SOL    HW227990   2.128   2.110   3.417
 9031SOL     OW27991   4.265   6.292   3.813
 9031SOL    HW127992   4.266   6.273   3.912
 9031SOL    HW227993   4.358   6.313   3.783
 9032SOL     OW27994   4.730   4.064   1.101
 9032SOL    HW127995   4.782   4.066   1.186
 9032SOL    HW227996   4.633   4.077   1.121
 9033SOL     OW27997   0.500   4.385   2.809
 9033SOL    HW127998   0.520   4.316   2.740
 9033SOL    HW227999   0.584   4.433   2.834
 9034SOL     OW28000   2.706   5.715   4.815
 9034SOL    HW128001   2.728   5.644   4.882
 9034SOL    HW228002   2.791   5.749   4.774
 9035SOL     OW28003   2.485   4.744   6.963
 9035SOL    HW128004   2.576   4.777   6.988
 9035SOL    HW228005   2.423   4.758   0.014
 9036SOL     OW28006   2.308   3.209   5.809
 9036SOL    HW128007   2.366   3.283   5.844
 9036SOL    HW228008   2.355   3.165   5.732
 9037SOL     OW28009   1.080   4.180   4.079
 9037SOL    HW128010   0.999   4.161   4.135
 9037SOL    HW228011   1.144   4.104   4.087
 9038SOL     OW28012   4.689   2.179   6.539
 9038SOL    HW128013   4.726   2.091   6.511
 9038SOL    HW228014   4.754   2.225   6.599
 9039SOL     OW28015   2.251   4.955   6.230
 9039SOL    HW128016   2.197   4.990   6.153
 9039SOL    HW228017   2.241   5.016   6.309
 9040SOL     OW28018   2.515   2.484   2.769
 9040SOL    HW128019   2.502   2.562   2.831
 9040SOL    HW228020   2.449   2.491   2.694
 9041SOL     OW28021   1.308   2.238   0.800
 9041SOL    HW128022   1.315   2.196   0.709
 9041SOL    HW228023   1.214   2.232   0.832
 9042SOL     OW28024   4.273   0.265   4.380
 9042SOL    HW128025   4.349   0.212   4.342
 9042SOL    HW228026   4.205   0.202   4.419
 9043SOL     OW28027   2.448   0.921   6.252
 9043SOL    HW128028   2.398   0.975   6.319
 9043SOL    HW228029   2.389   0.850   6.216
 9044SOL     OW28030   6.403   0.530   0.616
 9044SOL    HW128031   6.449   0.541   0.528
 9044SOL    HW228032   6.351   0.445   0.617
 9045SOL     OW28033   3.730   1.423   2.657
 9045SOL    HW128034   3.816   1.372   2.648
 9045SOL    HW228035   3.689   1.435   2.567
 9046SOL     OW28036   3.400   4.101   2.981
 9046SOL    HW128037   3.479   4.137   3.031
 9046SOL    HW228038   3.323   4.090   3.044
 9047SOL     OW28039   1.835   3.526   4.779
 9047SOL    HW128040   1.794   3.491   4.863
 9047SOL    HW228041   1.790   3.485   4.699
 9048SOL     OW28042   6.755   3.047   6.043
 9048SOL    HW128043   6.661   3.015   6.036
 9048SOL    HW228044   6.756   3.142   6.075
 9049SOL     OW28045   3.696   6.773   5.632
 9049SOL    HW128046   3.670   6.862   5.672
 9049SOL    HW228047   3.752   6.723   5.698
 9050SOL     OW28048   0.677   3.899   1.323
 9050SOL    HW128049   0.621   3.855   1.253
 9050SOL    HW228050   0.760   3.935   1.281
 9051SOL     OW28051   2.849   0.503   1.233
 9051SOL    HW128052   2.860   0.404   1.234
 9051SOL    HW228053   2.927   0.545   1.187
 9052SOL     OW28054   2.525   2.603   4.036
 9052SOL    HW128055   2.536   2.520   3.981
 9052SOL    HW228056   2.580   2.595   4.119
 9053SOL     OW28057   2.495   1.269   2.396
 9053SOL    HW128058   2.502   1.183   2.446
 9053SOL    HW228059   2.571   1.329   2.421
 9054SOL     OW28060   3.116   5.708   4.567
 9054SOL    HW128061   3.115   5.644   4.644
 9054SOL    HW228062   3.196   5.768   4.574
 9055SOL     OW28063   5.869   1.837   4.268
 9055SOL    HW128064   5.783   1.786   4.272
 9055SOL    HW228065   5.939   1.780   4.224
 9056SOL     OW28066   0.331   2.243   1.564
 9056SOL    HW128067   0.382   2.180   1.623
 9056SOL    HW228068   0.261   2.192   1.514
 9057SOL     OW28069   4.398   2.898   5.583
 9057SOL    HW128070   4.483   2.929   5.540
 9057SOL    HW228071   4.344   2.846   5.517
 9058SOL     OW28072   1.645   1.086   1.885
 9058SOL    HW128073   1.615   1.068   1.979
 9058SOL    HW228074   1.667   0.999   1.840
 9059SOL     OW28075   1.167   2.647   2.983
 9059SOL    HW128076   1.219   2.622   2.901
 9059SOL    HW228077   1.169   2.747   2.995
 9060SOL     OW28078   5.801   2.842   4.515
 9060SOL    HW128079   5.757   2.802   4.435
 9060SOL    HW228080   5.730   2.882   4.574
 9061SOL     OW28081   2.775   5.425   2.290
 9061SOL    HW128082   2.693   5.481   2.278
 9061SOL    HW228083   2.833   5.466   2.360
 9062SOL     OW28084   1.372   6.132   2.077
 9062SOL    HW128085   1.333   6.041   2.095
 9062SOL    HW228086   1.332   6.168   1.992
 9063SOL     OW28087   2.802   0.273   3.977
 9063SOL    HW128088   2.845   0.218   3.906
 9063SOL    HW228089   2.735   0.335   3.935
 9064SOL     OW28090   6.091   3.211   6.396
 9064SOL    HW128091   6.054   3.240   6.308
 9064SOL    HW228092   6.018   3.167   6.449
 9065SOL     OW28093   3.661   0.303   0.222
 9065SOL    HW128094   3.728   0.298   0.296
 9065SOL    HW228095   3.708   0.319   0.135
 9066SOL     OW28096   5.257   6.859   0.373
 9066SOL    HW128097   5.248   6.952   0.409
 9066SOL    HW228098   5.342   6.851   0.322
 9067SOL     OW28099   1.108   0.540   3.607
 9067SOL    HW128100   1.133   0.562   3.701
 9067SOL    HW228101   1.015   0.570   3.589
 9068SOL     OW28102   1.675   6.349   4.495
 9068SOL    HW128103   1.733   6.418   4.452
 9068SOL    HW228104   1.655   6.277   4.429
 9069SOL     OW28105   1.413   3.130   0.841
 9069SOL    HW128106   1.422   3.230   0.840
 9069SOL    HW228107   1.329   3.104   0.792
 9070SOL     OW28108   1.665   3.499   4.993
 9070SOL    HW128109   1.606   3.420   4.978
 9070SOL    HW228110   1.614   3.569   5.043
 9071SOL     OW28111   6.972   6.542   0.988
 9071SOL    HW128112   6.886   6.536   1.037
 9071SOL    HW228113   6.959   6.509   0.894
 9072SOL     OW28114   0.182   2.698   1.083
 9072SOL    HW128115   0.162   2.707   0.986
 9072SOL    HW228116   0.265   2.644   1.096
 9073SOL     OW28117   1.946   0.011   2.176
 9073SOL    HW128118   1.951   0.076   2.252
 9073SOL    HW228119   1.851   0.005   2.144
 9074SOL     OW28120   1.137   0.489   2.447
 9074SOL    HW128121   1.227   0.465   2.483
 9074SOL    HW228122   1.076   0.513   2.522
 9075SOL     OW28123   6.943   1.534   2.150
 9075SOL    HW128124   6.922   1.555   2.055
 9075SOL    HW228125   6.896   1.451   2.178
 9076SOL     OW28126   0.349   1.139   6.517
 9076SOL    HW128127   0.274   1.189   6.560
 9076SOL    HW228128   0.367   1.056   6.569
 9077SOL     OW28129   4.293   6.670   1.568
 9077SOL    HW128130   4.225   6.647   1.499
 9077SOL    HW228131   4.294   6.769   1.583
 9078SOL     OW28132   3.559   3.037   4.595
 9078SOL    HW128133   3.473   2.988   4.609
 9078SOL    HW228134   3.623   2.980   4.544
 9079SOL     OW28135   2.801   0.819   4.690
 9079SOL    HW128136   2.891   0.780   4.711
 9079SOL    HW228137   2.743   0.814   4.772
 9080SOL     OW28138   5.342   3.070   6.354
 9080SOL    HW128139   5.344   3.031   6.262
 9080SOL    HW228140   5.339   3.170   6.348
 9081SOL     OW28141   5.101   6.242   2.405
 9081SOL    HW128142   5.133   6.152   2.436
 9081SOL    HW228143   5.018   6.266   2.455
 9082SOL     OW28144   1.603   0.260   4.535
 9082SOL    HW128145   1.573   0.352   4.562
 9082SOL    HW228146   1.594   0.250   4.436
 9083SOL     OW28147   4.716   4.725   5.715
 9083SOL    HW128148   4.792   4.666   5.745
 9083SOL    HW228149   4.634   4.702   5.767
 9084SOL     OW28150   3.935   3.934   3.315
 9084SOL    HW128151   3.926   3.956   3.217
 9084SOL    HW228152   3.859   3.976   3.365
 9085SOL     OW28153   2.470   0.692   0.711
 9085SOL    HW128154   2.449   0.650   0.800
 9085SOL    HW228155   2.395   0.673   0.647
 9086SOL     OW28156   0.637   4.181   0.457
 9086SOL    HW128157   0.664   4.185   0.553
 9086SOL    HW228158   0.676   4.099   0.415
 9087SOL     OW28159   5.038   2.801   1.775
 9087SOL    HW128160   5.071   2.731   1.838
 9087SOL    HW228161   5.078   2.889   1.800
 9088SOL     OW28162   6.339   0.425   1.132
 9088SOL    HW128163   6.426   0.454   1.093
 9088SOL    HW228164   6.333   0.325   1.129
 9089SOL     OW28165   5.376   6.462   5.696
 9089SOL    HW128166   5.297   6.523   5.700
 9089SOL    HW228167   5.419   6.458   5.786
 9090SOL     OW28168   6.090   1.044   5.606
 9090SOL    HW128169   6.010   1.068   5.661
 9090SOL    HW228170   6.139   1.128   5.580
 9091SOL     OW28171   2.859   3.637   6.821
 9091SOL    HW128172   2.838   3.702   6.748
 9091SOL    HW228173   2.863   3.685   6.908
 9092SOL     OW28174   6.729   1.131   0.263
 9092SOL    HW128175   6.768   1.066   0.198
 9092SOL    HW228176   6.763   1.111   0.355
 9093SOL     OW28177   1.803   5.866   5.538
 9093SOL    HW128178   1.875   5.898   5.477
 9093SOL    HW228179   1.844   5.815   5.614
 9094SOL     OW28180   6.812   4.301   2.813
 9094SOL    HW128181   6.739   4.286   2.746
 9094SOL    HW228182   6.839   4.397   2.813
 9095SOL     OW28183   4.911   4.837   6.106
 9095SOL    HW128184   4.939   4.921   6.151
 9095SOL    HW228185   4.820   4.849   6.066
 9096SOL     OW28186   6.934   5.150   3.660
 9096SOL    HW128187   6.866   5.120   3.726
 9096SOL    HW228188   7.025   5.125   3.693
 9097SOL     OW28189   2.061   2.052   6.759
 9097SOL    HW128190   1.989   2.077   6.823
 9097SOL    HW228191   2.056   1.954   6.739
 9098SOL     OW28192   2.510   2.208   5.087
 9098SOL    HW128193   2.448   2.204   5.009
 9098SOL    HW228194   2.572   2.285   5.078
 9099SOL     OW28195   2.590   2.978   6.646
 9099SOL    HW128196   2.640   2.912   6.592
 9099SOL    HW228197   2.525   3.028   6.588
 9100SOL     OW28198   1.099   3.914   2.260
 9100SOL    HW128199   1.177   3.861   2.293
 9100SOL    HW228200   1.046   3.859   2.196
 9101SOL     OW28201   2.966   1.549   2.651
 9101SOL    HW128202   2.871   1.562   2.680
 9101SOL    HW228203   2.977   1.581   2.556
 9102SOL     OW28204   4.087   6.868   1.998
 9102SOL    HW128205   3.992   6.842   2.013
 9102SOL    HW228206   4.146   6.814   2.058
 9103SOL     OW28207   5.831   1.289   6.790
 9103SOL    HW128208   5.869   1.359   6.729
 9103SOL    HW228209   5.906   1.235   6.828
 9104SOL     OW28210   6.691   0.084   1.933
 9104SOL    HW128211   6.744   0.163   1.960
 9104SOL    HW228212   6.661   0.034   2.014
 9105SOL     OW28213   1.031   6.826   5.169
 9105SOL    HW128214   1.060   6.831   5.074
 9105SOL    HW228215   0.974   6.745   5.183
 9106SOL     OW28216   0.630   3.760   0.160
 9106SOL    HW128217   0.635   3.673   0.111
 9106SOL    HW228218   0.581   3.827   0.103
 9107SOL     OW28219   2.223   0.726   6.204
 9107SOL    HW128220   2.176   0.775   6.277
 9107SOL    HW228221   2.230   0.629   6.228
 9108SOL     OW28222   5.003   4.507   5.245
 9108SOL    HW128223   4.935   4.503   5.318
 9108SOL    HW228224   4.995   4.593   5.196
 9109SOL     OW28225   4.879   2.986   2.458
 9109SOL    HW128226   4.828   2.922   2.402
 9109SOL    HW228227   4.882   3.075   2.413
 9110SOL     OW28228   0.989   5.648   4.272
 9110SOL    HW128229   0.941   5.599   4.345
 9110SOL    HW228230   0.923   5.697   4.215
 9111SOL     OW28231   4.890   3.095   5.901
 9111SOL    HW128232   4.799   3.098   5.943
 9111SOL    HW228233   4.883   3.059   5.808
 9112SOL     OW28234   1.561   5.225   2.937
 9112SOL    HW128235   1.639   5.165   2.916
 9112SOL    HW228236   1.525   5.203   3.027
 9113SOL     OW28237   5.833   2.510   3.657
 9113SOL    HW128238   5.880   2.593   3.689
 9113SOL    HW228239   5.850   2.497   3.559
 9114SOL     OW28240   1.458   6.318   4.077
 9114SOL    HW128241   1.464   6.251   4.150
 9114SOL    HW228242   1.511   6.400   4.102
 9115SOL     OW28243   6.316   4.918   3.222
 9115SOL    HW128244   6.244   4.909   3.290
 9115SOL    HW228245   6.395   4.863   3.250
 9116SOL     OW28246   0.220   6.797   3.002
 9116SOL    HW128247   0.288   6.844   3.059
 9116SOL    HW228248   0.199   6.708   3.042
 9117SOL     OW28249   4.160   1.067   6.673
 9117SOL    HW128250   4.060   1.075   6.676
 9117SOL    HW228251   4.192   1.089   6.581
 9118SOL     OW28252   6.176   3.968   0.544
 9118SOL    HW128253   6.149   4.063   0.557
 9118SOL    HW228254   6.207   3.929   0.631
 9119SOL     OW28255   3.799   6.796   1.459
 9119SOL    HW128256   3.856   6.852   1.519
 9119SOL    HW228257   3.716   6.848   1.434
 9120SOL     OW28258   0.005   2.663   6.197
 9120SOL    HW128259   7.015   2.691   6.291
 9120SOL    HW228260   0.052   2.575   6.195
 9121SOL     OW28261   3.819   0.368   5.414
 9121SOL    HW128262   3.889   0.326   5.357
 9121SOL    HW228263   3.813   0.318   5.501
 9122SOL     OW28264   2.212   3.902   2.260
 9122SOL    HW128265   2.186   3.994   2.232
 9122SOL    HW228266   2.298   3.907   2.312
 9123SOL     OW28267   1.571   0.174   3.329
 9123SOL    HW128268   1.643   0.233   3.293
 9123SOL    HW228269   1.563   0.188   3.428
 9124SOL     OW28270   3.709   5.040   1.792
 9124SOL    HW128271   3.681   5.072   1.701
 9124SOL    HW228272   3.710   4.940   1.794
 9125SOL     OW28273   3.601   5.848   0.388
 9125SOL    HW128274   3.662   5.769   0.381
 9125SOL    HW228275   3.655   5.932   0.390
 9126SOL     OW28276   4.298   4.546   1.126
 9126SOL    HW128277   4.368   4.503   1.183
 9126SOL    HW228278   4.208   4.526   1.163
 9127SOL     OW28279   7.019   3.111   5.025
 9127SOL    HW128280   0.059   3.038   5.045
 9127SOL    HW228281   7.007   3.118   4.926
 9128SOL     OW28282   6.320   2.918   4.632
 9128SOL    HW128283   6.239   2.860   4.622
 9128SOL    HW228284   6.363   2.900   4.720
 9129SOL     OW28285   1.979   1.931   0.929
 9129SOL    HW128286   2.072   1.895   0.925
 9129SOL    HW228287   1.934   1.899   1.012
 9130SOL     OW28288   2.512   4.020   5.609
 9130SOL    HW128289   2.521   4.049   5.513
 9130SOL    HW228290   2.494   3.922   5.612
 9131SOL     OW28291   5.328   2.665   0.137
 9131SOL    HW128292   5.361   2.759   0.142
 9131SOL    HW228293   5.277   2.643   0.221
 9132SOL     OW28294   0.910   4.607   3.984
 9132SOL    HW128295   0.941   4.636   3.894
 9132SOL    HW228296   0.819   4.646   4.003
 9133SOL     OW28297   3.540   0.750   0.854
 9133SOL    HW128298   3.492   0.741   0.767
 9133SOL    HW228299   3.619   0.811   0.843
 9134SOL     OW28300   4.505   5.318   0.843
 9134SOL    HW128301   4.488   5.357   0.933
 9134SOL    HW228302   4.531   5.390   0.779
 9135SOL     OW28303   1.265   5.893   2.051
 9135SOL    HW128304   1.336   5.880   1.980
 9135SOL    HW228305   1.187   5.834   2.031
 9136SOL     OW28306   5.359   4.835   6.217
 9136SOL    HW128307   5.288   4.786   6.166
 9136SOL    HW228308   5.416   4.887   6.153
 9137SOL     OW28309   5.074   6.043   6.303
 9137SOL    HW128310   5.151   5.994   6.344
 9137SOL    HW228311   5.004   5.978   6.273
 9138SOL     OW28312   2.082   3.018   0.480
 9138SOL    HW128313   2.096   3.094   0.543
 9138SOL    HW228314   2.088   2.932   0.529
 9139SOL     OW28315   0.236   0.415   1.515
 9139SOL    HW128316   0.311   0.375   1.568
 9139SOL    HW228317   0.239   0.515   1.524
 9140SOL     OW28318   0.154   4.673   1.778
 9140SOL    HW128319   0.128   4.723   1.695
 9140SOL    HW228320   0.180   4.739   1.849
 9141SOL     OW28321   6.730   5.346   6.235
 9141SOL    HW128322   6.707   5.435   6.273
 9141SOL    HW228323   6.649   5.287   6.236
 9142SOL     OW28324   0.223   3.325   3.012
 9142SOL    HW128325   0.291   3.371   2.956
 9142SOL    HW228326   0.259   3.237   3.043
 9143SOL     OW28327   6.987   4.013   2.453
 9143SOL    HW128328   0.013   4.040   2.371
 9143SOL    HW228329   6.896   4.052   2.449
 9144SOL     OW28330   2.909   5.316   4.804
 9144SOL    HW128331   2.970   5.348   4.732
 9144SOL    HW228332   2.958   5.253   4.863
 9145SOL     OW28333   1.349   6.882   6.488
 9145SOL    HW128334   1.376   6.905   6.395
 9145SOL    HW228335   1.279   6.811   6.486
 9146SOL     OW28336   5.818   3.487   3.469
 9146SOL    HW128337   5.880   3.415   3.500
 9146SOL    HW228338   5.868   3.551   3.411
 9147SOL     OW28339   5.547   6.944   4.253
 9147SOL    HW128340   5.626   6.916   4.199
 9147SOL    HW228341   5.521   0.011   4.229
 9148SOL     OW28342   6.499   0.374   1.979
 9148SOL    HW128343   6.481   0.336   1.888
 9148SOL    HW228344   6.461   0.467   1.984
 9149SOL     OW28345   6.179   2.887   1.051
 9149SOL    HW128346   6.079   2.874   1.052
 9149SOL    HW228347   6.203   2.953   0.980
 9150SOL     OW28348   2.495   4.020   6.722
 9150SOL    HW128349   2.440   4.099   6.750
 9150SOL    HW228350   2.494   4.013   6.622
 9151SOL     OW28351   2.160   3.680   3.854
 9151SOL    HW128352   2.134   3.719   3.943
 9151SOL    HW228353   2.174   3.581   3.864
 9152SOL     OW28354   2.044   3.778   4.103
 9152SOL    HW128355   1.956   3.804   4.063
 9152SOL    HW228356   2.049   3.813   4.197
 9153SOL     OW28357   0.068   2.238   6.780
 9153SOL    HW128358   0.071   2.197   6.871
 9153SOL    HW228359   7.014   2.298   6.774
 9154SOL     OW28360   6.466   5.583   3.337
 9154SOL    HW128361   6.421   5.670   3.355
 9154SOL    HW228362   6.423   5.538   3.258
 9155SOL     OW28363   1.418   5.676   2.853
 9155SOL    HW128364   1.388   5.597   2.801
 9155SOL    HW228365   1.393   5.760   2.805
 9156SOL     OW28366   6.956   3.868   0.713
 9156SOL    HW128367   6.996   3.791   0.762
 9156SOL    HW228368   6.904   3.834   0.634
 9157SOL     OW28369   3.644   4.252   6.342
 9157SOL    HW128370   3.624   4.274   6.247
 9157SOL    HW228371   3.628   4.154   6.358
 9158SOL     OW28372   6.635   3.654   4.097
 9158SOL    HW128373   6.579   3.605   4.030
 9158SOL    HW228374   6.588   3.652   4.186
 9159SOL     OW28375   3.215   0.017   3.213
 9159SOL    HW128376   3.259   0.062   3.135
 9159SOL    HW228377   3.280   6.981   3.257
 9160SOL     OW28378   0.793   4.759   6.683
 9160SOL    HW128379   0.720   4.796   6.624
 9160SOL    HW228380   0.815   4.826   6.754
 9161SOL     OW28381   5.928   3.827   1.654
 9161SOL    HW128382   5.997   3.868   1.713
 9161SOL    HW228383   5.955   3.734   1.630
 9162SOL     OW28384   4.397   1.644   2.955
 9162SOL    HW128385   4.345   1.724   2.986
 9162SOL    HW228386   4.350   1.560   2.984
 9163SOL     OW28387   1.051   2.320   3.191
 9163SOL    HW128388   1.067   2.419   3.188
 9163SOL    HW228389   1.107   2.276   3.121
 9164SOL     OW28390   2.345   0.091   6.641
 9164SOL    HW128391   2.421   0.048   6.691
 9164SOL    HW228392   2.348   0.062   6.545
 9165SOL     OW28393   4.979   2.753   5.146
 9165SOL    HW128394   4.975   2.660   5.110
 9165SOL    HW228395   5.056   2.802   5.105
 9166SOL     OW28396   4.712   5.824   1.938
 9166SOL    HW128397   4.718   5.860   1.845
 9166SOL    HW228398   4.739   5.895   2.004
 9167SOL     OW28399   1.306   0.914   5.722
 9167SOL    HW128400   1.290   0.953   5.812
 9167SOL    HW228401   1.248   0.833   5.709
 9168SOL     OW28402   6.631   5.188   4.629
 9168SOL    HW128403   6.645   5.273   4.579
 9168SOL    HW228404   6.662   5.111   4.572
 9169SOL     OW28405   6.062   6.241   6.922
 9169SOL    HW128406   6.084   6.145   6.909
 9169SOL    HW228407   6.013   6.253   7.008
 9170SOL     OW28408   1.338   1.486   6.199
 9170SOL    HW128409   1.392   1.403   6.186
 9170SOL    HW228410   1.247   1.472   6.161
 9171SOL     OW28411   3.070   5.200   0.883
 9171SOL    HW128412   3.125   5.173   0.963
 9171SOL    HW228413   2.973   5.187   0.904
 9172SOL     OW28414   5.310   1.226   4.735
 9172SOL    HW128415   5.397   1.204   4.779
 9172SOL    HW228416   5.271   1.142   4.697
 9173SOL     OW28417   6.151   2.480   3.816
 9173SOL    HW128418   6.108   2.458   3.903
 9173SOL    HW228419   6.135   2.405   3.751
 9174SOL     OW28420   0.918   5.699   6.975
 9174SOL    HW128421   0.890   5.739   6.888
 9174SOL    HW228422   0.998   5.640   6.961
 9175SOL     OW28423   1.744   6.736   0.294
 9175SOL    HW128424   1.813   6.806   0.278
 9175SOL    HW228425   1.788   6.646   0.297
 9176SOL     OW28426   1.918   1.401   2.833
 9176SOL    HW128427   1.945   1.354   2.917
 9176SOL    HW228428   1.842   1.463   2.852
 9177SOL     OW28429   0.420   4.860   3.951
 9177SOL    HW128430   0.352   4.809   3.898
 9177SOL    HW228431   0.386   4.874   4.044
 9178SOL     OW28432   2.286   6.539   7.003
 9178SOL    HW128433   2.276   6.495   0.066
 9178SOL    HW228434   2.201   6.531   6.952
 9179SOL     OW28435   4.337   6.363   5.374
 9179SOL    HW128436   4.318   6.376   5.471
 9179SOL    HW228437   4.379   6.273   5.361
 9180SOL     OW28438   6.790   1.790   4.143
 9180SOL    HW128439   6.880   1.832   4.152
 9180SOL    HW228440   6.752   1.812   4.053
 9181SOL     OW28441   4.309   1.988   3.533
 9181SOL    HW128442   4.386   1.947   3.484
 9181SOL    HW228443   4.335   2.079   3.565
 9182SOL     OW28444   2.124   1.163   2.752
 9182SOL    HW128445   2.042   1.220   2.752
 9182SOL    HW228446   2.116   1.091   2.683
 9183SOL     OW28447   5.312   2.585   6.082
 9183SOL    HW128448   5.233   2.527   6.101
 9183SOL    HW228449   5.335   2.639   6.164
 9184SOL     OW28450   3.372   2.995   0.585
 9184SOL    HW128451   3.326   2.910   0.560
 9184SOL    HW228452   3.435   2.978   0.660
 9185SOL     OW28453   0.847   0.436   6.899
 9185SOL    HW128454   0.768   0.379   6.881
 9185SOL    HW228455   0.871   0.486   6.815
 9186SOL     OW28456   4.970   0.375   6.543
 9186SOL    HW128457   5.003   0.289   6.582
 9186SOL    HW228458   4.929   0.431   6.615
 9187SOL     OW28459   5.171   1.740   0.100
 9187SOL    HW128460   5.081   1.760   0.140
 9187SOL    HW228461   5.230   1.701   0.171
 9188SOL     OW28462   1.263   0.144   1.872
 9188SOL    HW128463   1.247   0.087   1.952
 9188SOL    HW228464   1.361   0.153   1.855
 9189SOL     OW28465   2.492   1.621   3.316
 9189SOL    HW128466   2.560   1.682   3.275
 9189SOL    HW228467   2.537   1.558   3.378
 9190SOL     OW28468   5.618   3.693   5.437
 9190SOL    HW128469   5.634   3.625   5.365
 9190SOL    HW228470   5.613   3.784   5.396
 9191SOL     OW28471   5.153   6.348   6.263
 9191SOL    HW128472   5.057   6.326   6.250
 9191SOL    HW228473   5.194   6.374   6.175
 9192SOL     OW28474   0.185   4.218   6.115
 9192SOL    HW128475   0.247   4.295   6.099
 9192SOL    HW228476   0.218   4.137   6.067
 9193SOL     OW28477   4.090   3.374   3.271
 9193SOL    HW128478   4.132   3.366   3.361
 9193SOL    HW228479   4.107   3.290   3.219
 9194SOL     OW28480   2.608   5.835   2.803
 9194SOL    HW128481   2.518   5.794   2.786
 9194SOL    HW228482   2.670   5.766   2.839
 9195SOL     OW28483   0.371   3.046   3.485
 9195SOL    HW128484   0.353   2.954   3.451
 9195SOL    HW228485   0.310   3.111   3.439
 9196SOL     OW28486   3.872   0.715   3.356
 9196SOL    HW128487   3.874   0.811   3.381
 9196SOL    HW228488   3.965   0.686   3.331
 9197SOL     OW28489   2.956   3.063   6.773
 9197SOL    HW128490   2.978   3.019   6.686
 9197SOL    HW228491   2.892   3.138   6.758
 9198SOL     OW28492   5.748   3.669   5.680
 9198SOL    HW128493   5.741   3.671   5.581
 9198SOL    HW228494   5.673   3.722   5.720
 9199SOL     OW28495   1.850   3.979   6.489
 9199SOL    HW128496   1.765   3.929   6.506
 9199SOL    HW228497   1.835   4.076   6.507
 9200SOL     OW28498   6.633   0.242   0.839
 9200SOL    HW128499   6.713   0.269   0.892
 9200SOL    HW228500   6.660   0.177   0.768
 9201SOL     OW28501   6.702   4.338   1.524
 9201SOL    HW128502   6.673   4.430   1.550
 9201SOL    HW228503   6.771   4.344   1.452
 9202SOL     OW28504   2.637   5.020   4.147
 9202SOL    HW128505   2.664   5.009   4.242
 9202SOL    HW228506   2.700   4.970   4.088
 9203SOL     OW28507   5.452   1.187   5.892
 9203SOL    HW128508   5.504   1.173   5.808
 9203SOL    HW228509   5.357   1.209   5.870
 9204SOL     OW28510   5.438   3.957   3.307
 9204SOL    HW128511   5.502   3.950   3.230
 9204SOL    HW228512   5.363   3.893   3.293
 9205SOL     OW28513   6.086   3.042   2.575
 9205SOL    HW128514   5.989   3.050   2.599
 9205SOL    HW228515   6.110   2.945   2.567
 9206SOL     OW28516   2.054   6.109   3.445
 9206SOL    HW128517   2.003   6.089   3.528
 9206SOL    HW228518   2.150   6.086   3.458
 9207SOL     OW28519   4.415   5.905   6.328
 9207SOL    HW128520   4.474   5.985   6.319
 9207SOL    HW228521   4.323   5.927   6.297
 9208SOL     OW28522   4.999   3.380   2.049
 9208SOL    HW128523   4.971   3.464   2.096
 9208SOL    HW228524   5.041   3.403   1.961
 9209SOL     OW28525   3.816   1.708   3.033
 9209SOL    HW128526   3.870   1.633   2.993
 9209SOL    HW228527   3.798   1.687   3.129
 9210SOL     OW28528   2.254   0.361   1.175
 9210SOL    HW128529   2.186   0.291   1.199
 9210SOL    HW228530   2.318   0.323   1.109
 9211SOL     OW28531   4.924   1.625   6.175
 9211SOL    HW128532   4.859   1.701   6.185
 9211SOL    HW228533   5.017   1.662   6.169
 9212SOL     OW28534   5.419   4.413   4.470
 9212SOL    HW128535   5.415   4.316   4.490
 9212SOL    HW228536   5.475   4.428   4.389
 9213SOL     OW28537   5.854   0.168   3.762
 9213SOL    HW128538   5.831   0.265   3.755
 9213SOL    HW228539   5.873   0.145   3.858
 9214SOL     OW28540   2.067   2.465   4.688
 9214SOL    HW128541   2.077   2.526   4.609
 9214SOL    HW228542   2.154   2.458   4.737
 9215SOL     OW28543   0.543   3.940   2.599
 9215SOL    HW128544   0.596   3.969   2.520
 9215SOL    HW228545   0.595   3.873   2.651
 9216SOL     OW28546   2.897   5.730   5.150
 9216SOL    HW128547   2.967   5.675   5.104
 9216SOL    HW228548   2.810   5.719   5.103
 9217SOL     OW28549   5.130   1.484   5.950
 9217SOL    HW128550   5.142   1.580   5.924
 9217SOL    HW228551   5.057   1.477   6.017
 9218SOL     OW28552   5.831   6.661   6.171
 9218SOL    HW128553   5.895   6.589   6.146
 9218SOL    HW228554   5.854   6.745   6.122
 9219SOL     OW28555   3.579   2.830   5.562
 9219SOL    HW128556   3.529   2.787   5.486
 9219SOL    HW228557   3.674   2.800   5.560
 9220SOL     OW28558   1.417   6.127   3.010
 9220SOL    HW128559   1.425   6.177   3.097
 9220SOL    HW228560   1.407   6.191   2.935
 9221SOL     OW28561   2.401   0.385   6.535
 9221SOL    HW128562   2.390   0.292   6.570
 9221SOL    HW228563   2.497   0.401   6.513
 9222SOL     OW28564   1.481   5.053   3.650
 9222SOL    HW128565   1.555   5.001   3.607
 9222SOL    HW228566   1.408   4.990   3.679
 9223SOL     OW28567   1.421   4.136   4.625
 9223SOL    HW128568   1.459   4.134   4.717
 9223SOL    HW228569   1.495   4.148   4.559
 9224SOL     OW28570   1.535   4.607   3.544
 9224SOL    HW128571   1.590   4.572   3.621
 9224SOL    HW228572   1.589   4.602   3.460
 9225SOL     OW28573   4.613   6.866   6.279
 9225SOL    HW128574   4.653   6.901   6.193
 9225SOL    HW228575   4.686   6.826   6.335
 9226SOL     OW28576   0.854   0.057   1.157
 9226SOL    HW128577   0.766   0.096   1.133
 9226SOL    HW228578   0.846   0.004   1.241
 9227SOL     OW28579   2.598   5.334   1.048
 9227SOL    HW128580   2.585   5.375   1.138
 9227SOL    HW228581   2.605   5.406   0.979
 9228SOL     OW28582   2.498   2.541   5.755
 9228SOL    HW128583   2.458   2.457   5.718
 9228SOL    HW228584   2.574   2.570   5.697
 9229SOL     OW28585   0.082   4.546   6.655
 9229SOL    HW128586   0.032   4.560   6.570
 9229SOL    HW228587   0.102   4.448   6.667
 9230SOL     OW28588   4.811   2.389   4.103
 9230SOL    HW128589   4.764   2.301   4.091
 9230SOL    HW228590   4.902   2.383   4.064
 9231SOL     OW28591   0.698   5.579   5.134
 9231SOL    HW128592   0.667   5.663   5.089
 9231SOL    HW228593   0.785   5.550   5.093
 9232SOL     OW28594   2.200   5.816   1.685
 9232SOL    HW128595   2.155   5.744   1.738
 9232SOL    HW228596   2.229   5.889   1.747
 9233SOL     OW28597   0.613   0.559   0.429
 9233SOL    HW128598   0.596   0.527   0.522
 9233SOL    HW228599   0.567   0.646   0.414
 9234SOL     OW28600   2.421   4.687   0.687
 9234SOL    HW128601   2.416   4.594   0.652
 9234SOL    HW228602   2.382   4.750   0.619
 9235SOL     OW28603   2.430   2.621   3.612
 9235SOL    HW128604   2.414   2.523   3.600
 9235SOL    HW228605   2.501   2.651   3.550
 9236SOL     OW28606   1.894   2.953   6.589
 9236SOL    HW128607   1.912   3.050   6.573
 9236SOL    HW228608   1.816   2.943   6.650
 9237SOL     OW28609   5.716   5.557   3.380
 9237SOL    HW128610   5.805   5.601   3.395
 9237SOL    HW228611   5.706   5.534   3.284
 9238SOL     OW28612   1.410   3.334   4.948
 9238SOL    HW128613   1.342   3.314   5.018
 9238SOL    HW228614   1.420   3.256   4.887
 9239SOL     OW28615   0.519   4.585   0.620
 9239SOL    HW128616   0.592   4.647   0.591
 9239SOL    HW228617   0.529   4.566   0.718
 9240SOL     OW28618   4.855   2.889   2.710
 9240SOL    HW128619   4.880   2.794   2.691
 9240SOL    HW228620   4.873   2.944   2.629
 9241SOL     OW28621   6.426   6.506   0.430
 9241SOL    HW128622   6.492   6.546   0.494
 9241SOL    HW228623   6.335   6.541   0.450
 9242SOL     OW28624   1.506   2.308   1.894
 9242SOL    HW128625   1.439   2.375   1.923
 9242SOL    HW228626   1.579   2.303   1.962
 9243SOL     OW28627   0.743   0.250   1.613
 9243SOL    HW128628   0.765   0.343   1.644
 9243SOL    HW228629   0.754   0.186   1.688
 9244SOL     OW28630   3.667   6.568   5.137
 9244SOL    HW128631   3.667   6.608   5.229
 9244SOL    HW228632   3.706   6.634   5.072
 9245SOL     OW28633   0.930   4.182   3.341
 9245SOL    HW128634   1.009   4.218   3.390
 9245SOL    HW228635   0.918   4.232   3.255
 9246SOL     OW28636   6.207   0.355   4.387
 9246SOL    HW128637   6.127   0.412   4.405
 9246SOL    HW228638   6.288   0.412   4.376
 9247SOL     OW28639   3.673   5.541   2.981
 9247SOL    HW128640   3.691   5.607   2.908
 9247SOL    HW228641   3.689   5.449   2.946
 9248SOL     OW28642   2.772   1.692   5.259
 9248SOL    HW128643   2.781   1.598   5.228
 9248SOL    HW228644   2.721   1.745   5.192
 9249SOL     OW28645   3.779   4.521   1.669
 9249SOL    HW128646   3.694   4.548   1.715
 9249SOL    HW228647   3.819   4.601   1.624
 9250SOL     OW28648   6.857   3.864   4.500
 9250SOL    HW128649   6.938   3.915   4.526
 9250SOL    HW228650   6.852   3.857   4.400
 9251SOL     OW28651   4.034   2.702   0.903
 9251SOL    HW128652   4.118   2.695   0.957
 9251SOL    HW228653   3.990   2.790   0.921
 9252SOL     OW28654   4.344   0.657   5.319
 9252SOL    HW128655   4.270   0.684   5.381
 9252SOL    HW228656   4.319   0.677   5.225
 9253SOL     OW28657   0.560   4.716   5.724
 9253SOL    HW128658   0.527   4.810   5.718
 9253SOL    HW228659   0.634   4.702   5.658
 9254SOL     OW28660   6.271   4.377   2.668
 9254SOL    HW128661   6.346   4.391   2.733
 9254SOL    HW228662   6.184   4.375   2.719
 9255SOL     OW28663   6.413   4.352   0.489
 9255SOL    HW128664   6.469   4.271   0.469
 9255SOL    HW228665   6.324   4.323   0.526
 9256SOL     OW28666   2.088   6.756   1.843
 9256SOL    HW128667   2.156   6.811   1.891
 9256SOL    HW228668   2.094   6.774   1.745
 9257SOL     OW28669   0.315   5.902   3.724
 9257SOL    HW128670   0.216   5.913   3.727
 9257SOL    HW228671   0.359   5.992   3.726
 9258SOL     OW28672   3.992   3.589   0.481
 9258SOL    HW128673   4.082   3.559   0.513
 9258SOL    HW228674   3.977   3.684   0.509
 9259SOL     OW28675   1.804   1.250   6.430
 9259SOL    HW128676   1.738   1.324   6.442
 9259SOL    HW228677   1.893   1.279   6.467
 9260SOL     OW28678   5.757   2.932   5.855
 9260SOL    HW128679   5.828   2.946   5.924
 9260SOL    HW228680   5.719   3.020   5.827
 9261SOL     OW28681   4.288   1.881   0.840
 9261SOL    HW128682   4.338   1.943   0.900
 9261SOL    HW228683   4.192   1.880   0.867
 9262SOL     OW28684   6.753   6.633   4.066
 9262SOL    HW128685   6.776   6.617   3.970
 9262SOL    HW228686   6.745   6.545   4.113
 9263SOL     OW28687   2.697   4.611   3.218
 9263SOL    HW128688   2.761   4.649   3.151
 9263SOL    HW228689   2.622   4.566   3.170
 9264SOL     OW28690   5.535   4.005   6.836
 9264SOL    HW128691   5.447   3.964   6.860
 9264SOL    HW228692   5.572   3.959   6.755
 9265SOL     OW28693   4.189   2.101   6.914
 9265SOL    HW128694   4.191   2.187   6.966
 9265SOL    HW228695   4.278   2.055   6.923
 9266SOL     OW28696   0.677   4.491   1.650
 9266SOL    HW128697   0.685   4.393   1.671
 9266SOL    HW228698   0.588   4.524   1.683
 9267SOL     OW28699   0.786   1.153   3.696
 9267SOL    HW128700   0.863   1.146   3.632
 9267SOL    HW228701   0.728   1.230   3.672
 9268SOL     OW28702   0.955   7.003   1.820
 9268SOL    HW128703   0.998   6.982   1.908
 9268SOL    HW228704   1.024   6.997   1.748
 9269SOL     OW28705   4.346   6.970   0.405
 9269SOL    HW128706   4.409   6.996   0.478
 9269SOL    HW228707   4.397   6.930   0.329
 9270SOL     OW28708   3.521   1.011   6.499
 9270SOL    HW128709   3.495   1.013   6.402
 9270SOL    HW228710   3.615   0.976   6.507
 9271SOL     OW28711   1.092   0.470   0.041
 9271SOL    HW128712   1.137   0.399   0.094
 9271SOL    HW228713   0.999   0.441   0.018
 9272SOL     OW28714   6.496   6.662   6.209
 9272SOL    HW128715   6.422   6.689   6.271
 9272SOL    HW228716   6.471   6.577   6.163
 9273SOL     OW28717   5.239   5.735   3.883
 9273SOL    HW128718   5.297   5.689   3.950
 9273SOL    HW228719   5.146   5.744   3.920
 9274SOL     OW28720   0.642   2.973   0.330
 9274SOL    HW128721   0.603   2.902   0.271
 9274SOL    HW228722   0.668   2.933   0.417
 9275SOL     OW28723   0.930   6.742   1.110
 9275SOL    HW128724   0.935   6.811   1.038
 9275SOL    HW228725   0.918   6.787   1.199
 9276SOL     OW28726   3.230   4.318   0.382
 9276SOL    HW128727   3.289   4.285   0.456
 9276SOL    HW228728   3.180   4.241   0.342
 9277SOL     OW28729   4.308   4.847   2.324
 9277SOL    HW128730   4.255   4.766   2.298
 9277SOL    HW228731   4.405   4.825   2.321
 9278SOL     OW28732   0.328   0.876   4.276
 9278SOL    HW128733   0.297   0.851   4.184
 9278SOL    HW228734   0.368   0.795   4.321
 9279SOL     OW28735   3.740   5.166   1.459
 9279SOL    HW128736   3.647   5.132   1.465
 9279SOL    HW228737   3.775   5.152   1.366
 9280SOL     OW28738   1.377   1.244   3.046
 9280SOL    HW128739   1.294   1.211   3.091
 9280SOL    HW228740   1.447   1.172   3.048
 9281SOL     OW28741   3.411   3.803   6.561
 9281SOL    HW128742   3.318   3.836   6.546
 9281SOL    HW228743   3.429   3.796   6.659
 9282SOL     OW28744   3.322   0.242   4.610
 9282SOL    HW128745   3.387   0.265   4.683
 9282SOL    HW228746   3.249   0.310   4.608
 9283SOL     OW28747   4.881   6.357   6.221
 9283SOL    HW128748   4.875   6.371   6.319
 9283SOL    HW228749   4.831   6.274   6.195
 9284SOL     OW28750   3.075   4.072   4.998
 9284SOL    HW128751   3.048   4.118   5.083
 9284SOL    HW228752   3.125   4.136   4.940
 9285SOL     OW28753   6.245   3.362   2.401
 9285SOL    HW128754   6.322   3.396   2.346
 9285SOL    HW228755   6.199   3.288   2.352
 9286SOL     OW28756   4.601   6.216   0.881
 9286SOL    HW128757   4.570   6.125   0.854
 9286SOL    HW228758   4.532   6.258   0.940
 9287SOL     OW28759   2.759   4.791   5.831
 9287SOL    HW128760   2.724   4.739   5.753
 9287SOL    HW228761   2.735   4.887   5.821
 9288SOL     OW28762   4.334   2.381   4.109
 9288SOL    HW128763   4.344   2.438   4.191
 9288SOL    HW228764   4.398   2.412   4.039
 9289SOL     OW28765   4.342   6.277   6.511
 9289SOL    HW128766   4.382   6.326   6.588
 9289SOL    HW228767   4.245   6.259   6.529
 9290SOL     OW28768   5.457   0.491   5.143
 9290SOL    HW128769   5.413   0.403   5.126
 9290SOL    HW228770   5.550   0.488   5.107
 9291SOL     OW28771   1.175   5.651   5.468
 9291SOL    HW128772   1.234   5.596   5.527
 9291SOL    HW228773   1.122   5.590   5.408
 9292SOL     OW28774   1.294   1.173   5.938
 9292SOL    HW128775   1.347   1.092   5.965
 9292SOL    HW228776   1.311   1.193   5.842
 9293SOL     OW28777   4.369   2.864   5.852
 9293SOL    HW128778   4.380   2.871   5.753
 9293SOL    HW228779   4.439   2.803   5.889
 9294SOL     OW28780   4.511   0.788   0.198
 9294SOL    HW128781   4.462   0.702   0.187
 9294SOL    HW228782   4.571   0.802   0.119
 9295SOL     OW28783   0.350   0.717   4.893
 9295SOL    HW128784   0.357   0.650   4.819
 9295SOL    HW228785   0.442   0.745   4.920
 9296SOL     OW28786   2.840   4.380   0.728
 9296SOL    HW128787   2.815   4.317   0.801
 9296SOL    HW228788   2.783   4.363   0.647
 9297SOL     OW28789   6.670   6.465   3.152
 9297SOL    HW128790   6.746   6.423   3.103
 9297SOL    HW228791   6.592   6.403   3.153
 9298SOL     OW28792   1.375   6.478   5.874
 9298SOL    HW128793   1.462   6.488   5.825
 9298SOL    HW228794   1.392   6.481   5.973
 9299SOL     OW28795   1.896   2.298   4.835
 9299SOL    HW128796   1.946   2.352   4.767
 9299SOL    HW228797   1.923   2.202   4.826
 9300SOL     OW28798   1.534   5.778   5.465
 9300SOL    HW128799   1.620   5.811   5.504
 9300SOL    HW228800   1.490   5.716   5.530
 9301SOL     OW28801   0.297   3.975   4.650
 9301SOL    HW128802   0.337   3.891   4.687
 9301SOL    HW228803   0.360   4.015   4.583
 9302SOL     OW28804   2.141   3.143   4.949
 9302SOL    HW128805   2.203   3.065   4.936
 9302SOL    HW228806   2.090   3.160   4.865
 9303SOL     OW28807   3.004   4.083   0.135
 9303SOL    HW128808   2.915   4.089   0.180
 9303SOL    HW228809   3.057   4.008   0.176
 9304SOL     OW28810   5.156   4.779   0.870
 9304SOL    HW128811   5.240   4.751   0.916
 9304SOL    HW228812   5.146   4.727   0.785
 9305SOL     OW28813   2.733   1.410   0.462
 9305SOL    HW128814   2.700   1.368   0.377
 9305SOL    HW228815   2.747   1.340   0.531
 9306SOL     OW28816   0.429   4.227   5.133
 9306SOL    HW128817   0.340   4.271   5.115
 9306SOL    HW228818   0.431   4.137   5.090
 9307SOL     OW28819   2.385   3.056   1.098
 9307SOL    HW128820   2.315   3.127   1.102
 9307SOL    HW228821   2.470   3.095   1.063
 9308SOL     OW28822   1.608   3.812   1.492
 9308SOL    HW128823   1.678   3.835   1.425
 9308SOL    HW228824   1.632   3.851   1.580
 9309SOL     OW28825   4.803   5.945   5.770
 9309SOL    HW128826   4.813   5.887   5.850
 9309SOL    HW228827   4.731   6.013   5.787
 9310SOL     OW28828   4.180   5.579   5.784
 9310SOL    HW128829   4.250   5.509   5.793
 9310SOL    HW228830   4.202   5.656   5.844
 9311SOL     OW28831   4.490   3.497   1.584
 9311SOL    HW128832   4.484   3.401   1.611
 9311SOL    HW228833   4.486   3.504   1.484
 9312SOL     OW28834   1.087   2.014   1.077
 9312SOL    HW128835   1.163   2.052   1.130
 9312SOL    HW228836   1.026   2.088   1.050
 9313SOL     OW28837   1.447   6.777   1.802
 9313SOL    HW128838   1.451   6.812   1.709
 9313SOL    HW228839   1.447   6.677   1.800
 9314SOL     OW28840   4.775   2.514   0.676
 9314SOL    HW128841   4.752   2.541   0.769
 9314SOL    HW228842   4.767   2.415   0.666
 9315SOL     OW28843   5.593   1.160   6.764
 9315SOL    HW128844   5.679   1.211   6.760
 9315SOL    HW228845   5.544   1.171   6.678
 9316SOL     OW28846   4.981   0.871   5.522
 9316SOL    HW128847   5.028   0.814   5.589
 9316SOL    HW228848   4.883   0.853   5.525
 9317SOL     OW28849   2.715   5.680   4.149
 9317SOL    HW128850   2.713   5.753   4.218
 9317SOL    HW228851   2.692   5.593   4.192
 9318SOL     OW28852   4.504   6.330   0.551
 9318SOL    HW128853   4.476   6.397   0.620
 9318SOL    HW228854   4.510   6.374   0.462
 9319SOL     OW28855   2.776   4.160   0.878
 9319SOL    HW128856   2.752   4.083   0.819
 9319SOL    HW228857   2.721   4.157   0.961
 9320SOL     OW28858   5.648   0.160   6.195
 9320SOL    HW128859   5.683   0.230   6.133
 9320SOL    HW228860   5.723   0.129   6.255
 9321SOL     OW28861   0.193   3.062   5.557
 9321SOL    HW128862   0.267   2.995   5.552
 9321SOL    HW228863   0.205   3.119   5.638
 9322SOL     OW28864   6.259   4.009   5.734
 9322SOL    HW128865   6.214   3.980   5.649
 9322SOL    HW228866   6.272   3.929   5.793
 9323SOL     OW28867   1.367   3.477   3.451
 9323SOL    HW128868   1.405   3.569   3.460
 9323SOL    HW228869   1.309   3.474   3.369
 9324SOL     OW28870   1.271   4.488   1.202
 9324SOL    HW128871   1.345   4.550   1.177
 9324SOL    HW228872   1.290   4.447   1.291
 9325SOL     OW28873   1.767   5.212   2.546
 9325SOL    HW128874   1.847   5.263   2.515
 9325SOL    HW228875   1.797   5.134   2.602
 9326SOL     OW28876   3.969   4.288   0.414
 9326SOL    HW128877   4.068   4.296   0.425
 9326SOL    HW228878   3.940   4.336   0.332
 9327SOL     OW28879   4.570   0.914   3.144
 9327SOL    HW128880   4.594   0.846   3.214
 9327SOL    HW228881   4.654   0.950   3.102
 9328SOL     OW28882   2.916   6.425   4.058
 9328SOL    HW128883   2.956   6.337   4.034
 9328SOL    HW228884   2.830   6.410   4.107
 9329SOL     OW28885   0.225   5.911   6.248
 9329SOL    HW128886   0.172   5.991   6.279
 9329SOL    HW228887   0.322   5.935   6.244
 9330SOL     OW28888   6.723   0.153   0.144
 9330SOL    HW128889   6.628   0.141   0.116
 9330SOL    HW228890   6.784   0.112   0.076
 9331SOL     OW28891   1.709   3.146   4.885
 9331SOL    HW128892   1.795   3.197   4.881
 9331SOL    HW228893   1.699   3.103   4.974
 9332SOL     OW28894   4.153   5.864   0.832
 9332SOL    HW128895   4.173   5.957   0.802
 9332SOL    HW228896   4.238   5.816   0.853
 9333SOL     OW28897   3.368   4.926   0.358
 9333SOL    HW128898   3.397   4.876   0.277
 9333SOL    HW228899   3.293   4.989   0.334
 9334SOL     OW28900   4.964   6.782   5.345
 9334SOL    HW128901   4.929   6.711   5.407
 9334SOL    HW228902   4.934   6.762   5.252
 9335SOL     OW28903   2.494   1.795   1.421
 9335SOL    HW128904   2.429   1.857   1.464
 9335SOL    HW228905   2.569   1.848   1.381
 9336SOL     OW28906   6.537   0.853   5.037
 9336SOL    HW128907   6.525   0.851   4.938
 9336SOL    HW228908   6.461   0.903   5.079
 9337SOL     OW28909   4.559   0.466   5.909
 9337SOL    HW128910   4.548   0.546   5.967
 9337SOL    HW228911   4.612   0.396   5.958
 9338SOL     OW28912   6.741   6.433   0.540
 9338SOL    HW128913   6.705   6.526   0.552
 9338SOL    HW228914   6.764   6.418   0.444
 9339SOL     OW28915   5.722   4.784   6.432
 9339SOL    HW128916   5.737   4.883   6.436
 9339SOL    HW228917   5.786   4.744   6.366
 9340SOL     OW28918   3.651   6.084   2.604
 9340SOL    HW128919   3.644   6.064   2.506
 9340SOL    HW228920   3.559   6.087   2.643
 9341SOL     OW28921   6.184   4.207   6.449
 9341SOL    HW128922   6.172   4.180   6.545
 9341SOL    HW228923   6.095   4.205   6.403
 9342SOL     OW28924   2.552   0.352   4.359
 9342SOL    HW128925   2.508   0.326   4.445
 9342SOL    HW228926   2.635   0.299   4.347
 9343SOL     OW28927   4.728   4.499   2.044
 9343SOL    HW128928   4.667   4.421   2.056
 9343SOL    HW228929   4.773   4.520   2.130
 9344SOL     OW28930   5.376   5.408   5.923
 9344SOL    HW128931   5.453   5.427   5.863
 9344SOL    HW228932   5.349   5.312   5.913
 9345SOL     OW28933   6.834   6.176   0.019
 9345SOL    HW128934   6.872   6.129   6.965
 9345SOL    HW228935   6.864   6.130   0.102
 9346SOL     OW28936   5.432   6.972   2.058
 9346SOL    HW128937   5.443   6.873   2.070
 9346SOL    HW228938   5.448   6.996   1.962
 9347SOL     OW28939   3.624   5.675   1.358
 9347SOL    HW128940   3.526   5.655   1.352
 9347SOL    HW228941   3.647   5.751   1.297
 9348SOL     OW28942   2.398   6.388   2.746
 9348SOL    HW128943   2.379   6.420   2.838
 9348SOL    HW228944   2.376   6.291   2.738
 9349SOL     OW28945   6.593   5.772   2.518
 9349SOL    HW128946   6.609   5.868   2.538
 9349SOL    HW228947   6.534   5.764   2.437
 9350SOL     OW28948   0.020   1.576   4.983
 9350SOL    HW128949   0.102   1.519   4.995
 9350SOL    HW228950   7.001   1.551   4.897
 9351SOL     OW28951   2.374   0.873   4.956
 9351SOL    HW128952   2.325   0.825   5.028
 9351SOL    HW228953   2.469   0.841   4.952
 9352SOL     OW28954   2.050   2.634   5.627
 9352SOL    HW128955   2.141   2.658   5.593
 9352SOL    HW228956   1.983   2.702   5.595
 9353SOL     OW28957   1.446   4.077   1.576
 9353SOL    HW128958   1.412   4.007   1.514
 9353SOL    HW228959   1.521   4.128   1.532
 9354SOL     OW28960   6.519   2.072   1.148
 9354SOL    HW128961   6.495   1.979   1.122
 9354SOL    HW228962   6.612   2.093   1.117
 9355SOL     OW28963   6.818   0.618   4.265
 9355SOL    HW128964   6.809   0.620   4.166
 9355SOL    HW228965   6.860   0.703   4.297
 9356SOL     OW28966   4.383   5.365   1.976
 9356SOL    HW128967   4.302   5.379   2.033
 9356SOL    HW228968   4.377   5.423   1.895
 9357SOL     OW28969   3.161   3.608   0.268
 9357SOL    HW128970   3.093   3.566   0.207
 9357SOL    HW228971   3.202   3.538   0.325
 9358SOL     OW28972   5.829   4.452   1.485
 9358SOL    HW128973   5.763   4.509   1.534
 9358SOL    HW228974   5.871   4.387   1.548
 9359SOL     OW28975   6.996   4.111   6.757
 9359SOL    HW128976   6.960   4.160   6.836
 9359SOL    HW228977   6.990   4.012   6.772
 9360SOL     OW28978   1.875   0.054   5.375
 9360SOL    HW128979   1.884   0.137   5.429
 9360SOL    HW228980   1.922   0.065   5.287
 9361SOL     OW28981   3.079   6.328   2.711
 9361SOL    HW128982   3.108   6.403   2.771
 9361SOL    HW228983   3.117   6.242   2.744
 9362SOL     OW28984   2.463   0.997   2.491
 9362SOL    HW128985   2.560   0.978   2.509
 9362SOL    HW228986   2.433   0.945   2.412
 9363SOL     OW28987   3.354   5.655   2.280
 9363SOL    HW128988   3.349   5.598   2.198
 9363SOL    HW228989   3.389   5.601   2.356
 9364SOL     OW28990   4.531   2.539   6.171
 9364SOL    HW128991   4.442   2.553   6.214
 9364SOL    HW228992   4.594   2.496   6.236
 9365SOL     OW28993   2.643   2.444   5.066
 9365SOL    HW128994   2.616   2.516   5.001
 9365SOL    HW228995   2.704   2.483   5.135
 9366SOL     OW28996   3.299   1.697   0.458
 9366SOL    HW128997   3.211   1.654   0.477
 9366SOL    HW228998   3.286   1.793   0.434
 9367SOL     OW28999   0.033   5.179   3.908
 9367SOL    HW129000   0.125   5.158   3.940
 9367SOL    HW229001   0.029   5.274   3.878
 9368SOL     OW29002   3.660   2.104   2.533
 9368SOL    HW129003   3.579   2.122   2.590
 9368SOL    HW229004   3.686   2.008   2.542
 9369SOL     OW29005   6.581   1.560   6.296
 9369SOL    HW129006   6.498   1.545   6.242
 9369SOL    HW229007   6.655   1.589   6.236
 9370SOL     OW29008   5.960   1.113   3.044
 9370SOL    HW129009   5.963   1.023   3.000
 9370SOL    HW229010   6.021   1.176   2.995
 9371SOL     OW29011   1.741   5.359   0.758
 9371SOL    HW129012   1.804   5.436   0.754
 9371SOL    HW229013   1.647   5.392   0.761
 9372SOL     OW29014   5.562   6.232   3.177
 9372SOL    HW129015   5.479   6.260   3.129
 9372SOL    HW229016   5.637   6.294   3.154
 9373SOL     OW29017   4.300   1.851   3.078
 9373SOL    HW129018   4.347   1.939   3.067
 9373SOL    HW229019   4.206   1.859   3.044
 9374SOL     OW29020   5.606   2.562   0.132
 9374SOL    HW129021   5.521   2.572   0.080
 9374SOL    HW229022   5.603   2.623   0.212
 9375SOL     OW29023   6.934   1.252   3.410
 9375SOL    HW129024   6.884   1.278   3.328
 9375SOL    HW229025   7.018   1.204   3.384
 9376SOL     OW29026   3.666   3.715   1.014
 9376SOL    HW129027   3.728   3.758   0.949
 9376SOL    HW229028   3.616   3.641   0.969
 9377SOL     OW29029   6.668   5.771   3.410
 9377SOL    HW129030   6.598   5.700   3.410
 9377SOL    HW229031   6.730   5.757   3.333
 9378SOL     OW29032   2.644   0.025   5.570
 9378SOL    HW129033   2.602   0.097   5.515
 9378SOL    HW229034   2.590   0.010   5.653
 9379SOL     OW29035   4.863   4.573   4.861
 9379SOL    HW129036   4.803   4.557   4.939
 9379SOL    HW229037   4.811   4.562   4.776
 9380SOL     OW29038   6.362   6.541   5.572
 9380SOL    HW129039   6.437   6.548   5.507
 9380SOL    HW229040   6.300   6.468   5.545
 9381SOL     OW29041   2.964   3.010   5.478
 9381SOL    HW129042   3.052   3.021   5.524
 9381SOL    HW229043   2.926   3.100   5.458
 9382SOL     OW29044   3.791   1.209   3.354
 9382SOL    HW129045   3.845   1.126   3.364
 9382SOL    HW229046   3.731   1.221   3.433
 9383SOL     OW29047   3.660   5.886   4.579
 9383SOL    HW129048   3.623   5.920   4.666
 9383SOL    HW229049   3.618   5.797   4.559
 9384SOL     OW29050   4.095   5.822   2.302
 9384SOL    HW129051   4.025   5.890   2.325
 9384SOL    HW229052   4.180   5.846   2.350
 9385SOL     OW29053   4.169   1.919   2.722
 9385SOL    HW129054   4.125   1.923   2.811
 9385SOL    HW229055   4.166   2.009   2.679
 9386SOL     OW29056   3.323   6.091   4.146
 9386SOL    HW129057   3.270   6.011   4.119
 9386SOL    HW229058   3.356   6.139   4.065
 9387SOL     OW29059   4.312   6.968   1.245
 9387SOL    HW129060   4.263   6.881   1.244
 9387SOL    HW229061   4.355   6.981   1.334
 9388SOL     OW29062   1.780   6.263   2.491
 9388SOL    HW129063   1.834   6.202   2.549
 9388SOL    HW229064   1.786   6.233   2.396
 9389SOL     OW29065   2.472   0.204   5.063
 9389SOL    HW129066   2.468   0.304   5.052
 9389SOL    HW229067   2.542   0.167   5.003
 9390SOL     OW29068   3.837   5.842   3.095
 9390SOL    HW129069   3.790   5.926   3.066
 9390SOL    HW229070   3.916   5.826   3.036
 9391SOL     OW29071   1.957   0.847   5.550
 9391SOL    HW129072   1.997   0.797   5.473
 9391SOL    HW229073   1.878   0.899   5.518
 9392SOL     OW29074   0.417   6.797   4.368
 9392SOL    HW129075   0.388   6.761   4.279
 9392SOL    HW229076   0.358   6.758   4.439
 9393SOL     OW29077   3.687   1.843   4.337
 9393SOL    HW129078   3.734   1.848   4.249
 9393SOL    HW229079   3.623   1.920   4.345
 9394SOL     OW29080   5.907   2.471   3.383
 9394SOL    HW129081   5.875   2.434   3.295
 9394SOL    HW229082   6.007   2.472   3.384
 9395SOL     OW29083   2.980   1.992   0.517
 9395SOL    HW129084   2.995   2.068   0.454
 9395SOL    HW229085   2.902   2.013   0.577
 9396SOL     OW29086   0.225   6.581   4.478
 9396SOL    HW129087   0.298   6.587   4.546
 9396SOL    HW229088   0.153   6.647   4.499
 9397SOL     OW29089   2.668   0.248   0.113
 9397SOL    HW129090   2.688   0.336   0.070
 9397SOL    HW229091   2.657   0.261   0.212
 9398SOL     OW29092   2.014   0.550   6.959
 9398SOL    HW129093   2.023   0.457   6.996
 9398SOL    HW229094   2.081   0.610   7.003
 9399SOL     OW29095   0.021   1.932   0.181
 9399SOL    HW129096   6.995   1.897   0.259
 9399SOL    HW229097   0.118   1.913   0.194
 9400SOL     OW29098   5.129   3.798   1.952
 9400SOL    HW129099   5.203   3.830   1.894
 9400SOL    HW229100   5.051   3.860   1.945
 9401SOL     OW29101   2.696   6.684   3.727
 9401SOL    HW129102   2.685   6.684   3.627
 9401SOL    HW229103   2.720   6.592   3.758
 9402SOL     OW29104   1.722   4.582   5.502
 9402SOL    HW129105   1.742   4.571   5.405
 9402SOL    HW229106   1.793   4.639   5.545
 9403SOL     OW29107   4.998   1.746   2.973
 9403SOL    HW129108   5.051   1.829   2.953
 9403SOL    HW229109   5.055   1.666   2.955
 9404SOL     OW29110   1.443   4.528   6.648
 9404SOL    HW129111   1.479   4.603   6.703
 9404SOL    HW229112   1.517   4.463   6.630
 9405SOL     OW29113   6.718   6.996   2.204
 9405SOL    HW129114   6.695   0.025   2.285
 9405SOL    HW229115   6.761   6.911   2.233
 9406SOL     OW29116   0.316   1.273   6.047
 9406SOL    HW129117   0.241   1.216   6.013
 9406SOL    HW229118   0.324   1.354   5.989
 9407SOL     OW29119   2.683   6.926   2.595
 9407SOL    HW129120   2.598   6.941   2.545
 9407SOL    HW229121   2.747   6.875   2.537
 9408SOL     OW29122   3.536   1.681   5.904
 9408SOL    HW129123   3.524   1.775   5.935
 9408SOL    HW229124   3.486   1.619   5.965
 9409SOL     OW29125   4.762   4.224   4.700
 9409SOL    HW129126   4.693   4.273   4.753
 9409SOL    HW229127   4.820   4.171   4.761
 9410SOL     OW29128   3.527   5.520   1.738
 9410SOL    HW129129   3.521   5.530   1.639
 9410SOL    HW229130   3.452   5.462   1.770
 9411SOL     OW29131   3.474   4.693   1.055
 9411SOL    HW129132   3.473   4.594   1.050
 9411SOL    HW229133   3.387   4.726   1.092
 9412SOL     OW29134   0.729   3.748   1.542
 9412SOL    HW129135   0.640   3.753   1.588
 9412SOL    HW229136   0.728   3.805   1.460
 9413SOL     OW29137   4.415   5.713   5.215
 9413SOL    HW129138   4.429   5.707   5.116
 9413SOL    HW229139   4.317   5.717   5.235
 9414SOL     OW29140   3.360   1.759   3.304
 9414SOL    HW129141   3.427   1.829   3.332
 9414SOL    HW229142   3.377   1.733   3.209
 9415SOL     OW29143   2.310   6.152   2.652
 9415SOL    HW129144   2.268   6.147   2.562
 9415SOL    HW229145   2.242   6.132   2.722
 9416SOL     OW29146   0.446   1.625   1.652
 9416SOL    HW129147   0.479   1.716   1.626
 9416SOL    HW229148   0.488   1.598   1.739
 9417SOL     OW29149   2.816   0.489   5.724
 9417SOL    HW129150   2.787   0.412   5.780
 9417SOL    HW229151   2.843   0.565   5.783
 9418SOL     OW29152   2.426   6.426   0.602
 9418SOL    HW129153   2.355   6.380   0.654
 9418SOL    HW229154   2.487   6.357   0.561
 9419SOL     OW29155   3.252   6.279   5.131
 9419SOL    HW129156   3.308   6.216   5.077
 9419SOL    HW229157   3.231   6.237   5.220
 9420SOL     OW29158   0.723   1.916   5.133
 9420SOL    HW129159   0.662   1.865   5.193
 9420SOL    HW229160   0.780   1.853   5.081
 9421SOL     OW29161   2.335   6.024   5.567
 9421SOL    HW129162   2.430   6.034   5.597
 9421SOL    HW229163   2.331   6.030   5.467
 9422SOL     OW29164   5.347   0.358   2.090
 9422SOL    HW129165   5.307   0.269   2.113
 9422SOL    HW229166   5.446   0.353   2.100
 9423SOL     OW29167   4.111   0.631   2.907
 9423SOL    HW129168   4.109   0.572   2.826
 9423SOL    HW229169   4.063   0.716   2.887
 9424SOL     OW29170   4.948   0.446   5.489
 9424SOL    HW129171   4.932   0.523   5.427
 9424SOL    HW229172   4.954   0.361   5.437
 9425SOL     OW29173   7.021   3.502   6.140
 9425SOL    HW129174   0.079   3.467   6.098
 9425SOL    HW229175   0.001   3.602   6.147
 9426SOL     OW29176   2.815   1.611   0.173
 9426SOL    HW129177   2.900   1.661   0.161
 9426SOL    HW229178   2.748   1.668   0.220
 9427SOL     OW29179   2.384   4.709   5.249
 9427SOL    HW129180   2.419   4.795   5.287
 9427SOL    HW229181   2.291   4.724   5.215
 9428SOL     OW29182   5.296   0.117   1.675
 9428SOL    HW129183   5.351   0.037   1.651
 9428SOL    HW229184   5.356   0.193   1.701
 9429SOL     OW29185   1.420   4.571   1.791
 9429SOL    HW129186   1.320   4.571   1.783
 9429SOL    HW229187   1.453   4.477   1.797
 9430SOL     OW29188   6.792   6.658   1.746
 9430SOL    HW129189   6.721   6.723   1.719
 9430SOL    HW229190   6.756   6.596   1.815
 9431SOL     OW29191   5.501   4.283   0.660
 9431SOL    HW129192   5.484   4.287   0.562
 9431SOL    HW229193   5.598   4.262   0.676
 9432SOL     OW29194   6.872   0.328   3.556
 9432SOL    HW129195   6.891   0.264   3.630
 9432SOL    HW229196   6.774   0.347   3.553
 9433SOL     OW29197   3.187   4.877   4.215
 9433SOL    HW129198   3.123   4.839   4.282
 9433SOL    HW229199   3.147   4.872   4.124
 9434SOL     OW29200   5.602   4.641   3.596
 9434SOL    HW129201   5.611   4.708   3.522
 9434SOL    HW229202   5.634   4.682   3.682
 9435SOL     OW29203   1.256   1.434   4.165
 9435SOL    HW129204   1.223   1.493   4.091
 9435SOL    HW229205   1.336   1.475   4.208
 9436SOL     OW29206   0.879   4.283   1.967
 9436SOL    HW129207   0.847   4.227   2.044
 9436SOL    HW229208   0.952   4.234   1.920
 9437SOL     OW29209   1.431   6.083   3.466
 9437SOL    HW129210   1.390   5.996   3.439
 9437SOL    HW229211   1.408   6.104   3.561
 9438SOL     OW29212   0.981   6.136   1.185
 9438SOL    HW129213   1.009   6.129   1.089
 9438SOL    HW229214   0.916   6.210   1.195
 9439SOL     OW29215   0.492   3.424   2.078
 9439SOL    HW129216   0.507   3.328   2.054
 9439SOL    HW229217   0.395   3.440   2.093
 9440SOL     OW29218   4.909   5.664   4.429
 9440SOL    HW129219   4.908   5.564   4.429
 9440SOL    HW229220   4.970   5.697   4.358
 9441SOL     OW29221   1.463   5.306   4.930
 9441SOL    HW129222   1.506   5.221   4.961
 9441SOL    HW229223   1.364   5.300   4.941
 9442SOL     OW29224   6.001   2.252   0.216
 9442SOL    HW129225   6.054   2.330   0.181
 9442SOL    HW229226   5.990   2.184   0.144
 9443SOL     OW29227   2.256   4.732   1.222
 9443SOL    HW129228   2.333   4.752   1.284
 9443SOL    HW229229   2.285   4.665   1.153
 9444SOL     OW29230   0.728   3.234   6.699
 9444SOL    HW129231   0.670   3.205   6.622
 9444SOL    HW229232   0.764   3.325   6.681
 9445SOL     OW29233   5.262   3.019   1.777
 9445SOL    HW129234   5.265   3.013   1.677
 9445SOL    HW229235   5.230   3.110   1.804
 9446SOL     OW29236   6.452   7.009   3.357
 9446SOL    HW129237   6.431   0.078   3.333
 9446SOL    HW229238   6.515   6.971   3.289
 9447SOL     OW29239   5.657   3.586   3.086
 9447SOL    HW129240   5.709   3.621   3.008
 9447SOL    HW229241   5.664   3.486   3.089
 9448SOL     OW29242   5.399   6.211   6.318
 9448SOL    HW129243   5.466   6.231   6.247
 9448SOL    HW229244   5.308   6.240   6.288
 9449SOL     OW29245   6.923   5.560   6.373
 9449SOL    HW129246   6.828   5.591   6.373
 9449SOL    HW229247   6.984   5.638   6.374
 9450SOL     OW29248   3.261   5.163   5.083
 9450SOL    HW129249   3.290   5.153   4.988
 9450SOL    HW229250   3.245   5.260   5.102
 9451SOL     OW29251   3.969   5.550   5.990
 9451SOL    HW129252   3.940   5.492   5.913
 9451SOL    HW229253   4.023   5.626   5.955
 9452SOL     OW29254   1.789   3.224   1.368
 9452SOL    HW129255   1.740   3.305   1.400
 9452SOL    HW229256   1.746   3.191   1.284
 9453SOL     OW29257   2.096   4.275   3.291
 9453SOL    HW129258   2.010   4.227   3.271
 9453SOL    HW229259   2.076   4.363   3.334
 9454SOL     OW29260   2.026   3.397   6.068
 9454SOL    HW129261   2.014   3.309   6.022
 9454SOL    HW229262   2.058   3.465   6.002
 9455SOL     OW29263   3.397   1.391   2.655
 9455SOL    HW129264   3.299   1.393   2.677
 9455SOL    HW229265   3.411   1.338   2.571
 9456SOL     OW29266   0.394   4.664   0.212
 9456SOL    HW129267   0.397   4.727   0.290
 9456SOL    HW229268   0.373   4.572   0.245
 9457SOL     OW29269   1.559   3.571   6.397
 9457SOL    HW129270   1.658   3.588   6.393
 9457SOL    HW229271   1.515   3.621   6.322
 9458SOL     OW29272   1.524   4.233   6.586
 9458SOL    HW129273   1.506   4.186   6.672
 9458SOL    HW229274   1.462   4.198   6.516
 9459SOL     OW29275   6.280   5.071   2.327
 9459SOL    HW129276   6.248   5.057   2.233
 9459SOL    HW229277   6.258   5.164   2.356
 9460SOL     OW29278   0.057   1.848   4.971
 9460SOL    HW129279   6.997   1.900   4.963
 9460SOL    HW229280   0.036   1.750   4.963
 9461SOL     OW29281   6.479   1.842   3.346
 9461SOL    HW129282   6.474   1.841   3.446
 9461SOL    HW229283   6.394   1.804   3.308
 9462SOL     OW29284   2.139   3.866   3.033
 9462SOL    HW129285   2.137   3.886   3.132
 9462SOL    HW229286   2.046   3.865   2.998
 9463SOL     OW29287   0.405   1.271   1.366
 9463SOL    HW129288   0.433   1.176   1.353
 9463SOL    HW229289   0.353   1.302   1.287
 9464SOL     OW29290   5.328   6.532   6.989
 9464SOL    HW129291   5.290   6.616   0.003
 9464SOL    HW229292   5.414   6.553   6.942
 9465SOL     OW29293   6.972   0.322   3.304
 9465SOL    HW129294   6.940   0.401   3.253
 9465SOL    HW229295   6.941   0.328   3.399
 9466SOL     OW29296   4.076   3.915   5.157
 9466SOL    HW129297   4.150   3.950   5.215
 9466SOL    HW229298   4.021   3.992   5.122
 9467SOL     OW29299   1.247   2.784   1.403
 9467SOL    HW129300   1.247   2.881   1.429
 9467SOL    HW229301   1.326   2.738   1.443
 9468SOL     OW29302   5.642   2.528   5.939
 9468SOL    HW129303   5.586   2.609   5.955
 9468SOL    HW229304   5.678   2.530   5.845
 9469SOL     OW29305   6.189   5.262   1.508
 9469SOL    HW129306   6.097   5.234   1.479
 9469SOL    HW229307   6.210   5.351   1.469
 9470SOL     OW29308   5.712   3.200   6.391
 9470SOL    HW129309   5.673   3.149   6.314
 9470SOL    HW229310   5.638   3.246   6.440
 9471SOL     OW29311   6.298   2.534   5.312
 9471SOL    HW129312   6.385   2.559   5.354
 9471SOL    HW229313   6.223   2.577   5.362
 9472SOL     OW29314   6.583   3.825   4.511
 9472SOL    HW129315   6.537   3.763   4.448
 9472SOL    HW229316   6.682   3.819   4.497
 9473SOL     OW29317   3.659   6.439   5.510
 9473SOL    HW129318   3.654   6.537   5.491
 9473SOL    HW229319   3.729   6.397   5.452
 9474SOL     OW29320   6.468   3.760   1.312
 9474SOL    HW129321   6.553   3.789   1.356
 9474SOL    HW229322   6.404   3.726   1.380
 9475SOL     OW29323   3.322   3.439   0.453
 9475SOL    HW129324   3.262   3.493   0.512
 9475SOL    HW229325   3.398   3.402   0.508
 9476SOL     OW29326   3.083   3.411   4.656
 9476SOL    HW129327   3.007   3.466   4.690
 9476SOL    HW229328   3.100   3.335   4.719
 9477SOL     OW29329   0.230   3.444   2.135
 9477SOL    HW129330   0.160   3.375   2.154
 9477SOL    HW229331   0.197   3.534   2.163
 9478SOL     OW29332   6.040   3.902   6.268
 9478SOL    HW129333   6.134   3.930   6.289
 9478SOL    HW229334   6.030   3.889   6.169
 9479SOL     OW29335   5.549   6.620   6.170
 9479SOL    HW129336   5.508   6.705   6.136
 9479SOL    HW229337   5.648   6.627   6.165
 9480SOL     OW29338   4.423   4.315   6.745
 9480SOL    HW129339   4.501   4.311   6.683
 9480SOL    HW229340   4.452   4.353   6.833
 9481SOL     OW29341   5.830   4.023   1.490
 9481SOL    HW129342   5.730   4.022   1.495
 9481SOL    HW229343   5.868   3.955   1.552
 9482SOL     OW29344   6.569   1.212   3.237
 9482SOL    HW129345   6.548   1.221   3.139
 9482SOL    HW229346   6.485   1.193   3.287
 9483SOL     OW29347   1.836   1.422   0.955
 9483SOL    HW129348   1.819   1.363   1.034
 9483SOL    HW229349   1.750   1.463   0.926
 9484SOL     OW29350   4.875   1.849   3.315
 9484SOL    HW129351   4.855   1.770   3.257
 9484SOL    HW229352   4.938   1.821   3.388
 9485SOL     OW29353   0.810   0.183   1.940
 9485SOL    HW129354   0.843   0.208   2.032
 9485SOL    HW229355   0.856   0.100   1.911
 9486SOL     OW29356   2.153   5.148   1.232
 9486SOL    HW129357   2.163   5.072   1.296
 9486SOL    HW229358   2.241   5.194   1.222
 9487SOL     OW29359   3.050   3.417   3.788
 9487SOL    HW129360   2.989   3.483   3.832
 9487SOL    HW229361   3.136   3.412   3.839
 9488SOL     OW29362   3.015   6.648   1.613
 9488SOL    HW129363   2.958   6.635   1.694
 9488SOL    HW229364   2.976   6.596   1.537
 9489SOL     OW29365   3.515   4.001   1.336
 9489SOL    HW129366   3.560   4.089   1.319
 9489SOL    HW229367   3.485   3.997   1.431
 9490SOL     OW29368   5.642   6.935   0.432
 9490SOL    HW129369   5.738   6.959   0.445
 9490SOL    HW229370   5.586   7.017   0.437
 9491SOL     OW29371   6.585   4.621   4.503
 9491SOL    HW129372   6.546   4.582   4.587
 9491SOL    HW229373   6.641   4.552   4.457
 9492SOL     OW29374   3.381   3.670   2.654
 9492SOL    HW129375   3.339   3.703   2.569
 9492SOL    HW229376   3.421   3.748   2.703
 9493SOL     OW29377   4.397   5.158   3.699
 9493SOL    HW129378   4.300   5.158   3.676
 9493SOL    HW229379   4.439   5.242   3.665
 9494SOL     OW29380   4.356   3.654   0.973
 9494SOL    HW129381   4.451   3.635   0.994
 9494SOL    HW229382   4.345   3.752   0.953
 9495SOL     OW29383   6.390   2.575   4.121
 9495SOL    HW129384   6.336   2.660   4.119
 9495SOL    HW229385   6.382   2.533   4.211
 9496SOL     OW29386   5.189   4.664   0.314
 9496SOL    HW129387   5.247   4.624   0.243
 9496SOL    HW229388   5.203   4.763   0.317
 9497SOL     OW29389   4.886   3.976   0.497
 9497SOL    HW129390   4.980   3.947   0.517
 9497SOL    HW229391   4.833   3.896   0.467
 9498SOL     OW29392   5.203   0.508   6.545
 9498SOL    HW129393   5.166   0.600   6.563
 9498SOL    HW229394   5.127   0.444   6.532
 9499SOL     OW29395   2.559   3.369   5.582
 9499SOL    HW129396   2.517   3.428   5.513
 9499SOL    HW229397   2.592   3.425   5.658
 9500SOL     OW29398   3.589   6.844   1.813
 9500SOL    HW129399   3.535   6.828   1.730
 9500SOL    HW229400   3.531   6.887   1.883
 9501SOL     OW29401   3.193   1.518   4.449
 9501SOL    HW129402   3.213   1.612   4.478
 9501SOL    HW229403   3.095   1.507   4.436
 9502SOL     OW29404   0.201   1.961   5.187
 9502SOL    HW129405   0.181   1.905   5.268
 9502SOL    HW229406   0.147   1.928   5.110
 9503SOL     OW29407   0.488   1.140   1.770
 9503SOL    HW129408   0.583   1.140   1.739
 9503SOL    HW229409   0.434   1.202   1.713
 9504SOL     OW29410   0.191   2.291   1.173
 9504SOL    HW129411   0.209   2.357   1.246
 9504SOL    HW229412   0.274   2.278   1.119
 9505SOL     OW29413   5.182   3.847   3.286
 9505SOL    HW129414   5.173   3.748   3.288
 9505SOL    HW229415   5.153   3.882   3.197
 9506SOL     OW29416   0.656   3.093   6.168
 9506SOL    HW129417   0.641   3.170   6.229
 9506SOL    HW229418   0.750   3.095   6.134
 9507SOL     OW29419   1.769   1.273   3.793
 9507SOL    HW129420   1.867   1.271   3.811
 9507SOL    HW229421   1.726   1.342   3.851
 9508SOL     OW29422   6.473   2.689   0.855
 9508SOL    HW129423   6.418   2.611   0.825
 9508SOL    HW229424   6.448   2.769   0.800
 9509SOL     OW29425   1.110   6.567   5.274
 9509SOL    HW129426   1.123   6.497   5.204
 9509SOL    HW229427   1.047   6.534   5.344
 9510SOL     OW29428   0.770   3.936   1.794
 9510SOL    HW129429   0.774   3.850   1.744
 9510SOL    HW229430   0.737   4.008   1.734
 9511SOL     OW29431   0.974   1.957   6.889
 9511SOL    HW129432   0.895   1.900   6.864
 9511SOL    HW229433   1.019   1.989   6.805
 9512SOL     OW29434   5.681   1.743   3.270
 9512SOL    HW129435   5.690   1.689   3.353
 9512SOL    HW229436   5.617   1.819   3.286
 9513SOL     OW29437   1.103   3.164   4.601
 9513SOL    HW129438   1.163   3.242   4.622
 9513SOL    HW229439   1.159   3.083   4.585
 9514SOL     OW29440   1.330   3.786   6.942
 9514SOL    HW129441   1.233   3.780   6.921
 9514SOL    HW229442   1.344   3.848   7.019
 9515SOL     OW29443   1.465   6.006   0.008
 9515SOL    HW129444   1.518   6.082   6.998
 9515SOL    HW229445   1.389   6.041   0.063
 9516SOL     OW29446   4.995   3.529   4.500
 9516SOL    HW129447   4.946   3.475   4.568
 9516SOL    HW229448   4.967   3.499   4.408
 9517SOL     OW29449   1.596   4.850   0.976
 9517SOL    HW129450   1.501   4.874   0.997
 9517SOL    HW229451   1.601   4.755   0.946
 9518SOL     OW29452   1.451   2.268   6.862
 9518SOL    HW129453   1.505   2.225   6.934
 9518SOL    HW229454   1.406   2.197   6.807
 9519SOL     OW29455   3.730   3.292   3.007
 9519SOL    HW129456   3.799   3.317   3.075
 9519SOL    HW229457   3.742   3.349   2.925
 9520SOL     OW29458   6.630   1.449   3.451
 9520SOL    HW129459   6.669   1.377   3.509
 9520SOL    HW229460   6.680   1.451   3.364
 9521SOL     OW29461   3.787   3.884   1.569
 9521SOL    HW129462   3.756   3.886   1.665
 9521SOL    HW229463   3.709   3.861   1.510
 9522SOL     OW29464   4.084   5.450   2.884
 9522SOL    HW129465   4.024   5.378   2.849
 9522SOL    HW229466   4.062   5.536   2.838
 9523SOL     OW29467   2.541   5.360   5.233
 9523SOL    HW129468   2.529   5.412   5.318
 9523SOL    HW229469   2.452   5.338   5.194
 9524SOL     OW29470   1.848   2.761   0.947
 9524SOL    HW129471   1.755   2.751   0.983
 9524SOL    HW229472   1.908   2.795   1.019
 9525SOL     OW29473   1.812   2.007   5.345
 9525SOL    HW129474   1.885   2.015   5.277
 9525SOL    HW229475   1.850   2.024   5.437
 9526SOL     OW29476   5.957   4.751   1.126
 9526SOL    HW129477   5.928   4.778   1.218
 9526SOL    HW229478   5.959   4.832   1.067
 9527SOL     OW29479   2.221   0.258   4.824
 9527SOL    HW129480   2.159   0.206   4.882
 9527SOL    HW229481   2.168   0.322   4.768
 9528SOL     OW29482   6.273   1.674   0.946
 9528SOL    HW129483   6.243   1.650   1.039
 9528SOL    HW229484   6.224   1.618   0.880
 9529SOL     OW29485   5.386   4.012   0.737
 9529SOL    HW129486   5.408   4.109   0.724
 9529SOL    HW229487   5.392   3.990   0.834
 9530SOL     OW29488   0.793   4.564   4.274
 9530SOL    HW129489   0.783   4.547   4.372
 9530SOL    HW229490   0.857   4.640   4.260
 9531SOL     OW29491   4.181   4.735   3.153
 9531SOL    HW129492   4.271   4.749   3.194
 9531SOL    HW229493   4.191   4.681   3.069
 9532SOL     OW29494   6.933   5.146   0.836
 9532SOL    HW129495   0.002   5.116   0.833
 9532SOL    HW229496   6.880   5.099   0.766
 9533SOL     OW29497   0.573   5.218   3.894
 9533SOL    HW129498   0.619   5.228   3.982
 9533SOL    HW229499   0.632   5.170   3.830
 9534SOL     OW29500   5.953   4.284   4.573
 9534SOL    HW129501   5.933   4.375   4.609
 9534SOL    HW229502   6.052   4.267   4.577
 9535SOL     OW29503   2.045   0.876   6.414
 9535SOL    HW129504   2.024   0.780   6.433
 9535SOL    HW229505   1.965   0.932   6.435
 9536SOL     OW29506   3.504   3.122   5.529
 9536SOL    HW129507   3.541   3.043   5.578
 9536SOL    HW229508   3.573   3.194   5.526
 9537SOL     OW29509   3.157   1.702   4.805
 9537SOL    HW129510   3.156   1.760   4.724
 9537SOL    HW229511   3.071   1.711   4.854
 9538SOL     OW29512   4.617   0.588   4.443
 9538SOL    HW129513   4.568   0.640   4.512
 9538SOL    HW229514   4.685   0.528   4.486
 9539SOL     OW29515   2.893   3.413   4.095
 9539SOL    HW129516   2.835   3.461   4.028
 9539SOL    HW229517   2.878   3.452   4.186
 9540SOL     OW29518   5.328   5.789   4.607
 9540SOL    HW129519   5.260   5.726   4.568
 9540SOL    HW229520   5.305   5.807   4.703
 9541SOL     OW29521   2.208   0.784   5.944
 9541SOL    HW129522   2.198   0.881   5.923
 9541SOL    HW229523   2.202   0.770   6.043
 9542SOL     OW29524   5.852   5.234   4.453
 9542SOL    HW129525   5.919   5.189   4.394
 9542SOL    HW229526   5.771   5.258   4.399
 9543SOL     OW29527   3.697   0.631   6.322
 9543SOL    HW129528   3.736   0.540   6.307
 9543SOL    HW229529   3.703   0.653   6.420
 9544SOL     OW29530   5.301   3.226   4.102
 9544SOL    HW129531   5.304   3.277   4.188
 9544SOL    HW229532   5.330   3.132   4.117
 9545SOL     OW29533   5.893   5.181   2.457
 9545SOL    HW129534   5.936   5.193   2.547
 9545SOL    HW229535   5.865   5.086   2.447
 9546SOL     OW29536   3.813   1.252   5.894
 9546SOL    HW129537   3.737   1.214   5.840
 9546SOL    HW229538   3.891   1.189   5.891
 9547SOL     OW29539   2.437   5.572   3.890
 9547SOL    HW129540   2.513   5.544   3.833
 9547SOL    HW229541   2.445   5.530   3.980
 9548SOL     OW29542   0.255   5.699   4.924
 9548SOL    HW129543   0.186   5.671   4.857
 9548SOL    HW229544   0.296   5.785   4.895
 9549SOL     OW29545   2.803   1.105   2.133
 9549SOL    HW129546   2.770   1.171   2.066
 9549SOL    HW229547   2.840   1.153   2.213
 9550SOL     OW29548   6.598   1.930   0.774
 9550SOL    HW129549   6.642   2.018   0.759
 9550SOL    HW229550   6.503   1.945   0.803
 9551SOL     OW29551   5.882   3.069   6.060
 9551SOL    HW129552   5.817   3.088   6.134
 9551SOL    HW229553   5.926   3.154   6.032
 9552SOL     OW29554   2.448   6.146   5.782
 9552SOL    HW129555   2.452   6.233   5.832
 9552SOL    HW229556   2.359   6.136   5.739
 9553SOL     OW29557   5.370   2.374   0.108
 9553SOL    HW129558   5.277   2.338   0.119
 9553SOL    HW229559   5.366   2.474   0.102
 9554SOL     OW29560   1.478   6.214   3.245
 9554SOL    HW129561   1.450   6.304   3.280
 9554SOL    HW229562   1.480   6.148   3.320
 9555SOL     OW29563   0.357   0.980   3.342
 9555SOL    HW129564   0.386   0.934   3.259
 9555SOL    HW229565   0.426   1.046   3.371
 9556SOL     OW29566   1.686   3.496   1.013
 9556SOL    HW129567   1.645   3.584   0.988
 9556SOL    HW229568   1.786   3.504   1.014
 9557SOL     OW29569   5.540   0.043   0.998
 9557SOL    HW129570   5.532   0.117   0.930
 9557SOL    HW229571   5.588   0.078   1.079
 9558SOL     OW29572   6.052   5.941   5.316
 9558SOL    HW129573   5.981   5.997   5.357
 9558SOL    HW229574   6.059   5.962   5.218
 9559SOL     OW29575   1.086   4.411   0.435
 9559SOL    HW129576   1.067   4.416   0.534
 9559SOL    HW229577   1.033   4.482   0.388
 9560SOL     OW29578   2.427   0.749   2.806
 9560SOL    HW129579   2.485   0.799   2.870
 9560SOL    HW229580   2.331   0.774   2.820
 9561SOL     OW29581   0.519   0.568   1.409
 9561SOL    HW129582   0.424   0.591   1.428
 9561SOL    HW229583   0.574   0.652   1.407
 9562SOL     OW29584   2.809   7.012   4.569
 9562SOL    HW129585   2.876   6.946   4.533
 9562SOL    HW229586   2.763   6.973   4.648
 9563SOL     OW29587   0.164   6.946   0.091
 9563SOL    HW129588   0.177   6.861   0.039
 9563SOL    HW229589   0.225   7.017   0.054
 9564SOL     OW29590   2.505   0.994   0.752
 9564SOL    HW129591   2.442   1.016   0.827
 9564SOL    HW229592   2.488   0.900   0.722
 9565SOL     OW29593   3.596   1.195   5.767
 9565SOL    HW129594   3.508   1.160   5.800
 9565SOL    HW229595   3.592   1.206   5.668
 9566SOL     OW29596   2.605   6.070   0.290
 9566SOL    HW129597   2.626   6.119   0.374
 9566SOL    HW229598   2.680   6.083   0.225
 9567SOL     OW29599   5.119   4.291   0.037
 9567SOL    HW129600   5.033   4.315   0.081
 9567SOL    HW229601   5.153   4.205   0.076
 9568SOL     OW29602   4.300   1.901   0.296
 9568SOL    HW129603   4.208   1.901   0.256
 9568SOL    HW229604   4.360   1.960   0.241
 9569SOL     OW29605   0.177   1.495   2.186
 9569SOL    HW129606   0.081   1.522   2.194
 9569SOL    HW229607   0.214   1.525   2.098
 9570SOL     OW29608   0.771   3.063   1.601
 9570SOL    HW129609   0.741   3.119   1.678
 9570SOL    HW229610   0.725   3.094   1.517
 9571SOL     OW29611   3.230   3.067   5.574
 9571SOL    HW129612   3.201   3.156   5.539
 9571SOL    HW229613   3.330   3.061   5.569
 9572SOL     OW29614   2.063   5.090   2.173
 9572SOL    HW129615   2.061   4.990   2.177
 9572SOL    HW229616   1.977   5.124   2.137
 9573SOL     OW29617   0.568   1.841   6.551
 9573SOL    HW129618   0.514   1.790   6.619
 9573SOL    HW229619   0.634   1.779   6.508
 9574SOL     OW29620   3.392   2.916   2.588
 9574SOL    HW129621   3.409   2.818   2.592
 9574SOL    HW229622   3.302   2.937   2.626
 9575SOL     OW29623   0.274   1.559   1.936
 9575SOL    HW129624   0.313   1.641   1.977
 9575SOL    HW229625   0.345   1.490   1.923
 9576SOL     OW29626   2.187   1.857   0.625
 9576SOL    HW129627   2.171   1.913   0.544
 9576SOL    HW229628   2.101   1.813   0.652
 9577SOL     OW29629   0.859   0.074   5.871
 9577SOL    HW129630   0.851   0.159   5.819
 9577SOL    HW229631   0.779   0.017   5.855
 9578SOL     OW29632   1.427   3.334   3.012
 9578SOL    HW129633   1.473   3.408   3.060
 9578SOL    HW229634   1.376   3.372   2.934
 9579SOL     OW29635   0.155   5.651   3.131
 9579SOL    HW129636   0.246   5.693   3.133
 9579SOL    HW229637   0.162   5.556   3.161
 9580SOL     OW29638   4.393   3.132   0.638
 9580SOL    HW129639   4.408   3.045   0.685
 9580SOL    HW229640   4.300   3.164   0.656
 9581SOL     OW29641   0.530   0.506   6.692
 9581SOL    HW129642   0.508   0.419   6.650
 9581SOL    HW229643   0.448   0.543   6.738
 9582SOL     OW29644   4.579   5.955   5.031
 9582SOL    HW129645   4.569   5.856   5.038
 9582SOL    HW229646   4.512   5.991   4.967
 9583SOL     OW29647   2.984   3.852   1.226
 9583SOL    HW129648   2.915   3.815   1.288
 9583SOL    HW229649   2.980   3.805   1.138
 9584SOL     OW29650   6.776   5.002   6.036
 9584SOL    HW129651   6.848   5.053   6.081
 9584SOL    HW229652   6.809   4.910   6.013
 9585SOL     OW29653   5.354   6.512   3.261
 9585SOL    HW129654   5.410   6.492   3.341
 9585SOL    HW229655   5.267   6.463   3.268
 9586SOL     OW29656   4.951   5.384   2.526
 9586SOL    HW129657   4.924   5.320   2.599
 9586SOL    HW229658   4.891   5.464   2.528
 9587SOL     OW29659   1.125   0.421   1.542
 9587SOL    HW129660   1.131   0.324   1.568
 9587SOL    HW229661   1.048   0.464   1.589
 9588SOL     OW29662   6.339   6.638   0.843
 9588SOL    HW129663   6.333   6.676   0.935
 9588SOL    HW229664   6.341   6.713   0.776
 9589SOL     OW29665   1.944   4.832   0.274
 9589SOL    HW129666   1.902   4.875   0.194
 9589SOL    HW229667   1.898   4.865   0.357
 9590SOL     OW29668   5.954   3.279   1.783
 9590SOL    HW129669   6.053   3.289   1.795
 9590SOL    HW229670   5.936   3.234   1.695
 9591SOL     OW29671   2.868   5.470   5.802
 9591SOL    HW129672   2.844   5.522   5.885
 9591SOL    HW229673   2.912   5.384   5.829
 9592SOL     OW29674   2.642   4.850   0.146
 9592SOL    HW129675   2.584   4.798   0.208
 9592SOL    HW229676   2.736   4.818   0.153
 9593SOL     OW29677   0.758   1.160   6.430
 9593SOL    HW129678   0.759   1.245   6.378
 9593SOL    HW229679   0.781   1.178   6.525
 9594SOL     OW29680   2.053   5.206   3.909
 9594SOL    HW129681   1.984   5.157   3.963
 9594SOL    HW229682   2.041   5.183   3.812
 9595SOL     OW29683   0.278   2.910   4.175
 9595SOL    HW129684   0.186   2.950   4.175
 9595SOL    HW229685   0.323   2.928   4.088
 9596SOL     OW29686   1.167   4.839   6.599
 9596SOL    HW129687   1.104   4.773   6.557
 9596SOL    HW229688   1.173   4.822   6.697
 9597SOL     OW29689   7.024   3.965   1.712
 9597SOL    HW129690   0.069   3.955   1.642
 9597SOL    HW229691   6.942   4.006   1.672
 9598SOL     OW29692   1.711   4.955   3.530
 9598SOL    HW129693   1.779   4.923   3.595
 9598SOL    HW229694   1.736   4.925   3.438
 9599SOL     OW29695   2.448   0.756   4.156
 9599SOL    HW129696   2.519   0.687   4.149
 9599SOL    HW229697   2.440   0.786   4.251
 9600SOL     OW29698   2.890   6.760   0.021
 9600SOL    HW129699   2.814   6.696   0.008
 9600SOL    HW229700   2.882   6.834   6.980
 9601SOL     OW29701   4.952   4.229   1.035
 9601SOL    HW129702   5.030   4.194   1.087
 9601SOL    HW229703   4.881   4.159   1.031
 9602SOL     OW29704   5.932   3.972   6.685
 9602SOL    HW129705   5.912   3.917   6.604
 9602SOL    HW229706   5.858   3.961   6.752
 9603SOL     OW29707   4.650   0.720   5.749
 9603SOL    HW129708   4.703   0.760   5.824
 9603SOL    HW229709   4.614   0.631   5.779
 9604SOL     OW29710   4.759   0.145   0.886
 9604SOL    HW129711   4.705   0.170   0.966
 9604SOL    HW229712   4.773   0.046   0.884
 9605SOL     OW29713   0.741   6.063   3.261
 9605SOL    HW129714   0.833   6.086   3.293
 9605SOL    HW229715   0.675   6.086   3.332
 9606SOL     OW29716   1.940   6.159   0.074
 9606SOL    HW129717   1.979   6.230   0.016
 9606SOL    HW229718   1.963   6.069   0.037
 9607SOL     OW29719   2.260   0.862   6.593
 9607SOL    HW129720   2.256   0.867   6.693
 9607SOL    HW229721   2.168   0.875   6.556
 9608SOL     OW29722   7.025   4.974   1.905
 9608SOL    HW129723   6.962   4.960   1.828
 9608SOL    HW229724   0.062   4.896   1.911
 9609SOL     OW29725   2.435   3.165   0.128
 9609SOL    HW129726   2.420   3.119   0.041
 9609SOL    HW229727   2.440   3.097   0.201
 9610SOL     OW29728   1.566   4.962   3.923
 9610SOL    HW129729   1.584   5.000   3.832
 9610SOL    HW229730   1.476   4.919   3.924
 9611SOL     OW29731   0.986   6.246   6.721
 9611SOL    HW129732   0.915   6.233   6.792
 9611SOL    HW229733   1.074   6.214   6.757
 9612SOL     OW29734   0.315   4.038   1.588
 9612SOL    HW129735   0.365   4.122   1.567
 9612SOL    HW229736   0.258   4.013   1.510
 9613SOL     OW29737   5.203   0.468   3.489
 9613SOL    HW129738   5.260   0.454   3.569
 9613SOL    HW229739   5.113   0.427   3.504
 9614SOL     OW29740   4.151   2.225   1.739
 9614SOL    HW129741   4.229   2.229   1.801
 9614SOL    HW229742   4.069   2.257   1.787
 9615SOL     OW29743   2.509   0.203   0.399
 9615SOL    HW129744   2.466   0.113   0.390
 9615SOL    HW229745   2.584   0.197   0.465
 9616SOL     OW29746   3.592   3.438   1.365
 9616SOL    HW129747   3.528   3.468   1.294
 9616SOL    HW229748   3.645   3.360   1.331
 9617SOL     OW29749   1.257   3.485   3.158
 9617SOL    HW129750   1.310   3.565   3.133
 9617SOL    HW229751   1.285   3.406   3.103
 9618SOL     OW29752   3.886   6.616   0.168
 9618SOL    HW129753   3.861   6.602   0.264
 9618SOL    HW229754   3.914   6.529   0.128
 9619SOL     OW29755   1.533   6.631   6.531
 9619SOL    HW129756   1.600   6.590   6.592
 9619SOL    HW229757   1.579   6.692   6.466
 9620SOL     OW29758   4.170   0.612   6.247
 9620SOL    HW129759   4.164   0.564   6.159
 9620SOL    HW229760   4.247   0.575   6.299
 9621SOL     OW29761   0.880   2.207   1.954
 9621SOL    HW129762   0.845   2.122   1.915
 9621SOL    HW229763   0.979   2.200   1.967
 9622SOL     OW29764   6.855   1.256   0.738
 9622SOL    HW129765   6.781   1.324   0.740
 9622SOL    HW229766   6.900   1.253   0.827
 9623SOL     OW29767   2.932   3.701   5.610
 9623SOL    HW129768   3.018   3.716   5.659
 9623SOL    HW229769   2.917   3.603   5.598
 9624SOL     OW29770   6.734   4.114   2.441
 9624SOL    HW129771   6.699   4.056   2.368
 9624SOL    HW229772   6.752   4.206   2.406
 9625SOL     OW29773   4.879   5.674   6.862
 9625SOL    HW129774   4.968   5.681   6.817
 9625SOL    HW229775   4.806   5.678   6.793
 9626SOL     OW29776   4.235   5.408   0.122
 9626SOL    HW129777   4.287   5.429   0.039
 9626SOL    HW229778   4.151   5.462   0.122
 9627SOL     OW29779   6.893   6.384   4.695
 9627SOL    HW129780   6.830   6.369   4.771
 9627SOL    HW229781   6.949   6.465   4.713
 9628SOL     OW29782   4.972   4.751   7.007
 9628SOL    HW129783   5.020   4.679   6.956
 9628SOL    HW229784   4.882   4.765   6.968
 9629SOL     OW29785   0.287   0.052   1.928
 9629SOL    HW129786   0.324   0.102   1.850
 9629SOL    HW229787   0.357   0.043   1.999
 9630SOL     OW29788   6.757   6.951   5.001
 9630SOL    HW129789   6.702   6.911   4.928
 9630SOL    HW229790   6.697   6.997   5.067
 9631SOL     OW29791   6.966   6.691   6.966
 9631SOL    HW129792   6.932   6.734   0.024
 9631SOL    HW229793   6.888   6.670   6.906
 9632SOL     OW29794   0.757   0.238   2.920
 9632SOL    HW129795   0.784   0.270   3.010
 9632SOL    HW229796   0.832   0.185   2.880
 9633SOL     OW29797   5.106   5.150   5.917
 9633SOL    HW129798   5.092   5.101   6.003
 9633SOL    HW229799   5.188   5.114   5.872
 9634SOL     OW29800   1.192   5.766   4.127
 9634SOL    HW129801   1.127   5.729   4.193
 9634SOL    HW229802   1.198   5.705   4.048
 9635SOL     OW29803   1.541   4.808   4.942
 9635SOL    HW129804   1.519   4.905   4.955
 9635SOL    HW229805   1.481   4.752   5.000
 9636SOL     OW29806   4.011   1.987   5.528
 9636SOL    HW129807   3.933   1.927   5.511
 9636SOL    HW229808   4.009   2.017   5.623
 9637SOL     OW29809   2.152   1.470   6.290
 9637SOL    HW129810   2.081   1.446   6.224
 9637SOL    HW229811   2.177   1.388   6.342
 9638SOL     OW29812   6.841   3.791   6.873
 9638SOL    HW129813   6.805   3.833   6.957
 9638SOL    HW229814   6.896   3.711   6.897
 9639SOL     OW29815   3.838   1.575   2.334
 9639SOL    HW129816   3.833   1.596   2.236
 9639SOL    HW229817   3.746   1.557   2.369
 9640SOL     OW29818   2.284   2.892   3.378
 9640SOL    HW129819   2.367   2.837   3.370
 9640SOL    HW229820   2.276   2.924   3.473
 9641SOL     OW29821   3.764   6.467   0.977
 9641SOL    HW129822   3.694   6.427   0.918
 9641SOL    HW229823   3.723   6.497   1.063
 9642SOL     OW29824   3.493   6.701   4.498
 9642SOL    HW129825   3.443   6.718   4.413
 9642SOL    HW229826   3.485   6.604   4.523
 9643SOL     OW29827   5.530   5.399   4.366
 9643SOL    HW129828   5.430   5.403   4.368
 9643SOL    HW229829   5.564   5.376   4.457
 9644SOL     OW29830   1.193   4.487   6.145
 9644SOL    HW129831   1.119   4.420   6.155
 9644SOL    HW229832   1.213   4.529   6.233
 9645SOL     OW29833   2.985   5.110   3.350
 9645SOL    HW129834   2.992   5.206   3.324
 9645SOL    HW229835   2.888   5.084   3.358
 9646SOL     OW29836   3.098   4.728   1.851
 9646SOL    HW129837   3.194   4.706   1.838
 9646SOL    HW229838   3.049   4.648   1.886
 9647SOL     OW29839   6.447   5.399   2.149
 9647SOL    HW129840   6.485   5.471   2.091
 9647SOL    HW229841   6.436   5.433   2.242
 9648SOL     OW29842   4.384   1.432   0.204
 9648SOL    HW129843   4.384   1.507   0.269
 9648SOL    HW229844   4.469   1.434   0.151
 9649SOL     OW29845   2.688   6.579   7.019
 9649SOL    HW129846   2.740   6.523   0.057
 9649SOL    HW229847   2.730   6.573   6.928
 9650SOL     OW29848   6.090   5.262   1.989
 9650SOL    HW129849   6.148   5.181   1.992
 9650SOL    HW229850   6.090   5.306   2.079
 9651SOL     OW29851   0.193   1.084   6.296
 9651SOL    HW129852   0.238   1.065   6.383
 9651SOL    HW229853   0.184   1.183   6.284
 9652SOL     OW29854   2.190   4.245   0.841
 9652SOL    HW129855   2.228   4.200   0.760
 9652SOL    HW229856   2.164   4.338   0.818
 9653SOL     OW29857   4.107   5.503   4.558
 9653SOL    HW129858   4.195   5.526   4.600
 9653SOL    HW229859   4.105   5.405   4.537
 9654SOL     OW29860   3.283   2.732   1.430
 9654SOL    HW129861   3.211   2.733   1.360
 9654SOL    HW229862   3.243   2.748   1.520
 9655SOL     OW29863   0.191   1.221   0.406
 9655SOL    HW129864   0.162   1.229   0.311
 9655SOL    HW229865   0.215   1.311   0.442
 9656SOL     OW29866   2.761   1.350   0.893
 9656SOL    HW129867   2.678   1.304   0.925
 9656SOL    HW229868   2.827   1.357   0.968
 9657SOL     OW29869   5.355   0.228   3.442
 9657SOL    HW129870   5.324   0.320   3.420
 9657SOL    HW229871   5.438   0.207   3.390
 9658SOL     OW29872   6.077   2.162   3.385
 9658SOL    HW129873   6.111   2.068   3.384
 9658SOL    HW229874   6.129   2.217   3.320
 9659SOL     OW29875   6.766   4.539   0.520
 9659SOL    HW129876   6.729   4.500   0.436
 9659SOL    HW229877   6.706   4.518   0.597
 9660SOL     OW29878   0.686   5.397   0.132
 9660SOL    HW129879   0.612   5.345   0.174
 9660SOL    HW229880   0.650   5.482   0.093
 9661SOL     OW29881   4.382   5.827   1.809
 9661SOL    HW129882   4.388   5.876   1.722
 9661SOL    HW229883   4.337   5.885   1.877
 9662SOL     OW29884   6.083   2.835   4.882
 9662SOL    HW129885   6.101   2.763   4.816
 9662SOL    HW229886   5.986   2.836   4.906
 9663SOL     OW29887   1.062   5.740   3.867
 9663SOL    HW129888   0.975   5.782   3.839
 9663SOL    HW229889   1.056   5.641   3.857
 9664SOL     OW29890   5.503   6.638   2.757
 9664SOL    HW129891   5.441   6.593   2.821
 9664SOL    HW229892   5.534   6.725   2.796
 9665SOL     OW29893   4.999   5.536   5.386
 9665SOL    HW129894   5.008   5.526   5.287
 9665SOL    HW229895   4.904   5.558   5.409
 9666SOL     OW29896   5.710   4.546   2.039
 9666SOL    HW129897   5.755   4.500   1.962
 9666SOL    HW229898   5.614   4.562   2.016
 9667SOL     OW29899   3.861   2.962   3.904
 9667SOL    HW129900   3.824   3.034   3.963
 9667SOL    HW229901   3.887   2.883   3.959
 9668SOL     OW29902   6.526   1.404   6.508
 9668SOL    HW129903   6.538   1.448   6.419
 9668SOL    HW229904   6.438   1.356   6.509
 9669SOL     OW29905   0.815   1.320   1.014
 9669SOL    HW129906   0.801   1.223   1.035
 9669SOL    HW229907   0.877   1.361   1.080
 9670SOL     OW29908   5.143   5.228   6.465
 9670SOL    HW129909   5.172   5.202   6.557
 9670SOL    HW229910   5.075   5.301   6.471
 9671SOL     OW29911   0.708   4.941   6.306
 9671SOL    HW129912   0.643   4.899   6.370
 9671SOL    HW229913   0.764   5.008   6.354
 9672SOL     OW29914   1.732   6.782   4.486
 9672SOL    HW129915   1.711   6.732   4.570
 9672SOL    HW229916   1.814   6.838   4.500
 9673SOL     OW29917   5.161   4.517   6.744
 9673SOL    HW129918   5.231   4.451   6.768
 9673SOL    HW229919   5.090   4.472   6.690
 9674SOL     OW29920   2.895   6.180   3.013
 9674SOL    HW129921   2.992   6.202   3.025
 9674SOL    HW229922   2.842   6.223   3.086
 9675SOL     OW29923   5.919   1.391   1.388
 9675SOL    HW129924   5.840   1.340   1.423
 9675SOL    HW229925   5.947   1.353   1.300
 9676SOL     OW29926   1.446   3.260   5.649
 9676SOL    HW129927   1.540   3.246   5.620
 9676SOL    HW229928   1.403   3.171   5.666
 9677SOL     OW29929   2.918   4.601   6.149
 9677SOL    HW129930   2.927   4.586   6.247
 9677SOL    HW229931   2.821   4.601   6.124
 9678SOL     OW29932   3.060   3.998   2.901
 9678SOL    HW129933   3.104   4.059   2.967
 9678SOL    HW229934   3.054   3.905   2.940
 9679SOL     OW29935   1.465   1.455   1.835
 9679SOL    HW129936   1.556   1.484   1.862
 9679SOL    HW229937   1.418   1.529   1.787
 9680SOL     OW29938   5.951   7.022   3.553
 9680SOL    HW129939   5.930   6.928   3.582
 9680SOL    HW229940   5.910   0.061   3.616
 9681SOL     OW29941   2.832   0.949   1.605
 9681SOL    HW129942   2.899   0.944   1.531
 9681SOL    HW229943   2.799   1.043   1.613
 9682SOL     OW29944   5.465   5.281   3.658
 9682SOL    HW129945   5.387   5.305   3.715
 9682SOL    HW229946   5.545   5.335   3.687
 9683SOL     OW29947   3.245   5.463   0.711
 9683SOL    HW129948   3.306   5.497   0.639
 9683SOL    HW229949   3.155   5.443   0.671
 9684SOL     OW29950   0.244   2.654   5.075
 9684SOL    HW129951   0.225   2.585   5.145
 9684SOL    HW229952   0.313   2.619   5.012
 9685SOL     OW29953   2.433   2.767   1.032
 9685SOL    HW129954   2.399   2.739   0.943
 9685SOL    HW229955   2.409   2.862   1.050
 9686SOL     OW29956   5.954   2.036   0.876
 9686SOL    HW129957   6.040   1.989   0.893
 9686SOL    HW229958   5.960   2.088   0.791
 9687SOL     OW29959   2.217   0.447   3.403
 9687SOL    HW129960   2.199   0.500   3.486
 9687SOL    HW229961   2.316   0.434   3.393
 9688SOL     OW29962   6.424   2.615   3.775
 9688SOL    HW129963   6.420   2.577   3.682
 9688SOL    HW229964   6.350   2.576   3.830
 9689SOL     OW29965   1.525   6.362   0.933
 9689SOL    HW129966   1.576   6.327   1.012
 9689SOL    HW229967   1.565   6.449   0.904
 9690SOL     OW29968   5.806   5.311   6.673
 9690SOL    HW129969   5.810   5.399   6.719
 9690SOL    HW229970   5.897   5.285   6.640
 9691SOL     OW29971   2.507   4.541   1.669
 9691SOL    HW129972   2.427   4.502   1.623
 9691SOL    HW229973   2.583   4.476   1.664
 9692SOL     OW29974   2.188   5.139   2.615
 9692SOL    HW129975   2.124   5.062   2.618
 9692SOL    HW229976   2.194   5.175   2.522
 9693SOL     OW29977   6.567   4.956   1.843
 9693SOL    HW129978   6.572   5.007   1.929
 9693SOL    HW229979   6.475   4.917   1.833
 9694SOL     OW29980   2.313   1.188   6.138
 9694SOL    HW129981   2.318   1.147   6.229
 9694SOL    HW229982   2.220   1.223   6.123
 9695SOL     OW29983   6.528   4.110   1.235
 9695SOL    HW129984   6.617   4.064   1.225
 9695SOL    HW229985   6.466   4.077   1.164
 9696SOL     OW29986   4.796   2.068   1.041
 9696SOL    HW129987   4.734   2.019   1.102
 9696SOL    HW229988   4.818   2.010   0.962
 9697SOL     OW29989   7.020   5.245   6.888
 9697SOL    HW129990   0.052   5.169   6.858
 9697SOL    HW229991   6.925   5.225   6.864
 9698SOL     OW29992   5.804   1.120   5.697
 9698SOL    HW129993   5.807   1.172   5.783
 9698SOL    HW229994   5.741   1.044   5.706
 9699SOL     OW29995   0.352   4.623   6.452
 9699SOL    HW129996   0.254   4.600   6.451
 9699SOL    HW229997   0.401   4.559   6.510
 9700SOL     OW29998   4.251   5.614   5.532
 9700SOL    HW129999   4.246   5.585   5.627
 9700SOL    HW230000   4.340   5.588   5.494
 9701SOL     OW30001   3.383   5.411   4.723
 9701SOL    HW130002   3.409   5.349   4.797
 9701SOL    HW230003   3.408   5.370   4.635
 9702SOL     OW30004   5.681   0.474   6.631
 9702SOL    HW130005   5.688   0.522   6.719
 9702SOL    HW230006   5.773   0.453   6.598
 9703SOL     OW30007   3.425   5.655   3.940
 9703SOL    HW130008   3.505   5.682   3.995
 9703SOL    HW230009   3.455   5.597   3.865
 9704SOL     OW30010   2.964   1.010   2.434
 9704SOL    HW130011   3.059   1.002   2.466
 9704SOL    HW230012   2.949   1.101   2.396
 9705SOL     OW30013   5.440   5.216   0.907
 9705SOL    HW130014   5.389   5.157   0.970
 9705SOL    HW230015   5.375   5.263   0.846
 9706SOL     OW30016   0.469   2.321   1.328
 9706SOL    HW130017   0.420   2.299   1.412
 9706SOL    HW230018   0.499   2.236   1.284
 9707SOL     OW30019   6.317   4.292   1.791
 9707SOL    HW130020   6.279   4.211   1.745
 9707SOL    HW230021   6.395   4.264   1.847
 9708SOL     OW30022   1.690   2.677   3.153
 9708SOL    HW130023   1.671   2.669   3.251
 9708SOL    HW230024   1.631   2.615   3.102
 9709SOL     OW30025   0.139   5.777   3.375
 9709SOL    HW130026   0.222   5.833   3.372
 9709SOL    HW230027   0.100   5.770   3.283
 9710SOL     OW30028   0.396   1.908   2.695
 9710SOL    HW130029   0.322   1.961   2.736
 9710SOL    HW230030   0.386   1.909   2.595
 9711SOL     OW30031   1.618   3.276   5.993
 9711SOL    HW130032   1.557   3.226   6.055
 9711SOL    HW230033   1.675   3.211   5.942
 9712SOL     OW30034   5.226   3.688   4.441
 9712SOL    HW130035   5.286   3.709   4.518
 9712SOL    HW230036   5.148   3.633   4.473
 9713SOL     OW30037   0.515   5.110   3.106
 9713SOL    HW130038   0.567   5.192   3.083
 9713SOL    HW230039   0.428   5.110   3.055
 9714SOL     OW30040   2.032   1.015   2.065
 9714SOL    HW130041   1.994   1.104   2.037
 9714SOL    HW230042   2.131   1.022   2.074
 9715SOL     OW30043   6.755   5.472   5.197
 9715SOL    HW130044   6.810   5.391   5.176
 9715SOL    HW230045   6.744   5.527   5.114
 9716SOL     OW30046   4.026   2.656   6.961
 9716SOL    HW130047   3.976   2.570   6.960
 9716SOL    HW230048   4.068   2.672   6.872
 9717SOL     OW30049   5.798   5.920   5.516
 9717SOL    HW130050   5.806   5.916   5.615
 9717SOL    HW230051   5.779   6.014   5.487
 9718SOL     OW30052   4.540   3.238   1.663
 9718SOL    HW130053   4.503   3.242   1.755
 9718SOL    HW230054   4.635   3.209   1.666
 9719SOL     OW30055   0.906   2.450   7.007
 9719SOL    HW130056   0.911   2.519   6.935
 9719SOL    HW230057   0.952   2.483   0.063
 9720SOL     OW30058   0.793   5.442   1.637
 9720SOL    HW130059   0.824   5.384   1.562
 9720SOL    HW230060   0.732   5.513   1.602
 9721SOL     OW30061   0.899   2.389   1.710
 9721SOL    HW130062   0.891   2.335   1.794
 9721SOL    HW230063   0.829   2.460   1.709
 9722SOL     OW30064   0.457   6.698   3.615
 9722SOL    HW130065   0.539   6.697   3.671
 9722SOL    HW230066   0.481   6.683   3.520
 9723SOL     OW30067   1.823   5.855   2.835
 9723SOL    HW130068   1.768   5.936   2.856
 9723SOL    HW230069   1.870   5.867   2.748
 9724SOL     OW30070   3.047   3.083   0.915
 9724SOL    HW130071   2.952   3.115   0.906
 9724SOL    HW230072   3.048   2.989   0.948
 9725SOL     OW30073   4.153   3.875   6.132
 9725SOL    HW130074   4.185   3.893   6.225
 9725SOL    HW230075   4.059   3.908   6.122
 9726SOL     OW30076   4.188   6.876   4.553
 9726SOL    HW130077   4.126   6.802   4.579
 9726SOL    HW230078   4.268   6.875   4.613
 9727SOL     OW30079   1.340   3.446   5.476
 9727SOL    HW130080   1.392   3.381   5.532
 9727SOL    HW230081   1.249   3.409   5.457
 9728SOL     OW30082   0.688   6.572   6.325
 9728SOL    HW130083   0.633   6.557   6.407
 9728SOL    HW230084   0.761   6.503   6.321
 9729SOL     OW30085   0.988   4.366   2.891
 9729SOL    HW130086   0.969   4.277   2.850
 9729SOL    HW230087   1.035   4.424   2.825
 9730SOL     OW30088   0.826   3.692   2.391
 9730SOL    HW130089   0.773   3.629   2.335
 9730SOL    HW230090   0.922   3.664   2.392
 9731SOL     OW30091   4.283   4.625   0.812
 9731SOL    HW130092   4.299   4.593   0.718
 9731SOL    HW230093   4.185   4.635   0.827
 9732SOL     OW30094   5.436   5.987   2.687
 9732SOL    HW130095   5.393   5.950   2.769
 9732SOL    HW230096   5.500   5.920   2.650
 9733SOL     OW30097   6.053   5.236   4.930
 9733SOL    HW130098   5.990   5.180   4.876
 9733SOL    HW230099   6.120   5.278   4.870
 9734SOL     OW30100   5.371   1.899   3.916
 9734SOL    HW130101   5.415   1.882   4.004
 9734SOL    HW230102   5.378   1.817   3.859
 9735SOL     OW30103   1.611   4.646   2.650
 9735SOL    HW130104   1.697   4.623   2.696
 9735SOL    HW230105   1.624   4.641   2.551
 9736SOL     OW30106   5.450   1.527   5.882
 9736SOL    HW130107   5.372   1.464   5.886
 9736SOL    HW230108   5.501   1.512   5.797
 9737SOL     OW30109   4.871   2.868   4.799
 9737SOL    HW130110   4.872   2.966   4.819
 9737SOL    HW230111   4.790   2.827   4.842
 9738SOL     OW30112   1.404   6.737   3.142
 9738SOL    HW130113   1.453   6.805   3.197
 9738SOL    HW230114   1.306   6.741   3.162
 9739SOL     OW30115   0.362   4.813   1.960
 9739SOL    HW130116   0.446   4.823   2.013
 9739SOL    HW230117   0.290   4.776   2.018
 9740SOL     OW30118   5.743   3.300   3.043
 9740SOL    HW130119   5.837   3.268   3.051
 9740SOL    HW230120   5.682   3.239   3.094
 9741SOL     OW30121   4.677   1.273   2.347
 9741SOL    HW130122   4.600   1.315   2.300
 9741SOL    HW230123   4.728   1.344   2.396
 9742SOL     OW30124   4.559   0.124   3.223
 9742SOL    HW130125   4.577   0.036   3.267
 9742SOL    HW230126   4.590   0.121   3.128
 9743SOL     OW30127   2.050   2.063   5.180
 9743SOL    HW130128   2.061   2.156   5.215
 9743SOL    HW230129   2.112   2.050   5.102
 9744SOL     OW30130   0.579   0.452   2.867
 9744SOL    HW130131   0.565   0.474   2.963
 9744SOL    HW230132   0.639   0.373   2.859
 9745SOL     OW30133   0.247   2.410   6.202
 9745SOL    HW130134   0.167   2.359   6.233
 9745SOL    HW230135   0.258   2.399   6.103
 9746SOL     OW30136   5.964   1.571   5.575
 9746SOL    HW130137   5.898   1.588   5.648
 9746SOL    HW230138   6.031   1.646   5.574
 9747SOL     OW30139   1.632   1.248   1.675
 9747SOL    HW130140   1.589   1.336   1.697
 9747SOL    HW230141   1.649   1.197   1.759
 9748SOL     OW30142   1.375   0.235   4.915
 9748SOL    HW130143   1.290   0.239   4.862
 9748SOL    HW230144   1.441   0.178   4.866
 9749SOL     OW30145   2.183   2.278   5.324
 9749SOL    HW130146   2.211   2.200   5.378
 9749SOL    HW230147   2.260   2.340   5.310
 9750SOL     OW30148   5.654   5.023   4.112
 9750SOL    HW130149   5.649   5.121   4.090
 9750SOL    HW230150   5.563   4.982   4.100
 9751SOL     OW30151   2.676   2.285   1.317
 9751SOL    HW130152   2.705   2.329   1.232
 9751SOL    HW230153   2.577   2.277   1.318
 9752SOL     OW30154   4.413   0.600   6.611
 9752SOL    HW130155   4.457   0.610   6.701
 9752SOL    HW230156   4.334   0.661   6.605
 9753SOL     OW30157   6.424   6.257   4.809
 9753SOL    HW130158   6.387   6.184   4.752
 9753SOL    HW230159   6.388   6.345   4.778
 9754SOL     OW30160   1.141   1.607   0.017
 9754SOL    HW130161   1.221   1.616   0.076
 9754SOL    HW230162   1.163   1.639   6.950
 9755SOL     OW30163   4.356   3.386   5.399
 9755SOL    HW130164   4.405   3.458   5.348
 9755SOL    HW230165   4.365   3.299   5.350
 9756SOL     OW30166   6.039   2.975   0.459
 9756SOL    HW130167   6.105   3.050   0.453
 9756SOL    HW230168   5.952   3.011   0.494
 9757SOL     OW30169   5.005   3.132   3.563
 9757SOL    HW130170   4.966   3.214   3.604
 9757SOL    HW230171   5.101   3.125   3.588
 9758SOL     OW30172   1.426   6.508   6.163
 9758SOL    HW130173   1.480   6.591   6.155
 9758SOL    HW230174   1.329   6.532   6.167
 9759SOL     OW30175   2.040   6.684   1.165
 9759SOL    HW130176   2.089   6.664   1.080
 9759SOL    HW230177   2.039   6.783   1.180
 9760SOL     OW30178   4.786   3.690   5.376
 9760SOL    HW130179   4.752   3.640   5.297
 9760SOL    HW230180   4.795   3.627   5.454
 9761SOL     OW30181   6.060   6.111   1.945
 9761SOL    HW130182   6.017   6.152   2.026
 9761SOL    HW230183   6.159   6.107   1.958
 9762SOL     OW30184   2.766   2.186   4.421
 9762SOL    HW130185   2.687   2.148   4.470
 9762SOL    HW230186   2.834   2.216   4.488
 9763SOL     OW30187   4.692   2.083   2.071
 9763SOL    HW130188   4.776   2.034   2.046
 9763SOL    HW230189   4.622   2.016   2.097
 9764SOL     OW30190   0.760   2.204   3.388
 9764SOL    HW130191   0.850   2.210   3.431
 9764SOL    HW230192   0.770   2.216   3.289
 9765SOL     OW30193   6.794   2.209   4.612
 9765SOL    HW130194   6.732   2.287   4.609
 9765SOL    HW230195   6.762   2.138   4.549
 9766SOL     OW30196   2.583   0.297   3.216
 9766SOL    HW130197   2.659   0.347   3.256
 9766SOL    HW230198   2.605   0.274   3.121
 9767SOL     OW30199   5.735   2.330   4.933
 9767SOL    HW130200   5.832   2.354   4.925
 9767SOL    HW230201   5.710   2.266   4.861
 9768SOL     OW30202   5.138   2.225   2.270
 9768SOL    HW130203   5.130   2.194   2.364
 9768SOL    HW230204   5.069   2.296   2.253
 9769SOL     OW30205   1.898   1.225   1.951
 9769SOL    HW130206   1.806   1.185   1.950
 9769SOL    HW230207   1.894   1.318   1.989
 9770SOL     OW30208   5.807   6.401   6.455
 9770SOL    HW130209   5.892   6.379   6.408
 9770SOL    HW230210   5.823   6.405   6.553
 9771SOL     OW30211   4.494   4.252   1.396
 9771SOL    HW130212   4.417   4.192   1.419
 9771SOL    HW230213   4.546   4.273   1.479
 9772SOL     OW30214   0.693   6.712   1.816
 9772SOL    HW130215   0.663   6.724   1.911
 9772SOL    HW230216   0.646   6.633   1.776
 9773SOL     OW30217   5.346   6.195   3.920
 9773SOL    HW130218   5.348   6.133   3.998
 9773SOL    HW230219   5.388   6.149   3.841
 9774SOL     OW30220   5.887   5.567   2.810
 9774SOL    HW130221   5.898   5.609   2.720
 9774SOL    HW230222   5.807   5.506   2.808
 9775SOL     OW30223   2.277   1.912   3.955
 9775SOL    HW130224   2.342   1.935   4.028
 9775SOL    HW230225   2.303   1.960   3.872
 9776SOL     OW30226   0.014   6.070   5.027
 9776SOL    HW130227   7.023   6.153   5.080
 9776SOL    HW230228   7.002   6.082   4.934
 9777SOL     OW30229   5.445   5.161   6.455
 9777SOL    HW130230   5.367   5.193   6.507
 9777SOL    HW230231   5.474   5.071   6.490
 9778SOL     OW30232   5.762   0.553   3.551
 9778SOL    HW130233   5.716   0.627   3.501
 9778SOL    HW230234   5.706   0.470   3.546
 9779SOL     OW30235   2.600   2.030   4.584
 9779SOL    HW130236   2.612   2.044   4.682
 9779SOL    HW230237   2.637   1.940   4.558
 9780SOL     OW30238   2.465   2.021   1.036
 9780SOL    HW130239   2.418   2.107   1.018
 9780SOL    HW230240   2.411   1.945   0.998
 9781SOL     OW30241   1.866   4.400   3.953
 9781SOL    HW130242   1.812   4.441   4.027
 9781SOL    HW230243   1.963   4.401   3.978
 9782SOL     OW30244   6.828   0.270   1.032
 9782SOL    HW130245   6.863   0.363   1.022
 9782SOL    HW230246   6.843   0.239   1.126
 9783SOL     OW30247   6.431   1.416   2.065
 9783SOL    HW130248   6.391   1.437   2.154
 9783SOL    HW230249   6.467   1.499   2.024
 9784SOL     OW30250   5.046   1.365   3.557
 9784SOL    HW130251   4.957   1.379   3.599
 9784SOL    HW230252   5.036   1.369   3.457
 9785SOL     OW30253   0.018   3.432   3.935
 9785SOL    HW130254   6.984   3.359   3.903
 9785SOL    HW230255   7.012   3.519   3.896
 9786SOL     OW30256   1.004   5.104   5.775
 9786SOL    HW130257   1.001   5.156   5.860
 9786SOL    HW230258   1.090   5.123   5.727
 9787SOL     OW30259   5.211   4.205   1.899
 9787SOL    HW130260   5.289   4.154   1.936
 9787SOL    HW230261   5.139   4.140   1.873
 9788SOL     OW30262   0.168   0.394   3.762
 9788SOL    HW130263   0.125   0.437   3.842
 9788SOL    HW230264   0.186   0.463   3.692
 9789SOL     OW30265   2.161   5.432   6.563
 9789SOL    HW130266   2.260   5.423   6.557
 9789SOL    HW230267   2.137   5.527   6.582
 9790SOL     OW30268   5.796   2.860   4.889
 9790SOL    HW130269   5.738   2.869   4.969
 9790SOL    HW230270   5.844   2.946   4.872
 9791SOL     OW30271   1.024   0.805   2.418
 9791SOL    HW130272   1.050   0.759   2.333
 9791SOL    HW230273   1.099   0.864   2.448
 9792SOL     OW30274   4.549   5.322   2.275
 9792SOL    HW130275   4.469   5.360   2.322
 9792SOL    HW230276   4.611   5.396   2.250
 9793SOL     OW30277   5.116   5.735   2.571
 9793SOL    HW130278   5.060   5.655   2.591
 9793SOL    HW230279   5.163   5.722   2.484
 9794SOL     OW30280   5.725   3.536   6.789
 9794SOL    HW130281   5.632   3.557   6.757
 9794SOL    HW230282   5.791   3.589   6.737
 9795SOL     OW30283   1.082   2.786   3.952
 9795SOL    HW130284   1.002   2.726   3.961
 9795SOL    HW230285   1.161   2.731   3.925
 9796SOL     OW30286   3.108   3.981   0.965
 9796SOL    HW130287   3.188   4.038   0.946
 9796SOL    HW230288   3.046   4.029   1.027
 9797SOL     OW30289   4.368   3.759   0.284
 9797SOL    HW130290   4.322   3.801   0.205
 9797SOL    HW230291   4.352   3.814   0.365
 9798SOL     OW30292   2.769   0.926   0.860
 9798SOL    HW130293   2.681   0.950   0.818
 9798SOL    HW230294   2.771   0.828   0.879
 9799SOL     OW30295   3.625   3.585   2.707
 9799SOL    HW130296   3.644   3.497   2.664
 9799SOL    HW230297   3.537   3.619   2.674
 9800SOL     OW30298   3.805   6.015   6.253
 9800SOL    HW130299   3.788   5.950   6.179
 9800SOL    HW230300   3.836   5.966   6.334
 9801SOL     OW30301   3.844   5.131   0.015
 9801SOL    HW130302   3.910   5.069   0.059
 9801SOL    HW230303   3.881   5.224   0.016
 9802SOL     OW30304   6.884   3.314   2.206
 9802SOL    HW130305   6.826   3.373   2.262
 9802SOL    HW230306   6.864   3.218   2.225
 9803SOL     OW30307   6.482   0.678   6.615
 9803SOL    HW130308   6.426   0.723   6.546
 9803SOL    HW230309   6.495   0.582   6.590
 9804SOL     OW30310   0.369   5.157   3.666
 9804SOL    HW130311   0.423   5.174   3.748
 9804SOL    HW230312   0.288   5.105   3.690
 9805SOL     OW30313   1.395   5.445   6.991
 9805SOL    HW130314   1.460   5.394   6.934
 9805SOL    HW230315   1.426   5.540   6.999
 9806SOL     OW30316   0.834   2.110   1.693
 9806SOL    HW130317   0.886   2.193   1.673
 9806SOL    HW230318   0.886   2.030   1.665
 9807SOL     OW30319   3.079   1.625   6.540
 9807SOL    HW130320   3.094   1.673   6.454
 9807SOL    HW230321   3.069   1.527   6.523
 9808SOL     OW30322   6.118   0.706   5.713
 9808SOL    HW130323   6.032   0.724   5.666
 9808SOL    HW230324   6.183   0.665   5.649
 9809SOL     OW30325   0.966   1.659   5.840
 9809SOL    HW130326   0.948   1.617   5.751
 9809SOL    HW230327   0.933   1.599   5.913
 9810SOL     OW30328   2.664   2.072   3.177
 9810SOL    HW130329   2.665   1.974   3.195
 9810SOL    HW230330   2.753   2.101   3.142
 9811SOL     OW30331   6.375   6.072   3.596
 9811SOL    HW130332   6.321   6.007   3.543
 9811SOL    HW230333   6.315   6.119   3.661
 9812SOL     OW30334   3.833   1.860   6.613
 9812SOL    HW130335   3.913   1.886   6.667
 9812SOL    HW230336   3.838   1.904   6.524
 9813SOL     OW30337   6.613   5.435   0.090
 9813SOL    HW130338   6.524   5.443   0.135
 9813SOL    HW230339   6.616   5.350   0.037
 9814SOL     OW30340   6.760   0.524   6.274
 9814SOL    HW130341   6.853   0.496   6.301
 9814SOL    HW230342   6.760   0.621   6.252
 9815SOL     OW30343   6.818   2.367   0.873
 9815SOL    HW130344   6.776   2.385   0.962
 9815SOL    HW230345   6.896   2.429   0.860
 9816SOL     OW30346   6.132   0.756   6.338
 9816SOL    HW130347   6.102   0.711   6.422
 9816SOL    HW230348   6.219   0.717   6.307
 9817SOL     OW30349   3.123   5.327   1.692
 9817SOL    HW130350   3.091   5.253   1.751
 9817SOL    HW230351   3.078   5.412   1.718
 9818SOL     OW30352   1.662   1.604   3.254
 9818SOL    HW130353   1.605   1.669   3.204
 9818SOL    HW230354   1.739   1.652   3.296
 9819SOL     OW30355   5.835   4.511   4.656
 9819SOL    HW130356   5.758   4.479   4.712
 9819SOL    HW230357   5.838   4.611   4.657
 9820SOL     OW30358   2.853   2.164   6.470
 9820SOL    HW130359   2.908   2.234   6.425
 9820SOL    HW230360   2.914   2.097   6.514
 9821SOL     OW30361   4.838   2.248   1.605
 9821SOL    HW130362   4.903   2.307   1.652
 9821SOL    HW230363   4.860   2.152   1.623
 9822SOL     OW30364   4.519   5.817   4.226
 9822SOL    HW130365   4.444   5.794   4.288
 9822SOL    HW230366   4.486   5.878   4.154
 9823SOL     OW30367   1.549   0.950   2.374
 9823SOL    HW130368   1.544   0.850   2.366
 9823SOL    HW230369   1.570   0.975   2.469
 9824SOL     OW30370   2.569   5.900   5.801
 9824SOL    HW130371   2.603   5.881   5.709
 9824SOL    HW230372   2.511   5.981   5.799
 9825SOL     OW30373   5.378   6.256   5.182
 9825SOL    HW130374   5.286   6.220   5.201
 9825SOL    HW230375   5.376   6.356   5.185
 9826SOL     OW30376   3.657   7.014   5.708
 9826SOL    HW130377   3.685   0.031   5.794
 9826SOL    HW230378   3.570   0.028   5.678
 9827SOL     OW30379   1.961   5.426   2.461
 9827SOL    HW130380   2.003   5.439   2.551
 9827SOL    HW230381   1.890   5.495   2.447
 9828SOL     OW30382   3.615   1.919   4.887
 9828SOL    HW130383   3.540   1.981   4.909
 9828SOL    HW230384   3.694   1.972   4.857
 9829SOL     OW30385   5.188   6.247   5.724
 9829SOL    HW130386   5.178   6.258   5.823
 9829SOL    HW230387   5.246   6.320   5.688
 9830SOL     OW30388   5.908   1.426   2.397
 9830SOL    HW130389   5.941   1.335   2.421
 9830SOL    HW230390   5.809   1.425   2.389
 9831SOL     OW30391   0.029   4.308   2.094
 9831SOL    HW130392   0.009   4.400   2.059
 9831SOL    HW230393   0.105   4.313   2.158
 9832SOL     OW30394   5.159   4.553   4.304
 9832SOL    HW130395   5.150   4.581   4.400
 9832SOL    HW230396   5.215   4.620   4.256
 9833SOL     OW30397   3.424   3.910   3.523
 9833SOL    HW130398   3.358   3.895   3.450
 9833SOL    HW230399   3.447   3.823   3.567
 9834SOL     OW30400   2.255   5.497   5.756
 9834SOL    HW130401   2.340   5.503   5.808
 9834SOL    HW230402   2.261   5.558   5.677
 9835SOL     OW30403   3.713   4.098   4.541
 9835SOL    HW130404   3.734   4.063   4.633
 9835SOL    HW230405   3.634   4.159   4.546
 9836SOL     OW30406   1.220   3.742   6.444
 9836SOL    HW130407   1.307   3.772   6.405
 9836SOL    HW230408   1.145   3.782   6.393
 9837SOL     OW30409   5.612   2.054   1.692
 9837SOL    HW130410   5.534   2.068   1.754
 9837SOL    HW230411   5.615   2.129   1.626
 9838SOL     OW30412   1.285   6.024   1.309
 9838SOL    HW130413   1.341   5.941   1.303
 9838SOL    HW230414   1.209   6.008   1.372
 9839SOL     OW30415   4.770   1.194   3.565
 9839SOL    HW130416   4.780   1.109   3.513
 9839SOL    HW230417   4.686   1.190   3.620
 9840SOL     OW30418   5.059   1.316   6.890
 9840SOL    HW130419   5.069   1.403   6.843
 9840SOL    HW230420   4.963   1.299   6.911
 9841SOL     OW30421   0.209   5.531   3.533
 9841SOL    HW130422   0.125   5.528   3.588
 9841SOL    HW230423   0.215   5.619   3.486
 9842SOL     OW30424   3.859   3.115   0.316
 9842SOL    HW130425   3.798   3.035   0.309
 9842SOL    HW230426   3.804   3.196   0.335
 9843SOL     OW30427   6.628   0.111   1.442
 9843SOL    HW130428   6.540   0.074   1.471
 9843SOL    HW230429   6.695   0.037   1.437
 9844SOL     OW30430   5.517   0.487   4.812
 9844SOL    HW130431   5.423   0.508   4.786
 9844SOL    HW230432   5.518   0.444   4.903
 9845SOL     OW30433   1.205   2.308   2.618
 9845SOL    HW130434   1.111   2.299   2.653
 9845SOL    HW230435   1.204   2.308   2.518
 9846SOL     OW30436   5.093   1.193   1.233
 9846SOL    HW130437   5.118   1.255   1.159
 9846SOL    HW230438   5.170   1.131   1.252
 9847SOL     OW30439   3.960   2.756   1.710
 9847SOL    HW130440   4.019   2.676   1.699
 9847SOL    HW230441   3.876   2.742   1.658
 9848SOL     OW30442   3.078   3.849   5.339
 9848SOL    HW130443   3.113   3.936   5.374
 9848SOL    HW230444   3.148   3.779   5.347
 9849SOL     OW30445   1.347   0.955   6.418
 9849SOL    HW130446   1.304   1.035   6.376
 9849SOL    HW230447   1.363   0.885   6.348
 9850SOL     OW30448   0.145   0.506   4.223
 9850SOL    HW130449   0.103   0.433   4.276
 9850SOL    HW230450   0.244   0.492   4.221
 9851SOL     OW30451   3.456   5.286   4.499
 9851SOL    HW130452   3.507   5.295   4.413
 9851SOL    HW230453   3.449   5.189   4.523
 9852SOL     OW30454   0.993   1.505   6.454
 9852SOL    HW130455   1.025   1.579   6.394
 9852SOL    HW230456   0.967   1.544   6.542
 9853SOL     OW30457   0.062   3.997   4.525
 9853SOL    HW130458   0.145   3.963   4.568
 9853SOL    HW230459   0.078   4.010   4.427
 9854SOL     OW30460   0.844   5.979   6.169
 9854SOL    HW130461   0.925   5.941   6.123
 9854SOL    HW230462   0.795   6.038   6.105
 9855SOL     OW30463   1.101   3.498   0.529
 9855SOL    HW130464   1.068   3.427   0.591
 9855SOL    HW230465   1.098   3.465   0.435
 9856SOL     OW30466   6.157   5.203   3.742
 9856SOL    HW130467   6.252   5.206   3.775
 9856SOL    HW230468   6.100   5.155   3.807
 9857SOL     OW30469   5.053   2.815   3.520
 9857SOL    HW130470   5.053   2.915   3.530
 9857SOL    HW230471   4.969   2.786   3.475
 9858SOL     OW30472   1.011   6.756   2.308
 9858SOL    HW130473   1.097   6.766   2.258
 9858SOL    HW230474   1.002   6.661   2.339
 9859SOL     OW30475   6.646   4.773   5.159
 9859SOL    HW130476   6.675   4.677   5.169
 9859SOL    HW230477   6.577   4.794   5.228
 9860SOL     OW30478   2.081   2.579   5.172
 9860SOL    HW130479   2.015   2.540   5.108
 9860SOL    HW230480   2.102   2.512   5.243
 9861SOL     OW30481   2.732   1.224   3.996
 9861SOL    HW130482   2.712   1.130   4.022
 9861SOL    HW230483   2.830   1.242   4.008
 9862SOL     OW30484   2.506   4.505   1.343
 9862SOL    HW130485   2.550   4.516   1.254
 9862SOL    HW230486   2.512   4.590   1.394
 9863SOL     OW30487   3.010   5.879   0.695
 9863SOL    HW130488   3.068   5.933   0.756
 9863SOL    HW230489   3.007   5.784   0.728
 9864SOL     OW30490   2.718   6.522   5.120
 9864SOL    HW130491   2.775   6.559   5.194
 9864SOL    HW230492   2.699   6.426   5.138
 9865SOL     OW30493   0.588   6.882   5.230
 9865SOL    HW130494   0.505   6.921   5.269
 9865SOL    HW230495   0.568   6.793   5.189
 9866SOL     OW30496   6.226   4.218   4.559
 9866SOL    HW130497   6.302   4.211   4.624
 9866SOL    HW230498   6.243   4.158   4.481
 9867SOL     OW30499   5.055   2.057   2.482
 9867SOL    HW130500   4.966   2.074   2.441
 9867SOL    HW230501   5.049   2.071   2.581
 9868SOL     OW30502   1.275   4.678   3.525
 9868SOL    HW130503   1.371   4.662   3.551
 9868SOL    HW230504   1.269   4.690   3.426
 9869SOL     OW30505   0.277   2.514   0.846
 9869SOL    HW130506   0.330   2.512   0.761
 9869SOL    HW230507   0.338   2.522   0.924
 9870SOL     OW30508   3.715   1.662   1.677
 9870SOL    HW130509   3.656   1.581   1.677
 9870SOL    HW230510   3.724   1.696   1.770
 9871SOL     OW30511   0.190   3.213   5.346
 9871SOL    HW130512   0.185   3.148   5.421
 9871SOL    HW230513   0.099   3.248   5.324
 9872SOL     OW30514   2.312   5.673   5.111
 9872SOL    HW130515   2.383   5.715   5.053
 9872SOL    HW230516   2.295   5.580   5.080
 9873SOL     OW30517   1.641   2.187   5.899
 9873SOL    HW130518   1.575   2.112   5.896
 9873SOL    HW230519   1.720   2.159   5.954
 9874SOL     OW30520   0.587   2.998   4.516
 9874SOL    HW130521   0.543   2.909   4.521
 9874SOL    HW230522   0.556   3.055   4.593
 9875SOL     OW30523   0.043   6.234   0.835
 9875SOL    HW130524   0.000   6.308   0.783
 9875SOL    HW230525   0.122   6.199   0.785
 9876SOL     OW30526   3.077   0.189   3.419
 9876SOL    HW130527   3.126   0.117   3.370
 9876SOL    HW230528   3.065   0.268   3.359
 9877SOL     OW30529   0.192   4.506   4.609
 9877SOL    HW130530   0.279   4.551   4.589
 9877SOL    HW230531   0.144   4.487   4.523
 9878SOL     OW30532   1.776   3.117   0.001
 9878SOL    HW130533   1.874   3.138   0.007
 9878SOL    HW230534   1.750   3.055   0.075
 9879SOL     OW30535   1.635   4.339   6.153
 9879SOL    HW130536   1.680   4.425   6.176
 9879SOL    HW230537   1.556   4.357   6.095
 9880SOL     OW30538   2.352   1.045   0.524
 9880SOL    HW130539   2.411   1.082   0.453
 9880SOL    HW230540   2.407   1.021   0.604
 9881SOL     OW30541   5.289   0.674   4.482
 9881SOL    HW130542   5.210   0.716   4.525
 9881SOL    HW230543   5.259   0.599   4.422
 9882SOL     OW30544   3.864   2.981   4.752
 9882SOL    HW130545   3.841   2.985   4.655
 9882SOL    HW230546   3.809   2.911   4.797
 9883SOL     OW30547   1.656   6.212   1.705
 9883SOL    HW130548   1.578   6.189   1.648
 9883SOL    HW230549   1.630   6.283   1.770
 9884SOL     OW30550   1.686   2.932   6.830
 9884SOL    HW130551   1.603   2.972   6.792
 9884SOL    HW230552   1.716   2.985   6.910
 9885SOL     OW30553   6.769   3.157   3.392
 9885SOL    HW130554   6.846   3.134   3.331
 9885SOL    HW230555   6.803   3.178   3.483
 9886SOL     OW30556   5.456   6.273   1.352
 9886SOL    HW130557   5.531   6.320   1.304
 9886SOL    HW230558   5.420   6.200   1.295
 9887SOL     OW30559   3.890   6.492   0.395
 9887SOL    HW130560   3.939   6.465   0.478
 9887SOL    HW230561   3.796   6.457   0.398
 9888SOL     OW30562   5.616   5.792   2.291
 9888SOL    HW130563   5.616   5.704   2.244
 9888SOL    HW230564   5.683   5.853   2.248
 9889SOL     OW30565   0.164   5.007   3.114
 9889SOL    HW130566   0.125   4.919   3.086
 9889SOL    HW230567   0.186   5.005   3.212
 9890SOL     OW30568   6.584   3.255   0.656
 9890SOL    HW130569   6.539   3.329   0.605
 9890SOL    HW230570   6.673   3.286   0.689
 9891SOL     OW30571   4.776   5.302   0.873
 9891SOL    HW130572   4.677   5.291   0.867
 9891SOL    HW230573   4.801   5.344   0.960
 9892SOL     OW30574   2.197   5.643   3.806
 9892SOL    HW130575   2.290   5.610   3.816
 9892SOL    HW230576   2.142   5.614   3.884
 9893SOL     OW30577   5.644   5.438   2.722
 9893SOL    HW130578   5.615   5.347   2.752
 9893SOL    HW230579   5.564   5.491   2.695
 9894SOL     OW30580   3.951   2.335   5.883
 9894SOL    HW130581   3.941   2.374   5.974
 9894SOL    HW230582   3.946   2.235   5.889
 9895SOL     OW30583   5.123   2.457   6.337
 9895SOL    HW130584   5.084   2.377   6.384
 9895SOL    HW230585   5.133   2.438   6.240
 9896SOL     OW30586   3.577   3.234   0.885
 9896SOL    HW130587   3.669   3.195   0.879
 9896SOL    HW230588   3.528   3.192   0.961
 9897SOL     OW30589   4.845   1.534   2.554
 9897SOL    HW130590   4.907   1.609   2.530
 9897SOL    HW230591   4.877   1.490   2.639
 9898SOL     OW30592   0.917   5.360   5.589
 9898SOL    HW130593   0.860   5.435   5.555
 9898SOL    HW230594   0.920   5.287   5.521
 9899SOL     OW30595   5.083   4.888   2.393
 9899SOL    HW130596   5.085   4.799   2.439
 9899SOL    HW230597   5.153   4.948   2.432
 9900SOL     OW30598   1.243   1.959   3.840
 9900SOL    HW130599   1.198   2.029   3.784
 9900SOL    HW230600   1.174   1.897   3.878
 9901SOL     OW30601   2.109   2.151   6.396
 9901SOL    HW130602   2.207   2.158   6.413
 9901SOL    HW230603   2.085   2.055   6.379
 9902SOL     OW30604   3.494   3.486   0.988
 9902SOL    HW130605   3.459   3.519   0.900
 9902SOL    HW230606   3.526   3.392   0.978
 9903SOL     OW30607   4.554   1.776   2.775
 9903SOL    HW130608   4.474   1.755   2.832
 9903SOL    HW230609   4.526   1.783   2.679
 9904SOL     OW30610   6.672   2.792   0.555
 9904SOL    HW130611   6.681   2.694   0.567
 9904SOL    HW230612   6.649   2.835   0.643
 9905SOL     OW30613   1.245   6.116   6.415
 9905SOL    HW130614   1.176   6.186   6.402
 9905SOL    HW230615   1.297   6.135   6.498
 9906SOL     OW30616   1.747   2.558   6.326
 9906SOL    HW130617   1.768   2.655   6.335
 9906SOL    HW230618   1.833   2.506   6.317
 9907SOL     OW30619   2.385   6.142   3.142
 9907SOL    HW130620   2.485   6.153   3.143
 9907SOL    HW230621   2.346   6.196   3.068
 9908SOL     OW30622   0.491   3.240   6.558
 9908SOL    HW130623   0.444   3.191   6.485
 9908SOL    HW230624   0.464   3.336   6.558
 9909SOL     OW30625   3.058   1.789   2.727
 9909SOL    HW130626   3.052   1.718   2.657
 9909SOL    HW230627   3.035   1.878   2.687
 9910SOL     OW30628   6.967   4.752   0.858
 9910SOL    HW130629   7.012   4.826   0.909
 9910SOL    HW230630   0.002   4.719   0.787
 9911SOL     OW30631   4.424   4.740   3.272
 9911SOL    HW130632   4.518   4.712   3.251
 9911SOL    HW230633   4.415   4.758   3.370
 9912SOL     OW30634   4.574   0.980   2.221
 9912SOL    HW130635   4.530   1.025   2.144
 9912SOL    HW230636   4.607   1.050   2.285
 9913SOL     OW30637   5.237   2.863   2.649
 9913SOL    HW130638   5.328   2.890   2.679
 9913SOL    HW230639   5.229   2.878   2.550
 9914SOL     OW30640   1.846   0.424   5.388
 9914SOL    HW130641   1.869   0.460   5.478
 9914SOL    HW230642   1.754   0.385   5.390
 9915SOL     OW30643   5.089   3.391   3.993
 9915SOL    HW130644   5.161   3.339   4.040
 9915SOL    HW230645   5.118   3.410   3.900
 9916SOL     OW30646   2.089   3.097   2.455
 9916SOL    HW130647   2.149   3.043   2.515
 9916SOL    HW230648   2.049   3.037   2.386
 9917SOL     OW30649   3.213   3.882   5.096
 9917SOL    HW130650   3.174   3.841   5.179
 9917SOL    HW230651   3.151   3.950   5.059
 9918SOL     OW30652   2.038   1.408   5.632
 9918SOL    HW130653   1.982   1.326   5.641
 9918SOL    HW230654   2.068   1.439   5.723
 9919SOL     OW30655   1.414   6.282   2.306
 9919SOL    HW130656   1.335   6.334   2.338
 9919SOL    HW230657   1.391   6.232   2.223
 9920SOL     OW30658   3.962   6.958   1.603
 9920SOL    HW130659   3.977   0.024   1.567
 9920SOL    HW230660   3.907   6.963   1.687
 9921SOL     OW30661   6.145   0.071   3.283
 9921SOL    HW130662   6.078   0.138   3.251
 9921SOL    HW230663   6.133   0.057   3.382
 9922SOL     OW30664   4.023   4.713   0.919
 9922SOL    HW130665   3.939   4.726   0.865
 9922SOL    HW230666   4.004   4.652   0.995
 9923SOL     OW30667   6.596   2.326   6.142
 9923SOL    HW130668   6.655   2.306   6.063
 9923SOL    HW230669   6.596   2.247   6.203
 9924SOL     OW30670   6.224   1.440   2.635
 9924SOL    HW130671   6.188   1.525   2.597
 9924SOL    HW230672   6.239   1.452   2.733
 9925SOL     OW30673   2.551   3.630   5.784
 9925SOL    HW130674   2.538   3.698   5.856
 9925SOL    HW230675   2.516   3.666   5.697
 9926SOL     OW30676   1.252   1.298   0.969
 9926SOL    HW130677   1.251   1.294   0.869
 9926SOL    HW230678   1.299   1.218   1.005
 9927SOL     OW30679   0.795   1.773   2.422
 9927SOL    HW130680   0.797   1.811   2.329
 9927SOL    HW230681   0.807   1.847   2.488
 9928SOL     OW30682   0.358   4.790   1.450
 9928SOL    HW130683   0.302   4.868   1.421
 9928SOL    HW230684   0.387   4.803   1.545
 9929SOL     OW30685   3.355   4.347   5.815
 9929SOL    HW130686   3.375   4.255   5.849
 9929SOL    HW230687   3.300   4.396   5.883
 9930SOL     OW30688   0.665   0.650   6.502
 9930SOL    HW130689   0.611   0.673   6.421
 9930SOL    HW230690   0.608   0.599   6.566
 9931SOL     OW30691   1.466   6.249   4.858
 9931SOL    HW130692   1.548   6.252   4.801
 9931SOL    HW230693   1.489   6.278   4.951
 9932SOL     OW30694   1.511   1.832   0.403
 9932SOL    HW130695   1.419   1.868   0.393
 9932SOL    HW230696   1.556   1.876   0.481
 9933SOL     OW30697   2.667   0.759   3.158
 9933SOL    HW130698   2.664   0.843   3.104
 9933SOL    HW230699   2.732   0.695   3.116
 9934SOL     OW30700   5.841   1.490   6.465
 9934SOL    HW130701   5.754   1.533   6.442
 9934SOL    HW230702   5.851   1.406   6.412
 9935SOL     OW30703   2.830   2.234   0.214
 9935SOL    HW130704   2.791   2.174   0.284
 9935SOL    HW230705   2.763   2.250   0.142
 9936SOL     OW30706   4.961   5.365   5.800
 9936SOL    HW130707   5.003   5.274   5.808
 9936SOL    HW230708   5.016   5.422   5.740
 9937SOL     OW30709   0.262   0.217   2.637
 9937SOL    HW130710   0.215   0.154   2.576
 9937SOL    HW230711   0.224   0.210   2.729
 9938SOL     OW30712   6.706   1.285   4.839
 9938SOL    HW130713   6.633   1.274   4.907
 9938SOL    HW230714   6.685   1.229   4.759
 9939SOL     OW30715   2.104   3.952   1.276
 9939SOL    HW130716   2.073   4.030   1.220
 9939SOL    HW230717   2.194   3.923   1.245
 9940SOL     OW30718   0.405   0.143   3.044
 9940SOL    HW130719   0.419   0.146   3.143
 9940SOL    HW230720   0.471   0.080   3.002
 9941SOL     OW30721   4.021   5.256   5.588
 9941SOL    HW130722   4.039   5.322   5.516
 9941SOL    HW230723   3.963   5.298   5.658
 9942SOL     OW30724   4.686   4.727   3.447
 9942SOL    HW130725   4.638   4.649   3.487
 9942SOL    HW230726   4.638   4.811   3.470
 9943SOL     OW30727   1.781   3.884   0.311
 9943SOL    HW130728   1.700   3.937   0.285
 9943SOL    HW230729   1.767   3.788   0.287
 9944SOL     OW30730   1.688   4.912   0.140
 9944SOL    HW130731   1.743   4.938   0.060
 9944SOL    HW230732   1.656   4.818   0.129
 9945SOL     OW30733   6.175   4.012   0.270
 9945SOL    HW130734   6.128   3.956   0.202
 9945SOL    HW230735   6.188   3.960   0.353
 9946SOL     OW30736   5.800   0.793   3.000
 9946SOL    HW130737   5.838   0.742   2.923
 9946SOL    HW230738   5.857   0.779   3.081
 9947SOL     OW30739   1.318   2.290   4.312
 9947SOL    HW130740   1.399   2.299   4.369
 9947SOL    HW230741   1.343   2.303   4.216
 9948SOL     OW30742   6.303   0.058   3.586
 9948SOL    HW130743   6.376   0.022   3.528
 9948SOL    HW230744   6.277   7.015   3.654
 9949SOL     OW30745   6.329   4.386   5.067
 9949SOL    HW130746   6.398   4.314   5.057
 9949SOL    HW230747   6.371   4.475   5.052
 9950SOL     OW30748   6.290   5.001   6.102
 9950SOL    HW130749   6.282   5.004   6.003
 9950SOL    HW230750   6.385   5.020   6.129
 9951SOL     OW30751   0.841   3.266   2.615
 9951SOL    HW130752   0.932   3.258   2.575
 9951SOL    HW230753   0.848   3.265   2.715
 9952SOL     OW30754   0.855   4.179   1.585
 9952SOL    HW130755   0.791   4.191   1.661
 9952SOL    HW230756   0.915   4.259   1.579
 9953SOL     OW30757   6.100   2.704   3.631
 9953SOL    HW130758   6.183   2.754   3.607
 9953SOL    HW230759   6.108   2.668   3.724
 9954SOL     OW30760   2.900   1.522   5.762
 9954SOL    HW130761   2.948   1.468   5.694
 9954SOL    HW230762   2.966   1.570   5.819
 9955SOL     OW30763   4.409   3.257   0.943
 9955SOL    HW130764   4.439   3.218   1.030
 9955SOL    HW230765   4.470   3.332   0.916
 9956SOL     OW30766   1.445   4.637   3.145
 9956SOL    HW130767   1.368   4.691   3.176
 9956SOL    HW230768   1.417   4.579   3.069
 9957SOL     OW30769   5.493   6.666   1.676
 9957SOL    HW130770   5.558   6.743   1.673
 9957SOL    HW230771   5.472   6.645   1.771
 9958SOL     OW30772   4.286   4.795   5.762
 9958SOL    HW130773   4.257   4.703   5.735
 9958SOL    HW230774   4.244   4.862   5.701
 9959SOL     OW30775   4.406   4.012   1.206
 9959SOL    HW130776   4.452   3.945   1.265
 9959SOL    HW230777   4.348   4.071   1.263
 9960SOL     OW30778   6.714   6.524   1.096
 9960SOL    HW130779   6.708   6.455   1.167
 9960SOL    HW230780   6.635   6.517   1.035
 9961SOL     OW30781   1.759   4.094   2.023
 9961SOL    HW130782   1.845   4.098   1.973
 9961SOL    HW230783   1.690   4.047   1.968
 9962SOL     OW30784   3.116   5.786   2.329
 9962SOL    HW130785   3.061   5.802   2.247
 9962SOL    HW230786   3.208   5.757   2.303
 9963SOL     OW30787   2.216   1.614   0.386
 9963SOL    HW130788   2.118   1.600   0.398
 9963SOL    HW230789   2.263   1.600   0.473
 9964SOL     OW30790   4.595   4.542   5.278
 9964SOL    HW130791   4.657   4.497   5.214
 9964SOL    HW230792   4.626   4.525   5.371
 9965SOL     OW30793   2.741   6.275   4.890
 9965SOL    HW130794   2.753   6.204   4.821
 9965SOL    HW230795   2.784   6.247   4.975
 9966SOL     OW30796   2.856   4.778   2.186
 9966SOL    HW130797   2.944   4.815   2.155
 9966SOL    HW230798   2.836   4.693   2.137
 9967SOL     OW30799   6.084   6.646   2.652
 9967SOL    HW130800   6.055   6.690   2.567
 9967SOL    HW230801   6.150   6.706   2.699
 9968SOL     OW30802   4.325   6.105   0.259
 9968SOL    HW130803   4.405   6.054   0.228
 9968SOL    HW230804   4.256   6.041   0.292
 9969SOL     OW30805   0.567   4.400   4.639
 9969SOL    HW130806   0.658   4.365   4.660
 9969SOL    HW230807   0.531   4.448   4.719
 9970SOL     OW30808   5.726   5.415   1.951
 9970SOL    HW130809   5.763   5.332   1.993
 9970SOL    HW230810   5.633   5.397   1.919
 9971SOL     OW30811   1.296   3.181   1.926
 9971SOL    HW130812   1.206   3.210   1.895
 9971SOL    HW230813   1.326   3.241   2.001
 9972SOL     OW30814   3.369   3.628   0.770
 9972SOL    HW130815   3.282   3.621   0.721
 9972SOL    HW230816   3.435   3.675   0.712
 9973SOL     OW30817   4.269   1.691   4.439
 9973SOL    HW130818   4.198   1.737   4.492
 9973SOL    HW230819   4.320   1.759   4.386
 9974SOL     OW30820   6.737   2.475   3.418
 9974SOL    HW130821   6.711   2.423   3.500
 9974SOL    HW230822   6.675   2.451   3.343
 9975SOL     OW30823   1.190   5.242   0.035
 9975SOL    HW130824   1.257   5.186   7.012
 9975SOL    HW230825   1.159   5.316   7.001
 9976SOL     OW30826   1.476   5.346   5.777
 9976SOL    HW130827   1.435   5.342   5.868
 9976SOL    HW230828   1.558   5.288   5.774
 9977SOL     OW30829   5.468   5.193   4.929
 9977SOL    HW130830   5.421   5.180   4.842
 9977SOL    HW230831   5.533   5.119   4.944
 9978SOL     OW30832   0.306   2.085   6.104
 9978SOL    HW130833   0.304   2.171   6.052
 9978SOL    HW230834   0.346   2.102   6.194
 9979SOL     OW30835   5.123   3.407   6.071
 9979SOL    HW130836   5.041   3.463   6.077
 9979SOL    HW230837   5.165   3.417   5.981
 9980SOL     OW30838   1.448   0.709   0.167
 9980SOL    HW130839   1.360   0.746   0.137
 9980SOL    HW230840   1.445   0.609   0.165
 9981SOL     OW30841   1.532   2.499   1.145
 9981SOL    HW130842   1.596   2.423   1.132
 9981SOL    HW230843   1.578   2.585   1.123
 9982SOL     OW30844   2.360   1.067   4.761
 9982SOL    HW130845   2.377   1.017   4.846
 9982SOL    HW230846   2.369   1.165   4.779
 9983SOL     OW30847   6.084   2.773   2.493
 9983SOL    HW130848   6.171   2.725   2.489
 9983SOL    HW230849   6.015   2.712   2.533
 9984SOL     OW30850   0.444   6.211   1.312
 9984SOL    HW130851   0.376   6.237   1.243
 9984SOL    HW230852   0.532   6.251   1.289
 9985SOL     OW30853   3.194   5.118   0.324
 9985SOL    HW130854   3.137   5.139   0.404
 9985SOL    HW230855   3.242   5.201   0.295
 9986SOL     OW30856   4.826   4.477   1.077
 9986SOL    HW130857   4.830   4.541   1.000
 9986SOL    HW230858   4.847   4.385   1.044
 9987SOL     OW30859   5.418   3.295   1.677
 9987SOL    HW130860   5.470   3.229   1.621
 9987SOL    HW230861   5.320   3.280   1.663
 9988SOL     OW30862   6.649   5.592   3.961
 9988SOL    HW130863   6.662   5.642   4.047
 9988SOL    HW230864   6.552   5.584   3.941
 9989SOL     OW30865   6.220   3.422   1.848
 9989SOL    HW130866   6.200   3.415   1.946
 9989SOL    HW230867   6.296   3.486   1.834
 9990SOL     OW30868   0.148   6.281   3.286
 9990SOL    HW130869   0.103   6.225   3.356
 9990SOL    HW230870   0.158   6.227   3.203
 9991SOL     OW30871   1.454   3.733   3.433
 9991SOL    HW130872   1.527   3.738   3.364
 9991SOL    HW230873   1.459   3.813   3.492
 9992SOL     OW30874   3.328   3.779   1.020
 9992SOL    HW130875   3.349   3.698   0.965
 9992SOL    HW230876   3.270   3.840   0.967
 9993SOL     OW30877   3.403   6.113   3.513
 9993SOL    HW130878   3.395   6.048   3.589
 9993SOL    HW230879   3.500   6.135   3.499
 9994SOL     OW30880   0.085   3.877   3.474
 9994SOL    HW130881   0.128   3.939   3.408
 9994SOL    HW230882   0.069   3.925   3.560
 9995SOL     OW30883   2.970   0.958   4.012
 9995SOL    HW130884   3.050   0.955   4.073
 9995SOL    HW230885   2.991   1.013   3.932
 9996SOL     OW30886   2.690   4.331   0.459
 9996SOL    HW130887   2.758   4.270   0.418
 9996SOL    HW230888   2.616   4.348   0.393
 9997SOL     OW30889   5.490   1.623   3.676
 9997SOL    HW130890   5.477   1.535   3.630
 9997SOL    HW230891   5.483   1.697   3.608
 9998SOL     OW30892   5.228   3.838   2.381
 9998SOL    HW130893   5.225   3.750   2.333
 9998SOL    HW230894   5.222   3.822   2.480
 9999SOL     OW30895   0.758   0.219   4.159
 9999SOL    HW130896   0.848   0.209   4.202
 9999SOL    HW230897   0.707   0.133   4.168
10000SOL     OW30898   5.497   1.467   1.813
10000SOL    HW130899   5.502   1.546   1.753
10000SOL    HW230900   5.561   1.478   1.889
10001SOL     OW30901   3.453   6.299   2.537
10001SOL    HW130902   3.418   6.221   2.587
10001SOL    HW230903   3.380   6.338   2.480
10002SOL     OW30904   2.176   1.125   0.724
10002SOL    HW130905   2.203   1.087   0.812
10002SOL    HW230906   2.237   1.092   0.652
10003SOL     OW30907   2.948   1.667   2.412
10003SOL    HW130908   2.956   1.755   2.367
10003SOL    HW230909   2.976   1.594   2.349
10004SOL     OW30910   5.775   4.967   4.611
10004SOL    HW130911   5.716   4.967   4.692
10004SOL    HW230912   5.718   4.968   4.529
10005SOL     OW30913   2.990   5.655   3.425
10005SOL    HW130914   2.899   5.694   3.440
10005SOL    HW230915   3.049   5.723   3.382
10006SOL     OW30916   5.617   0.095   5.285
10006SOL    HW130917   5.661   0.164   5.343
10006SOL    HW230918   5.646   0.004   5.314
10007SOL     OW30919   0.533   3.775   4.844
10007SOL    HW130920   0.588   3.856   4.824
10007SOL    HW230921   0.501   3.735   4.758
10008SOL     OW30922   4.035   2.049   4.312
10008SOL    HW130923   4.125   2.092   4.320
10008SOL    HW230924   4.041   1.968   4.254
10009SOL     OW30925   1.723   3.942   1.719
10009SOL    HW130926   1.732   4.038   1.692
10009SOL    HW230927   1.812   3.898   1.713
10010SOL     OW30928   3.190   5.248   6.484
10010SOL    HW130929   3.266   5.199   6.442
10010SOL    HW230930   3.181   5.219   6.580
10011SOL     OW30931   0.100   4.489   0.007
10011SOL    HW130932   0.191   4.448   0.020
10011SOL    HW230933   0.102   4.549   6.953
10012SOL     OW30934   4.865   0.370   1.951
10012SOL    HW130935   4.767   0.374   1.934
10012SOL    HW230936   4.898   0.277   1.934
10013SOL     OW30937   0.905   4.782   4.513
10013SOL    HW130938   0.928   4.820   4.424
10013SOL    HW230939   0.962   4.702   4.531
10014SOL     OW30940   1.531   6.884   2.545
10014SOL    HW130941   1.452   6.935   2.579
10014SOL    HW230942   1.528   6.881   2.445
10015SOL     OW30943   3.612   4.976   0.085
10015SOL    HW130944   3.562   5.019   0.010
10015SOL    HW230945   3.704   5.013   0.090
10016SOL     OW30946   2.431   1.563   4.724
10016SOL    HW130947   2.515   1.524   4.686
10016SOL    HW230948   2.389   1.622   4.655
10017SOL     OW30949   2.252   1.801   2.470
10017SOL    HW130950   2.153   1.811   2.480
10017SOL    HW230951   2.273   1.716   2.421
10018SOL     OW30952   6.752   3.855   5.555
10018SOL    HW130953   6.787   3.866   5.462
10018SOL    HW230954   6.801   3.916   5.617
10019SOL     OW30955   0.299   1.333   3.367
10019SOL    HW130956   0.289   1.433   3.369
10019SOL    HW230957   0.286   1.300   3.274
10020SOL     OW30958   0.452   0.927   2.149
10020SOL    HW130959   0.461   0.831   2.176
10020SOL    HW230960   0.356   0.955   2.155
10021SOL     OW30961   0.900   3.262   2.132
10021SOL    HW130962   0.865   3.180   2.178
10021SOL    HW230963   0.922   3.241   2.037
10022SOL     OW30964   2.121   5.755   6.914
10022SOL    HW130965   2.022   5.755   6.898
10022SOL    HW230966   2.150   5.846   6.944
10023SOL     OW30967   2.929   6.103   5.658
10023SOL    HW130968   2.965   6.196   5.657
10023SOL    HW230969   3.002   6.039   5.635
10024SOL     OW30970   1.101   4.831   2.663
10024SOL    HW130971   1.171   4.810   2.731
10024SOL    HW230972   1.040   4.901   2.699
10025SOL     OW30973   1.672   3.047   2.227
10025SOL    HW130974   1.669   3.023   2.324
10025SOL    HW230975   1.668   3.147   2.217
10026SOL     OW30976   5.136   0.686   3.098
10026SOL    HW130977   5.174   0.772   3.063
10026SOL    HW230978   5.189   0.658   3.178
10027SOL     OW30979   0.851   2.807   4.846
10027SOL    HW130980   0.785   2.732   4.847
10027SOL    HW230981   0.894   2.812   4.756
10028SOL     OW30982   3.034   1.016   0.948
10028SOL    HW130983   2.941   0.990   0.924
10028SOL    HW230984   3.064   1.091   0.888
10029SOL     OW30985   0.669   3.488   3.837
10029SOL    HW130986   0.602   3.421   3.871
10029SOL    HW230987   0.739   3.441   3.784
10030SOL     OW30988   3.269   6.934   4.795
10030SOL    HW130989   3.230   6.996   4.863
10030SOL    HW230990   3.229   6.954   4.705
10031SOL     OW30991   4.472   4.858   4.591
10031SOL    HW130992   4.522   4.845   4.676
10031SOL    HW230993   4.385   4.904   4.610
10032SOL     OW30994   3.880   0.336   6.432
10032SOL    HW130995   3.923   0.247   6.416
10032SOL    HW230996   3.789   0.322   6.471
10033SOL     OW30997   4.078   1.632   4.800
10033SOL    HW130998   4.024   1.712   4.829
10033SOL    HW230999   4.127   1.654   4.716
10034SOL     OW31000   2.387   1.207   3.877
10034SOL    HW131001   2.429   1.164   3.957
10034SOL    HW231002   2.341   1.291   3.904
10035SOL     OW31003   5.626   3.844   1.062
10035SOL    HW131004   5.706   3.844   1.122
10035SOL    HW231005   5.656   3.851   0.966
10036SOL     OW31006   6.558   0.900   0.605
10036SOL    HW131007   6.593   0.812   0.637
10036SOL    HW231008   6.472   0.921   0.653
10037SOL     OW31009   6.534   6.752   6.652
10037SOL    HW131010   6.462   6.774   6.586
10037SOL    HW231011   6.588   6.834   6.672
10038SOL     OW31012   4.071   6.761   6.098
10038SOL    HW131013   4.148   6.819   6.122
10038SOL    HW231014   4.063   6.756   5.998
10039SOL     OW31015   5.326   6.525   5.398
10039SOL    HW131016   5.249   6.521   5.463
10039SOL    HW231017   5.412   6.526   5.449
10040SOL     OW31018   4.630   6.065   6.602
10040SOL    HW131019   4.607   6.110   6.516
10040SOL    HW231020   4.699   6.119   6.651
10041SOL     OW31021   5.947   5.381   5.755
10041SOL    HW131022   5.952   5.463   5.812
10041SOL    HW231023   5.881   5.317   5.793
10042SOL     OW31024   0.365   0.949   5.243
10042SOL    HW131025   0.301   0.872   5.245
10042SOL    HW231026   0.386   0.978   5.336
10043SOL     OW31027   0.724   0.064   3.420
10043SOL    HW131028   0.649   0.092   3.360
10043SOL    HW231029   0.807   0.116   3.398
10044SOL     OW31030   2.653   1.821   3.880
10044SOL    HW131031   2.717   1.889   3.916
10044SOL    HW231032   2.695   1.731   3.882
10045SOL     OW31033   5.216   0.296   3.982
10045SOL    HW131034   5.127   0.250   3.976
10045SOL    HW231035   5.228   0.332   4.075
10046SOL     OW31036   0.994   1.534   1.945
10046SOL    HW131037   0.937   1.573   2.017
10046SOL    HW231038   1.072   1.595   1.927
10047SOL     OW31039   6.191   3.114   4.922
10047SOL    HW131040   6.238   3.193   4.882
10047SOL    HW231041   6.247   3.032   4.911
10048SOL     OW31042   3.377   1.960   2.351
10048SOL    HW131043   3.299   2.005   2.308
10048SOL    HW231044   3.461   1.988   2.304
10049SOL     OW31045   0.657   0.954   6.258
10049SOL    HW131046   0.749   0.930   6.225
10049SOL    HW231047   0.665   1.018   6.335
10050SOL     OW31048   6.403   2.591   4.861
10050SOL    HW131049   6.439   2.499   4.878
10050SOL    HW231050   6.342   2.616   4.936
10051SOL     OW31051   6.429   2.580   4.594
10051SOL    HW131052   6.435   2.592   4.693
10051SOL    HW231053   6.498   2.515   4.564
10052SOL     OW31054   1.604   2.155   2.396
10052SOL    HW131055   1.686   2.109   2.362
10052SOL    HW231056   1.548   2.089   2.447
10053SOL     OW31057   3.617   5.187   1.999
10053SOL    HW131058   3.656   5.130   1.926
10053SOL    HW231059   3.634   5.283   1.978
10054SOL     OW31060   3.952   6.455   6.010
10054SOL    HW131061   3.888   6.398   6.062
10054SOL    HW231062   4.036   6.468   6.063
10055SOL     OW31063   5.855   2.448   5.360
10055SOL    HW131064   5.875   2.489   5.270
10055SOL    HW231065   5.813   2.358   5.347
10056SOL     OW31066   6.582   5.349   0.483
10056SOL    HW131067   6.607   5.437   0.522
10056SOL    HW231068   6.553   5.286   0.555
10057SOL     OW31069   3.560   1.098   4.399
10057SOL    HW131070   3.629   1.138   4.339
10057SOL    HW231071   3.605   1.056   4.478
10058SOL     OW31072   0.477   3.912   4.362
10058SOL    HW131073   0.482   4.009   4.385
10058SOL    HW231074   0.456   3.902   4.265
10059SOL     OW31075   5.225   6.529   0.641
10059SOL    HW131076   5.240   6.430   0.644
10059SOL    HW231077   5.298   6.574   0.693
10060SOL     OW31078   2.707   1.273   1.919
10060SOL    HW131079   2.774   1.339   1.885
10060SOL    HW231080   2.671   1.220   1.842
10061SOL     OW31081   4.892   1.184   4.347
10061SOL    HW131082   4.853   1.252   4.408
10061SOL    HW231083   4.913   1.101   4.398
10062SOL     OW31084   6.252   6.737   4.587
10062SOL    HW131085   6.159   6.703   4.575
10062SOL    HW231086   6.256   6.834   4.560
10063SOL     OW31087   1.600   1.910   3.151
10063SOL    HW131088   1.533   1.883   3.220
10063SOL    HW231089   1.583   1.859   3.066
10064SOL     OW31090   5.840   5.534   6.114
10064SOL    HW131091   5.879   5.623   6.091
10064SOL    HW231092   5.748   5.527   6.074
10065SOL     OW31093   2.385   0.661   1.942
10065SOL    HW131094   2.429   0.747   1.915
10065SOL    HW231095   2.385   0.654   2.042
10066SOL     OW31096   1.821   1.368   4.521
10066SOL    HW131097   1.855   1.433   4.454
10066SOL    HW231098   1.896   1.311   4.554
10067SOL     OW31099   5.501   4.071   5.573
10067SOL    HW131100   5.445   4.028   5.643
10067SOL    HW231101   5.518   4.167   5.597
10068SOL     OW31102   5.373   2.954   4.193
10068SOL    HW131103   5.328   2.867   4.175
10068SOL    HW231104   5.407   2.956   4.287
10069SOL     OW31105   1.897   5.585   3.834
10069SOL    HW131106   1.832   5.536   3.777
10069SOL    HW231107   1.952   5.646   3.777
10070SOL     OW31108   0.214   0.288   4.786
10070SOL    HW131109   0.291   0.278   4.849
10070SOL    HW231110   0.151   0.212   4.799
10071SOL     OW31111   5.174   5.277   3.734
10071SOL    HW131112   5.079   5.271   3.765
10071SOL    HW231113   5.197   5.372   3.715
10072SOL     OW31114   0.832   5.827   4.080
10072SOL    HW131115   0.908   5.891   4.077
10072SOL    HW231116   0.763   5.860   4.145
10073SOL     OW31117   6.266   3.873   4.363
10073SOL    HW131118   6.365   3.873   4.376
10073SOL    HW231119   6.244   3.834   4.274
10074SOL     OW31120   0.636   0.509   5.300
10074SOL    HW131121   0.647   0.410   5.298
10074SOL    HW231122   0.713   0.553   5.253
10075SOL     OW31123   1.491   2.499   2.503
10075SOL    HW131124   1.577   2.449   2.505
10075SOL    HW231125   1.493   2.573   2.570
10076SOL     OW31126   5.605   0.335   3.361
10076SOL    HW131127   5.608   0.236   3.374
10076SOL    HW231128   5.674   0.362   3.294
10077SOL     OW31129   3.358   2.311   6.624
10077SOL    HW131130   3.390   2.405   6.617
10077SOL    HW231131   3.413   2.252   6.565
10078SOL     OW31132   6.801   6.364   4.186
10078SOL    HW131133   6.850   6.284   4.153
10078SOL    HW231134   6.799   6.363   4.286
10079SOL     OW31135   1.191   3.636   1.887
10079SOL    HW131136   1.170   3.710   1.823
10079SOL    HW231137   1.215   3.675   1.976
10080SOL     OW31138   2.887   1.315   6.012
10080SOL    HW131139   2.966   1.373   5.996
10080SOL    HW231140   2.815   1.337   5.947
10081SOL     OW31141   0.300   0.652   6.868
10081SOL    HW131142   0.238   0.725   6.895
10081SOL    HW231143   0.386   0.660   6.919
10082SOL     OW31144   0.115   3.973   2.224
10082SOL    HW131145   0.083   4.004   2.135
10082SOL    HW231146   0.095   3.875   2.235
10083SOL     OW31147   5.242   0.829   2.534
10083SOL    HW131148   5.172   0.849   2.602
10083SOL    HW231149   5.269   0.913   2.488
10084SOL     OW31150   3.658   0.866   5.867
10084SOL    HW131151   3.672   0.785   5.810
10084SOL    HW231152   3.561   0.882   5.880
10085SOL     OW31153   0.372   5.904   1.998
10085SOL    HW131154   0.350   6.002   2.002
10085SOL    HW231155   0.458   5.891   1.948
10086SOL     OW31156   6.151   5.000   1.597
10086SOL    HW131157   6.184   5.073   1.538
10086SOL    HW231158   6.069   5.031   1.646
10087SOL     OW31159   0.433   6.914   3.987
10087SOL    HW131160   0.364   6.975   3.948
10087SOL    HW231161   0.389   6.833   4.025
10088SOL     OW31162   6.931   0.028   0.037
10088SOL    HW131163   0.004   0.020   0.050
10088SOL    HW231164   6.888   6.964   0.049
10089SOL     OW31165   2.450   2.616   3.008
10089SOL    HW131166   2.364   2.657   2.976
10089SOL    HW231167   2.435   2.520   3.030
10090SOL     OW31168   1.304   4.635   0.836
10090SOL    HW131169   1.263   4.721   0.865
10090SOL    HW231170   1.403   4.643   0.836
10091SOL     OW31171   1.177   3.222   5.105
10091SOL    HW131172   1.079   3.206   5.121
10091SOL    HW231173   1.221   3.136   5.080
10092SOL     OW31174   2.017   3.479   5.187
10092SOL    HW131175   2.020   3.577   5.171
10092SOL    HW231176   2.110   3.442   5.187
10093SOL     OW31177   0.696   4.403   5.037
10093SOL    HW131178   0.599   4.399   5.014
10093SOL    HW231179   0.735   4.489   5.003
10094SOL     OW31180   2.332   6.308   1.699
10094SOL    HW131181   2.335   6.227   1.641
10094SOL    HW231182   2.294   6.385   1.647
10095SOL     OW31183   6.271   2.208   5.927
10095SOL    HW131184   6.304   2.302   5.923
10095SOL    HW231185   6.338   2.147   5.884
10096SOL     OW31186   5.735   4.984   1.879
10096SOL    HW131187   5.785   4.919   1.937
10096SOL    HW231188   5.637   4.965   1.884
10097SOL     OW31189   0.999   1.186   6.960
10097SOL    HW131190   0.940   1.110   6.930
10097SOL    HW231191   1.034   1.167   0.026
10098SOL     OW31192   2.393   0.637   5.359
10098SOL    HW131193   2.305   0.674   5.328
10098SOL    HW231194   2.392   0.630   5.458
10099SOL     OW31195   0.103   4.986   6.886
10099SOL    HW131196   0.163   4.953   6.813
10099SOL    HW231197   0.124   4.939   6.971
10100SOL     OW31198   5.108   0.110   4.253
10100SOL    HW131199   5.207   0.101   4.242
10100SOL    HW231200   5.086   0.121   4.350
10101SOL     OW31201   5.810   4.111   1.822
10101SOL    HW131202   5.856   4.148   1.902
10101SOL    HW231203   5.834   4.164   1.741
10102SOL     OW31204   1.532   1.003   3.002
10102SOL    HW131205   1.541   0.985   3.100
10102SOL    HW231206   1.519   0.917   2.953
10103SOL     OW31207   2.446   1.628   5.541
10103SOL    HW131208   2.369   1.625   5.477
10103SOL    HW231209   2.506   1.704   5.517
10104SOL     OW31210   1.620   2.777   4.338
10104SOL    HW131211   1.703   2.721   4.333
10104SOL    HW231212   1.584   2.776   4.431
10105SOL     OW31213   0.827   1.064   0.262
10105SOL    HW131214   0.764   1.068   0.340
10105SOL    HW231215   0.909   1.117   0.284
10106SOL     OW31216   4.508   5.440   1.095
10106SOL    HW131217   4.599   5.458   1.133
10106SOL    HW231218   4.457   5.380   1.156
10107SOL     OW31219   0.287   1.671   0.145
10107SOL    HW131220   0.204   1.636   0.101
10107SOL    HW231221   0.361   1.605   0.135
10108SOL     OW31222   6.488   6.139   6.859
10108SOL    HW131223   6.431   6.162   6.938
10108SOL    HW231224   6.431   6.129   6.778
10109SOL     OW31225   3.586   6.536   1.698
10109SOL    HW131226   3.686   6.537   1.695
10109SOL    HW231227   3.553   6.611   1.755
10110SOL     OW31228   4.404   6.568   4.735
10110SOL    HW131229   4.393   6.662   4.703
10110SOL    HW231230   4.501   6.547   4.744
10111SOL     OW31231   5.793   3.028   4.190
10111SOL    HW131232   5.767   3.119   4.222
10111SOL    HW231233   5.729   2.998   4.120
10112SOL     OW31234   5.525   3.908   4.332
10112SOL    HW131235   5.547   4.000   4.367
10112SOL    HW231236   5.549   3.840   4.401
10113SOL     OW31237   4.226   0.733   5.577
10113SOL    HW131238   4.142   0.712   5.628
10113SOL    HW231239   4.294   0.662   5.593
10114SOL     OW31240   5.152   0.622   0.827
10114SOL    HW131241   5.167   0.577   0.915
10114SOL    HW231242   5.193   0.568   0.754
10115SOL     OW31243   3.215   2.086   3.611
10115SOL    HW131244   3.308   2.058   3.637
10115SOL    HW231245   3.213   2.106   3.513
10116SOL     OW31246   0.467   6.470   0.174
10116SOL    HW131247   0.534   6.529   0.130
10116SOL    HW231248   0.509   6.382   0.195
10117SOL     OW31249   6.791   6.701   5.211
10117SOL    HW131250   6.831   6.629   5.154
10117SOL    HW231251   6.789   6.786   5.160
10118SOL     OW31252   1.006   5.454   3.183
10118SOL    HW131253   1.075   5.410   3.125
10118SOL    HW231254   1.021   5.553   3.184
10119SOL     OW31255   0.804   6.683   4.514
10119SOL    HW131256   0.881   6.642   4.563
10119SOL    HW231257   0.782   6.627   4.434
10120SOL     OW31258   1.360   3.904   4.467
10120SOL    HW131259   1.381   3.987   4.519
10120SOL    HW231260   1.279   3.920   4.410
10121SOL     OW31261   6.171   4.651   6.129
10121SOL    HW131262   6.139   4.569   6.177
10121SOL    HW231263   6.210   4.624   6.040
10122SOL     OW31264   5.714   3.271   0.677
10122SOL    HW131265   5.757   3.182   0.663
10122SOL    HW231266   5.736   3.305   0.768
10123SOL     OW31267   6.809   6.832   0.108
10123SOL    HW131268   6.737   6.787   0.055
10123SOL    HW231269   6.774   6.855   0.199
10124SOL     OW31270   1.618   3.320   6.911
10124SOL    HW131271   1.666   3.250   6.964
10124SOL    HW231272   1.684   3.388   6.879
10125SOL     OW31273   1.484   0.770   2.830
10125SOL    HW131274   1.526   0.682   2.856
10125SOL    HW231275   1.386   0.767   2.849
10126SOL     OW31276   0.193   0.054   6.691
10126SOL    HW131277   0.132   0.099   6.626
10126SOL    HW231278   0.210   0.116   6.769
10127SOL     OW31279   2.430   5.125   5.804
10127SOL    HW131280   2.341   5.106   5.761
10127SOL    HW231281   2.503   5.108   5.738
10128SOL     OW31282   1.463   1.481   1.270
10128SOL    HW131283   1.506   1.518   1.353
10128SOL    HW231284   1.379   1.434   1.294
10129SOL     OW31285   5.222   2.721   4.160
10129SOL    HW131286   5.214   2.702   4.063
10129SOL    HW231287   5.138   2.695   4.207
10130SOL     OW31288   2.150   4.160   2.120
10130SOL    HW131289   2.070   4.176   2.177
10130SOL    HW231290   2.192   4.248   2.096
10131SOL     OW31291   0.306   0.512   3.322
10131SOL    HW131292   0.262   0.519   3.232
10131SOL    HW231293   0.397   0.553   3.317
10132SOL     OW31294   2.880   0.072   3.809
10132SOL    HW131295   2.817   0.022   3.749
10132SOL    HW231296   2.915   0.011   3.880
10133SOL     OW31297   4.876   6.377   1.601
10133SOL    HW131298   4.962   6.347   1.559
10133SOL    HW231299   4.800   6.363   1.538
10134SOL     OW31300   6.429   6.680   3.879
10134SOL    HW131301   6.469   6.599   3.836
10134SOL    HW231302   6.486   6.760   3.860
10135SOL     OW31303   4.892   3.182   3.305
10135SOL    HW131304   4.936   3.165   3.392
10135SOL    HW231305   4.939   3.257   3.257
10136SOL     OW31306   5.905   0.735   3.254
10136SOL    HW131307   5.972   0.756   3.326
10136SOL    HW231308   5.936   0.655   3.203
10137SOL     OW31309   5.816   4.163   3.974
10137SOL    HW131310   5.766   4.158   3.888
10137SOL    HW231311   5.756   4.136   4.049
10138SOL     OW31312   5.334   1.865   0.670
10138SOL    HW131313   5.366   1.952   0.707
10138SOL    HW231314   5.285   1.881   0.584
10139SOL     OW31315   3.601   4.174   3.394
10139SOL    HW131316   3.665   4.157   3.469
10139SOL    HW231317   3.507   4.165   3.428
10140SOL     OW31318   6.334   6.431   6.051
10140SOL    HW131319   6.307   6.336   6.035
10140SOL    HW231320   6.333   6.450   6.149
10141SOL     OW31321   3.316   1.495   4.202
10141SOL    HW131322   3.235   1.488   4.144
10141SOL    HW231323   3.288   1.497   4.298
10142SOL     OW31324   6.366   6.489   4.669
10142SOL    HW131325   6.325   6.580   4.664
10142SOL    HW231326   6.458   6.493   4.631
10143SOL     OW31327   4.300   0.696   0.490
10143SOL    HW131328   4.376   0.631   0.494
10143SOL    HW231329   4.327   0.781   0.536
10144SOL     OW31330   3.765   6.838   6.083
10144SOL    HW131331   3.853   6.811   6.044
10144SOL    HW231332   3.725   6.911   6.027
10145SOL     OW31333   3.195   5.368   5.630
10145SOL    HW131334   3.103   5.377   5.591
10145SOL    HW231335   3.195   5.299   5.702
10146SOL     OW31336   4.098   5.243   4.479
10146SOL    HW131337   4.103   5.198   4.390
10146SOL    HW231338   4.003   5.268   4.498
10147SOL     OW31339   5.604   4.387   4.773
10147SOL    HW131340   5.612   4.291   4.800
10147SOL    HW231341   5.536   4.395   4.699
10148SOL     OW31342   5.189   5.162   6.949
10148SOL    HW131343   5.118   5.199   7.009
10148SOL    HW231344   5.220   5.073   6.985
10149SOL     OW31345   5.675   1.791   1.256
10149SOL    HW131346   5.740   1.835   1.318
10149SOL    HW231347   5.692   1.823   1.163
10150SOL     OW31348   4.209   3.482   0.569
10150SOL    HW131349   4.197   3.395   0.618
10150SOL    HW231350   4.249   3.550   0.630
10151SOL     OW31351   1.005   6.814   0.145
10151SOL    HW131352   0.969   6.821   0.052
10151SOL    HW231353   1.104   6.828   0.144
10152SOL     OW31354   0.835   6.427   4.883
10152SOL    HW131355   0.880   6.351   4.838
10152SOL    HW231356   0.736   6.415   4.880
10153SOL     OW31357   4.895   6.172   3.936
10153SOL    HW131358   4.858   6.198   3.847
10153SOL    HW231359   4.861   6.081   3.962
10154SOL     OW31360   5.572   0.027   4.849
10154SOL    HW131361   5.603   6.958   4.843
10154SOL    HW231362   5.532   0.055   4.762
10155SOL     OW31363   3.546   2.070   5.573
10155SOL    HW131364   3.556   2.139   5.501
10155SOL    HW231365   3.518   1.983   5.531
10156SOL     OW31366   6.324   1.514   2.300
10156SOL    HW131367   6.239   1.555   2.333
10156SOL    HW231368   6.338   1.426   2.346
10157SOL     OW31369   5.905   2.437   6.368
10157SOL    HW131370   5.914   2.471   6.274
10157SOL    HW231371   5.809   2.438   6.395
10158SOL     OW31372   5.735   3.591   1.060
10158SOL    HW131373   5.801   3.629   1.126
10158SOL    HW231374   5.654   3.649   1.056
10159SOL     OW31375   2.634   3.146   6.127
10159SOL    HW131376   2.683   3.060   6.140
10159SOL    HW231377   2.539   3.135   6.156
10160SOL     OW31378   2.333   2.713   2.141
10160SOL    HW131379   2.413   2.720   2.082
10160SOL    HW231380   2.264   2.779   2.111
10161SOL     OW31381   3.414   2.826   6.465
10161SOL    HW131382   3.465   2.909   6.443
10161SOL    HW231383   3.382   2.783   6.380
10162SOL     OW31384   3.528   4.658   0.778
10162SOL    HW131385   3.527   4.650   0.877
10162SOL    HW231386   3.470   4.735   0.750
10163SOL     OW31387   5.402   5.125   5.850
10163SOL    HW131388   5.469   5.077   5.906
10163SOL    HW231389   5.424   5.113   5.753
10164SOL     OW31390   5.701   3.299   4.995
10164SOL    HW131391   5.625   3.321   4.934
10164SOL    HW231392   5.762   3.234   4.950
10165SOL     OW31393   0.445   2.073   3.337
10165SOL    HW131394   0.505   2.066   3.258
10165SOL    HW231395   0.481   2.142   3.400
10166SOL     OW31396   3.285   1.782   1.851
10166SOL    HW131397   3.312   1.837   1.772
10166SOL    HW231398   3.366   1.761   1.906
10167SOL     OW31399   2.826   2.831   6.920
10167SOL    HW131400   2.849   2.922   6.887
10167SOL    HW231401   2.750   2.794   6.866
10168SOL     OW31402   6.106   3.969   5.514
10168SOL    HW131403   6.105   4.049   5.454
10168SOL    HW231404   6.015   3.927   5.515
10169SOL     OW31405   6.385   4.265   3.567
10169SOL    HW131406   6.378   4.252   3.468
10169SOL    HW231407   6.364   4.360   3.590
10170SOL     OW31408   0.992   5.061   6.223
10170SOL    HW131409   0.956   5.002   6.152
10170SOL    HW231410   1.054   5.129   6.181
10171SOL     OW31411   6.704   3.292   5.770
10171SOL    HW131412   6.728   3.200   5.738
10171SOL    HW231413   6.737   3.304   5.863
10172SOL     OW31414   6.617   6.519   4.565
10172SOL    HW131415   6.596   6.573   4.484
10172SOL    HW231416   6.670   6.438   4.538
10173SOL     OW31417   0.903   2.450   1.148
10173SOL    HW131418   0.816   2.492   1.175
10173SOL    HW231419   0.975   2.481   1.210
10174SOL     OW31420   5.753   5.182   2.145
10174SOL    HW131421   5.790   5.094   2.116
10174SOL    HW231422   5.815   5.224   2.212
10175SOL     OW31423   5.615   1.934   4.416
10175SOL    HW131424   5.587   2.023   4.452
10175SOL    HW231425   5.639   1.874   4.493
10176SOL     OW31426   1.104   3.383   5.914
10176SOL    HW131427   1.194   3.398   5.873
10176SOL    HW231428   1.043   3.344   5.845
10177SOL     OW31429   2.389   0.467   0.303
10177SOL    HW131430   2.346   0.535   0.362
10177SOL    HW231431   2.449   0.409   0.358
10178SOL     OW31432   6.881   0.687   5.426
10178SOL    HW131433   6.836   0.646   5.346
10178SOL    HW231434   6.823   0.760   5.463
10179SOL     OW31435   0.720   1.644   6.374
10179SOL    HW131436   0.687   1.671   6.283
10179SOL    HW231437   0.785   1.569   6.364
10180SOL     OW31438   4.069   0.120   6.370
10180SOL    HW131439   4.115   0.127   6.458
10180SOL    HW231440   4.115   0.180   6.304
10181SOL     OW31441   5.365   2.431   1.768
10181SOL    HW131442   5.386   2.523   1.800
10181SOL    HW231443   5.290   2.393   1.821
10182SOL     OW31444   4.259   0.876   1.609
10182SOL    HW131445   4.280   0.824   1.526
10182SOL    HW231446   4.340   0.926   1.639
10183SOL     OW31447   6.873   2.019   6.384
10183SOL    HW131448   6.856   2.100   6.440
10183SOL    HW231449   6.789   1.994   6.336
10184SOL     OW31450   3.768   0.692   6.574
10184SOL    HW131451   3.763   0.695   6.674
10184SOL    HW231452   3.862   0.671   6.547
10185SOL     OW31453   5.976   5.956   1.748
10185SOL    HW131454   5.977   6.020   1.825
10185SOL    HW231455   6.065   5.909   1.743
10186SOL     OW31456   6.106   4.203   3.660
10186SOL    HW131457   6.094   4.301   3.670
10186SOL    HW231458   6.201   4.183   3.638
10187SOL     OW31459   0.536   3.205   0.728
10187SOL    HW131460   0.560   3.277   0.663
10187SOL    HW231461   0.488   3.131   0.681
10188SOL     OW31462   3.372   5.435   0.976
10188SOL    HW131463   3.313   5.398   0.904
10188SOL    HW231464   3.396   5.529   0.955
10189SOL     OW31465   0.898   0.754   6.213
10189SOL    HW131466   0.934   0.834   6.260
10189SOL    HW231467   0.973   0.697   6.180
10190SOL     OW31468   4.920   3.179   1.710
10190SOL    HW131469   4.865   3.129   1.643
10190SOL    HW231470   4.943   3.118   1.787
10191SOL     OW31471   5.359   5.291   5.296
10191SOL    HW131472   5.331   5.305   5.201
10191SOL    HW231473   5.448   5.246   5.298
10192SOL     OW31474   4.481   1.320   5.753
10192SOL    HW131475   4.538   1.258   5.700
10192SOL    HW231476   4.535   1.400   5.779
10193SOL     OW31477   4.083   3.190   1.973
10193SOL    HW131478   4.014   3.127   1.935
10193SOL    HW231479   4.053   3.221   2.063
10194SOL     OW31480   5.637   5.737   4.990
10194SOL    HW131481   5.664   5.821   4.943
10194SOL    HW231482   5.705   5.712   5.058
10195SOL     OW31483   6.290   5.354   0.770
10195SOL    HW131484   6.197   5.388   0.758
10195SOL    HW231485   6.352   5.430   0.791
10196SOL     OW31486   4.447   1.849   4.327
10196SOL    HW131487   4.434   1.933   4.381
10196SOL    HW231488   4.530   1.802   4.358
10197SOL     OW31489   6.291   1.958   5.556
10197SOL    HW131490   6.207   2.011   5.546
10197SOL    HW231491   6.350   1.972   5.476
10198SOL     OW31492   3.138   0.350   2.111
10198SOL    HW131493   3.212   0.406   2.149
10198SOL    HW231494   3.151   0.255   2.140
10199SOL     OW31495   2.401   2.400   7.001
10199SOL    HW131496   2.440   2.337   0.042
10199SOL    HW231497   2.426   2.494   7.025
10200SOL     OW31498   5.141   2.036   0.322
10200SOL    HW131499   5.225   2.011   0.371
10200SOL    HW231500   5.088   1.953   0.303
10201SOL     OW31501   1.686   4.224   0.988
10201SOL    HW131502   1.645   4.133   0.992
10201SOL    HW231503   1.670   4.263   0.897
10202SOL     OW31504   3.844   3.427   0.763
10202SOL    HW131505   3.894   3.500   0.809
10202SOL    HW231506   3.820   3.455   0.670
10203SOL     OW31507   6.120   3.352   3.576
10203SOL    HW131508   6.216   3.365   3.551
10203SOL    HW231509   6.107   3.259   3.610
10204SOL     OW31510   4.972   6.550   0.210
10204SOL    HW131511   4.882   6.533   0.169
10204SOL    HW231512   5.035   6.478   0.182
10205SOL     OW31513   2.118   0.952   1.491
10205SOL    HW131514   2.066   0.915   1.568
10205SOL    HW231515   2.213   0.919   1.497
10206SOL     OW31516   0.345   1.049   0.238
10206SOL    HW131517   0.417   1.095   0.186
10206SOL    HW231518   0.321   1.104   0.318
10207SOL     OW31519   1.357   2.030   6.741
10207SOL    HW131520   1.269   2.027   6.694
10207SOL    HW231521   1.428   1.993   6.682
10208SOL     OW31522   5.723   4.188   3.474
10208SOL    HW131523   5.645   4.125   3.472
10208SOL    HW231524   5.807   4.137   3.457
10209SOL     OW31525   0.330   0.206   6.861
10209SOL    HW131526   0.353   0.114   6.895
10209SOL    HW231527   0.393   0.231   6.788
10210SOL     OW31528   4.475   6.492   2.099
10210SOL    HW131529   4.463   6.396   2.073
10210SOL    HW231530   4.444   6.505   2.193
10211SOL     OW31531   4.033   6.415   4.444
10211SOL    HW131532   3.946   6.378   4.477
10211SOL    HW231533   4.019   6.460   4.356
10212SOL     OW31534   0.762   0.272   5.339
10212SOL    HW131535   0.725   0.181   5.319
10212SOL    HW231536   0.856   0.262   5.373
10213SOL     OW31537   5.402   3.014   0.815
10213SOL    HW131538   5.317   3.067   0.805
10213SOL    HW231539   5.380   2.921   0.844
10214SOL     OW31540   1.402   1.645   2.129
10214SOL    HW131541   1.387   1.681   2.221
10214SOL    HW231542   1.414   1.546   2.133
10215SOL     OW31543   4.036   3.592   3.580
10215SOL    HW131544   3.939   3.615   3.591
10215SOL    HW231545   4.065   3.615   3.487
10216SOL     OW31546   0.418   1.052   0.867
10216SOL    HW131547   0.332   1.066   0.916
10216SOL    HW231548   0.399   1.007   0.780
10217SOL     OW31549   3.105   1.867   3.243
10217SOL    HW131550   3.179   1.821   3.291
10217SOL    HW231551   3.095   1.827   3.151
10218SOL     OW31552   1.719   1.551   1.753
10218SOL    HW131553   1.653   1.583   1.685
10218SOL    HW231554   1.811   1.582   1.728
10219SOL     OW31555   6.919   2.735   2.979
10219SOL    HW131556   6.942   2.823   2.937
10219SOL    HW231557   6.976   2.663   2.940
10220SOL     OW31558   4.442   2.054   1.034
10220SOL    HW131559   4.345   2.074   1.048
10220SOL    HW231560   4.491   2.061   1.121
10221SOL     OW31561   0.765   4.973   3.113
10221SOL    HW131562   0.820   5.042   3.067
10221SOL    HW231563   0.668   4.995   3.102
10222SOL     OW31564   3.009   3.276   6.216
10222SOL    HW131565   2.923   3.245   6.177
10222SOL    HW231566   3.083   3.259   6.152
10223SOL     OW31567   0.884   4.671   1.338
10223SOL    HW131568   0.843   4.619   1.264
10223SOL    HW231569   0.828   4.752   1.356
10224SOL     OW31570   6.821   3.289   3.858
10224SOL    HW131571   6.735   3.339   3.855
10224SOL    HW231572   6.805   3.197   3.895
10225SOL     OW31573   1.527   4.963   5.596
10225SOL    HW131574   1.601   5.015   5.639
10225SOL    HW231575   1.452   4.951   5.662
10226SOL     OW31576   2.697   0.419   6.775
10226SOL    HW131577   2.753   0.411   6.692
10226SOL    HW231578   2.680   0.328   6.812
10227SOL     OW31579   5.120   4.662   0.616
10227SOL    HW131580   5.190   4.661   0.545
10227SOL    HW231581   5.045   4.601   0.589
10228SOL     OW31582   0.151   6.872   1.787
10228SOL    HW131583   0.234   6.900   1.835
10228SOL    HW231584   0.086   6.947   1.787
10229SOL     OW31585   1.048   2.477   4.618
10229SOL    HW131586   0.997   2.417   4.556
10229SOL    HW231587   1.027   2.572   4.597
10230SOL     OW31588   5.654   5.886   3.247
10230SOL    HW131589   5.564   5.851   3.223
10230SOL    HW231590   5.711   5.892   3.164
10231SOL     OW31591   0.347   5.530   5.396
10231SOL    HW131592   0.274   5.592   5.367
10231SOL    HW231593   0.399   5.501   5.316
10232SOL     OW31594   2.610   1.384   3.461
10232SOL    HW131595   2.698   1.338   3.468
10232SOL    HW231596   2.540   1.332   3.511
10233SOL     OW31597   3.896   4.106   5.054
10233SOL    HW131598   3.886   4.112   4.955
10233SOL    HW231599   3.811   4.138   5.098
10234SOL     OW31600   6.346   1.358   1.391
10234SOL    HW131601   6.283   1.418   1.441
10234SOL    HW231602   6.436   1.400   1.385
10235SOL     OW31603   1.761   2.709   2.284
10235SOL    HW131604   1.769   2.748   2.192
10235SOL    HW231605   1.850   2.712   2.329
10236SOL     OW31606   2.741   6.926   0.315
10236SOL    HW131607   2.804   6.984   0.264
10236SOL    HW231608   2.776   6.912   0.408
10237SOL     OW31609   0.019   2.947   6.881
10237SOL    HW131610   0.062   3.031   6.913
10237SOL    HW231611   6.946   2.959   6.875
10238SOL     OW31612   4.216   4.073   1.391
10238SOL    HW131613   4.217   3.975   1.413
10238SOL    HW231614   4.125   4.099   1.359
10239SOL     OW31615   1.173   2.528   4.360
10239SOL    HW131616   1.221   2.466   4.299
10239SOL    HW231617   1.180   2.495   4.454
10240SOL     OW31618   1.859   5.624   2.214
10240SOL    HW131619   1.855   5.541   2.158
10240SOL    HW231620   1.851   5.705   2.156
10241SOL     OW31621   5.614   0.751   2.276
10241SOL    HW131622   5.674   0.758   2.356
10241SOL    HW231623   5.612   0.839   2.227
10242SOL     OW31624   6.642   1.530   1.039
10242SOL    HW131625   6.674   1.589   0.965
10242SOL    HW231626   6.721   1.493   1.089
10243SOL     OW31627   2.504   4.206   1.819
10243SOL    HW131628   2.432   4.191   1.751
10243SOL    HW231629   2.477   4.282   1.879
10244SOL     OW31630   2.559   3.974   0.538
10244SOL    HW131631   2.611   3.941   0.616
10244SOL    HW231632   2.548   3.901   0.471
10245SOL     OW31633   3.891   3.677   1.182
10245SOL    HW131634   3.799   3.675   1.142
10245SOL    HW231635   3.930   3.584   1.178
10246SOL     OW31636   3.141   3.950   4.224
10246SOL    HW131637   3.147   4.020   4.296
10246SOL    HW231638   3.210   3.880   4.240
10247SOL     OW31639   6.914   3.995   6.190
10247SOL    HW131640   6.921   4.031   6.097
10247SOL    HW231641   6.930   4.069   6.255
10248SOL     OW31642   1.024   7.001   3.146
10248SOL    HW131643   1.085   6.945   3.203
10248SOL    HW231644   1.079   0.041   3.095
10249SOL     OW31645   3.013   5.925   6.678
10249SOL    HW131646   2.944   5.863   6.714
10249SOL    HW231647   3.013   5.922   6.578
10250SOL     OW31648   6.609   3.517   1.232
10250SOL    HW131649   6.538   3.485   1.294
10250SOL    HW231650   6.572   3.588   1.172
10251SOL     OW31651   2.202   1.595   4.319
10251SOL    HW131652   2.221   1.641   4.232
10251SOL    HW231653   2.108   1.615   4.347
10252SOL     OW31654   4.073   3.617   6.034
10252SOL    HW131655   4.109   3.701   6.075
10252SOL    HW231656   4.136   3.585   5.963
10253SOL     OW31657   2.625   6.273   0.500
10253SOL    HW131658   2.607   6.309   0.408
10253SOL    HW231659   2.717   6.236   0.504
10254SOL     OW31660   4.796   1.948   5.297
10254SOL    HW131661   4.697   1.948   5.304
10254SOL    HW231662   4.826   1.868   5.245
10255SOL     OW31663   2.606   6.959   0.763
10255SOL    HW131664   2.508   6.943   0.756
10255SOL    HW231665   2.625   7.011   0.847
10256SOL     OW31666   3.977   1.302   2.645
10256SOL    HW131667   4.048   1.283   2.713
10256SOL    HW231668   3.999   1.386   2.595
10257SOL     OW31669   1.440   5.621   3.951
10257SOL    HW131670   1.390   5.670   3.879
10257SOL    HW231671   1.435   5.522   3.934
10258SOL     OW31672   3.831   2.189   2.953
10258SOL    HW131673   3.904   2.153   3.011
10258SOL    HW231674   3.869   2.252   2.886
10259SOL     OW31675   0.678   4.281   3.497
10259SOL    HW131676   0.674   4.250   3.593
10259SOL    HW231677   0.745   4.226   3.448
10260SOL     OW31678   0.174   1.756   3.131
10260SOL    HW131679   0.114   1.836   3.140
10260SOL    HW231680   0.147   1.703   3.051
10261SOL     OW31681   6.907   4.932   0.580
10261SOL    HW131682   6.814   4.968   0.574
10261SOL    HW231683   6.921   4.862   0.511
10262SOL     OW31684   3.223   6.332   6.563
10262SOL    HW131685   3.279   6.401   6.517
10262SOL    HW231686   3.283   6.260   6.598
10263SOL     OW31687   5.753   0.308   0.615
10263SOL    HW131688   5.657   0.333   0.604
10263SOL    HW231689   5.760   0.217   0.655
10264SOL     OW31690   6.783   5.806   6.525
10264SOL    HW131691   6.718   5.754   6.580
10264SOL    HW231692   6.875   5.799   6.564
10265SOL     OW31693   3.812   2.523   0.147
10265SOL    HW131694   3.836   2.473   0.064
10265SOL    HW231695   3.794   2.619   0.125
10266SOL     OW31696   3.923   2.997   3.462
10266SOL    HW131697   4.003   2.961   3.414
10266SOL    HW231698   3.852   3.020   3.396
10267SOL     OW31699   5.075   1.083   0.774
10267SOL    HW131700   5.042   1.154   0.837
10267SOL    HW231701   4.999   1.021   0.751
10268SOL     OW31702   6.362   6.337   2.043
10268SOL    HW131703   6.351   6.338   2.142
10268SOL    HW231704   6.444   6.388   2.017
10269SOL     OW31705   0.620   3.082   5.607
10269SOL    HW131706   0.586   3.136   5.685
10269SOL    HW231707   0.708   3.041   5.630
10270SOL     OW31708   3.147   5.246   2.521
10270SOL    HW131709   3.125   5.337   2.556
10270SOL    HW231710   3.091   5.178   2.568
10271SOL     OW31711   3.641   2.427   0.576
10271SOL    HW131712   3.602   2.340   0.546
10271SOL    HW231713   3.741   2.423   0.568
10272SOL     OW31714   0.876   1.037   4.776
10272SOL    HW131715   0.930   1.072   4.853
10272SOL    HW231716   0.875   1.105   4.703
10273SOL     OW31717   3.442   5.519   3.353
10273SOL    HW131718   3.380   5.496   3.278
10273SOL    HW231719   3.535   5.491   3.329
10274SOL     OW31720   1.015   4.835   5.869
10274SOL    HW131721   0.997   4.927   5.834
10274SOL    HW231722   0.956   4.818   5.948
10275SOL     OW31723   0.446   0.461   2.398
10275SOL    HW131724   0.382   0.403   2.349
10275SOL    HW231725   0.470   0.419   2.486
10276SOL     OW31726   4.970   6.126   5.603
10276SOL    HW131727   5.031   6.184   5.657
10276SOL    HW231728   4.918   6.066   5.665
10277SOL     OW31729   1.960   6.254   4.844
10277SOL    HW131730   1.998   6.176   4.794
10277SOL    HW231731   2.034   6.317   4.867
10278SOL     OW31732   0.981   1.452   3.641
10278SOL    HW131733   0.960   1.412   3.730
10278SOL    HW231734   1.067   1.415   3.607
10279SOL     OW31735   1.722   4.900   4.457
10279SOL    HW131736   1.688   4.867   4.545
10279SOL    HW231737   1.817   4.872   4.445
10280SOL     OW31738   6.563   2.992   6.281
10280SOL    HW131739   6.642   3.042   6.246
10280SOL    HW231740   6.594   2.910   6.329
10281SOL     OW31741   6.059   1.913   4.017
10281SOL    HW131742   6.045   1.993   3.958
10281SOL    HW231743   6.077   1.943   4.110
10282SOL     OW31744   5.533   3.108   3.639
10282SOL    HW131745   5.506   3.187   3.584
10282SOL    HW231746   5.586   3.140   3.718
10283SOL     OW31747   1.200   3.046   1.330
10283SOL    HW131748   1.297   3.053   1.353
10283SOL    HW231749   1.168   3.134   1.295
10284SOL     OW31750   5.793   1.572   5.091
10284SOL    HW131751   5.700   1.580   5.056
10284SOL    HW231752   5.805   1.634   5.169
10285SOL     OW31753   4.812   6.395   2.890
10285SOL    HW131754   4.814   6.316   2.952
10285SOL    HW231755   4.732   6.452   2.910
10286SOL     OW31756   4.102   0.466   3.886
10286SOL    HW131757   4.075   0.486   3.980
10286SOL    HW231758   4.111   0.551   3.834
10287SOL     OW31759   2.977   5.560   1.816
10287SOL    HW131760   3.053   5.617   1.849
10287SOL    HW231761   2.916   5.616   1.760
10288SOL     OW31762   4.415   6.593   3.277
10288SOL    HW131763   4.343   6.524   3.265
10288SOL    HW231764   4.374   6.684   3.276
10289SOL     OW31765   2.969   6.547   0.433
10289SOL    HW131766   3.055   6.503   0.456
10289SOL    HW231767   2.986   6.626   0.374
10290SOL     OW31768   3.168   3.258   2.775
10290SOL    HW131769   3.098   3.249   2.846
10290SOL    HW231770   3.146   3.335   2.716
10291SOL     OW31771   3.606   1.827   2.922
10291SOL    HW131772   3.575   1.909   2.971
10291SOL    HW231773   3.698   1.803   2.953
10292SOL     OW31774   0.883   2.130   5.205
10292SOL    HW131775   0.977   2.096   5.201
10292SOL    HW231776   0.820   2.054   5.197
10293SOL     OW31777   0.951   3.200   3.111
10293SOL    HW131778   0.871   3.141   3.123
10293SOL    HW231779   0.991   3.221   3.201
10294SOL     OW31780   4.570   1.324   3.294
10294SOL    HW131781   4.519   1.345   3.210
10294SOL    HW231782   4.515   1.349   3.373
10295SOL     OW31783   0.876   3.028   5.723
10295SOL    HW131784   0.832   3.005   5.810
10295SOL    HW231785   0.975   3.034   5.738
10296SOL     OW31786   5.168   1.400   6.391
10296SOL    HW131787   5.255   1.403   6.342
10296SOL    HW231788   5.157   1.483   6.445
10297SOL     OW31789   1.796   0.991   6.536
10297SOL    HW131790   1.710   0.974   6.584
10297SOL    HW231791   1.796   1.084   6.500
10298SOL     OW31792   2.643   4.531   1.068
10298SOL    HW131793   2.608   4.440   1.046
10298SOL    HW231794   2.695   4.566   0.990
10299SOL     OW31795   3.929   5.245   2.760
10299SOL    HW131796   3.952   5.225   2.665
10299SOL    HW231797   3.834   5.277   2.766
10300SOL     OW31798   1.085   4.180   1.833
10300SOL    HW131799   1.122   4.217   1.748
10300SOL    HW231800   1.091   4.080   1.831
10301SOL     OW31801   4.524   1.926   5.284
10301SOL    HW131802   4.448   1.914   5.347
10301SOL    HW231803   4.517   1.859   5.210
10302SOL     OW31804   2.604   6.456   4.435
10302SOL    HW131805   2.671   6.440   4.363
10302SOL    HW231806   2.512   6.457   4.396
10303SOL     OW31807   1.370   6.097   3.720
10303SOL    HW131808   1.370   5.999   3.739
10303SOL    HW231809   1.450   6.140   3.764
10304SOL     OW31810   5.870   0.298   1.399
10304SOL    HW131811   5.929   0.298   1.319
10304SOL    HW231812   5.919   0.339   1.477
10305SOL     OW31813   1.868   3.968   6.012
10305SOL    HW131814   1.802   4.005   5.948
10305SOL    HW231815   1.880   4.032   6.088
10306SOL     OW31816   5.006   5.819   0.319
10306SOL    HW131817   4.952   5.880   0.260
10306SOL    HW231818   5.094   5.862   0.339
10307SOL     OW31819   3.111   1.631   5.240
10307SOL    HW131820   3.135   1.633   5.337
10307SOL    HW231821   3.018   1.665   5.228
10308SOL     OW31822   2.047   4.103   2.593
10308SOL    HW131823   2.087   4.088   2.684
10308SOL    HW231824   1.987   4.026   2.570
10309SOL     OW31825   0.290   1.912   0.228
10309SOL    HW131826   0.362   1.956   0.174
10309SOL    HW231827   0.287   1.815   0.206
10310SOL     OW31828   3.173   3.861   0.171
10310SOL    HW131829   3.164   3.768   0.207
10310SOL    HW231830   3.265   3.895   0.189
10311SOL     OW31831   6.849   5.652   0.432
10311SOL    HW131832   6.845   5.623   0.337
10311SOL    HW231833   6.931   5.616   0.475
10312SOL     OW31834   4.198   6.631   2.496
10312SOL    HW131835   4.113   6.683   2.491
10312SOL    HW231836   4.207   6.591   2.587
10313SOL     OW31837   3.900   5.765   2.102
10313SOL    HW131838   3.935   5.803   2.188
10313SOL    HW231839   3.851   5.680   2.121
10314SOL     OW31840   6.633   0.655   0.664
10314SOL    HW131841   6.543   0.612   0.674
10314SOL    HW231842   6.683   0.608   0.591
10315SOL     OW31843   5.775   6.110   4.517
10315SOL    HW131844   5.697   6.090   4.576
10315SOL    HW231845   5.848   6.152   4.571
10316SOL     OW31846   6.382   2.514   5.756
10316SOL    HW131847   6.374   2.567   5.840
10316SOL    HW231848   6.439   2.564   5.690
10317SOL     OW31849   3.945   6.019   6.741
10317SOL    HW131850   3.986   5.977   6.822
10317SOL    HW231851   3.869   6.078   6.770
10318SOL     OW31852   4.756   0.201   6.797
10318SOL    HW131853   4.813   0.268   6.844
10318SOL    HW231854   4.786   0.109   6.821
10319SOL     OW31855   0.626   3.639   5.345
10319SOL    HW131856   0.611   3.596   5.433
10319SOL    HW231857   0.621   3.570   5.272
10320SOL     OW31858   0.959   6.533   2.477
10320SOL    HW131859   0.895   6.479   2.423
10320SOL    HW231860   0.910   6.605   2.525
10321SOL     OW31861   5.356   2.083   1.807
10321SOL    HW131862   5.299   2.118   1.882
10321SOL    HW231863   5.328   2.125   1.721
10322SOL     OW31864   4.667   5.116   4.976
10322SOL    HW131865   4.573   5.149   4.984
10322SOL    HW231866   4.725   5.165   5.042
10323SOL     OW31867   5.990   4.580   5.326
10323SOL    HW131868   5.919   4.589   5.396
10323SOL    HW231869   5.971   4.500   5.269
10324SOL     OW31870   3.517   3.075   2.132
10324SOL    HW131871   3.429   3.034   2.155
10324SOL    HW231872   3.591   3.018   2.168
10325SOL     OW31873   6.192   4.341   2.044
10325SOL    HW131874   6.266   4.352   2.111
10325SOL    HW231875   6.230   4.342   1.952
10326SOL     OW31876   4.864   4.733   6.511
10326SOL    HW131877   4.911   4.714   6.425
10326SOL    HW231878   4.768   4.755   6.493
10327SOL     OW31879   2.706   2.303   0.686
10327SOL    HW131880   2.636   2.325   0.754
10327SOL    HW231881   2.692   2.359   0.605
10328SOL     OW31882   6.389   2.722   0.565
10328SOL    HW131883   6.410   2.630   0.533
10328SOL    HW231884   6.467   2.782   0.546
10329SOL     OW31885   2.474   1.240   3.641
10329SOL    HW131886   2.409   1.208   3.572
10329SOL    HW231887   2.437   1.223   3.732
10330SOL     OW31888   4.053   1.323   2.160
10330SOL    HW131889   3.954   1.313   2.156
10330SOL    HW231890   4.096   1.234   2.150
10331SOL     OW31891   6.639   6.886   6.239
10331SOL    HW131892   6.568   6.819   6.219
10331SOL    HW231893   6.605   6.952   6.306
10332SOL     OW31894   0.085   0.421   0.736
10332SOL    HW131895   0.005   0.452   0.787
10332SOL    HW231896   0.128   0.345   0.784
10333SOL     OW31897   0.504   4.587   5.253
10333SOL    HW131898   0.529   4.578   5.350
10333SOL    HW231899   0.429   4.524   5.233
10334SOL     OW31900   3.361   1.009   5.013
10334SOL    HW131901   3.355   1.088   4.953
10334SOL    HW231902   3.449   1.008   5.060
10335SOL     OW31903   2.735   4.354   6.805
10335SOL    HW131904   2.639   4.370   6.829
10335SOL    HW231905   2.784   4.323   6.886
10336SOL     OW31906   6.440   0.293   1.726
10336SOL    HW131907   6.473   0.326   1.638
10336SOL    HW231908   6.422   0.195   1.720
10337SOL     OW31909   0.085   6.114   6.353
10337SOL    HW131910   0.098   6.115   6.452
10337SOL    HW231911   0.057   6.205   6.322
10338SOL     OW31912   2.002   6.625   2.100
10338SOL    HW131913   2.035   6.682   2.175
10338SOL    HW231914   2.036   6.661   2.013
10339SOL     OW31915   4.803   3.871   6.441
10339SOL    HW131916   4.743   3.860   6.362
10339SOL    HW231917   4.836   3.965   6.445
10340SOL     OW31918   1.552   3.609   0.587
10340SOL    HW131919   1.636   3.573   0.546
10340SOL    HW231920   1.576   3.668   0.665
10341SOL     OW31921   1.990   3.393   2.291
10341SOL    HW131922   2.029   3.482   2.267
10341SOL    HW231923   2.022   3.324   2.227
10342SOL     OW31924   1.590   6.897   4.249
10342SOL    HW131925   1.616   6.845   4.330
10342SOL    HW231926   1.499   6.935   4.262
10343SOL     OW31927   3.398   5.466   6.545
10343SOL    HW131928   3.438   5.389   6.595
10343SOL    HW231929   3.301   5.449   6.531
10344SOL     OW31930   4.162   3.151   0.327
10344SOL    HW131931   4.182   3.237   0.373
10344SOL    HW231932   4.062   3.138   0.322
10345SOL     OW31933   1.903   1.474   6.106
10345SOL    HW131934   1.819   1.454   6.056
10345SOL    HW231935   1.918   1.573   6.108
10346SOL     OW31936   0.543   5.123   1.560
10346SOL    HW131937   0.479   5.149   1.632
10346SOL    HW231938   0.529   5.026   1.537
10347SOL     OW31939   3.967   1.415   3.404
10347SOL    HW131940   4.061   1.400   3.374
10347SOL    HW231941   3.910   1.339   3.373
10348SOL     OW31942   6.407   2.567   6.954
10348SOL    HW131943   6.312   2.557   6.924
10348SOL    HW231944   6.410   2.622   0.012
10349SOL     OW31945   1.131   0.923   0.303
10349SOL    HW131946   1.110   0.872   0.387
10349SOL    HW231947   1.138   0.859   0.226
10350SOL     OW31948   2.929   5.856   4.757
10350SOL    HW131949   2.948   5.920   4.831
10350SOL    HW231950   3.011   5.847   4.699
10351SOL     OW31951   4.279   4.889   6.310
10351SOL    HW131952   4.271   4.790   6.320
10351SOL    HW231953   4.196   4.933   6.346
10352SOL     OW31954   3.431   1.273   6.566
10352SOL    HW131955   3.481   1.206   6.511
10352SOL    HW231956   3.378   1.332   6.506
10353SOL     OW31957   6.821   3.343   5.400
10353SOL    HW131958   6.858   3.261   5.444
10353SOL    HW231959   6.826   3.333   5.301
10354SOL     OW31960   5.420   2.601   2.505
10354SOL    HW131961   5.459   2.662   2.436
10354SOL    HW231962   5.324   2.623   2.519
10355SOL     OW31963   2.457   6.822   1.729
10355SOL    HW131964   2.391   6.863   1.792
10355SOL    HW231965   2.504   6.746   1.774
10356SOL     OW31966   0.462   4.840   4.719
10356SOL    HW131967   0.401   4.863   4.643
10356SOL    HW231968   0.540   4.788   4.685
10357SOL     OW31969   1.383   2.875   6.343
10357SOL    HW131970   1.427   2.810   6.282
10357SOL    HW231971   1.443   2.895   6.421
10358SOL     OW31972   6.721   3.651   2.899
10358SOL    HW131973   6.754   3.671   2.991
10358SOL    HW231974   6.671   3.564   2.899
10359SOL     OW31975   0.637   2.161   1.140
10359SOL    HW131976   0.668   2.094   1.207
10359SOL    HW231977   0.601   2.114   1.059
10360SOL     OW31978   4.503   4.444   3.227
10360SOL    HW131979   4.455   4.531   3.214
10360SOL    HW231980   4.517   4.400   3.138
10361SOL     OW31981   2.717   6.018   3.281
10361SOL    HW131982   2.697   6.115   3.265
10361SOL    HW231983   2.814   6.008   3.303
10362SOL     OW31984   0.643   5.019   4.904
10362SOL    HW131985   0.572   4.979   4.846
10362SOL    HW231986   0.673   5.106   4.865
10363SOL     OW31987   4.524   1.264   1.897
10363SOL    HW131988   4.476   1.345   1.933
10363SOL    HW231989   4.623   1.280   1.899
10364SOL     OW31990   3.413   2.864   1.231
10364SOL    HW131991   3.386   2.854   1.327
10364SOL    HW231992   3.506   2.829   1.219
10365SOL     OW31993   4.069   5.036   6.439
10365SOL    HW131994   4.002   5.018   6.367
10365SOL    HW231995   4.025   5.086   6.513
10366SOL     OW31996   2.639   0.523   4.172
10366SOL    HW131997   2.738   0.530   4.176
10366SOL    HW231998   2.605   0.479   4.254
10367SOL     OW31999   6.559   2.314   2.336
10367SOL    HW132000   6.542   2.221   2.302
10367SOL    HW232001   6.592   2.371   2.260
10368SOL     OW32002   1.942   1.909   1.481
10368SOL    HW132003   1.851   1.938   1.511
10368SOL    HW232004   2.002   1.899   1.560
10369SOL     OW32005   4.402   0.545   5.678
10369SOL    HW132006   4.386   0.481   5.603
10369SOL    HW232007   4.450   0.499   5.753
10370SOL     OW32008   5.086   1.694   5.246
10370SOL    HW132009   5.105   1.778   5.195
10370SOL    HW232010   5.169   1.666   5.295
10371SOL     OW32011   3.535   5.795   5.067
10371SOL    HW132012   3.470   5.740   5.120
10371SOL    HW232013   3.543   5.757   4.975
10372SOL     OW32014   1.650   1.432   5.976
10372SOL    HW132015   1.599   1.424   5.891
10372SOL    HW232016   1.622   1.361   6.040
10373SOL     OW32017   2.136   6.469   4.865
10373SOL    HW132018   2.209   6.492   4.801
10373SOL    HW232019   2.118   6.548   4.925
10374SOL     OW32020   3.622   1.132   2.975
10374SOL    HW132021   3.647   1.227   2.958
10374SOL    HW232022   3.603   1.119   3.073
10375SOL     OW32023   4.029   1.893   6.800
10375SOL    HW132024   4.085   1.962   6.844
10375SOL    HW232025   4.074   1.804   6.806
10376SOL     OW32026   1.147   6.162   3.843
10376SOL    HW132027   1.091   6.200   3.770
10376SOL    HW232028   1.242   6.156   3.813
10377SOL     OW32029   6.584   0.985   3.824
10377SOL    HW132030   6.589   1.012   3.920
10377SOL    HW232031   6.645   0.907   3.808
10378SOL     OW32032   6.557   1.082   6.012
10378SOL    HW132033   6.472   1.057   5.965
10378SOL    HW232034   6.632   1.026   5.977
10379SOL     OW32035   4.120   0.401   4.877
10379SOL    HW132036   4.119   0.400   4.777
10379SOL    HW232037   4.208   0.437   4.910
10380SOL     OW32038   6.509   1.540   3.061
10380SOL    HW132039   6.598   1.585   3.056
10380SOL    HW232040   6.453   1.584   3.131
10381SOL     OW32041   4.598   5.519   6.133
10381SOL    HW132042   4.633   5.502   6.041
10381SOL    HW232043   4.638   5.453   6.196
10382SOL     OW32044   2.760   4.896   6.104
10382SOL    HW132045   2.802   4.915   6.016
10382SOL    HW232046   2.671   4.941   6.108
10383SOL     OW32047   1.345   3.381   0.577
10383SOL    HW132048   1.262   3.434   0.562
10383SOL    HW232049   1.394   3.417   0.656
10384SOL     OW32050   0.646   0.245   0.612
10384SOL    HW132051   0.585   0.322   0.596
10384SOL    HW232052   0.725   0.276   0.665
10385SOL     OW32053   4.917   0.061   6.336
10385SOL    HW132054   4.970   7.013   6.379
10385SOL    HW232055   4.979   0.130   6.299
10386SOL     OW32056   0.037   3.613   5.316
10386SOL    HW132057   0.095   3.694   5.309
10386SOL    HW232058   6.994   3.614   5.244
10387SOL     OW32059   3.491   1.631   2.704
10387SOL    HW132060   3.469   1.534   2.707
10387SOL    HW232061   3.474   1.672   2.794
10388SOL     OW32062   0.887   5.684   3.478
10388SOL    HW132063   0.793   5.705   3.453
10388SOL    HW232064   0.900   5.701   3.576
10389SOL     OW32065   0.534   6.001   2.268
10389SOL    HW132066   0.490   5.912   2.260
10389SOL    HW232067   0.521   6.052   2.183
10390SOL     OW32068   1.513   3.823   2.257
10390SOL    HW132069   1.552   3.739   2.295
10390SOL    HW232070   1.549   3.838   2.165
10391SOL     OW32071   1.260   5.731   5.856
10391SOL    HW132072   1.257   5.658   5.788
10391SOL    HW232073   1.345   5.724   5.909
10392SOL     OW32074   6.564   4.129   0.438
10392SOL    HW132075   6.530   4.046   0.482
10392SOL    HW232076   6.654   4.111   0.398
10393SOL     OW32077   0.837   1.747   3.120
10393SOL    HW132078   0.750   1.722   3.078
10393SOL    HW232079   0.865   1.676   3.185
10394SOL     OW32080   2.861   6.719   5.992
10394SOL    HW132081   2.897   6.741   5.901
10394SOL    HW232082   2.832   6.803   6.038
10395SOL     OW32083   6.740   0.752   4.591
10395SOL    HW132084   6.750   0.827   4.527
10395SOL    HW232085   6.792   0.673   4.559
10396SOL     OW32086   1.134   0.886   3.657
10396SOL    HW132087   1.177   0.818   3.717
10396SOL    HW232088   1.037   0.864   3.646
10397SOL     OW32089   3.709   1.490   3.932
10397SOL    HW132090   3.660   1.511   3.847
10397SOL    HW232091   3.750   1.399   3.925
10398SOL     OW32092   6.098   2.501   0.120
10398SOL    HW132093   6.091   2.598   0.145
10398SOL    HW232094   6.127   2.494   0.024
10399SOL     OW32095   4.438   1.557   5.439
10399SOL    HW132096   4.520   1.513   5.404
10399SOL    HW232097   4.463   1.626   5.507
10400SOL     OW32098   3.226   5.860   2.599
10400SOL    HW132099   3.306   5.799   2.591
10400SOL    HW232100   3.163   5.842   2.524
10401SOL     OW32101   6.589   6.473   1.891
10401SOL    HW132102   6.540   6.442   1.809
10401SOL    HW232103   6.545   6.555   1.927
10402SOL     OW32104   0.244   2.723   5.754
10402SOL    HW132105   0.272   2.740   5.849
10402SOL    HW232106   0.310   2.766   5.692
10403SOL     OW32107   5.214   1.372   2.492
10403SOL    HW132108   5.175   1.332   2.575
10403SOL    HW232109   5.145   1.373   2.420
10404SOL     OW32110   1.046   6.567   3.841
10404SOL    HW132111   0.973   6.588   3.907
10404SOL    HW232112   1.031   6.476   3.803
10405SOL     OW32113   1.654   5.301   5.154
10405SOL    HW132114   1.622   5.334   5.066
10405SOL    HW232115   1.576   5.290   5.216
10406SOL     OW32116   1.730   4.350   5.096
10406SOL    HW132117   1.648   4.293   5.095
10406SOL    HW232118   1.812   4.293   5.092
10407SOL     OW32119   1.442   0.668   6.002
10407SOL    HW132120   1.530   0.651   5.958
10407SOL    HW232121   1.424   0.766   6.005
10408SOL     OW32122   4.686   5.956   2.884
10408SOL    HW132123   4.778   5.939   2.848
10408SOL    HW232124   4.618   5.921   2.820
10409SOL     OW32125   0.126   4.653   1.375
10409SOL    HW132126   0.217   4.692   1.384
10409SOL    HW232127   0.103   4.642   1.278
10410SOL     OW32128   5.037   0.783   1.451
10410SOL    HW132129   5.033   0.767   1.352
10410SOL    HW232130   4.999   0.703   1.499
10411SOL     OW32131   2.398   4.781   4.224
10411SOL    HW132132   2.477   4.720   4.228
10411SOL    HW232133   2.421   4.863   4.172
10412SOL     OW32134   1.017   1.615   6.705
10412SOL    HW132135   1.114   1.633   6.719
10412SOL    HW232136   0.963   1.674   6.766
10413SOL     OW32137   1.156   1.888   0.856
10413SOL    HW132138   1.118   1.923   0.942
10413SOL    HW232139   1.100   1.922   0.780
10414SOL     OW32140   5.269   6.173   6.653
10414SOL    HW132141   5.359   6.171   6.610
10414SOL    HW232142   5.252   6.264   6.691
10415SOL     OW32143   0.989   5.471   3.829
10415SOL    HW132144   0.902   5.479   3.779
10415SOL    HW232145   1.042   5.395   3.790
10416SOL     OW32146   6.374   1.724   5.686
10416SOL    HW132147   6.391   1.739   5.783
10416SOL    HW232148   6.327   1.804   5.648
10417SOL     OW32149   4.133   4.766   3.427
10417SOL    HW132150   4.176   4.784   3.338
10417SOL    HW232151   4.193   4.709   3.482
10418SOL     OW32152   6.856   4.130   5.939
10418SOL    HW132153   6.899   4.221   5.941
10418SOL    HW232154   6.757   4.140   5.938
10419SOL     OW32155   3.564   1.222   5.483
10419SOL    HW132156   3.637   1.215   5.415
10419SOL    HW232157   3.537   1.317   5.494
10420SOL     OW32158   6.533   3.038   2.576
10420SOL    HW132159   6.602   3.095   2.621
10420SOL    HW232160   6.448   3.041   2.629
10421SOL     OW32161   1.127   4.442   4.058
10421SOL    HW132162   1.122   4.343   4.071
10421SOL    HW232163   1.035   4.481   4.064
10422SOL     OW32164   6.295   4.373   5.464
10422SOL    HW132165   6.313   4.397   5.559
10422SOL    HW232166   6.300   4.454   5.407
10423SOL     OW32167   3.621   5.029   4.412
10423SOL    HW132168   3.662   5.041   4.502
10423SOL    HW232169   3.522   5.017   4.421
10424SOL     OW32170   3.974   1.021   0.122
10424SOL    HW132171   4.050   1.079   0.091
10424SOL    HW232172   3.989   0.994   0.217
10425SOL     OW32173   1.380   7.013   1.178
10425SOL    HW132174   1.310   6.946   1.204
10425SOL    HW232175   1.465   6.965   1.156
10426SOL     OW32176   5.209   3.146   5.552
10426SOL    HW132177   5.278   3.148   5.624
10426SOL    HW232178   5.231   3.214   5.482
10427SOL     OW32179   4.897   5.828   5.355
10427SOL    HW132180   4.925   5.796   5.264
10427SOL    HW232181   4.814   5.883   5.347
10428SOL     OW32182   1.410   1.745   3.281
10428SOL    HW132183   1.383   1.751   3.377
10428SOL    HW232184   1.378   1.659   3.243
10429SOL     OW32185   1.188   3.580   2.506
10429SOL    HW132186   1.276   3.581   2.553
10429SOL    HW232187   1.169   3.487   2.474
10430SOL     OW32188   3.635   6.035   4.051
10430SOL    HW132189   3.562   6.104   4.056
10430SOL    HW232190   3.721   6.076   4.080
10431SOL     OW32191   2.465   1.963   4.174
10431SOL    HW132192   2.421   1.979   4.263
10431SOL    HW232193   2.561   1.939   4.188
10432SOL     OW32194   0.252   6.968   5.341
10432SOL    HW132195   0.256   6.881   5.291
10432SOL    HW232196   0.201   6.956   5.426
10433SOL     OW32197   2.071   0.330   1.485
10433SOL    HW132198   2.105   0.389   1.413
10433SOL    HW232199   2.085   0.374   1.574
10434SOL     OW32200   5.202   0.462   5.729
10434SOL    HW132201   5.210   0.442   5.827
10434SOL    HW232202   5.105   0.458   5.702
10435SOL     OW32203   0.996   2.215   6.583
10435SOL    HW132204   0.966   2.232   6.677
10435SOL    HW232205   1.013   2.303   6.538
10436SOL     OW32206   0.401   4.008   5.563
10436SOL    HW132207   0.361   4.057   5.486
10436SOL    HW232208   0.392   3.909   5.549
10437SOL     OW32209   4.887   5.690   5.073
10437SOL    HW132210   4.901   5.690   4.974
10437SOL    HW232211   4.921   5.603   5.110
10438SOL     OW32212   6.831   6.285   6.631
10438SOL    HW132213   6.796   6.343   6.558
10438SOL    HW232214   6.905   6.332   6.680
10439SOL     OW32215   6.561   0.410   4.278
10439SOL    HW132216   6.524   0.423   4.186
10439SOL    HW232217   6.603   0.495   4.310
10440SOL     OW32218   0.044   1.324   0.178
10440SOL    HW132219   0.035   1.416   0.216
10440SOL    HW232220   0.025   1.326   0.080
10441SOL     OW32221   3.367   1.665   1.504
10441SOL    HW132222   3.431   1.731   1.465
10441SOL    HW232223   3.314   1.623   1.430
10442SOL     OW32224   3.083   0.695   5.247
10442SOL    HW132225   2.993   0.654   5.260
10442SOL    HW232226   3.108   0.747   5.329
10443SOL     OW32227   0.422   1.971   3.053
10443SOL    HW132228   0.352   1.912   3.092
10443SOL    HW232229   0.386   2.065   3.046
10444SOL     OW32230   3.430   5.204   3.816
10444SOL    HW132231   3.336   5.218   3.847
10444SOL    HW232232   3.443   5.108   3.791
10445SOL     OW32233   0.727   4.102   2.144
10445SOL    HW132234   0.731   4.063   2.235
10445SOL    HW232235   0.699   4.032   2.078
10446SOL     OW32236   1.770   3.888   5.306
10446SOL    HW132237   1.770   3.986   5.326
10446SOL    HW232238   1.785   3.836   5.390
10447SOL     OW32239   6.161   2.535   3.417
10447SOL    HW132240   6.254   2.511   3.447
10447SOL    HW232241   6.127   2.612   3.472
10448SOL     OW32242   3.059   0.549   3.648
10448SOL    HW132243   3.013   0.614   3.587
10448SOL    HW232244   3.005   0.465   3.652
10449SOL     OW32245   3.494   5.789   0.133
10449SOL    HW132246   3.558   5.837   0.192
10449SOL    HW232247   3.528   5.697   0.114
10450SOL     OW32248   6.163   0.302   6.418
10450SOL    HW132249   6.240   0.357   6.451
10450SOL    HW232250   6.134   0.337   6.329
10451SOL     OW32251   1.806   0.656   4.183
10451SOL    HW132252   1.886   0.604   4.214
10451SOL    HW232253   1.781   0.723   4.253
10452SOL     OW32254   6.065   2.928   3.064
10452SOL    HW132255   6.086   2.834   3.091
10452SOL    HW232256   6.122   2.954   2.986
10453SOL     OW32257   4.482   6.284   3.058
10453SOL    HW132258   4.509   6.369   3.103
10453SOL    HW232259   4.389   6.293   3.023
10454SOL     OW32260   6.775   1.506   0.012
10454SOL    HW132261   6.705   1.574   0.034
10454SOL    HW232262   6.808   1.521   6.945
10455SOL     OW32263   6.018   6.676   4.238
10455SOL    HW132264   6.079   6.598   4.225
10455SOL    HW232265   6.071   6.761   4.233
10456SOL     OW32266   6.842   5.549   0.148
10456SOL    HW132267   6.747   5.523   0.130
10456SOL    HW232268   6.880   5.594   0.067
10457SOL     OW32269   4.179   3.242   6.845
10457SOL    HW132270   4.198   3.197   6.932
10457SOL    HW232271   4.116   3.318   6.860
10458SOL     OW32272   6.915   0.178   6.168
10458SOL    HW132273   6.817   0.158   6.166
10458SOL    HW232274   6.931   0.257   6.228
10459SOL     OW32275   6.960   5.405   0.926
10459SOL    HW132276   6.993   5.406   1.020
10459SOL    HW232277   6.936   5.311   0.900
10460SOL     OW32278   6.880   4.374   1.339
10460SOL    HW132279   6.864   4.461   1.292
10460SOL    HW232280   6.850   4.299   1.280
10461SOL     OW32281   6.262   5.267   5.315
10461SOL    HW132282   6.300   5.210   5.388
10461SOL    HW232283   6.260   5.214   5.230
10462SOL     OW32284   5.199   1.866   1.684
10462SOL    HW132285   5.239   1.824   1.602
10462SOL    HW232286   5.260   1.938   1.717
10463SOL     OW32287   4.471   2.216   6.330
10463SOL    HW132288   4.507   2.155   6.401
10463SOL    HW232289   4.458   2.308   6.368
10464SOL     OW32290   5.413   5.332   2.500
10464SOL    HW132291   5.402   5.281   2.585
10464SOL    HW232292   5.508   5.363   2.492
10465SOL     OW32293   5.490   4.365   2.436
10465SOL    HW132294   5.456   4.271   2.435
10465SOL    HW232295   5.551   4.377   2.514
10466SOL     OW32296   5.563   4.469   5.846
10466SOL    HW132297   5.483   4.416   5.876
10466SOL    HW232298   5.617   4.496   5.926
10467SOL     OW32299   1.971   2.346   0.045
10467SOL    HW132300   1.896   2.412   0.053
10467SOL    HW232301   2.043   2.386   7.013
10468SOL     OW32302   3.017   4.851   4.006
10468SOL    HW132303   2.951   4.922   3.979
10468SOL    HW232304   3.092   4.849   3.941
10469SOL     OW32305   5.430   2.814   5.666
10469SOL    HW132306   5.383   2.856   5.589
10469SOL    HW232307   5.363   2.791   5.737
10470SOL     OW32308   2.108   1.685   3.696
10470SOL    HW132309   2.180   1.708   3.630
10470SOL    HW232310   2.023   1.731   3.670
10471SOL     OW32311   2.554   0.967   6.850
10471SOL    HW132312   2.599   0.921   6.773
10471SOL    HW232313   2.565   1.066   6.840
10472SOL     OW32314   3.223   5.154   1.091
10472SOL    HW132315   3.218   5.246   1.129
10472SOL    HW232316   3.227   5.087   1.166
10473SOL     OW32317   5.617   5.839   6.484
10473SOL    HW132318   5.595   5.763   6.545
10473SOL    HW232319   5.555   5.838   6.405
10474SOL     OW32320   4.875   1.043   4.013
10474SOL    HW132321   4.895   1.140   4.015
10474SOL    HW232322   4.880   1.006   4.105
10475SOL     OW32323   2.555   6.359   1.821
10475SOL    HW132324   2.469   6.362   1.770
10475SOL    HW232325   2.632   6.356   1.757
10476SOL     OW32326   4.481   6.175   6.272
10476SOL    HW132327   4.450   6.218   6.187
10476SOL    HW232328   4.428   6.211   6.349
10477SOL     OW32329   0.350   6.081   4.079
10477SOL    HW132330   0.420   6.081   4.007
10477SOL    HW232331   0.373   6.013   4.148
10478SOL     OW32332   6.411   6.851   0.200
10478SOL    HW132333   6.415   6.931   0.139
10478SOL    HW232334   6.362   6.777   0.154
10479SOL     OW32335   6.597   3.028   2.325
10479SOL    HW132336   6.527   3.002   2.258
10479SOL    HW232337   6.556   3.032   2.416
10480SOL     OW32338   1.793   0.685   2.445
10480SOL    HW132339   1.869   0.701   2.383
10480SOL    HW232340   1.803   0.743   2.526
10481SOL     OW32341   0.712   6.510   3.025
10481SOL    HW132342   0.795   6.565   3.027
10481SOL    HW232343   0.633   6.569   3.011
10482SOL     OW32344   6.424   4.451   4.650
10482SOL    HW132345   6.357   4.494   4.710
10482SOL    HW232346   6.483   4.391   4.703
10483SOL     OW32347   5.523   5.158   0.586
10483SOL    HW132348   5.560   5.242   0.546
10483SOL    HW232349   5.423   5.159   0.577
10484SOL     OW32350   4.821   1.108   1.135
10484SOL    HW132351   4.744   1.048   1.157
10484SOL    HW232352   4.892   1.097   1.204
10485SOL     OW32353   3.806   4.589   6.583
10485SOL    HW132354   3.893   4.606   6.538
10485SOL    HW232355   3.808   4.627   6.676
10486SOL     OW32356   6.712   2.492   0.544
10486SOL    HW132357   6.626   2.461   0.583
10486SOL    HW232358   6.712   2.477   0.446
10487SOL     OW32359   5.514   6.605   1.964
10487SOL    HW132360   5.421   6.634   1.984
10487SOL    HW232361   5.579   6.659   2.018
10488SOL     OW32362   2.614   3.404   6.828
10488SOL    HW132363   2.613   3.497   6.792
10488SOL    HW232364   2.679   3.398   6.904
10489SOL     OW32365   0.419   6.945   5.921
10489SOL    HW132366   0.348   6.891   5.965
10489SOL    HW232367   0.442   7.024   5.979
10490SOL     OW32368   6.035   1.642   2.653
10490SOL    HW132369   5.953   1.684   2.692
10490SOL    HW232370   6.049   1.675   2.560
10491SOL     OW32371   1.584   3.365   6.568
10491SOL    HW132372   1.640   3.409   6.638
10491SOL    HW232373   1.552   3.434   6.503
10492SOL     OW32374   5.093   3.818   5.661
10492SOL    HW132375   5.137   3.786   5.578
10492SOL    HW232376   4.995   3.798   5.658
10493SOL     OW32377   3.388   0.650   1.596
10493SOL    HW132378   3.402   0.618   1.689
10493SOL    HW232379   3.355   0.744   1.598
10494SOL     OW32380   5.669   2.754   5.214
10494SOL    HW132381   5.730   2.799   5.279
10494SOL    HW232382   5.713   2.671   5.180
10495SOL     OW32383   1.595   6.932   0.902
10495SOL    HW132384   1.667   6.930   0.833
10495SOL    HW232385   1.506   6.939   0.858
10496SOL     OW32386   0.309   6.846   0.751
10496SOL    HW132387   0.371   6.813   0.680
10496SOL    HW232388   0.286   6.770   0.813
10497SOL     OW32389   1.830   6.881   1.418
10497SOL    HW132390   1.787   6.932   1.343
10497SOL    HW232391   1.798   6.786   1.416
10498SOL     OW32392   2.600   6.945   1.078
10498SOL    HW132393   2.510   6.909   1.103
10498SOL    HW232394   2.608   0.014   1.106
10499SOL     OW32395   2.737   6.699   2.447
10499SOL    HW132396   2.767   6.613   2.405
10499SOL    HW232397   2.665   6.681   2.514
10500SOL     OW32398   0.453   1.108   5.451
10500SOL    HW132399   0.464   1.190   5.508
10500SOL    HW232400   0.444   1.136   5.355
10501SOL     OW32401   1.775   5.628   3.289
10501SOL    HW132402   1.770   5.709   3.347
10501SOL    HW232403   1.837   5.647   3.212
10502SOL     OW32404   3.253   6.826   1.130
10502SOL    HW132405   3.201   6.908   1.152
10502SOL    HW232406   3.221   6.789   1.043
10503SOL     OW32407   4.496   2.742   0.439
10503SOL    HW132408   4.563   2.667   0.440
10503SOL    HW232409   4.455   2.751   0.529
10504SOL     OW32410   2.014   2.793   0.654
10504SOL    HW132411   2.038   2.700   0.682
10504SOL    HW232412   1.931   2.790   0.599
10505SOL     OW32413   6.059   6.057   0.298
10505SOL    HW132414   5.998   6.044   0.376
10505SOL    HW232415   6.148   6.016   0.317
10506SOL     OW32416   0.874   5.055   6.493
10506SOL    HW132417   0.886   4.963   6.531
10506SOL    HW232418   0.928   5.064   6.410
10507SOL     OW32419   2.047   6.276   0.295
10507SOL    HW132420   2.015   6.213   0.223
10507SOL    HW232421   2.054   6.226   0.381
10508SOL     OW32422   5.892   5.796   4.415
10508SOL    HW132423   5.819   5.848   4.371
10508SOL    HW232424   5.854   5.734   4.483
10509SOL     OW32425   0.736   6.863   6.257
10509SOL    HW132426   0.750   6.796   6.330
10509SOL    HW232427   0.705   6.815   6.175
10510SOL     OW32428   5.844   5.063   5.641
10510SOL    HW132429   5.863   5.127   5.567
10510SOL    HW232430   5.921   5.000   5.651
10511SOL     OW32431   4.722   2.630   0.950
10511SOL    HW132432   4.785   2.708   0.958
10511SOL    HW232433   4.636   2.652   0.995
10512SOL     OW32434   3.778   0.938   6.451
10512SOL    HW132435   3.777   0.849   6.496
10512SOL    HW232436   3.796   0.926   6.353
10513SOL     OW32437   6.984   2.371   5.838
10513SOL    HW132438   0.022   2.389   5.763
10513SOL    HW232439   6.938   2.456   5.863
10514SOL     OW32440   6.885   3.817   0.230
10514SOL    HW132441   6.963   3.756   0.244
10514SOL    HW232442   6.813   3.769   0.180
10515SOL     OW32443   5.597   3.116   3.166
10515SOL    HW132444   5.642   3.033   3.199
10515SOL    HW232445   5.517   3.091   3.111
10516SOL     OW32446   4.991   1.084   6.652
10516SOL    HW132447   5.072   1.061   6.706
10516SOL    HW232448   4.942   1.000   6.629
10517SOL     OW32449   0.829   2.248   2.363
10517SOL    HW132450   0.804   2.317   2.295
10517SOL    HW232451   0.924   2.221   2.351
10518SOL     OW32452   1.261   4.719   0.322
10518SOL    HW132453   1.225   4.708   0.414
10518SOL    HW232454   1.186   4.732   0.257
10519SOL     OW32455   3.253   2.498   5.852
10519SOL    HW132456   3.283   2.588   5.882
10519SOL    HW232457   3.276   2.486   5.755
10520SOL     OW32458   2.375   2.670   6.808
10520SOL    HW132459   2.316   2.746   6.837
10520SOL    HW232460   2.361   2.653   6.710
10521SOL     OW32461   6.404   5.845   1.011
10521SOL    HW132462   6.481   5.833   1.073
10521SOL    HW232463   6.418   5.927   0.955
10522SOL     OW32464   6.303   0.278   0.585
10522SOL    HW132465   6.354   0.201   0.546
10522SOL    HW232466   6.219   0.244   0.627
10523SOL     OW32467   0.071   6.352   4.479
10523SOL    HW132468   0.132   6.432   4.476
10523SOL    HW232469   0.010   6.361   4.557
10524SOL     OW32470   1.859   1.303   4.831
10524SOL    HW132471   1.953   1.281   4.856
10524SOL    HW232472   1.850   1.402   4.815
10525SOL     OW32473   3.086   6.925   5.484
10525SOL    HW132474   3.173   6.882   5.461
10525SOL    HW232475   3.012   6.883   5.432
10526SOL     OW32476   0.563   0.669   3.077
10526SOL    HW132477   0.474   0.701   3.044
10526SOL    HW232478   0.635   0.696   3.013
10527SOL     OW32479   1.250   2.567   3.821
10527SOL    HW132480   1.336   2.614   3.802
10527SOL    HW232481   1.220   2.518   3.739
10528SOL     OW32482   1.229   3.998   5.399
10528SOL    HW132483   1.236   4.063   5.474
10528SOL    HW232484   1.321   3.975   5.367
10529SOL     OW32485   1.123   5.742   2.988
10529SOL    HW132486   1.210   5.790   3.000
10529SOL    HW232487   1.068   5.749   3.071
10530SOL     OW32488   1.879   1.007   6.002
10530SOL    HW132489   1.881   0.960   5.914
10530SOL    HW232490   1.886   0.941   6.076
10531SOL     OW32491   1.415   3.484   4.671
10531SOL    HW132492   1.462   3.544   4.735
10531SOL    HW232493   1.455   3.392   4.675
10532SOL     OW32494   2.302   2.960   0.700
10532SOL    HW132495   2.256   2.881   0.738
10532SOL    HW232496   2.249   3.043   0.720
10533SOL     OW32497   3.087   1.557   4.022
10533SOL    HW132498   3.024   1.604   4.084
10533SOL    HW232499   3.127   1.623   3.959
10534SOL     OW32500   0.107   5.817   0.716
10534SOL    HW132501   0.130   5.728   0.756
10534SOL    HW232502   0.152   5.825   0.626
10535SOL     OW32503   0.520   2.736   2.464
10535SOL    HW132504   0.557   2.787   2.542
10535SOL    HW232505   0.428   2.768   2.444
10536SOL     OW32506   3.715   0.352   3.037
10536SOL    HW132507   3.783   0.403   3.089
10536SOL    HW232508   3.623   0.374   3.071
10537SOL     OW32509   3.413   5.326   2.944
10537SOL    HW132510   3.335   5.278   2.905
10537SOL    HW232511   3.456   5.268   3.014
10538SOL     OW32512   4.715   2.818   6.546
10538SOL    HW132513   4.661   2.734   6.540
10538SOL    HW232514   4.710   2.867   6.459
10539SOL     OW32515   1.026   4.143   6.393
10539SOL    HW132516   1.046   4.199   6.313
10539SOL    HW232517   0.929   4.119   6.395
10540SOL     OW32518   1.708   0.909   5.457
10540SOL    HW132519   1.697   0.832   5.394
10540SOL    HW232520   1.620   0.932   5.498
10541SOL     OW32521   3.506   3.695   1.851
10541SOL    HW132522   3.605   3.696   1.836
10541SOL    HW232523   3.478   3.777   1.901
10542SOL     OW32524   0.021   1.748   0.537
10542SOL    HW132525   0.090   1.819   0.521
10542SOL    HW232526   6.962   1.773   0.489
10543SOL     OW32527   0.406   1.275   5.207
10543SOL    HW132528   0.408   1.284   5.108
10543SOL    HW232529   0.345   1.343   5.246
10544SOL     OW32530   2.159   0.847   2.844
10544SOL    HW132531   2.106   0.910   2.901
10544SOL    HW232532   2.152   0.875   2.748
10545SOL     OW32533   6.395   0.300   2.868
10545SOL    HW132534   6.322   0.250   2.822
10545SOL    HW232535   6.394   0.396   2.840
10546SOL     OW32536   0.985   0.610   5.879
10546SOL    HW132537   1.068   0.561   5.907
10546SOL    HW232538   0.937   0.558   5.809
10547SOL     OW32539   4.464   1.387   2.241
10547SOL    HW132540   4.470   1.446   2.160
10547SOL    HW232541   4.379   1.333   2.237
10548SOL     OW32542   5.124   3.947   5.048
10548SOL    HW132543   5.063   3.936   5.126
10548SOL    HW232544   5.125   4.043   5.020
10549SOL     OW32545   6.610   0.541   2.673
10549SOL    HW132546   6.577   0.553   2.579
10549SOL    HW232547   6.686   0.476   2.674
10550SOL     OW32548   4.222   6.410   4.177
10550SOL    HW132549   4.145   6.472   4.164
10550SOL    HW232550   4.258   6.420   4.270
10551SOL     OW32551   1.387   2.657   4.985
10551SOL    HW132552   1.395   2.590   4.911
10551SOL    HW232553   1.401   2.749   4.949
10552SOL     OW32554   3.620   1.867   5.241
10552SOL    HW132555   3.531   1.901   5.213
10552SOL    HW232556   3.692   1.914   5.189
10553SOL     OW32557   1.308   4.816   1.568
10553SOL    HW132558   1.316   4.818   1.468
10553SOL    HW232559   1.240   4.749   1.596
10554SOL     OW32560   5.488   4.987   6.661
10554SOL    HW132561   5.546   5.027   6.732
10554SOL    HW232562   5.506   4.889   6.654
10555SOL     OW32563   2.989   1.780   1.221
10555SOL    HW132564   3.013   1.868   1.262
10555SOL    HW232565   2.953   1.796   1.129
10556SOL     OW32566   1.560   3.057   5.404
10556SOL    HW132567   1.476   3.049   5.351
10556SOL    HW232568   1.590   2.966   5.432
10557SOL     OW32569   1.142   2.575   3.228
10557SOL    HW132570   1.097   2.650   3.276
10557SOL    HW232571   1.147   2.596   3.131
10558SOL     OW32572   4.012   6.998   5.099
10558SOL    HW132573   4.033   6.937   5.022
10558SOL    HW232574   4.035   0.066   5.075
10559SOL     OW32575   3.881   1.028   0.924
10559SOL    HW132576   3.825   1.107   0.899
10559SOL    HW232577   3.968   1.060   0.962
10560SOL     OW32578   2.297   5.557   4.772
10560SOL    HW132579   2.335   5.640   4.812
10560SOL    HW232580   2.245   5.580   4.690
10561SOL     OW32581   2.668   5.128   0.096
10561SOL    HW132582   2.665   5.046   0.153
10561SOL    HW232583   2.593   5.125   0.030
10562SOL     OW32584   5.011   6.761   0.405
10562SOL    HW132585   4.991   6.697   0.331
10562SOL    HW232586   5.102   6.800   0.391
10563SOL     OW32587   1.803   1.056   4.086
10563SOL    HW132588   1.819   0.984   4.019
10563SOL    HW232589   1.756   1.018   4.166
10564SOL     OW32590   5.975   0.258   2.103
10564SOL    HW132591   6.073   0.252   2.119
10564SOL    HW232592   5.939   0.341   2.146
10565SOL     OW32593   0.543   0.395   5.943
10565SOL    HW132594   0.553   0.364   5.848
10565SOL    HW232595   0.633   0.410   5.983
10566SOL     OW32596   4.276   3.374   6.615
10566SOL    HW132597   4.336   3.446   6.649
10566SOL    HW232598   4.251   3.313   6.691
10567SOL     OW32599   2.186   3.060   4.078
10567SOL    HW132600   2.183   3.148   4.029
10567SOL    HW232601   2.219   2.989   4.016
10568SOL     OW32602   5.697   1.227   1.488
10568SOL    HW132603   5.608   1.216   1.531
10568SOL    HW232604   5.730   1.137   1.458
10569SOL     OW32605   6.470   3.184   1.976
10569SOL    HW132606   6.380   3.227   1.988
10569SOL    HW232607   6.542   3.251   1.994
10570SOL     OW32608   2.030   4.951   2.599
10570SOL    HW132609   1.996   4.899   2.678
10570SOL    HW232610   2.012   4.899   2.516
10571SOL     OW32611   6.611   5.261   4.201
10571SOL    HW132612   6.690   5.318   4.183
10571SOL    HW232613   6.566   5.237   4.115
10572SOL     OW32614   5.915   3.665   3.293
10572SOL    HW132615   5.838   3.729   3.289
10572SOL    HW232616   5.926   3.621   3.204
10573SOL     OW32617   5.505   6.151   3.431
10573SOL    HW132618   5.565   6.186   3.503
10573SOL    HW232619   5.548   6.163   3.342
10574SOL     OW32620   1.842   2.302   3.705
10574SOL    HW132621   1.916   2.238   3.727
10574SOL    HW232622   1.765   2.251   3.666
10575SOL     OW32623   0.461   1.081   3.724
10575SOL    HW132624   0.531   1.035   3.778
10575SOL    HW232625   0.401   1.132   3.785
10576SOL     OW32626   1.068   6.793   5.499
10576SOL    HW132627   1.103   6.784   5.593
10576SOL    HW232628   0.992   6.729   5.486
10577SOL     OW32629   1.344   2.748   6.676
10577SOL    HW132630   1.381   2.677   6.736
10577SOL    HW232631   1.404   2.828   6.679
10578SOL     OW32632   6.623   6.953   3.879
10578SOL    HW132633   6.584   0.017   3.901
10578SOL    HW232634   6.663   6.913   3.962
10579SOL     OW32635   4.057   1.864   0.151
10579SOL    HW132636   4.108   1.807   0.086
10579SOL    HW232637   3.972   1.817   0.175
10580SOL     OW32638   6.840   0.081   0.379
10580SOL    HW132639   6.795   0.101   0.292
10580SOL    HW232640   6.937   0.061   0.363
10581SOL     OW32641   5.866   6.890   2.725
10581SOL    HW132642   5.928   6.816   2.752
10581SOL    HW232643   5.773   6.854   2.717
10582SOL     OW32644   3.632   4.770   6.360
10582SOL    HW132645   3.537   4.783   6.331
10582SOL    HW232646   3.687   4.743   6.281
10583SOL     OW32647   4.122   1.083   5.809
10583SOL    HW132648   4.108   0.994   5.852
10583SOL    HW232649   4.166   1.145   5.874
10584SOL     OW32650   5.822   6.587   1.091
10584SOL    HW132651   5.807   6.586   0.992
10584SOL    HW232652   5.759   6.652   1.134
10585SOL     OW32653   1.307   3.004   5.625
10585SOL    HW132654   1.231   3.043   5.675
10585SOL    HW232655   1.341   2.923   5.674
10586SOL     OW32656   1.496   5.755   5.965
10586SOL    HW132657   1.533   5.839   6.004
10586SOL    HW232658   1.560   5.720   5.896
10587SOL     OW32659   6.027   3.529   0.235
10587SOL    HW132660   6.101   3.525   0.169
10587SOL    HW232661   6.058   3.575   0.318
10588SOL     OW32662   0.997   4.135   2.389
10588SOL    HW132663   1.028   4.083   2.310
10588SOL    HW232664   1.014   4.233   2.374
10589SOL     OW32665   5.414   1.316   4.339
10589SOL    HW132666   5.471   1.347   4.415
10589SOL    HW232667   5.454   1.347   4.252
10590SOL     OW32668   1.482   0.505   2.154
10590SOL    HW132669   1.397   0.460   2.182
10590SOL    HW232670   1.519   0.460   2.073
10591SOL     OW32671   1.410   1.804   5.563
10591SOL    HW132672   1.361   1.760   5.638
10591SOL    HW232673   1.503   1.769   5.558
10592SOL     OW32674   5.192   2.356   0.475
10592SOL    HW132675   5.286   2.324   0.464
10592SOL    HW232676   5.134   2.279   0.502
10593SOL     OW32677   3.173   5.776   0.988
10593SOL    HW132678   3.214   5.861   1.020
10593SOL    HW232679   3.237   5.729   0.928
10594SOL     OW32680   5.802   1.797   3.701
10594SOL    HW132681   5.894   1.763   3.720
10594SOL    HW232682   5.762   1.744   3.625
10595SOL     OW32683   3.254   0.385   5.827
10595SOL    HW132684   3.246   0.389   5.728
10595SOL    HW232685   3.165   0.400   5.869
10596SOL     OW32686   4.547   0.016   1.765
10596SOL    HW132687   4.491   0.084   1.812
10596SOL    HW232688   4.516   6.950   1.790
10597SOL     OW32689   2.821   0.901   4.287
10597SOL    HW132690   2.866   0.962   4.351
10597SOL    HW232691   2.881   0.883   4.209
10598SOL     OW32692   2.901   2.289   6.816
10598SOL    HW132693   2.966   2.214   6.812
10598SOL    HW232694   2.934   2.358   6.881
10599SOL     OW32695   5.783   1.909   0.277
10599SOL    HW132696   5.723   1.909   0.197
10599SOL    HW232697   5.727   1.912   0.360
10600SOL     OW32698   2.130   2.973   0.223
10600SOL    HW132699   2.117   3.008   0.316
10600SOL    HW232700   2.212   2.915   0.221
10601SOL     OW32701   2.262   5.328   6.182
10601SOL    HW132702   2.310   5.341   6.096
10601SOL    HW232703   2.328   5.303   6.253
10602SOL     OW32704   4.979   1.768   2.494
10602SOL    HW132705   5.031   1.827   2.433
10602SOL    HW232706   5.040   1.730   2.563
10603SOL     OW32707   2.004   6.120   3.035
10603SOL    HW132708   1.918   6.072   3.054
10603SOL    HW232709   2.010   6.203   3.090
10604SOL     OW32710   5.608   4.409   4.260
10604SOL    HW132711   5.584   4.375   4.169
10604SOL    HW232712   5.708   4.409   4.270
10605SOL     OW32713   0.778   5.189   0.016
10605SOL    HW132714   0.761   5.282   0.050
10605SOL    HW232715   0.848   5.145   0.073
10606SOL     OW32716   6.126   0.698   1.860
10606SOL    HW132717   6.035   0.658   1.850
10606SOL    HW232718   6.127   0.789   1.819
10607SOL     OW32719   4.018   3.675   5.632
10607SOL    HW132720   4.014   3.678   5.532
10607SOL    HW232721   4.034   3.767   5.668
10608SOL     OW32722   5.776   1.937   5.116
10608SOL    HW132723   5.861   1.958   5.164
10608SOL    HW232724   5.711   1.896   5.179
10609SOL     OW32725   3.345   5.616   1.342
10609SOL    HW132726   3.282   5.687   1.312
10609SOL    HW232727   3.298   5.527   1.343
10610SOL     OW32728   0.857   4.252   0.104
10610SOL    HW132729   0.800   4.333   0.105
10610SOL    HW232730   0.800   4.171   0.085
10611SOL     OW32731   5.653   3.203   0.009
10611SOL    HW132732   5.738   3.248   0.038
10611SOL    HW232733   5.575   3.252   0.046
10612SOL     OW32734   2.459   6.482   5.797
10612SOL    HW132735   2.389   6.547   5.768
10612SOL    HW232736   2.547   6.529   5.806
10613SOL     OW32737   0.184   6.826   6.037
10613SOL    HW132738   0.179   6.857   6.132
10613SOL    HW232739   0.128   6.744   6.025
10614SOL     OW32740   0.185   1.665   4.035
10614SOL    HW132741   0.158   1.569   4.024
10614SOL    HW232742   0.115   1.724   3.993
10615SOL     OW32743   4.151   5.812   5.367
10615SOL    HW132744   4.190   5.754   5.438
10615SOL    HW232745   4.149   5.907   5.398
10616SOL     OW32746   3.206   6.574   0.111
10616SOL    HW132747   3.236   6.592   0.017
10616SOL    HW232748   3.187   6.476   0.121
10617SOL     OW32749   2.034   2.221   0.651
10617SOL    HW132750   2.131   2.220   0.628
10617SOL    HW232751   1.995   2.310   0.626
10618SOL     OW32752   5.957   3.005   0.123
10618SOL    HW132753   5.941   3.104   0.132
10618SOL    HW232754   5.952   2.963   0.213
10619SOL     OW32755   0.432   3.820   2.344
10619SOL    HW132756   0.526   3.784   2.349
10619SOL    HW232757   0.381   3.788   2.424
10620SOL     OW32758   0.719   5.598   5.449
10620SOL    HW132759   0.679   5.552   5.370
10620SOL    HW232760   0.774   5.675   5.419
10621SOL     OW32761   1.227   6.099   0.172
10621SOL    HW132762   1.180   6.131   0.254
10621SOL    HW232763   1.170   6.031   0.125
10622SOL     OW32764   4.495   0.760   1.789
10622SOL    HW132765   4.483   0.841   1.731
10622SOL    HW232766   4.409   0.709   1.793
10623SOL     OW32767   5.483   2.872   4.428
10623SOL    HW132768   5.525   2.906   4.512
10623SOL    HW232769   5.551   2.823   4.374
10624SOL     OW32770   0.863   0.992   5.175
10624SOL    HW132771   0.876   1.031   5.266
10624SOL    HW232772   0.885   1.060   5.106
10625SOL     OW32773   0.584   4.137   6.779
10625SOL    HW132774   0.645   4.216   6.775
10625SOL    HW232775   0.590   4.086   6.694
10626SOL     OW32776   1.088   2.478   1.560
10626SOL    HW132777   1.067   2.536   1.482
10626SOL    HW232778   1.005   2.432   1.592
10627SOL     OW32779   5.748   6.058   2.923
10627SOL    HW132780   5.772   6.013   2.837
10627SOL    HW232781   5.650   6.073   2.927
10628SOL     OW32782   5.511   5.196   5.587
10628SOL    HW132783   5.480   5.289   5.606
10628SOL    HW232784   5.594   5.199   5.533
10629SOL     OW32785   2.520   4.471   5.281
10629SOL    HW132786   2.461   4.552   5.280
10629SOL    HW232787   2.472   4.394   5.238
10630SOL     OW32788   6.492   0.667   3.503
10630SOL    HW132789   6.392   0.663   3.501
10630SOL    HW232790   6.523   0.741   3.444
10631SOL     OW32791   1.024   5.901   4.494
10631SOL    HW132792   0.998   5.835   4.424
10631SOL    HW232793   1.123   5.898   4.508
10632SOL     OW32794   6.174   2.128   4.316
10632SOL    HW132795   6.091   2.121   4.262
10632SOL    HW232796   6.171   2.210   4.372
10633SOL     OW32797   2.611   4.127   1.079
10633SOL    HW132798   2.598   4.056   1.149
10633SOL    HW232799   2.528   4.181   1.072
10634SOL     OW32800   3.204   5.629   0.225
10634SOL    HW132801   3.214   5.702   0.293
10634SOL    HW232802   3.128   5.650   0.164
10635SOL     OW32803   2.706   0.997   1.151
10635SOL    HW132804   2.721   0.952   1.239
10635SOL    HW232805   2.730   0.935   1.077
10636SOL     OW32806   1.044   1.792   2.166
10636SOL    HW132807   1.061   1.742   2.251
10636SOL    HW232808   1.103   1.757   2.094
10637SOL     OW32809   3.609   3.970   5.312
10637SOL    HW132810   3.583   3.946   5.405
10637SOL    HW232811   3.684   4.037   5.314
10638SOL     OW32812   0.402   6.448   2.918
10638SOL    HW132813   0.402   6.466   3.016
10638SOL    HW232814   0.435   6.356   2.901
10639SOL     OW32815   0.733   1.813   3.814
10639SOL    HW132816   0.744   1.762   3.729
10639SOL    HW232817   0.818   1.863   3.834
10640SOL     OW32818   4.528   0.043   6.819
10640SOL    HW132819   4.577   0.128   6.801
10640SOL    HW232820   4.476   0.052   6.903
10641SOL     OW32821   4.364   1.735   6.934
10641SOL    HW132822   4.396   1.824   6.967
10641SOL    HW232823   4.442   1.679   6.907
10642SOL     OW32824   0.625   2.812   1.682
10642SOL    HW132825   0.708   2.863   1.662
10642SOL    HW232826   0.591   2.769   1.598
10643SOL     OW32827   2.548   4.124   6.057
10643SOL    HW132828   2.572   4.202   5.999
10643SOL    HW232829   2.622   4.056   6.055
10644SOL     OW32830   4.745   1.759   3.852
10644SOL    HW132831   4.694   1.692   3.906
10644SOL    HW232832   4.681   1.821   3.807
10645SOL     OW32833   0.900   1.234   4.106
10645SOL    HW132834   0.875   1.271   4.195
10645SOL    HW232835   0.895   1.134   4.109
10646SOL     OW32836   0.526   2.205   5.801
10646SOL    HW132837   0.572   2.278   5.852
10646SOL    HW232838   0.588   2.168   5.732
10647SOL     OW32839   5.503   5.440   6.481
10647SOL    HW132840   5.594   5.467   6.450
10647SOL    HW232841   5.493   5.341   6.469
10648SOL     OW32842   5.574   3.644   6.528
10648SOL    HW132843   5.573   3.552   6.567
10648SOL    HW232844   5.485   3.663   6.486
10649SOL     OW32845   0.013   4.153   4.193
10649SOL    HW132846   0.068   4.073   4.217
10649SOL    HW232847   6.942   4.134   4.210
10650SOL     OW32848   1.298   6.509   3.915
10650SOL    HW132849   1.325   6.441   3.983
10650SOL    HW232850   1.201   6.497   3.892
10651SOL     OW32851   4.200   6.722   5.594
10651SOL    HW132852   4.214   6.695   5.690
10651SOL    HW232853   4.141   6.655   5.549
10652SOL     OW32854   3.474   0.153   6.575
10652SOL    HW132855   3.527   0.238   6.575
10652SOL    HW232856   3.409   0.155   6.650
10653SOL     OW32857   5.224   4.462   4.632
10653SOL    HW132858   5.300   4.461   4.567
10653SOL    HW232859   5.159   4.389   4.608
10654SOL     OW32860   3.076   6.909   1.615
10654SOL    HW132861   3.083   6.810   1.606
10654SOL    HW232862   2.980   6.937   1.615
10655SOL     OW32863   2.936   5.338   2.043
10655SOL    HW132864   2.908   5.382   2.128
10655SOL    HW232865   2.967   5.408   1.978
10656SOL     OW32866   6.430   2.296   6.996
10656SOL    HW132867   6.420   2.393   6.977
10656SOL    HW232868   6.419   2.280   0.069
10657SOL     OW32869   6.091   6.528   0.755
10657SOL    HW132870   6.043   6.462   0.813
10657SOL    HW232871   6.167   6.568   0.806
10658SOL     OW32872   0.364   4.434   4.831
10658SOL    HW132873   0.307   4.352   4.825
10658SOL    HW232874   0.313   4.505   4.880
10659SOL     OW32875   6.206   7.001   0.985
10659SOL    HW132876   6.225   6.913   1.029
10659SOL    HW232877   6.210   0.048   1.054
10660SOL     OW32878   5.120   4.050   6.159
10660SOL    HW132879   5.029   4.051   6.119
10660SOL    HW232880   5.178   4.116   6.112
10661SOL     OW32881   6.744   6.771   2.825
10661SOL    HW132882   6.808   6.694   2.823
10661SOL    HW232883   6.786   6.848   2.873
10662SOL     OW32884   6.222   0.911   1.702
10662SOL    HW132885   6.252   0.841   1.637
10662SOL    HW232886   6.170   0.981   1.652
10663SOL     OW32887   1.364   0.747   1.367
10663SOL    HW132888   1.298   0.677   1.338
10663SOL    HW232889   1.457   0.714   1.352
10664SOL     OW32890   2.042   3.835   6.380
10664SOL    HW132891   2.018   3.787   6.296
10664SOL    HW232892   1.972   3.904   6.400
10665SOL     OW32893   1.360   1.174   6.896
10665SOL    HW132894   1.296   1.149   6.823
10665SOL    HW232895   1.395   1.090   6.938
10666SOL     OW32896   4.027   4.608   0.240
10666SOL    HW132897   4.050   4.516   0.210
10666SOL    HW232898   4.017   4.668   0.161
10667SOL     OW32899   4.024   2.019   5.803
10667SOL    HW132900   4.095   2.053   5.864
10667SOL    HW232901   3.948   1.982   5.858
10668SOL     OW32902   1.225   2.174   6.419
10668SOL    HW132903   1.195   2.138   6.331
10668SOL    HW232904   1.156   2.154   6.489
10669SOL     OW32905   0.618   0.140   1.057
10669SOL    HW132906   0.620   0.219   0.996
10669SOL    HW232907   0.550   0.155   1.129
10670SOL     OW32908   5.258   4.518   6.046
10670SOL    HW132909   5.203   4.490   6.125
10670SOL    HW232910   5.226   4.607   6.013
10671SOL     OW32911   2.148   3.419   2.828
10671SOL    HW132912   2.122   3.401   2.733
10671SOL    HW232913   2.193   3.508   2.834
10672SOL     OW32914   0.135   3.169   0.655
10672SOL    HW132915   0.190   3.107   0.711
10672SOL    HW232916   0.042   3.132   0.645
10673SOL     OW32917   2.946   2.663   5.673
10673SOL    HW132918   2.935   2.591   5.742
10673SOL    HW232919   3.043   2.680   5.659
10674SOL     OW32920   3.887   3.746   0.840
10674SOL    HW132921   3.914   3.763   0.745
10674SOL    HW232922   3.965   3.711   0.891
10675SOL     OW32923   0.373   0.434   5.415
10675SOL    HW132924   0.288   0.482   5.434
10675SOL    HW232925   0.430   0.489   5.354
10676SOL     OW32926   5.706   0.374   6.053
10676SOL    HW132927   5.636   0.427   6.005
10676SOL    HW232928   5.767   0.436   6.102
10677SOL     OW32929   0.682   0.748   2.378
10677SOL    HW132930   0.613   0.750   2.306
10677SOL    HW232931   0.736   0.831   2.375
10678SOL     OW32932   3.072   5.995   2.765
10678SOL    HW132933   3.142   5.956   2.705
10678SOL    HW232934   3.099   5.983   2.860
10679SOL     OW32935   5.569   5.565   4.797
10679SOL    HW132936   5.473   5.585   4.777
10679SOL    HW232937   5.604   5.633   4.862
10680SOL     OW32938   1.925   3.125   2.709
10680SOL    HW132939   1.957   3.143   2.616
10680SOL    HW232940   1.999   3.143   2.774
10681SOL     OW32941   6.329   4.532   6.779
10681SOL    HW132942   6.253   4.472   6.752
10681SOL    HW232943   6.349   4.518   6.876
10682SOL     OW32944   1.483   1.433   3.434
10682SOL    HW132945   1.576   1.420   3.469
10682SOL    HW232946   1.481   1.512   3.372
10683SOL     OW32947   2.226   2.245   4.062
10683SOL    HW132948   2.289   2.239   3.984
10683SOL    HW232949   2.200   2.340   4.076
10684SOL     OW32950   5.456   4.090   1.001
10684SOL    HW132951   5.436   4.181   1.037
10684SOL    HW232952   5.539   4.054   1.045
10685SOL     OW32953   0.686   3.821   3.545
10685SOL    HW132954   0.761   3.755   3.550
10685SOL    HW232955   0.660   3.849   3.637
10686SOL     OW32956   3.850   5.952   0.133
10686SOL    HW132957   3.853   5.949   0.233
10686SOL    HW232958   3.912   5.884   0.095
10687SOL     OW32959   6.792   5.125   2.036
10687SOL    HW132960   6.788   5.102   2.133
10687SOL    HW232961   6.879   5.093   1.998
10688SOL     OW32962   6.177   4.589   2.456
10688SOL    HW132963   6.194   4.505   2.507
10688SOL    HW232964   6.248   4.656   2.476
10689SOL     OW32965   6.891   6.958   2.950
10689SOL    HW132966   6.950   6.926   3.024
10689SOL    HW232967   6.843   0.015   2.980
10690SOL     OW32968   4.499   5.438   2.971
10690SOL    HW132969   4.444   5.355   2.974
10690SOL    HW232970   4.470   5.500   3.044
10691SOL     OW32971   6.703   1.246   1.588
10691SOL    HW132972   6.725   1.343   1.577
10691SOL    HW232973   6.633   1.236   1.659
10692SOL     OW32974   3.125   5.902   3.668
10692SOL    HW132975   3.215   5.890   3.709
10692SOL    HW232976   3.078   5.977   3.714
10693SOL     OW32977   1.195   1.269   0.700
10693SOL    HW132978   1.267   1.226   0.645
10693SOL    HW232979   1.125   1.201   0.722
10694SOL     OW32980   3.471   6.323   0.957
10694SOL    HW132981   3.471   6.384   0.877
10694SOL    HW232982   3.465   6.378   1.040
10695SOL     OW32983   0.397   2.588   3.923
10695SOL    HW132984   0.416   2.676   3.878
10695SOL    HW232985   0.361   2.524   3.855
10696SOL     OW32986   6.926   6.049   1.612
10696SOL    HW132987   7.001   6.111   1.590
10696SOL    HW232988   6.960   5.974   1.669
10697SOL     OW32989   0.413   6.381   3.267
10697SOL    HW132990   0.324   6.343   3.293
10697SOL    HW232991   0.470   6.310   3.227
10698SOL     OW32992   2.616   6.925   3.156
10698SOL    HW132993   2.686   6.984   3.115
10698SOL    HW232994   2.606   6.948   3.252
10699SOL     OW32995   4.561   1.726   3.167
10699SOL    HW132996   4.479   1.751   3.115
10699SOL    HW232997   4.633   1.698   3.104
10700SOL     OW32998   0.714   6.811   0.750
10700SOL    HW132999   0.793   6.754   0.730
10700SOL    HW233000   0.638   6.786   0.689
10701SOL     OW33001   4.195   5.747   6.635
10701SOL    HW133002   4.208   5.722   6.539
10701SOL    HW233003   4.267   5.812   6.662
10702SOL     OW33004   5.539   2.416   0.631
10702SOL    HW133005   5.538   2.389   0.534
10702SOL    HW233006   5.633   2.440   0.657
10703SOL     OW33007   3.836   4.080   3.549
10703SOL    HW133008   3.910   4.145   3.564
10703SOL    HW233009   3.872   3.987   3.554
10704SOL     OW33010   5.139   6.668   1.745
10704SOL    HW133011   5.153   6.662   1.844
10704SOL    HW233012   5.044   6.644   1.724
10705SOL     OW33013   1.242   4.022   6.546
10705SOL    HW133014   1.260   3.953   6.476
10705SOL    HW233015   1.159   4.072   6.522
10706SOL     OW33016   4.348   0.633   2.148
10706SOL    HW133017   4.295   0.549   2.161
10706SOL    HW233018   4.381   0.665   2.236
10707SOL     OW33019   6.952   6.997   5.912
10707SOL    HW133020   6.865   6.956   5.940
10707SOL    HW233021   7.025   6.963   5.970
10708SOL     OW33022   4.891   1.051   1.468
10708SOL    HW133023   4.946   1.133   1.454
10708SOL    HW233024   4.949   0.970   1.462
10709SOL     OW33025   6.781   0.440   5.003
10709SOL    HW133026   6.818   0.361   4.955
10709SOL    HW233027   6.805   0.524   4.953
10710SOL     OW33028   6.371   5.579   3.970
10710SOL    HW133029   6.309   5.502   3.988
10710SOL    HW233030   6.349   5.620   3.882
10711SOL     OW33031   1.753   0.225   3.949
10711SOL    HW133032   1.757   0.264   3.858
10711SOL    HW233033   1.735   0.297   4.016
10712SOL     OW33034   3.837   1.422   5.093
10712SOL    HW133035   3.920   1.401   5.042
10712SOL    HW233036   3.790   1.499   5.050
10713SOL     OW33037   2.315   5.961   1.887
10713SOL    HW133038   2.311   5.893   1.960
10713SOL    HW233039   2.404   6.006   1.889
10714SOL     OW33040   0.288   4.602   5.023
10714SOL    HW133041   0.355   4.676   5.027
10714SOL    HW233042   0.201   4.634   5.061
10715SOL     OW33043   4.618   2.128   4.279
10715SOL    HW133044   4.702   2.080   4.253
10715SOL    HW233045   4.571   2.160   4.196
10716SOL     OW33046   6.571   1.093   4.676
10716SOL    HW133047   6.548   1.005   4.716
10716SOL    HW233048   6.508   1.113   4.600
10717SOL     OW33049   6.526   1.071   2.313
10717SOL    HW133050   6.540   0.993   2.374
10717SOL    HW233051   6.519   1.038   2.219
10718SOL     OW33052   6.598   5.161   0.007
10718SOL    HW133053   6.511   5.156   0.055
10718SOL    HW233054   6.651   5.077   0.024
10719SOL     OW33055   5.365   1.114   1.840
10719SOL    HW133056   5.409   1.025   1.829
10719SOL    HW233057   5.270   1.102   1.866
10720SOL     OW33058   6.803   3.729   6.225
10720SOL    HW133059   6.888   3.679   6.209
10720SOL    HW233060   6.816   3.826   6.204
10721SOL     OW33061   5.921   2.542   4.603
10721SOL    HW133062   5.918   2.484   4.684
10721SOL    HW233063   5.869   2.626   4.619
10722SOL     OW33064   6.495   3.863   0.519
10722SOL    HW133065   6.459   3.869   0.612
10722SOL    HW233066   6.420   3.874   0.454
10723SOL     OW33067   5.468   4.400   6.771
10723SOL    HW133068   5.552   4.451   6.784
10723SOL    HW233069   5.446   4.350   6.855
10724SOL     OW33070   4.220   6.449   6.086
10724SOL    HW133071   4.270   6.373   6.044
10724SOL    HW233072   4.252   6.463   6.179
10725SOL     OW33073   0.657   6.167   4.167
10725SOL    HW133074   0.746   6.208   4.151
10725SOL    HW233075   0.668   6.070   4.191
10726SOL     OW33076   5.879   0.413   4.855
10726SOL    HW133077   5.804   0.420   4.790
10726SOL    HW233078   5.965   0.401   4.806
10727SOL     OW33079   2.130   5.315   5.306
10727SOL    HW133080   2.156   5.315   5.210
10727SOL    HW233081   2.196   5.262   5.359
10728SOL     OW33082   4.805   6.830   3.240
10728SOL    HW133083   4.875   6.830   3.311
10728SOL    HW233084   4.724   6.879   3.271
10729SOL     OW33085   5.753   2.491   2.762
10729SOL    HW133086   5.664   2.537   2.766
10729SOL    HW233087   5.744   2.399   2.799
10730SOL     OW33088   2.452   6.413   2.108
10730SOL    HW133089   2.431   6.335   2.167
10730SOL    HW233090   2.473   6.381   2.016
10731SOL     OW33091   3.378   6.041   0.280
10731SOL    HW133092   3.411   5.947   0.270
10731SOL    HW233093   3.399   6.093   0.196
10732SOL     OW33094   5.224   6.022   2.512
10732SOL    HW133095   5.244   5.934   2.468
10732SOL    HW233096   5.288   6.036   2.587
10733SOL     OW33097   6.092   1.561   6.435
10733SOL    HW133098   6.117   1.575   6.339
10733SOL    HW233099   5.999   1.525   6.440
10734SOL     OW33100   1.411   0.398   6.734
10734SOL    HW133101   1.381   0.402   6.638
10734SOL    HW233102   1.510   0.410   6.738
10735SOL     OW33103   0.858   5.126   2.092
10735SOL    HW133104   0.835   5.101   2.187
10735SOL    HW233105   0.950   5.092   2.071
10736SOL     OW33106   0.093   1.095   3.897
10736SOL    HW133107   0.124   1.061   3.809
10736SOL    HW233108   0.156   1.165   3.930
10737SOL     OW33109   0.203   2.037   1.412
10737SOL    HW133110   0.133   2.041   1.341
10737SOL    HW233111   0.251   1.950   1.406
10738SOL     OW33112   2.951   0.624   2.642
10738SOL    HW133113   2.860   0.582   2.633
10738SOL    HW233114   2.963   0.657   2.735
10739SOL     OW33115   5.787   1.797   2.298
10739SOL    HW133116   5.723   1.755   2.234
10739SOL    HW233117   5.777   1.897   2.294
10740SOL     OW33118   1.652   6.758   6.114
10740SOL    HW133119   1.688   6.822   6.047
10740SOL    HW233120   1.728   6.715   6.164
10741SOL     OW33121   1.496   2.894   3.170
10741SOL    HW133122   1.442   2.840   3.235
10741SOL    HW233123   1.581   2.845   3.148
10742SOL     OW33124   6.248   5.334   2.441
10742SOL    HW133125   6.334   5.385   2.440
10742SOL    HW233126   6.237   5.289   2.529
10743SOL     OW33127   3.508   1.467   5.562
10743SOL    HW133128   3.520   1.524   5.481
10743SOL    HW233129   3.581   1.486   5.627
10744SOL     OW33130   3.090   0.378   1.415
10744SOL    HW133131   3.094   0.396   1.513
10744SOL    HW233132   3.147   0.444   1.366
10745SOL     OW33133   2.136   4.426   1.112
10745SOL    HW133134   2.223   4.378   1.123
10745SOL    HW233135   2.066   4.362   1.080
10746SOL     OW33136   2.339   6.155   0.390
10746SOL    HW133137   2.420   6.147   0.332
10746SOL    HW233138   2.366   6.150   0.486
10747SOL     OW33139   6.302   2.846   4.125
10747SOL    HW133140   6.209   2.882   4.121
10747SOL    HW233141   6.334   2.844   4.220
10748SOL     OW33142   4.224   5.238   0.846
10748SOL    HW133143   4.316   5.275   0.830
10748SOL    HW233144   4.160   5.314   0.862
10749SOL     OW33145   6.375   4.508   2.877
10749SOL    HW133146   6.296   4.561   2.907
10749SOL    HW233147   6.448   4.570   2.848
10750SOL     OW33148   4.874   3.225   3.968
10750SOL    HW133149   4.947   3.290   3.988
10750SOL    HW233150   4.852   3.173   4.051
10751SOL     OW33151   1.356   3.607   4.974
10751SOL    HW133152   1.389   3.513   4.968
10751SOL    HW233153   1.382   3.657   4.891
10752SOL     OW33154   6.149   5.331   6.952
10752SOL    HW133155   6.193   5.300   6.868
10752SOL    HW233156   6.070   5.273   6.972
10753SOL     OW33157   5.036   6.545   4.449
10753SOL    HW133158   5.094   6.487   4.393
10753SOL    HW233159   5.078   6.558   4.539
10754SOL     OW33160   0.679   3.502   1.798
10754SOL    HW133161   0.773   3.496   1.830
10754SOL    HW233162   0.624   3.550   1.866
10755SOL     OW33163   6.761   2.721   1.404
10755SOL    HW133164   6.794   2.705   1.311
10755SOL    HW233165   6.661   2.729   1.403
10756SOL     OW33166   6.462   1.859   0.553
10756SOL    HW133167   6.495   1.846   0.646
10756SOL    HW233168   6.387   1.796   0.534
10757SOL     OW33169   6.777   3.849   0.490
10757SOL    HW133170   6.679   3.831   0.499
10757SOL    HW233171   6.809   3.816   0.401
10758SOL     OW33172   0.802   6.007   6.448
10758SOL    HW133173   0.842   6.004   6.357
10758SOL    HW233174   0.870   5.979   6.516
10759SOL     OW33175   1.818   2.022   6.263
10759SOL    HW133176   1.729   2.043   6.304
10759SOL    HW233177   1.874   1.971   6.328
10760SOL     OW33178   0.953   6.365   0.144
10760SOL    HW133179   1.052   6.361   0.161
10760SOL    HW233180   0.904   6.338   0.227
10761SOL     OW33181   0.863   2.303   6.245
10761SOL    HW133182   0.908   2.374   6.300
10761SOL    HW233183   0.930   2.232   6.221
10762SOL     OW33184   3.990   0.727   5.725
10762SOL    HW133185   3.939   0.653   5.768
10762SOL    HW233186   3.944   0.755   5.641
10763SOL     OW33187   6.020   0.543   3.448
10763SOL    HW133188   5.943   0.540   3.511
10763SOL    HW233189   6.086   0.472   3.473
10764SOL     OW33190   4.509   0.887   4.929
10764SOL    HW133191   4.533   0.844   5.017
10764SOL    HW233192   4.410   0.898   4.923
10765SOL     OW33193   6.165   2.425   2.590
10765SOL    HW133194   6.132   2.443   2.497
10765SOL    HW233195   6.088   2.420   2.653
10766SOL     OW33196   1.151   4.930   0.596
10766SOL    HW133197   1.188   5.004   0.652
10766SOL    HW233198   1.192   4.843   0.624
10767SOL     OW33199   1.332   5.975   0.790
10767SOL    HW133200   1.309   5.972   0.887
10767SOL    HW233201   1.414   5.919   0.774
10768SOL     OW33202   5.773   5.232   0.292
10768SOL    HW133203   5.797   5.158   0.354
10768SOL    HW233204   5.702   5.202   0.228
10769SOL     OW33205   2.811   4.098   5.401
10769SOL    HW133206   2.841   4.004   5.382
10769SOL    HW233207   2.711   4.102   5.396
10770SOL     OW33208   5.664   6.786   4.821
10770SOL    HW133209   5.606   6.789   4.740
10770SOL    HW233210   5.672   6.692   4.852
10771SOL     OW33211   4.872   0.127   5.631
10771SOL    HW133212   4.837   0.218   5.656
10771SOL    HW233213   4.963   0.137   5.592
10772SOL     OW33214   5.381   5.949   3.764
10772SOL    HW133215   5.362   5.869   3.821
10772SOL    HW233216   5.389   5.921   3.668
10773SOL     OW33217   0.227   4.071   0.653
10773SOL    HW133218   0.135   4.105   0.631
10773SOL    HW233219   0.253   4.000   0.587
10774SOL     OW33220   1.475   2.471   0.753
10774SOL    HW133221   1.463   2.374   0.773
10774SOL    HW233222   1.386   2.514   0.740
10775SOL     OW33223   2.057   4.461   0.712
10775SOL    HW133224   1.990   4.453   0.786
10775SOL    HW233225   2.036   4.542   0.656
10776SOL     OW33226   0.317   0.692   2.918
10776SOL    HW133227   0.289   0.609   2.967
10776SOL    HW233228   0.251   0.710   2.845
10777SOL     OW33229   2.869   0.707   3.514
10777SOL    HW133230   2.837   0.780   3.575
10777SOL    HW233231   2.877   0.743   3.421
10778SOL     OW33232   6.471   6.441   4.203
10778SOL    HW133233   6.498   6.353   4.241
10778SOL    HW233234   6.464   6.509   4.277
10779SOL     OW33235   5.648   5.039   3.271
10779SOL    HW133236   5.593   5.111   3.229
10779SOL    HW233237   5.718   5.079   3.329
10780SOL     OW33238   0.697   5.865   4.566
10780SOL    HW133239   0.721   5.905   4.655
10780SOL    HW233240   0.741   5.776   4.556
10781SOL     OW33241   5.996   2.399   4.877
10781SOL    HW133242   6.031   2.360   4.962
10781SOL    HW233243   6.029   2.344   4.800
10782SOL     OW33244   0.634   3.377   5.204
10782SOL    HW133245   0.699   3.303   5.224
10782SOL    HW233246   0.546   3.338   5.180
10783SOL     OW33247   1.264   2.581   2.752
10783SOL    HW133248   1.210   2.618   2.676
10783SOL    HW233249   1.334   2.519   2.715
10784SOL     OW33250   2.842   6.009   2.591
10784SOL    HW133251   2.763   6.047   2.639
10784SOL    HW233252   2.920   6.006   2.654
10785SOL     OW33253   1.656   5.242   1.473
10785SOL    HW133254   1.698   5.152   1.486
10785SOL    HW233255   1.727   5.311   1.461
10786SOL     OW33256   4.487   1.902   2.130
10786SOL    HW133257   4.491   1.816   2.182
10786SOL    HW233258   4.395   1.912   2.091
10787SOL     OW33259   3.210   1.215   3.725
10787SOL    HW133260   3.249   1.165   3.647
10787SOL    HW233261   3.284   1.248   3.784
10788SOL     OW33262   0.221   4.087   0.077
10788SOL    HW133263   0.293   4.053   0.137
10788SOL    HW233264   0.261   4.125   7.019
10789SOL     OW33265   6.665   1.285   6.910
10789SOL    HW133266   6.732   1.336   6.964
10789SOL    HW233267   6.593   1.251   6.970
10790SOL     OW33268   0.703   2.560   4.740
10790SOL    HW133269   0.758   2.486   4.778
10790SOL    HW233270   0.734   2.581   4.647
10791SOL     OW33271   2.082   1.538   2.636
10791SOL    HW133272   2.037   1.466   2.688
10791SOL    HW233273   2.164   1.502   2.592
10792SOL     OW33274   3.634   2.372   1.332
10792SOL    HW133275   3.572   2.344   1.259
10792SOL    HW233276   3.638   2.472   1.335
10793SOL     OW33277   5.157   1.449   4.768
10793SOL    HW133278   5.182   1.358   4.735
10793SOL    HW233279   5.113   1.441   4.858
10794SOL     OW33280   4.429   2.956   1.736
10794SOL    HW133281   4.507   2.949   1.799
10794SOL    HW233282   4.377   3.039   1.757
10795SOL     OW33283   0.074   3.824   2.794
10795SOL    HW133284   7.024   3.768   2.760
10795SOL    HW233285   0.043   3.918   2.806
10796SOL     OW33286   6.595   6.739   6.988
10796SOL    HW133287   6.610   6.834   6.963
10796SOL    HW233288   6.580   6.684   6.906
10797SOL     OW33289   4.109   2.925   0.468
10797SOL    HW133290   4.138   2.975   0.387
10797SOL    HW233291   4.054   2.846   0.442
10798SOL     OW33292   3.009   6.764   6.362
10798SOL    HW133293   2.936   6.698   6.346
10798SOL    HW233294   3.089   6.738   6.309
10799SOL     OW33295   3.209   1.258   2.365
10799SOL    HW133296   3.116   1.226   2.345
10799SOL    HW233297   3.227   1.343   2.315
10800SOL     OW33298   1.203   6.951   6.751
10800SOL    HW133299   1.119   6.998   6.723
10800SOL    HW233300   1.224   6.878   6.685
10801SOL     OW33301   1.797   5.871   6.088
10801SOL    HW133302   1.794   5.799   6.019
10801SOL    HW233303   1.847   5.950   6.052
10802SOL     OW33304   1.460   4.018   4.004
10802SOL    HW133305   1.442   3.921   4.019
10802SOL    HW233306   1.535   4.029   3.939
10803SOL     OW33307   6.030   4.847   5.382
10803SOL    HW133308   6.106   4.860   5.445
10803SOL    HW233309   6.043   4.761   5.332
10804SOL     OW33310   5.967   4.264   1.653
10804SOL    HW133311   6.037   4.199   1.623
10804SOL    HW233312   6.009   4.332   1.713
10805SOL     OW33313   3.981   6.589   0.880
10805SOL    HW133314   3.901   6.537   0.910
10805SOL    HW233315   3.963   6.630   0.791
10806SOL     OW33316   5.600   3.847   0.740
10806SOL    HW133317   5.552   3.759   0.738
10806SOL    HW233318   5.533   3.920   0.728
10807SOL     OW33319   3.557   5.795   3.054
10807SOL    HW133320   3.578   5.858   2.979
10807SOL    HW233321   3.639   5.742   3.076
10808SOL     OW33322   0.341   2.763   6.015
10808SOL    HW133323   0.323   2.789   6.110
10808SOL    HW233324   0.430   2.800   5.987
10809SOL     OW33325   2.928   0.697   3.997
10809SOL    HW133326   2.945   0.796   4.003
10809SOL    HW233327   2.854   0.680   3.933
10810SOL     OW33328   7.004   1.627   5.265
10810SOL    HW133329   6.941   1.703   5.283
10810SOL    HW233330   7.025   1.624   5.167
10811SOL     OW33331   4.074   5.469   5.370
10811SOL    HW133332   4.129   5.523   5.433
10811SOL    HW233333   4.130   5.442   5.292
10812SOL     OW33334   6.283   2.997   2.911
10812SOL    HW133335   6.335   3.041   2.984
10812SOL    HW233336   6.292   3.052   2.827
10813SOL     OW33337   2.925   6.218   2.194
10813SOL    HW133338   3.008   6.225   2.139
10813SOL    HW233339   2.949   6.205   2.290
10814SOL     OW33340   1.682   7.011   5.140
10814SOL    HW133341   1.712   7.017   5.235
10814SOL    HW233342   1.738   6.944   5.091
10815SOL     OW33343   5.287   4.015   2.854
10815SOL    HW133344   5.381   4.047   2.837
10815SOL    HW233345   5.232   4.030   2.772
10816SOL     OW33346   1.640   1.059   2.150
10816SOL    HW133347   1.731   1.075   2.188
10816SOL    HW233348   1.580   1.023   2.221
10817SOL     OW33349   4.991   0.571   2.706
10817SOL    HW133350   4.948   0.587   2.795
10817SOL    HW233351   4.959   0.640   2.641
10818SOL     OW33352   5.450   3.009   6.832
10818SOL    HW133353   5.361   2.974   6.861
10818SOL    HW233354   5.516   2.999   6.906
10819SOL     OW33355   0.523   4.833   6.530
10819SOL    HW133356   0.447   4.770   6.509
10819SOL    HW233357   0.493   4.927   6.514
10820SOL     OW33358   0.114   6.494   3.633
10820SOL    HW133359   0.191   6.551   3.661
10820SOL    HW233360   0.074   6.449   3.713
10821SOL     OW33361   6.679   0.502   1.802
10821SOL    HW133362   6.624   0.459   1.874
10821SOL    HW233363   6.679   0.444   1.721
10822SOL     OW33364   1.101   3.929   2.567
10822SOL    HW133365   1.016   3.902   2.613
10822SOL    HW233366   1.079   3.965   2.476
10823SOL     OW33367   2.288   6.317   1.035
10823SOL    HW133368   2.381   6.344   1.060
10823SOL    HW233369   2.291   6.252   0.959
10824SOL     OW33370   4.865   0.842   2.500
10824SOL    HW133371   4.904   0.758   2.463
10824SOL    HW233372   4.889   0.919   2.441
10825SOL     OW33373   3.481   1.066   0.955
10825SOL    HW133374   3.499   1.060   0.856
10825SOL    HW233375   3.475   0.974   0.993
10826SOL     OW33376   0.276   3.718   2.146
10826SOL    HW133377   0.332   3.703   2.065
10826SOL    HW233378   0.331   3.760   2.217
10827SOL     OW33379   6.845   3.403   4.298
10827SOL    HW133380   6.855   3.322   4.240
10827SOL    HW233381   6.748   3.420   4.315
10828SOL     OW33382   1.059   5.951   7.012
10828SOL    HW133383   1.111   5.873   0.021
10828SOL    HW233384   0.963   5.924   7.001
10829SOL     OW33385   3.143   4.025   2.033
10829SOL    HW133386   3.093   4.068   1.958
10829SOL    HW233387   3.082   3.963   2.083
10830SOL     OW33388   5.399   3.053   4.864
10830SOL    HW133389   5.325   3.050   4.798
10830SOL    HW233390   5.364   3.086   4.952
10831SOL     OW33391   5.403   1.167   2.699
10831SOL    HW133392   5.470   1.207   2.636
10831SOL    HW233393   5.431   1.074   2.723
10832SOL     OW33394   0.897   2.104   0.217
10832SOL    HW133395   0.984   2.076   0.176
10832SOL    HW233396   0.831   2.125   0.144
10833SOL     OW33397   2.562   0.923   4.326
10833SOL    HW133398   2.652   0.891   4.297
10833SOL    HW233399   2.567   0.953   4.421
10834SOL     OW33400   0.688   1.708   5.612
10834SOL    HW133401   0.736   1.771   5.550
10834SOL    HW233402   0.752   1.640   5.646
10835SOL     OW33403   5.848   2.098   2.266
10835SOL    HW133404   5.751   2.107   2.287
10835SOL    HW233405   5.870   2.152   2.185
10836SOL     OW33406   0.948   1.791   6.184
10836SOL    HW133407   1.011   1.757   6.114
10836SOL    HW233408   0.854   1.767   6.158
10837SOL     OW33409   0.051   4.472   0.263
10837SOL    HW133410   0.097   4.395   0.309
10837SOL    HW233411   0.079   4.473   0.167
10838SOL     OW33412   5.554   6.851   6.767
10838SOL    HW133413   5.550   6.878   6.863
10838SOL    HW233414   5.539   6.753   6.759
10839SOL     OW33415   2.264   1.636   6.903
10839SOL    HW133416   2.349   1.662   6.857
10839SOL    HW233417   2.286   1.587   6.987
10840SOL     OW33418   3.486   5.405   1.450
10840SOL    HW133419   3.445   5.495   1.435
10840SOL    HW233420   3.529   5.374   1.365
10841SOL     OW33421   4.043   5.954   6.011
10841SOL    HW133422   4.019   5.984   5.918
10841SOL    HW233423   3.970   5.895   6.046
10842SOL     OW33424   6.460   3.289   0.946
10842SOL    HW133425   6.433   3.384   0.929
10842SOL    HW233426   6.526   3.261   0.875
10843SOL     OW33427   0.808   1.563   2.185
10843SOL    HW133428   0.830   1.466   2.183
10843SOL    HW233429   0.800   1.593   2.280
10844SOL     OW33430   5.536   6.818   2.952
10844SOL    HW133431   5.560   6.911   2.927
10844SOL    HW233432   5.502   6.816   3.046
10845SOL     OW33433   1.290   1.320   1.427
10845SOL    HW133434   1.252   1.234   1.394
10845SOL    HW233435   1.291   1.320   1.527
10846SOL     OW33436   4.160   2.074   1.063
10846SOL    HW133437   4.145   2.112   0.971
10846SOL    HW233438   4.073   2.071   1.112
10847SOL     OW33439   3.616   2.286   6.189
10847SOL    HW133440   3.598   2.317   6.282
10847SOL    HW233441   3.535   2.300   6.132
10848SOL     OW33442   2.077   0.799   0.186
10848SOL    HW133443   2.154   0.747   0.150
10848SOL    HW233444   1.997   0.739   0.191
10849SOL     OW33445   2.774   5.052   4.680
10849SOL    HW133446   2.818   5.140   4.703
10849SOL    HW233447   2.827   4.977   4.720
10850SOL     OW33448   5.559   6.930   7.015
10850SOL    HW133449   5.522   7.022   7.000
10850SOL    HW233450   5.510   6.887   0.065
10851SOL     OW33451   2.850   2.535   6.453
10851SOL    HW133452   2.829   2.517   6.358
10851SOL    HW233453   2.795   2.476   6.512
10852SOL     OW33454   0.287   0.886   6.627
10852SOL    HW133455   0.289   0.805   6.569
10852SOL    HW233456   0.217   0.876   6.697
10853SOL     OW33457   2.910   1.531   4.423
10853SOL    HW133458   2.903   1.432   4.428
10853SOL    HW233459   2.878   1.572   4.509
10854SOL     OW33460   6.645   6.975   6.888
10854SOL    HW133461   6.563   7.016   6.846
10854SOL    HW233462   6.723   6.988   6.827
10855SOL     OW33463   1.637   6.347   2.145
10855SOL    HW133464   1.554   6.314   2.190
10855SOL    HW233465   1.715   6.294   2.176
10856SOL     OW33466   5.841   6.512   6.947
10856SOL    HW133467   5.895   6.502   0.004
10856SOL    HW233468   5.875   6.450   6.876
10857SOL     OW33469   6.143   1.620   3.482
10857SOL    HW133470   6.236   1.584   3.478
10857SOL    HW233471   6.086   1.560   3.539
10858SOL     OW33472   1.309   3.123   0.261
10858SOL    HW133473   1.381   3.132   0.331
10858SOL    HW233474   1.339   3.059   0.190
10859SOL     OW33475   0.719   4.738   3.369
10859SOL    HW133476   0.779   4.698   3.300
10859SOL    HW233477   0.656   4.802   3.326
10860SOL     OW33478   6.355   1.430   0.231
10860SOL    HW133479   6.409   1.353   0.197
10860SOL    HW233480   6.319   1.482   0.154
10861SOL     OW33481   2.888   2.746   1.642
10861SOL    HW133482   2.965   2.760   1.704
10861SOL    HW233483   2.905   2.665   1.585
10862SOL     OW33484   3.363   2.284   6.014
10862SOL    HW133485   3.354   2.366   5.957
10862SOL    HW233486   3.364   2.203   5.956
10863SOL     OW33487   2.414   0.681   3.228
10863SOL    HW133488   2.504   0.688   3.184
10863SOL    HW233489   2.421   0.625   3.310
10864SOL     OW33490   2.461   4.400   2.015
10864SOL    HW133491   2.540   4.367   2.066
10864SOL    HW233492   2.471   4.497   1.995
10865SOL     OW33493   4.773   2.932   3.221
10865SOL    HW133494   4.814   3.005   3.276
10865SOL    HW233495   4.750   2.967   3.131
10866SOL     OW33496   6.861   3.805   2.055
10866SOL    HW133497   6.904   3.794   2.144
10866SOL    HW233498   6.929   3.788   1.983
10867SOL     OW33499   3.311   2.329   0.399
10867SOL    HW133500   3.394   2.277   0.420
10867SOL    HW233501   3.321   2.375   0.311
10868SOL     OW33502   1.001   2.406   3.673
10868SOL    HW133503   0.919   2.351   3.662
10868SOL    HW233504   1.037   2.432   3.583
10869NA      NA33505   0.199   1.927   5.949
10870NA      NA33506   4.433   4.672   5.128
10871NA      NA33507   1.583   5.357   2.569
10872NA      NA33508   5.129   4.286   3.349
10873NA      NA33509   4.375   2.366   5.182
10874NA      NA33510   2.484   5.120   1.032
10875NA      NA33511   1.264   5.329   0.423
10876NA      NA33512   3.496   3.808   1.200
10877NA      NA33513   4.355   4.754   1.020
10878NA      NA33514   3.347   0.887   6.632
10879NA      NA33515   5.781   5.780   1.779
10880NA      NA33516   1.213   6.793   5.309
10881NA      NA33517   4.518   5.174   2.101
10882NA      NA33518   3.134   3.175   6.926
   7.02572   7.02572   7.02572
