Generated by trjconv : CNT in water t= 261.00000
33518
    1C        C    1   2.841   2.770   4.748
    1C        C    2   2.899   2.721   4.867
    1C        C    3   2.841   2.776   4.982
    1C        C    4   2.855   2.777   4.262
    1C        C    5   2.900   2.726   4.386
    1C        C    6   2.848   2.776   4.507
    1C        C    7   3.010   2.638   4.624
    1C        C    8   2.893   2.718   4.628
    1C        C    9   3.074   2.605   4.746
    1C        C   10   3.009   2.633   4.868
    1C        C   11   3.186   2.499   4.983
    1C        C   12   3.061   2.562   4.977
    1C        C   13   2.855   2.774   3.772
    1C        C   14   2.904   2.725   3.895
    1C        C   15   2.850   2.770   4.017
    1C        C   16   3.016   2.641   4.141
    1C        C   17   2.903   2.725   4.140
    1C        C   18   3.083   2.610   4.262
    1C        C   19   3.016   2.645   4.381
    1C        C   20   3.207   2.555   4.506
    1C        C   21   3.075   2.604   4.503
    1C        C   22   3.276   2.534   4.628
    1C        C   23   3.204   2.548   4.749
    1C        C   24   3.412   2.489   4.870
    1C        C   25   3.270   2.505   4.868
    1C        C   26   3.490   2.485   4.986
    1C        C   27   2.855   2.772   3.284
    1C        C   28   2.907   2.726   3.408
    1C        C   29   2.854   2.773   3.530
    1C        C   30   3.021   2.641   3.652
    1C        C   31   2.905   2.721   3.651
    1C        C   32   3.080   2.601   3.774
    1C        C   33   3.016   2.638   3.894
    1C        C   34   3.207   2.553   4.016
    1C        C   35   3.076   2.606   4.018
    1C        C   36   3.276   2.528   4.137
    1C        C   37   3.213   2.554   4.261
    1C        C   38   3.416   2.508   4.384
    1C        C   39   3.278   2.535   4.385
    1C        C   40   3.486   2.498   4.506
    1C        C   41   3.414   2.506   4.628
    1C        C   42   3.629   2.494   4.747
    1C        C   43   3.487   2.491   4.748
    1C        C   44   3.705   2.492   4.866
    1C        C   45   3.629   2.477   4.983
    1C        C   46   2.840   2.759   2.795
    1C        C   47   2.897   2.715   2.917
    1C        C   48   2.847   2.766   3.039
    1C        C   49   3.016   2.637   3.162
    1C        C   50   2.902   2.721   3.161
    1C        C   51   3.078   2.601   3.284
    1C        C   52   3.020   2.641   3.406
    1C        C   53   3.212   2.552   3.526
    1C        C   54   3.081   2.605   3.528
    1C        C   55   3.278   2.528   3.649
    1C        C   56   3.210   2.545   3.771
    1C        C   57   3.415   2.506   3.897
    1C        C   58   3.276   2.531   3.895
    1C        C   59   3.485   2.501   4.019
    1C        C   60   3.414   2.500   4.142
    1C        C   61   3.628   2.497   4.262
    1C        C   62   3.487   2.494   4.262
    1C        C   63   3.699   2.508   4.383
    1C        C   64   3.627   2.501   4.504
    1C        C   65   3.833   2.554   4.623
    1C        C   66   3.698   2.512   4.626
    1C        C   67   3.902   2.573   4.745
    1C        C   68   3.840   2.532   4.864
    1C        C   69   4.050   2.589   4.977
    1C        C   70   3.921   2.535   4.978
    1C        C   71   2.828   2.739   2.313
    1C        C   72   2.888   2.699   2.434
    1C        C   73   2.828   2.745   2.553
    1C        C   74   3.009   2.630   2.675
    1C        C   75   2.890   2.706   2.674
    1C        C   76   3.072   2.595   2.796
    1C        C   77   3.013   2.635   2.918
    1C        C   78   3.206   2.544   3.035
    1C        C   79   3.077   2.601   3.039
    1C        C   80   3.276   2.528   3.157
    1C        C   81   3.209   2.550   3.280
    1C        C   82   3.415   2.501   3.403
    1C        C   83   3.277   2.532   3.403
    1C        C   84   3.485   2.491   3.525
    1C        C   85   3.417   2.503   3.649
    1C        C   86   3.625   2.498   3.771
    1C        C   87   3.484   2.497   3.773
    1C        C   88   3.695   2.510   3.892
    1C        C   89   3.626   2.506   4.015
    1C        C   90   3.830   2.557   4.135
    1C        C   91   3.695   2.513   4.138
    1C        C   92   3.895   2.583   4.257
    1C        C   93   3.834   2.552   4.381
    1C        C   94   4.026   2.644   4.498
    1C        C   95   3.902   2.577   4.502
    1C        C   96   4.086   2.682   4.620
    1C        C   97   4.028   2.640   4.742
    1C        C   98   4.192   2.769   4.863
    1C        C   99   4.098   2.661   4.863
    1C        C  100   4.215   2.845   4.979
    1C        C  101   2.825   2.732   2.073
    1C        C  102   2.990   2.593   2.192
    1C        C  103   2.879   2.683   2.192
    1C        C  104   3.062   2.575   2.313
    1C        C  105   3.007   2.623   2.434
    1C        C  106   3.201   2.530   2.553
    1C        C  107   3.072   2.589   2.555
    1C        C  108   3.272   2.514   2.673
    1C        C  109   3.202   2.539   2.793
    1C        C  110   3.414   2.498   2.916
    1C        C  111   3.275   2.525   2.913
    1C        C  112   3.485   2.494   3.038
    1C        C  113   3.415   2.504   3.160
    1C        C  114   3.627   2.492   3.282
    1C        C  115   3.486   2.489   3.281
    1C        C  116   3.697   2.508   3.404
    1C        C  117   3.626   2.499   3.526
    1C        C  118   3.831   2.548   3.645
    1C        C  119   3.695   2.508   3.648
    1C        C  120   3.894   2.577   3.769
    1C        C  121   3.830   2.552   3.892
    1C        C  122   4.021   2.647   4.012
    1C        C  123   3.899   2.577   4.013
    1C        C  124   4.082   2.684   4.134
    1C        C  125   4.021   2.648   4.256
    1C        C  126   4.197   2.769   4.378
    1C        C  127   4.088   2.678   4.376
    1C        C  128   4.242   2.825   4.499
    1C        C  129   4.198   2.768   4.621
    1C        C  130   4.325   2.940   4.739
    1C        C  131   4.246   2.822   4.743
    1C        C  132   4.358   3.004   4.860
    1C        C  133   4.292   2.961   4.975
    1C        C  134   3.174   2.463   2.087
    1C        C  135   3.044   2.513   2.085
    1C        C  136   3.261   2.481   2.195
    1C        C  137   3.194   2.521   2.313
    1C        C  138   3.406   2.479   2.429
    1C        C  139   3.267   2.500   2.432
    1C        C  140   3.480   2.481   2.549
    1C        C  141   3.412   2.495   2.672
    1C        C  142   3.625   2.498   2.792
    1C        C  143   3.484   2.494   2.793
    1C        C  144   3.696   2.509   2.914
    1C        C  145   3.626   2.499   3.036
    1C        C  146   3.832   2.543   3.157
    1C        C  147   3.696   2.504   3.159
    1C        C  148   3.898   2.572   3.278
    1C        C  149   3.833   2.547   3.401
    1C        C  150   4.024   2.633   3.521
    1C        C  151   3.900   2.567   3.524
    1C        C  152   4.082   2.672   3.644
    1C        C  153   4.021   2.639   3.767
    1C        C  154   4.190   2.771   3.889
    1C        C  155   4.078   2.686   3.888
    1C        C  156   4.249   2.814   4.010
    1C        C  157   4.199   2.764   4.133
    1C        C  158   4.342   2.921   4.254
    1C        C  159   4.250   2.813   4.255
    1C        C  160   4.376   2.986   4.375
    1C        C  161   4.330   2.935   4.498
    1C        C  162   4.440   3.121   4.616
    1C        C  163   4.370   2.998   4.618
    1C        C  164   4.474   3.184   4.737
    1C        C  165   4.437   3.122   4.859
    1C        C  166   4.521   3.321   4.971
    1C        C  167   4.479   3.188   4.975
    1C        C  168   3.477   2.432   2.076
    1C        C  169   3.400   2.459   2.190
    1C        C  170   3.620   2.472   2.306
    1C        C  171   3.478   2.465   2.308
    1C        C  172   3.694   2.487   2.426
    1C        C  173   3.622   2.487   2.547
    1C        C  174   3.828   2.544   2.667
    1C        C  175   3.693   2.504   2.668
    1C        C  176   3.897   2.569   2.788
    1C        C  177   3.832   2.550   2.912
    1C        C  178   4.028   2.625   3.032
    1C        C  179   3.899   2.565   3.035
    1C        C  180   4.090   2.662   3.153
    1C        C  181   4.027   2.629   3.276
    1C        C  182   4.193   2.761   3.400
    1C        C  183   4.085   2.670   3.398
    1C        C  184   4.239   2.813   3.523
    1C        C  185   4.191   2.761   3.645
    1C        C  186   4.338   2.919   3.767
    1C        C  187   4.241   2.816   3.765
    1C        C  188   4.381   2.979   3.887
    1C        C  189   4.339   2.922   4.009
    1C        C  190   4.445   3.105   4.128
    1C        C  191   4.378   2.981   4.132
    1C        C  192   4.473   3.172   4.249
    1C        C  193   4.443   3.111   4.372
    1C        C  194   4.509   3.317   4.492
    1C        C  195   4.468   3.182   4.491
    1C        C  196   4.528   3.389   4.612
    1C        C  197   4.520   3.318   4.734
    1C        C  198   4.549   3.537   4.853
    1C        C  199   4.534   3.395   4.853
    1C        C  200   4.574   3.621   4.966
    1C        C  201   3.617   2.416   2.075
    1C        C  202   3.829   2.512   2.181
    1C        C  203   3.695   2.463   2.186
    1C        C  204   3.899   2.545   2.301
    1C        C  205   3.831   2.520   2.422
    1C        C  206   4.022   2.618   2.543
    1C        C  207   3.895   2.556   2.543
    1C        C  208   4.085   2.658   2.662
    1C        C  209   4.023   2.633   2.786
    1C        C  210   4.197   2.752   2.907
    1C        C  211   4.086   2.664   2.909
    1C        C  212   4.249   2.799   3.029
    1C        C  213   4.201   2.748   3.152
    1C        C  214   4.336   2.910   3.273
    1C        C  215   4.247   2.799   3.275
    1C        C  216   4.375   2.971   3.395
    1C        C  217   4.333   2.918   3.519
    1C        C  218   4.438   3.100   3.638
    1C        C  219   4.374   2.975   3.642
    1C        C  220   4.465   3.168   3.759
    1C        C  221   4.444   3.106   3.885
    1C        C  222   4.510   3.307   4.002
    1C        C  223   4.476   3.170   4.006
    1C        C  224   4.523   3.378   4.124
    1C        C  225   4.510   3.309   4.246
    1C        C  226   4.517   3.523   4.367
    1C        C  227   4.520   3.381   4.367
    1C        C  228   4.512   3.598   4.486
    1C        C  229   4.529   3.530   4.609
    1C        C  230   4.500   3.743   4.730
    1C        C  231   4.532   3.605   4.729
    1C        C  232   4.492   3.820   4.848
    1C        C  233   4.542   3.757   4.962
    1C        C  234   4.018   2.615   2.062
    1C        C  235   3.899   2.544   2.064
    1C        C  236   4.085   2.654   2.179
    1C        C  237   4.025   2.611   2.299
    1C        C  238   4.197   2.739   2.418
    1C        C  239   4.083   2.654   2.420
    1C        C  240   4.253   2.786   2.539
    1C        C  241   4.196   2.746   2.662
    1C        C  242   4.338   2.906   2.783
    1C        C  243   4.248   2.797   2.783
    1C        C  244   4.384   2.959   2.906
    1C        C  245   4.342   2.906   3.030
    1C        C  246   4.444   3.092   3.148
    1C        C  247   4.379   2.966   3.152
    1C        C  248   4.463   3.158   3.272
    1C        C  249   4.439   3.097   3.396
    1C        C  250   4.502   3.303   3.515
    1C        C  251   4.467   3.166   3.516
    1C        C  252   4.518   3.373   3.636
    1C        C  253   4.506   3.303   3.759
    1C        C  254   4.526   3.517   3.878
    1C        C  255   4.521   3.376   3.879
    1C        C  256   4.518   3.587   4.000
    1C        C  257   4.527   3.520   4.124
    1C        C  258   4.491   3.732   4.242
    1C        C  259   4.517   3.593   4.244
    1C        C  260   4.470   3.802   4.362
    1C        C  261   4.487   3.737   4.487
    1C        C  262   4.423   3.941   4.603
    1C        C  263   4.475   3.809   4.607
    1C        C  264   4.397   4.009   4.724
    1C        C  265   4.431   3.948   4.846
    1C        C  266   4.314   4.132   4.961
    1C        C  267   4.395   4.020   4.961
    1C        C  268   4.261   2.783   2.060
    1C        C  269   4.199   2.738   2.177
    1C        C  270   4.346   2.894   2.298
    1C        C  271   4.254   2.786   2.298
    1C        C  272   4.385   2.954   2.420
    1C        C  273   4.345   2.893   2.541
    1C        C  274   4.451   3.083   2.661
    1C        C  275   4.384   2.958   2.660
    1C        C  276   4.477   3.151   2.782
    1C        C  277   4.448   3.085   2.904
    1C        C  278   4.502   3.292   3.024
    1C        C  279   4.471   3.154   3.025
    1C        C  280   4.507   3.363   3.146
    1C        C  281   4.495   3.296   3.269
    1C        C  282   4.519   3.509   3.390
    1C        C  283   4.510   3.368   3.390
    1C        C  284   4.520   3.582   3.511
    1C        C  285   4.522   3.515   3.635
    1C        C  286   4.493   3.726   3.753
    1C        C  287   4.520   3.587   3.756
    1C        C  288   4.474   3.793   3.876
    1C        C  289   4.489   3.725   3.999
    1C        C  290   4.424   3.931   4.115
    1C        C  291   4.473   3.799   4.118
    1C        C  292   4.393   3.996   4.237
    1C        C  293   4.422   3.935   4.361
    1C        C  294   4.314   4.122   4.479
    1C        C  295   4.387   4.001   4.481
    1C        C  296   4.279   4.185   4.601
    1C        C  297   4.322   4.130   4.724
    1C        C  298   4.204   4.319   4.838
    1C        C  299   4.279   4.197   4.842
    1C        C  300   4.171   4.404   4.948
    1C        C  301   4.348   2.892   2.062
    1C        C  302   4.477   3.069   2.177
    1C        C  303   4.403   2.947   2.179
    1C        C  304   4.487   3.144   2.298
    1C        C  305   4.458   3.075   2.418
    1C        C  306   4.506   3.286   2.538
    1C        C  307   4.475   3.148   2.538
    1C        C  308   4.516   3.359   2.658
    1C        C  309   4.505   3.289   2.781
    1C        C  310   4.526   3.501   2.901
    1C        C  311   4.521   3.360   2.901
    1C        C  312   4.517   3.574   3.022
    1C        C  313   4.520   3.504   3.145
    1C        C  314   4.482   3.714   3.264
    1C        C  315   4.512   3.576   3.266
    1C        C  316   4.472   3.785   3.386
    1C        C  317   4.496   3.722   3.510
    1C        C  318   4.422   3.924   3.629
    1C        C  319   4.473   3.792   3.630
    1C        C  320   4.391   3.989   3.751
    1C        C  321   4.418   3.923   3.873
    1C        C  322   4.313   4.112   3.991
    1C        C  323   4.387   3.992   3.993
    1C        C  324   4.276   4.171   4.114
    1C        C  325   4.319   4.116   4.237
    1C        C  326   4.181   4.284   4.355
    1C        C  327   4.275   4.179   4.356
    1C        C  328   4.136   4.341   4.475
    1C        C  329   4.187   4.292   4.597
    1C        C  330   4.021   4.431   4.714
    1C        C  331   4.141   4.354   4.716
    1C        C  332   3.968   4.493   4.829
    1C        C  333   4.053   4.479   4.940
    1C        C  334   4.553   3.269   2.064
    1C        C  335   4.540   3.129   2.064
    1C        C  336   4.542   3.351   2.177
    1C        C  337   4.519   3.282   2.298
    1C        C  338   4.527   3.497   2.416
    1C        C  339   4.529   3.356   2.418
    1C        C  340   4.520   3.573   2.535
    1C        C  341   4.523   3.500   2.656
    1C        C  342   4.489   3.709   2.778
    1C        C  343   4.514   3.570   2.778
    1C        C  344   4.470   3.780   2.898
    1C        C  345   4.492   3.713   3.020
    1C        C  346   4.415   3.913   3.141
    1C        C  347   4.468   3.782   3.141
    1C        C  348   4.382   3.976   3.263
    1C        C  349   4.418   3.916   3.385
    1C        C  350   4.317   4.105   3.502
    1C        C  351   4.387   3.982   3.505
    1C        C  352   4.271   4.164   3.622
    1C        C  353   4.312   4.106   3.744
    1C        C  354   4.180   4.271   3.865
    1C        C  355   4.273   4.164   3.866
    1C        C  356   4.125   4.317   3.986
    1C        C  357   4.178   4.273   4.109
    1C        C  358   4.013   4.407   4.230
    1C        C  359   4.128   4.325   4.230
    1C        C  360   3.952   4.449   4.351
    1C        C  361   4.020   4.422   4.472
    1C        C  362   3.827   4.515   4.595
    1C        C  363   3.959   4.465   4.592
    1C        C  364   3.764   4.555   4.714
    1C        C  365   3.840   4.551   4.833
    1C        C  366   3.629   4.590   4.953
    1C        C  367   3.767   4.578   4.950
    1C        C  368   4.506   3.566   2.057
    1C        C  369   4.529   3.491   2.173
    1C        C  370   4.503   3.706   2.289
    1C        C  371   4.522   3.566   2.293
    1C        C  372   4.487   3.780   2.409
    1C        C  373   4.504   3.713   2.532
    1C        C  374   4.424   3.908   2.651
    1C        C  375   4.477   3.778   2.655
    1C        C  376   4.388   3.975   2.770
    1C        C  377   4.418   3.912   2.893
    1C        C  378   4.311   4.093   3.013
    1C        C  379   4.388   3.974   3.016
    1C        C  380   4.269   4.153   3.134
    1C        C  381   4.308   4.096   3.258
    1C        C  382   4.174   4.261   3.379
    1C        C  383   4.268   4.156   3.380
    1C        C  384   4.122   4.313   3.499
    1C        C  385   4.174   4.267   3.622
    1C        C  386   4.008   4.397   3.742
    1C        C  387   4.125   4.319   3.744
    1C        C  388   3.950   4.437   3.864
    1C        C  389   4.011   4.401   3.986
    1C        C  390   3.819   4.492   4.111
    1C        C  391   3.951   4.441   4.108
    1C        C  392   3.751   4.518   4.232
    1C        C  393   3.821   4.501   4.353
    1C        C  394   3.617   4.558   4.477
    1C        C  395   3.756   4.532   4.474
    1C        C  396   3.545   4.565   4.598
    1C        C  397   3.623   4.568   4.716
    1C        C  398   3.412   4.547   4.841
    1C        C  399   3.551   4.573   4.837
    1C        C  400   3.342   4.516   4.958
    1C        C  401   4.509   3.705   2.052
    1C        C  402   4.451   3.915   2.168
    1C        C  403   4.494   3.780   2.169
    1C        C  404   4.413   3.979   2.288
    1C        C  405   4.434   3.910   2.409
    1C        C  406   4.320   4.094   2.528
    1C        C  407   4.392   3.973   2.529
    1C        C  408   4.273   4.153   2.647
    1C        C  409   4.316   4.096   2.769
    1C        C  410   4.175   4.254   2.890
    1C        C  411   4.275   4.154   2.891
    1C        C  412   4.124   4.305   3.012
    1C        C  413   4.175   4.258   3.135
    1C        C  414   4.003   4.384   3.254
    1C        C  415   4.122   4.309   3.256
    1C        C  416   3.942   4.420   3.377
    1C        C  417   4.005   4.392   3.500
    1C        C  418   3.812   4.484   3.619
    1C        C  419   3.941   4.427   3.621
    1C        C  420   3.748   4.504   3.744
    1C        C  421   3.819   4.491   3.866
    1C        C  422   3.613   4.534   3.988
    1C        C  423   3.753   4.514   3.988
    1C        C  424   3.542   4.546   4.110
    1C        C  425   3.612   4.546   4.232
    1C        C  426   3.403   4.551   4.359
    1C        C  427   3.544   4.561   4.355
    1C        C  428   3.334   4.540   4.481
    1C        C  429   3.404   4.556   4.603
    1C        C  430   3.194   4.519   4.725
    1C        C  431   3.333   4.547   4.724
    1C        C  432   3.124   4.494   4.846
    1C        C  433   3.204   4.494   4.961
    1C        C  434   4.381   4.119   2.051
    1C        C  435   4.443   3.993   2.052
    1C        C  436   4.303   4.160   2.163
    1C        C  437   4.331   4.095   2.286
    1C        C  438   4.179   4.251   2.399
    1C        C  439   4.279   4.151   2.405
    1C        C  440   4.127   4.301   2.520
    1C        C  441   4.174   4.254   2.645
    1C        C  442   4.003   4.377   2.765
    1C        C  443   4.120   4.299   2.768
    1C        C  444   3.943   4.412   2.888
    1C        C  445   4.007   4.383   3.011
    1C        C  446   3.813   4.475   3.131
    1C        C  447   3.943   4.419   3.131
    1C        C  448   3.745   4.497   3.253
    1C        C  449   3.813   4.477   3.375
    1C        C  450   3.609   4.538   3.498
    1C        C  451   3.747   4.509   3.496
    1C        C  452   3.542   4.544   3.622
    1C        C  453   3.611   4.536   3.745
    1C        C  454   3.398   4.538   3.866
    1C        C  455   3.540   4.539   3.867
    1C        C  456   3.333   4.526   3.991
    1C        C  457   3.401   4.540   4.114
    1C        C  458   3.196   4.500   4.240
    1C        C  459   3.333   4.532   4.238
    1C        C  460   3.127   4.485   4.363
    1C        C  461   3.195   4.512   4.484
    1C        C  462   2.996   4.435   4.606
    1C        C  463   3.125   4.493   4.605
    1C        C  464   2.930   4.403   4.727
    1C        C  465   2.991   4.441   4.850
    1C        C  466   2.800   4.340   4.964
    1C        C  467   2.907   4.431   4.965
    1C        C  468   4.120   4.278   2.043
    1C        C  469   4.188   4.246   2.161
    1C        C  470   4.008   4.379   2.276
    1C        C  471   4.124   4.297   2.278
    1C        C  472   3.944   4.407   2.399
    1C        C  473   4.005   4.372   2.522
    1C        C  474   3.810   4.462   2.644
    1C        C  475   3.939   4.406   2.642
    1C        C  476   3.744   4.490   2.766
    1C        C  477   3.815   4.472   2.887
    1C        C  478   3.608   4.528   3.010
    1C        C  479   3.746   4.498   3.008
    1C        C  480   3.535   4.537   3.131
    1C        C  481   3.607   4.527   3.252
    1C        C  482   3.397   4.535   3.379
    1C        C  483   3.538   4.537   3.375
    1C        C  484   3.327   4.528   3.502
    1C        C  485   3.401   4.542   3.621
    1C        C  486   3.197   4.486   3.746
    1C        C  487   3.330   4.534   3.743
    1C        C  488   3.130   4.469   3.870
    1C        C  489   3.194   4.498   3.992
    1C        C  490   3.008   4.408   4.119
    1C        C  491   3.131   4.478   4.117
    1C        C  492   2.947   4.378   4.243
    1C        C  493   2.999   4.425   4.365
    1C        C  494   2.824   4.306   4.482
    1C        C  495   2.933   4.396   4.486
    1C        C  496   2.771   4.259   4.605
    1C        C  497   2.818   4.315   4.725
    1C        C  498   2.666   4.171   4.845
    1C        C  499   2.751   4.284   4.845
    1C        C  500   2.602   4.120   4.959
    1C        C  501   4.005   4.356   2.040
    1C        C  502   3.812   4.464   2.154
    1C        C  503   3.940   4.404   2.155
    1C        C  504   3.746   4.484   2.277
    1C        C  505   3.815   4.463   2.398
    1C        C  506   3.608   4.511   2.519
    1C        C  507   3.746   4.482   2.520
    1C        C  508   3.536   4.517   2.641
    1C        C  509   3.604   4.510   2.765
    1C        C  510   3.397   4.523   2.888
    1C        C  511   3.538   4.530   2.888
    1C        C  512   3.326   4.517   3.010
    1C        C  513   3.394   4.532   3.133
    1C        C  514   3.190   4.492   3.258
    1C        C  515   3.327   4.527   3.257
    1C        C  516   3.124   4.462   3.380
    1C        C  517   3.191   4.489   3.502
    1C        C  518   3.000   4.405   3.627
    1C        C  519   3.126   4.468   3.625
    1C        C  520   2.940   4.371   3.751
    1C        C  521   3.001   4.410   3.872
    1C        C  522   2.837   4.283   3.997
    1C        C  523   2.947   4.372   3.997
    1C        C  524   2.789   4.233   4.119
    1C        C  525   2.838   4.288   4.239
    1C        C  526   2.695   4.134   4.366
    1C        C  527   2.781   4.246   4.362
    1C        C  528   2.651   4.079   4.488
    1C        C  529   2.684   4.148   4.607
    1C        C  530   2.582   3.964   4.734
    1C        C  531   2.642   4.093   4.730
    1C        C  532   2.541   3.905   4.857
    1C        C  533   2.531   4.000   4.964
    1C        C  534   3.619   4.563   2.041
    1C        C  535   3.753   4.519   2.040
    1C        C  536   3.537   4.536   2.154
    1C        C  537   3.607   4.514   2.276
    1C        C  538   3.394   4.519   2.403
    1C        C  539   3.535   4.520   2.398
    1C        C  540   3.323   4.512   2.525
    1C        C  541   3.395   4.520   2.646
    1C        C  542   3.186   4.486   2.769
    1C        C  543   3.324   4.517   2.768
    1C        C  544   3.120   4.466   2.892
    1C        C  545   3.188   4.487   3.014
    1C        C  546   2.994   4.404   3.137
    1C        C  547   3.123   4.463   3.137
    1C        C  548   2.937   4.365   3.260
    1C        C  549   2.998   4.399   3.383
    1C        C  550   2.825   4.281   3.506
    1C        C  551   2.937   4.366   3.506
    1C        C  552   2.772   4.237   3.629
    1C        C  553   2.827   4.287   3.750
    1C        C  554   2.695   4.127   3.875
    1C        C  555   2.788   4.233   3.874
    1C        C  556   2.658   4.068   3.998
    1C        C  557   2.697   4.125   4.121
    1C        C  558   2.594   3.944   4.249
    1C        C  559   2.658   4.070   4.245
    1C        C  560   2.570   3.882   4.373
    1C        C  561   2.591   3.951   4.495
    1C        C  562   2.519   3.753   4.619
    1C        C  563   2.558   3.889   4.617
    1C        C  564   2.512   3.684   4.742
    1C        C  565   2.522   3.763   4.860
    1C        C  566   2.528   3.550   4.979
    1C        C  567   2.525   3.689   4.979
    1C        C  568   3.328   4.479   2.042
    1C        C  569   3.396   4.517   2.158
    1C        C  570   3.185   4.478   2.282
    1C        C  571   3.323   4.512   2.281
    1C        C  572   3.116   4.461   2.404
    1C        C  573   3.184   4.486   2.526
    1C        C  574   2.989   4.404   2.649
    1C        C  575   3.116   4.466   2.648
    1C        C  576   2.931   4.366   2.772
    1C        C  577   2.995   4.400   2.893
    1C        C  578   2.825   4.274   3.017
    1C        C  579   2.936   4.362   3.016
    1C        C  580   2.780   4.217   3.138
    1C        C  581   2.832   4.270   3.258
    1C        C  582   2.693   4.116   3.386
    1C        C  583   2.782   4.225   3.383
    1C        C  584   2.653   4.058   3.509
    1C        C  585   2.692   4.121   3.629
    1C        C  586   2.595   3.937   3.757
    1C        C  587   2.658   4.063   3.754
    1C        C  588   2.574   3.873   3.881
    1C        C  589   2.599   3.939   4.003
    1C        C  590   2.533   3.741   4.129
    1C        C  591   2.572   3.877   4.127
    1C        C  592   2.518   3.675   4.253
    1C        C  593   2.527   3.748   4.374
    1C        C  594   2.511   3.539   4.499
    1C        C  595   2.513   3.681   4.498
    1C        C  596   2.516   3.469   4.621
    1C        C  597   2.519   3.542   4.742
    1C        C  598   2.533   3.330   4.864
    1C        C  599   2.527   3.471   4.864
    1C        C  600   2.533   3.250   4.979
    1C        C  601   3.193   4.448   2.045
    1C        C  602   2.983   4.396   2.162
    1C        C  603   3.115   4.450   2.162
    1C        C  604   2.924   4.361   2.286
    1C        C  605   2.989   4.400   2.406
    1C        C  606   2.819   4.273   2.530
    1C        C  607   2.929   4.362   2.528
    1C        C  608   2.769   4.223   2.653
    1C        C  609   2.822   4.276   2.773
    1C        C  610   2.690   4.111   2.898
    1C        C  611   2.771   4.227   2.895
    1C        C  612   2.655   4.048   3.020
    1C        C  613   2.696   4.104   3.143
    1C        C  614   2.589   3.925   3.264
    1C        C  615   2.655   4.050   3.267
    1C        C  616   2.568   3.865   3.390
    1C        C  617   2.596   3.929   3.513
    1C        C  618   2.528   3.732   3.640
    1C        C  619   2.569   3.867   3.637
    1C        C  620   2.519   3.666   3.765
    1C        C  621   2.537   3.737   3.886
    1C        C  622   2.505   3.528   4.014
    1C        C  623   2.522   3.668   4.008
    1C        C  624   2.513   3.459   4.137
    1C        C  625   2.516   3.534   4.257
    1C        C  626   2.535   3.324   4.381
    1C        C  627   2.517   3.464   4.379
    1C        C  628   2.557   3.257   4.504
    1C        C  629   2.543   3.330   4.624
    1C        C  630   2.602   3.124   4.743
    1C        C  631   2.553   3.257   4.744
    1C        C  632   2.622   3.057   4.867
    1C        C  633   2.556   3.112   4.982
    1C        C  634   2.786   4.302   2.053
    1C        C  635   2.894   4.391   2.050
    1C        C  636   2.754   4.229   2.169
    1C        C  637   2.811   4.275   2.289
    1C        C  638   2.676   4.113   2.412
    1C        C  639   2.757   4.229   2.411
    1C        C  640   2.642   4.051   2.534
    1C        C  641   2.683   4.112   2.655
    1C        C  642   2.587   3.923   2.779
    1C        C  643   2.650   4.050   2.777
    1C        C  644   2.559   3.856   2.900
    1C        C  645   2.587   3.924   3.020
    1C        C  646   2.527   3.722   3.148
    1C        C  647   2.559   3.860   3.143
    1C        C  648   2.516   3.656   3.272
    1C        C  649   2.529   3.729   3.393
    1C        C  650   2.516   3.522   3.520
    1C        C  651   2.514   3.663   3.517
    1C        C  652   2.521   3.455   3.644
    1C        C  653   2.515   3.525   3.767
    1C        C  654   2.536   3.320   3.891
    1C        C  655   2.507   3.458   3.891
    1C        C  656   2.557   3.254   4.014
    1C        C  657   2.540   3.320   4.137
    1C        C  658   2.607   3.122   4.259
    1C        C  659   2.553   3.253   4.260
    1C        C  660   2.640   3.059   4.382
    1C        C  661   2.604   3.124   4.502
    1C        C  662   2.715   2.941   4.625
    1C        C  663   2.634   3.057   4.622
    1C        C  664   2.754   2.883   4.748
    1C        C  665   2.704   2.940   4.868
    1C        C  666   2.743   2.875   4.986
    1C        C  667   2.688   4.023   2.056
    1C        C  668   2.688   4.104   2.170
    1C        C  669   2.587   3.916   2.293
    1C        C  670   2.644   4.046   2.292
    1C        C  671   2.562   3.850   2.416
    1C        C  672   2.584   3.922   2.535
    1C        C  673   2.521   3.720   2.659
    1C        C  674   2.556   3.857   2.658
    1C        C  675   2.506   3.649   2.780
    1C        C  676   2.525   3.719   2.902
    1C        C  677   2.505   3.511   3.029
    1C        C  678   2.512   3.652   3.026
    1C        C  679   2.510   3.443   3.153
    1C        C  680   2.509   3.515   3.275
    1C        C  681   2.533   3.308   3.400
    1C        C  682   2.511   3.448   3.400
    1C        C  683   2.563   3.247   3.524
    1C        C  684   2.550   3.317   3.646
    1C        C  685   2.616   3.120   3.773
    1C        C  686   2.561   3.250   3.770
    1C        C  687   2.647   3.056   3.895
    1C        C  688   2.611   3.123   4.013
    1C        C  689   2.714   2.940   4.140
    1C        C  690   2.639   3.060   4.136
    1C        C  691   2.757   2.879   4.260
    1C        C  692   2.712   2.938   4.380
    1C        C  693   2.759   2.886   4.503
    1C        C  694   2.630   3.896   2.055
    1C        C  695   2.531   3.708   2.177
    1C        C  696   2.578   3.841   2.174
    1C        C  697   2.511   3.639   2.298
    1C        C  698   2.520   3.715   2.417
    1C        C  699   2.491   3.507   2.546
    1C        C  700   2.502   3.648   2.540
    1C        C  701   2.499   3.434   2.667
    1C        C  702   2.499   3.508   2.787
    1C        C  703   2.519   3.297   2.912
    1C        C  704   2.503   3.437   2.909
    1C        C  705   2.537   3.230   3.035
    1C        C  706   2.528   3.303   3.155
    1C        C  707   2.602   3.106   3.279
    1C        C  708   2.548   3.237   3.278
    1C        C  709   2.635   3.048   3.404
    1C        C  710   2.612   3.115   3.526
    1C        C  711   2.718   2.935   3.651
    1C        C  712   2.641   3.054   3.650
    1C        C  713   2.764   2.882   3.773
    1C        C  714   2.728   2.940   3.897
    1C        C  715   2.762   2.881   4.021
    1C        C  716   2.453   3.503   2.063
    1C        C  717   2.493   3.637   2.063
    1C        C  718   2.465   3.424   2.182
    1C        C  719   2.487   3.499   2.300
    1C        C  720   2.516   3.294   2.424
    1C        C  721   2.489   3.433   2.425
    1C        C  722   2.535   3.226   2.547
    1C        C  723   2.520   3.294   2.669
    1C        C  724   2.589   3.095   2.794
    1C        C  725   2.532   3.224   2.791
    1C        C  726   2.613   3.031   2.918
    1C        C  727   2.579   3.095   3.039
    1C        C  728   2.715   2.926   3.159
    1C        C  729   2.628   3.038   3.159
    1C        C  730   2.759   2.875   3.283
    1C        C  731   2.717   2.933   3.405
    1C        C  732   2.759   2.877   3.529
    1C        C  733   2.486   3.198   2.076
    1C        C  734   2.483   3.282   2.189
    1C        C  735   2.588   3.088   2.304
    1C        C  736   2.526   3.216   2.307
    1C        C  737   2.617   3.026   2.428
    1C        C  738   2.585   3.093   2.547
    1C        C  739   2.696   2.914   2.670
    1C        C  740   2.619   3.033   2.670
    1C        C  741   2.741   2.860   2.793
    1C        C  742   2.697   2.918   2.914
    1C        C  743   2.750   2.868   3.035
    1C        C  744   2.545   3.073   2.073
    1C        C  745   2.690   2.902   2.185
    1C        C  746   2.612   3.020   2.183
    1C        C  747   2.731   2.843   2.307
    1C        C  748   2.688   2.903   2.427
    1C        C  749   2.735   2.851   2.550
    1C        C  750   2.745   2.846   2.069
    1C        C  751   3.655   2.293   2.003
    1C        O  752   3.688   2.183   2.058
    1C        O  753   3.681   2.298   1.866
    1C        C  754   4.626   3.050   1.972
    1C        O  755   4.583   3.023   1.856
    1C        O  756   4.760   3.012   1.985
    1C        C  757   4.414   4.215   1.943
    1C        O  758   4.457   4.331   1.967
    1C        O  759   4.471   4.168   1.824
    1C        C  760   3.595   4.667   1.939
    1C        O  761   3.550   4.782   1.965
    1C        O  762   3.598   4.643   1.801
    1C        C  763   2.886   4.484   1.935
    1C        O  764   2.927   4.453   1.820
    1C        O  765   2.769   4.560   1.916
    1C        C  766   2.369   3.460   1.949
    1C        O  767   2.395   3.484   1.828
    1C        O  768   2.234   3.427   1.965
    1C        C  769   4.675   3.594   5.071
    1C        O  770   4.645   3.595   5.193
    1C        O  771   4.811   3.620   5.048
    1C        C  772   4.268   4.467   5.041
    1C        O  773   4.241   4.460   5.164
    1C        O  774   4.405   4.457   5.014
    1C        C  775   4.143   2.529   5.076
    1C        O  776   4.228   2.452   5.024
    1C        O  777   4.104   2.495   5.206
    1C        C  778   2.877   4.553   5.043
    1C        O  779   2.825   4.648   4.980
    1C        O  780   2.896   4.569   5.181
    1C        C  781   2.456   3.040   5.064
    1C        O  782   2.338   3.026   5.023
    1C        O  783   2.462   3.040   5.203
    1C        C  784   2.428   4.006   5.070
    1C        O  785   2.338   4.095   5.068
    1C        O  786   2.467   3.974   5.201
    1C        C  787   2.963   2.448   1.980
    1C        O  788   2.972   2.488   1.861
    1C        O  789   2.918   2.318   2.004
    1C        C  790   3.185   2.376   5.066
    1C        O  791   3.167   2.258   5.024
    1C        O  792   3.201   2.384   5.205
    1C        H  793   4.318   2.998   5.072
    1C        H  794   4.135   2.848   5.050
    1C        H  795   4.519   3.124   5.050
    1C        H  796   4.500   3.379   5.059
    1C        H  797   4.563   3.812   5.051
    1C        H  798   4.449   4.009   5.053
    1C        H  799   4.324   4.199   5.044
    1C        H  800   4.013   4.515   5.033
    1C        H  801   3.819   4.623   5.033
    1C        H  802   3.589   4.650   5.032
    1C        H  803   3.397   4.492   5.047
    1C        H  804   3.161   4.448   5.048
    1C        H  805   3.880   2.514   5.075
    1C        H  806   3.673   2.414   5.058
    1C        H  807   2.995   2.555   5.061
    1C        H  808   3.448   2.536   5.070
    1C        H  809   2.905   2.774   5.068
    1C        H  810   2.693   2.901   5.076
    1C        H  811   2.556   3.290   5.076
    1C        H  812   2.486   3.505   5.067
    1C        H  813   2.577   3.733   5.062
    1C        H  814   2.605   4.182   5.046
    1C        H  815   2.742   4.330   5.053
    1C        H  816   2.726   2.893   1.974
    1C        H  817   2.837   2.669   1.987
    1C        H  818   3.210   2.412   1.999
    1C        H  819   3.424   2.399   1.990
    1C        H  820   3.904   2.465   1.992
    1C        H  821   4.040   2.669   1.972
    1C        H  822   4.258   2.726   1.970
    1C        H  823   4.354   2.942   1.968
    1C        H  824   4.574   3.314   1.969
    1C        H  825   4.462   3.520   1.971
    1C        H  826   4.577   3.749   1.982
    1C        H  827   3.807   4.536   1.950
    1C        H  828   3.937   4.334   1.961
    1C        H  829   4.156   4.260   1.944
    1C        H  830   4.481   3.952   1.961
    1C        H  831   2.620   3.850   1.959
    1C        H  832   2.734   4.053   1.964
    1C        H  833   2.698   4.319   1.995
    1C        H  834   3.383   4.446   1.956
    1C        H  835   3.150   4.407   1.956
    1C        H  836   2.492   3.001   2.013
    1C        H  837   2.392   3.196   2.024
    1C        H  838   2.472   3.694   1.974
    2V3OU   H29  839   2.806   3.552   2.519
    2V3OU   C27  840   2.790   3.503   2.618
    2V3OU   H27  841   2.732   3.569   2.688
    2V3OU   H28  842   2.738   3.405   2.600
    2V3OU   O11  843   2.915   3.478   2.682
    2V3OU   C15  844   2.928   3.399   2.795
    2V3OU   C13  845   3.055   3.374   2.853
    2V3OU   C14  846   3.081   3.267   2.939
    2V3OU   C16  847   2.976   3.187   2.982
    2V3OU    H6  848   2.995   3.101   3.049
    2V3OU   C12  849   3.215   3.228   2.989
    2V3OU    O2  850   3.231   3.120   3.050
    2V3OU   C10  851   3.328   3.309   2.941
    2V3OU    C8  852   3.457   3.273   2.976
    2V3OU   O10  853   3.494   3.154   3.032
    2V3OU   H26  854   3.409   3.117   3.061
    2V3OU    C6  855   3.568   3.355   2.939
    2V3OU    C5  856   3.540   3.470   2.866
    2V3OU    C4  857   3.705   3.295   2.939
    2V3OU    H4  858   3.725   3.231   3.030
    2V3OU    H5  859   3.711   3.229   2.848
    2V3OU    C2  860   3.817   3.399   2.929
    2V3OU    O6  861   3.811   3.475   3.050
    2V3OU   H21  862   3.766   3.555   3.018
    2V3OU    C3  863   3.786   3.498   2.817
    2V3OU    H2  864   3.870   3.572   2.818
    2V3OU    H3  865   3.780   3.442   2.720
    2V3OU   C25  866   3.952   3.329   2.912
    2V3OU    O7  867   4.003   3.291   2.806
    2V3OU   C26  868   4.032   3.293   3.036
    2V3OU   H22  869   4.069   3.379   3.096
    2V3OU   H23  870   4.118   3.227   3.007
    2V3OU    O8  871   3.955   3.208   3.118
    2V3OU   H24  872   3.921   3.263   3.190
    2V3OU    C1  873   3.652   3.566   2.840
    2V3OU    H1  874   3.618   3.618   2.745
    2V3OU    O3  875   3.660   3.655   2.952
    2V3OU   C19  876   3.620   3.791   2.944
    2V3OU    H9  877   3.521   3.807   2.892
    2V3OU    O4  878   3.715   3.849   2.858
    2V3OU   C20  879   3.843   3.875   2.915
    2V3OU   H10  880   3.890   3.773   2.930
    2V3OU   C24  881   3.615   3.856   3.083
    2V3OU   H16  882   3.551   3.792   3.149
    2V3OU   H17  883   3.567   3.957   3.081
    2V3OU   C23  884   3.753   3.875   3.146
    2V3OU   H15  885   3.796   3.772   3.169
    2V3OU    N1  886   3.737   3.954   3.267
    2V3OU   H19  887   3.810   3.926   3.330
    2V3OU   H20  888   3.654   3.932   3.317
    2V3OU   C21  889   3.850   3.949   3.048
    2V3OU   H11  890   3.954   3.928   3.087
    2V3OU    O5  891   3.827   4.089   3.049
    2V3OU   H18  892   3.780   4.102   3.133
    2V3OU   C22  893   3.911   3.950   2.802
    2V3OU   H12  894   3.863   4.051   2.789
    2V3OU   H13  895   3.905   3.893   2.705
    2V3OU   H14  896   4.022   3.954   2.816
    2V3OU   C11  897   3.163   3.470   2.827
    2V3OU    O1  898   3.140   3.588   2.792
    2V3OU    C9  899   3.299   3.426   2.867
    2V3OU    C7  900   3.407   3.505   2.828
    2V3OU    O9  901   3.391   3.620   2.754
    2V3OU   H25  902   3.295   3.627   2.739
    2V3OU   C17  903   2.826   3.317   2.846
    2V3OU    H7  904   2.729   3.350   2.809
    2V3OU   C18  905   2.848   3.216   2.939
    2V3OU    H8  906   2.780   3.172   3.014
    3SOL     OW  907   2.260   5.628   0.106
    3SOL    HW1  908   2.340   5.655   0.159
    3SOL    HW2  909   2.202   5.708   0.089
    4SOL     OW  910   6.522   0.557   2.102
    4SOL    HW1  911   6.569   0.472   2.078
    4SOL    HW2  912   6.439   0.537   2.153
    5SOL     OW  913   4.149   1.830   2.383
    5SOL    HW1  914   4.054   1.844   2.410
    5SOL    HW2  915   4.210   1.864   2.455
    6SOL     OW  916   3.999   0.822   1.859
    6SOL    HW1  917   3.930   0.808   1.788
    6SOL    HW2  918   4.049   0.737   1.875
    7SOL     OW  919   0.226   4.077   2.895
    7SOL    HW1  920   0.203   3.993   2.847
    7SOL    HW2  921   0.310   4.063   2.948
    8SOL     OW  922   3.438   1.034   5.831
    8SOL    HW1  923   3.355   0.983   5.854
    8SOL    HW2  924   3.413   1.128   5.804
    9SOL     OW  925   4.678   0.735   5.760
    9SOL    HW1  926   4.741   0.660   5.779
    9SOL    HW2  927   4.717   0.795   5.690
   10SOL     OW  928   2.123   4.825   5.120
   10SOL    HW1  929   2.199   4.808   5.058
   10SOL    HW2  930   2.139   4.911   5.169
   11SOL     OW  931   2.984   0.716   5.835
   11SOL    HW1  932   2.918   0.643   5.851
   11SOL    HW2  933   3.025   0.705   5.744
   12SOL     OW  934   3.099   5.826   3.684
   12SOL    HW1  935   3.110   5.861   3.590
   12SOL    HW2  936   3.072   5.730   3.681
   13SOL     OW  937   4.093   6.147   3.677
   13SOL    HW1  938   4.044   6.100   3.603
   13SOL    HW2  939   4.042   6.136   3.762
   14SOL     OW  940   3.883   5.377   6.299
   14SOL    HW1  941   3.960   5.372   6.234
   14SOL    HW2  942   3.919   5.392   6.391
   15SOL     OW  943   0.886   6.760   1.751
   15SOL    HW1  944   0.953   6.725   1.686
   15SOL    HW2  945   0.826   6.686   1.779
   16SOL     OW  946   5.571   2.540   6.386
   16SOL    HW1  947   5.592   2.499   6.474
   16SOL    HW2  948   5.639   2.512   6.318
   17SOL     OW  949   5.786   6.418   6.517
   17SOL    HW1  950   5.818   6.485   6.583
   17SOL    HW2  951   5.812   6.326   6.548
   18SOL     OW  952   3.267   1.050   5.350
   18SOL    HW1  953   3.243   1.107   5.271
   18SOL    HW2  954   3.360   1.074   5.381
   19SOL     OW  955   7.003   1.085   2.888
   19SOL    HW1  956   0.053   1.038   2.933
   19SOL    HW2  957   0.001   1.103   2.792
   20SOL     OW  958   4.963   1.834   4.429
   20SOL    HW1  959   4.977   1.859   4.525
   20SOL    HW2  960   5.017   1.895   4.370
   21SOL     OW  961   3.020   0.887   2.252
   21SOL    HW1  962   3.022   0.904   2.351
   21SOL    HW2  963   2.930   0.910   2.216
   22SOL     OW  964   1.091   6.355   6.882
   22SOL    HW1  965   1.072   6.306   6.797
   22SOL    HW2  966   1.006   6.393   6.918
   23SOL     OW  967   5.647   5.413   2.476
   23SOL    HW1  968   5.592   5.470   2.414
   23SOL    HW2  969   5.646   5.318   2.443
   24SOL     OW  970   3.552   0.507   3.323
   24SOL    HW1  971   3.590   0.416   3.337
   24SOL    HW2  972   3.460   0.511   3.362
   25SOL     OW  973   3.887   0.552   4.239
   25SOL    HW1  974   3.962   0.616   4.257
   25SOL    HW2  975   3.904   0.466   4.287
   26SOL     OW  976   6.636   0.539   0.458
   26SOL    HW1  977   6.680   0.571   0.541
   26SOL    HW2  978   6.567   0.605   0.429
   27SOL     OW  979   1.928   1.688   2.839
   27SOL    HW1  980   2.020   1.670   2.804
   27SOL    HW2  981   1.907   1.785   2.829
   28SOL     OW  982   2.826   1.145   5.833
   28SOL    HW1  983   2.767   1.101   5.766
   28SOL    HW2  984   2.885   1.212   5.787
   29SOL     OW  985   6.108   1.768   2.132
   29SOL    HW1  986   6.062   1.793   2.046
   29SOL    HW2  987   6.092   1.840   2.199
   30SOL     OW  988   3.848   1.388   3.535
   30SOL    HW1  989   3.811   1.295   3.539
   30SOL    HW2  990   3.930   1.389   3.477
   31SOL     OW  991   0.637   2.498   6.386
   31SOL    HW1  992   0.541   2.504   6.413
   31SOL    HW2  993   0.682   2.426   6.439
   32SOL     OW  994   0.104   1.857   2.999
   32SOL    HW1  995   0.056   1.850   2.911
   32SOL    HW2  996   0.076   1.783   3.059
   33SOL     OW  997   1.102   4.796   5.370
   33SOL    HW1  998   1.148   4.810   5.282
   33SOL    HW2  999   1.148   4.723   5.420
   34SOL     OW 1000   2.811   6.886   4.908
   34SOL    HW1 1001   2.905   6.899   4.941
   34SOL    HW2 1002   2.814   6.847   4.816
   35SOL     OW 1003   4.434   3.162   6.614
   35SOL    HW1 1004   4.491   3.093   6.658
   35SOL    HW2 1005   4.491   3.237   6.579
   36SOL     OW 1006   5.185   1.203   4.698
   36SOL    HW1 1007   5.175   1.300   4.675
   36SOL    HW2 1008   5.113   1.150   4.652
   37SOL     OW 1009   1.129   2.123   6.510
   37SOL    HW1 1010   1.135   2.149   6.607
   37SOL    HW2 1011   1.048   2.067   6.495
   38SOL     OW 1012   0.917   5.258   2.701
   38SOL    HW1 1013   0.854   5.189   2.666
   38SOL    HW2 1014   0.872   5.312   2.772
   39SOL     OW 1015   6.523   4.637   6.382
   39SOL    HW1 1016   6.483   4.554   6.344
   39SOL    HW2 1017   6.487   4.653   6.474
   40SOL     OW 1018   4.457   1.488   0.622
   40SOL    HW1 1019   4.424   1.552   0.553
   40SOL    HW2 1020   4.472   1.536   0.708
   41SOL     OW 1021   6.677   4.532   3.562
   41SOL    HW1 1022   6.587   4.570   3.582
   41SOL    HW2 1023   6.713   4.574   3.478
   42SOL     OW 1024   3.188   4.895   4.405
   42SOL    HW1 1025   3.115   4.835   4.372
   42SOL    HW2 1026   3.188   4.896   4.505
   43SOL     OW 1027   4.804   7.001   5.646
   43SOL    HW1 1028   4.711   6.970   5.625
   43SOL    HW2 1029   4.801   0.067   5.684
   44SOL     OW 1030   4.746   2.105   5.814
   44SOL    HW1 1031   4.714   2.195   5.784
   44SOL    HW2 1032   4.671   2.039   5.805
   45SOL     OW 1033   4.811   6.122   1.572
   45SOL    HW1 1034   4.714   6.110   1.591
   45SOL    HW2 1035   4.830   6.219   1.557
   46SOL     OW 1036   0.977   3.075   3.330
   46SOL    HW1 1037   1.033   3.152   3.361
   46SOL    HW2 1038   0.922   3.041   3.407
   47SOL     OW 1039   4.424   4.385   0.962
   47SOL    HW1 1040   4.376   4.416   0.880
   47SOL    HW2 1041   4.405   4.288   0.976
   48SOL     OW 1042   6.438   2.810   6.559
   48SOL    HW1 1043   6.488   2.828   6.475
   48SOL    HW2 1044   6.495   2.758   6.623
   49SOL     OW 1045   5.909   3.449   1.741
   49SOL    HW1 1046   5.886   3.501   1.823
   49SOL    HW2 1047   5.950   3.511   1.673
   50SOL     OW 1048   5.809   1.366   4.830
   50SOL    HW1 1049   5.760   1.368   4.917
   50SOL    HW2 1050   5.904   1.339   4.846
   51SOL     OW 1051   2.083   6.500   3.372
   51SOL    HW1 1052   2.148   6.448   3.316
   51SOL    HW2 1053   2.004   6.443   3.392
   52SOL     OW 1054   6.022   3.406   2.589
   52SOL    HW1 1055   5.945   3.432   2.531
   52SOL    HW2 1056   6.069   3.327   2.549
   53SOL     OW 1057   4.757   6.822   3.761
   53SOL    HW1 1058   4.734   6.884   3.837
   53SOL    HW2 1059   4.673   6.796   3.712
   54SOL     OW 1060   4.340   5.150   1.172
   54SOL    HW1 1061   4.380   5.162   1.081
   54SOL    HW2 1062   4.344   5.237   1.222
   55SOL     OW 1063   1.841   2.870   6.291
   55SOL    HW1 1064   1.822   2.956   6.244
   55SOL    HW2 1065   1.765   2.847   6.351
   56SOL     OW 1066   0.252   0.942   0.992
   56SOL    HW1 1067   0.232   0.848   1.020
   56SOL    HW2 1068   0.171   0.999   1.006
   57SOL     OW 1069   4.409   0.710   1.334
   57SOL    HW1 1070   4.419   0.760   1.420
   57SOL    HW2 1071   4.351   0.763   1.271
   58SOL     OW 1072   0.528   0.117   5.200
   58SOL    HW1 1073   0.532   0.162   5.111
   58SOL    HW2 1074   0.603   0.050   5.207
   59SOL     OW 1075   0.800   2.816   6.101
   59SOL    HW1 1076   0.898   2.812   6.082
   59SOL    HW2 1077   0.761   2.898   6.059
   60SOL     OW 1078   5.301   2.654   4.524
   60SOL    HW1 1079   5.370   2.669   4.453
   60SOL    HW2 1080   5.240   2.733   4.528
   61SOL     OW 1081   6.719   2.098   4.072
   61SOL    HW1 1082   6.795   2.039   4.044
   61SOL    HW2 1083   6.751   2.192   4.080
   62SOL     OW 1084   1.149   0.670   1.386
   62SOL    HW1 1085   1.117   0.591   1.438
   62SOL    HW2 1086   1.214   0.722   1.442
   63SOL     OW 1087   5.317   1.455   3.993
   63SOL    HW1 1088   5.220   1.478   3.982
   63SOL    HW2 1089   5.325   1.360   4.023
   64SOL     OW 1090   0.376   2.784   6.199
   64SOL    HW1 1091   0.285   2.816   6.225
   64SOL    HW2 1092   0.433   2.775   6.280
   65SOL     OW 1093   0.727   4.410   5.835
   65SOL    HW1 1094   0.711   4.363   5.922
   65SOL    HW2 1095   0.738   4.508   5.851
   66SOL     OW 1096   4.253   0.905   4.750
   66SOL    HW1 1097   4.325   0.916   4.819
   66SOL    HW2 1098   4.165   0.928   4.789
   67SOL     OW 1099   0.084   2.758   5.765
   67SOL    HW1 1100   0.076   2.851   5.799
   67SOL    HW2 1101   0.147   2.756   5.687
   68SOL     OW 1102   6.577   1.318   0.015
   68SOL    HW1 1103   6.478   1.327   0.025
   68SOL    HW2 1104   6.611   1.388   6.978
   69SOL     OW 1105   0.866   3.341   6.470
   69SOL    HW1 1106   0.785   3.396   6.489
   69SOL    HW2 1107   0.870   3.319   6.373
   70SOL     OW 1108   5.653   4.285   5.245
   70SOL    HW1 1109   5.618   4.357   5.186
   70SOL    HW2 1110   5.652   4.317   5.340
   71SOL     OW 1111   3.909   1.739   3.331
   71SOL    HW1 1112   3.887   1.683   3.251
   71SOL    HW2 1113   3.988   1.797   3.311
   72SOL     OW 1114   1.694   0.803   3.754
   72SOL    HW1 1115   1.776   0.851   3.785
   72SOL    HW2 1116   1.617   0.866   3.752
   73SOL     OW 1117   3.930   0.541   1.198
   73SOL    HW1 1118   4.000   0.613   1.190
   73SOL    HW2 1119   3.966   0.467   1.254
   74SOL     OW 1120   4.125   0.516   0.061
   74SOL    HW1 1121   4.098   0.430   0.104
   74SOL    HW2 1122   4.214   0.545   0.096
   75SOL     OW 1123   4.387   0.722   0.918
   75SOL    HW1 1124   4.352   0.782   0.847
   75SOL    HW2 1125   4.485   0.708   0.905
   76SOL     OW 1126   2.966   3.526   1.046
   76SOL    HW1 1127   2.900   3.579   1.098
   76SOL    HW2 1128   2.927   3.438   1.021
   77SOL     OW 1129   0.714   0.311   3.897
   77SOL    HW1 1130   0.711   0.315   3.997
   77SOL    HW2 1131   0.810   0.307   3.868
   78SOL     OW 1132   5.533   1.439   0.232
   78SOL    HW1 1133   5.575   1.520   0.190
   78SOL    HW2 1134   5.436   1.457   0.248
   79SOL     OW 1135   3.206   6.116   1.183
   79SOL    HW1 1136   3.305   6.108   1.170
   79SOL    HW2 1137   3.162   6.027   1.168
   80SOL     OW 1138   4.307   1.274   3.913
   80SOL    HW1 1139   4.350   1.210   3.850
   80SOL    HW2 1140   4.341   1.366   3.895
   81SOL     OW 1141   2.431   0.379   2.549
   81SOL    HW1 1142   2.400   0.397   2.456
   81SOL    HW2 1143   2.352   0.366   2.609
   82SOL     OW 1144   6.080   4.841   0.709
   82SOL    HW1 1145   6.015   4.774   0.745
   82SOL    HW2 1146   6.064   4.854   0.611
   83SOL     OW 1147   6.976   0.278   0.658
   83SOL    HW1 1148   6.987   0.329   0.572
   83SOL    HW2 1149   6.992   0.180   0.640
   84SOL     OW 1150   5.911   3.104   2.791
   84SOL    HW1 1151   6.002   3.066   2.774
   84SOL    HW2 1152   5.854   3.090   2.710
   85SOL     OW 1153   1.550   1.254   4.158
   85SOL    HW1 1154   1.606   1.203   4.223
   85SOL    HW2 1155   1.472   1.294   4.206
   86SOL     OW 1156   0.495   1.299   6.572
   86SOL    HW1 1157   0.461   1.239   6.500
   86SOL    HW2 1158   0.508   1.391   6.535
   87SOL     OW 1159   5.038   4.393   0.972
   87SOL    HW1 1160   5.040   4.325   1.046
   87SOL    HW2 1161   5.130   4.431   0.960
   88SOL     OW 1162   3.102   1.591   6.506
   88SOL    HW1 1163   3.096   1.572   6.603
   88SOL    HW2 1164   3.049   1.523   6.455
   89SOL     OW 1165   2.424   2.303   6.998
   89SOL    HW1 1166   2.470   2.218   7.024
   89SOL    HW2 1167   2.484   2.354   6.936
   90SOL     OW 1168   4.179   5.216   1.677
   90SOL    HW1 1169   4.202   5.177   1.589
   90SOL    HW2 1170   4.256   5.206   1.740
   91SOL     OW 1171   5.861   4.011   6.287
   91SOL    HW1 1172   5.836   3.916   6.306
   91SOL    HW2 1173   5.959   4.016   6.267
   92SOL     OW 1174   4.451   4.509   1.189
   92SOL    HW1 1175   4.543   4.544   1.172
   92SOL    HW2 1176   4.418   4.460   1.109
   93SOL     OW 1177   3.896   3.527   0.882
   93SOL    HW1 1178   3.834   3.544   0.806
   93SOL    HW2 1179   3.917   3.614   0.927
   94SOL     OW 1180   2.364   5.842   6.326
   94SOL    HW1 1181   2.410   5.759   6.356
   94SOL    HW2 1182   2.338   5.897   6.405
   95SOL     OW 1183   1.294   0.233   2.806
   95SOL    HW1 1184   1.209   0.269   2.768
   95SOL    HW2 1185   1.276   0.146   2.851
   96SOL     OW 1186   3.547   0.063   4.922
   96SOL    HW1 1187   3.573   0.056   4.825
   96SOL    HW2 1188   3.513   0.155   4.940
   97SOL     OW 1189   2.419   3.177   6.051
   97SOL    HW1 1190   2.418   3.267   6.095
   97SOL    HW2 1191   2.341   3.170   5.988
   98SOL     OW 1192   1.309   2.869   0.638
   98SOL    HW1 1193   1.336   2.818   0.720
   98SOL    HW2 1194   1.212   2.892   0.644
   99SOL     OW 1195   4.010   2.705   1.399
   99SOL    HW1 1196   4.088   2.713   1.460
   99SOL    HW2 1197   3.982   2.796   1.369
  100SOL     OW 1198   0.917   6.323   3.868
  100SOL    HW1 1199   0.859   6.263   3.922
  100SOL    HW2 1200   0.884   6.327   3.774
  101SOL     OW 1201   1.907   4.709   2.120
  101SOL    HW1 1202   1.882   4.625   2.169
  101SOL    HW2 1203   2.005   4.709   2.102
  102SOL     OW 1204   3.342   5.543   1.493
  102SOL    HW1 1205   3.292   5.625   1.465
  102SOL    HW2 1206   3.415   5.524   1.427
  103SOL     OW 1207   2.322   1.826   1.959
  103SOL    HW1 1208   2.404   1.789   2.001
  103SOL    HW2 1209   2.289   1.763   1.888
  104SOL     OW 1210   1.367   5.566   3.164
  104SOL    HW1 1211   1.388   5.655   3.205
  104SOL    HW2 1212   1.370   5.496   3.235
  105SOL     OW 1213   6.351   1.241   6.714
  105SOL    HW1 1214   6.450   1.229   6.724
  105SOL    HW2 1215   6.319   1.192   6.633
  106SOL     OW 1216   3.679   6.098   4.277
  106SOL    HW1 1217   3.685   6.000   4.257
  106SOL    HW2 1218   3.613   6.113   4.351
  107SOL     OW 1219   0.945   1.215   0.245
  107SOL    HW1 1220   0.893   1.137   0.281
  107SOL    HW2 1221   0.893   1.299   0.260
  108SOL     OW 1222   3.442   0.184   5.572
  108SOL    HW1 1223   3.536   0.190   5.604
  108SOL    HW2 1224   3.431   0.103   5.515
  109SOL     OW 1225   1.697   1.205   2.437
  109SOL    HW1 1226   1.618   1.145   2.451
  109SOL    HW2 1227   1.781   1.152   2.444
  110SOL     OW 1228   2.930   5.434   3.999
  110SOL    HW1 1229   2.991   5.501   4.039
  110SOL    HW2 1230   2.843   5.433   4.049
  111SOL     OW 1231   2.059   1.240   4.063
  111SOL    HW1 1232   2.067   1.251   3.964
  111SOL    HW2 1233   1.988   1.301   4.098
  112SOL     OW 1234   3.299   5.630   6.702
  112SOL    HW1 1235   3.348   5.599   6.620
  112SOL    HW2 1236   3.203   5.604   6.696
  113SOL     OW 1237   1.287   5.802   2.618
  113SOL    HW1 1238   1.211   5.805   2.553
  113SOL    HW2 1239   1.283   5.717   2.670
  114SOL     OW 1240   0.695   6.572   1.805
  114SOL    HW1 1241   0.685   6.571   1.904
  114SOL    HW2 1242   0.706   6.478   1.772
  115SOL     OW 1243   4.631   1.566   3.258
  115SOL    HW1 1244   4.549   1.531   3.212
  115SOL    HW2 1245   4.711   1.517   3.224
  116SOL     OW 1246   6.523   6.052   1.373
  116SOL    HW1 1247   6.447   6.100   1.417
  116SOL    HW2 1248   6.502   5.954   1.367
  117SOL     OW 1249   0.898   1.786   1.252
  117SOL    HW1 1250   0.991   1.751   1.258
  117SOL    HW2 1251   0.839   1.735   1.315
  118SOL     OW 1252   1.337   0.969   2.095
  118SOL    HW1 1253   1.255   0.971   2.152
  118SOL    HW2 1254   1.418   0.958   2.153
  119SOL     OW 1255   0.337   0.475   0.463
  119SOL    HW1 1256   0.425   0.466   0.509
  119SOL    HW2 1257   0.302   0.568   0.476
  120SOL     OW 1258   5.194   1.364   5.669
  120SOL    HW1 1259   5.129   1.433   5.638
  120SOL    HW2 1260   5.144   1.291   5.717
  121SOL     OW 1261   1.814   2.513   0.442
  121SOL    HW1 1262   1.912   2.514   0.461
  121SOL    HW2 1263   1.771   2.594   0.482
  122SOL     OW 1264   1.160   3.642   6.794
  122SOL    HW1 1265   1.239   3.596   6.834
  122SOL    HW2 1266   1.137   3.599   6.707
  123SOL     OW 1267   0.698   1.310   2.614
  123SOL    HW1 1268   0.716   1.348   2.705
  123SOL    HW2 1269   0.740   1.220   2.607
  124SOL     OW 1270   3.839   2.394   0.953
  124SOL    HW1 1271   3.787   2.366   0.873
  124SOL    HW2 1272   3.884   2.314   0.993
  125SOL     OW 1273   4.205   2.089   0.387
  125SOL    HW1 1274   4.158   2.136   0.312
  125SOL    HW2 1275   4.296   2.128   0.398
  126SOL     OW 1276   3.145   3.754   1.543
  126SOL    HW1 1277   3.232   3.794   1.571
  126SOL    HW2 1278   3.075   3.778   1.610
  127SOL     OW 1279   0.923   5.225   6.534
  127SOL    HW1 1280   1.011   5.225   6.486
  127SOL    HW2 1281   0.903   5.318   6.567
  128SOL     OW 1282   4.897   2.734   1.157
  128SOL    HW1 1283   4.913   2.681   1.241
  128SOL    HW2 1284   4.833   2.808   1.176
  129SOL     OW 1285   3.228   3.494   6.271
  129SOL    HW1 1286   3.153   3.550   6.307
  129SOL    HW2 1287   3.310   3.508   6.327
  130SOL     OW 1288   1.263   1.747   4.154
  130SOL    HW1 1289   1.232   1.656   4.125
  130SOL    HW2 1290   1.284   1.802   4.073
  131SOL     OW 1291   4.588   0.508   3.091
  131SOL    HW1 1292   4.648   0.443   3.044
  131SOL    HW2 1293   4.499   0.465   3.108
  132SOL     OW 1294   3.023   2.675   1.667
  132SOL    HW1 1295   3.118   2.693   1.642
  132SOL    HW2 1296   3.019   2.631   1.757
  133SOL     OW 1297   5.300   1.097   4.458
  133SOL    HW1 1298   5.215   1.068   4.502
  133SOL    HW2 1299   5.330   1.026   4.394
  134SOL     OW 1300   6.797   1.013   2.473
  134SOL    HW1 1301   6.748   1.072   2.538
  134SOL    HW2 1302   6.743   1.004   2.389
  135SOL     OW 1303   5.128   3.819   3.753
  135SOL    HW1 1304   5.101   3.769   3.671
  135SOL    HW2 1305   5.216   3.864   3.737
  136SOL     OW 1306   1.619   5.354   5.130
  136SOL    HW1 1307   1.602   5.315   5.220
  136SOL    HW2 1308   1.677   5.435   5.139
  137SOL     OW 1309   5.025   1.973   2.915
  137SOL    HW1 1310   4.977   1.904   2.970
  137SOL    HW2 1311   4.970   1.994   2.834
  138SOL     OW 1312   1.319   3.894   2.948
  138SOL    HW1 1313   1.337   3.898   2.850
  138SOL    HW2 1314   1.259   3.970   2.973
  139SOL     OW 1315   1.499   6.778   5.278
  139SOL    HW1 1316   1.414   6.811   5.237
  139SOL    HW2 1317   1.487   6.684   5.309
  140SOL     OW 1318   1.871   6.835   3.929
  140SOL    HW1 1319   1.778   6.801   3.939
  140SOL    HW2 1320   1.872   6.935   3.939
  141SOL     OW 1321   0.305   2.837   4.853
  141SOL    HW1 1322   0.241   2.903   4.813
  141SOL    HW2 1323   0.316   2.760   4.790
  142SOL     OW 1324   1.677   4.470   1.685
  142SOL    HW1 1325   1.753   4.452   1.622
  142SOL    HW2 1326   1.600   4.409   1.662
  143SOL     OW 1327   6.200   4.619   6.907
  143SOL    HW1 1328   6.192   4.521   6.922
  143SOL    HW2 1329   6.110   4.661   6.909
  144SOL     OW 1330   1.834   4.558   5.737
  144SOL    HW1 1331   1.877   4.607   5.661
  144SOL    HW2 1332   1.889   4.477   5.759
  145SOL     OW 1333   2.044   4.740   1.621
  145SOL    HW1 1334   2.124   4.798   1.638
  145SOL    HW2 1335   1.961   4.792   1.640
  146SOL     OW 1336   5.193   0.043   5.737
  146SOL    HW1 1337   5.283   0.033   5.778
  146SOL    HW2 1338   5.141   6.984   5.750
  147SOL     OW 1339   5.414   2.483   6.159
  147SOL    HW1 1340   5.458   2.459   6.245
  147SOL    HW2 1341   5.316   2.467   6.165
  148SOL     OW 1342   6.991   5.056   0.659
  148SOL    HW1 1343   6.955   5.023   0.572
  148SOL    HW2 1344   0.065   5.057   0.656
  149SOL     OW 1345   3.667   2.061   4.063
  149SOL    HW1 1346   3.624   2.033   3.977
  149SOL    HW2 1347   3.597   2.075   4.133
  150SOL     OW 1348   5.376   6.803   0.139
  150SOL    HW1 1349   5.419   6.877   0.088
  150SOL    HW2 1350   5.440   6.727   0.147
  151SOL     OW 1351   2.991   0.992   1.861
  151SOL    HW1 1352   3.015   1.048   1.782
  151SOL    HW2 1353   3.042   1.023   1.941
  152SOL     OW 1354   6.912   1.278   1.417
  152SOL    HW1 1355   6.991   1.254   1.360
  152SOL    HW2 1356   6.862   1.196   1.442
  153SOL     OW 1357   2.915   0.264   3.604
  153SOL    HW1 1358   2.886   0.171   3.624
  153SOL    HW2 1359   3.014   0.272   3.617
  154SOL     OW 1360   1.186   3.284   1.303
  154SOL    HW1 1361   1.095   3.291   1.343
  154SOL    HW2 1362   1.233   3.205   1.341
  155SOL     OW 1363   0.886   1.387   5.301
  155SOL    HW1 1364   0.931   1.475   5.313
  155SOL    HW2 1365   0.893   1.359   5.205
  156SOL     OW 1366   6.864   0.404   1.096
  156SOL    HW1 1367   6.873   0.455   1.182
  156SOL    HW2 1368   6.787   0.341   1.103
  157SOL     OW 1369   5.837   3.325   1.276
  157SOL    HW1 1370   5.930   3.361   1.288
  157SOL    HW2 1371   5.829   3.237   1.324
  158SOL     OW 1372   1.206   3.225   1.905
  158SOL    HW1 1373   1.228   3.183   1.993
  158SOL    HW2 1374   1.288   3.265   1.865
  159SOL     OW 1375   4.552   5.393   1.751
  159SOL    HW1 1376   4.575   5.489   1.767
  159SOL    HW2 1377   4.485   5.363   1.820
  160SOL     OW 1378   5.779   6.571   1.011
  160SOL    HW1 1379   5.712   6.607   0.947
  160SOL    HW2 1380   5.732   6.533   1.091
  161SOL     OW 1381   1.139   6.779   3.580
  161SOL    HW1 1382   1.134   6.685   3.546
  161SOL    HW2 1383   1.046   6.815   3.590
  162SOL     OW 1384   4.005   6.324   0.111
  162SOL    HW1 1385   3.988   6.332   0.209
  162SOL    HW2 1386   4.089   6.270   0.096
  163SOL     OW 1387   6.702   5.958   2.329
  163SOL    HW1 1388   6.795   5.975   2.295
  163SOL    HW2 1389   6.707   5.895   2.407
  164SOL     OW 1390   0.564   4.047   2.857
  164SOL    HW1 1391   0.654   4.005   2.846
  164SOL    HW2 1392   0.525   4.020   2.945
  165SOL     OW 1393   4.902   4.291   0.748
  165SOL    HW1 1394   4.969   4.275   0.821
  165SOL    HW2 1395   4.822   4.338   0.786
  166SOL     OW 1396   1.264   3.129   2.141
  166SOL    HW1 1397   1.307   3.062   2.201
  166SOL    HW2 1398   1.256   3.216   2.190
  167SOL     OW 1399   5.584   2.519   6.827
  167SOL    HW1 1400   5.633   2.549   6.908
  167SOL    HW2 1401   5.644   2.524   6.747
  168SOL     OW 1402   3.736   2.591   0.624
  168SOL    HW1 1403   3.754   2.493   0.617
  168SOL    HW2 1404   3.641   2.610   0.600
  169SOL     OW 1405   6.577   2.045   1.394
  169SOL    HW1 1406   6.561   1.951   1.362
  169SOL    HW2 1407   6.513   2.107   1.350
  170SOL     OW 1408   6.828   0.202   2.317
  170SOL    HW1 1409   6.882   0.285   2.331
  170SOL    HW2 1410   6.826   0.149   2.402
  171SOL     OW 1411   2.611   4.234   6.778
  171SOL    HW1 1412   2.626   4.328   6.810
  171SOL    HW2 1413   2.620   4.232   6.678
  172SOL     OW 1414   5.914   1.414   2.812
  172SOL    HW1 1415   5.881   1.505   2.835
  172SOL    HW2 1416   6.001   1.421   2.763
  173SOL     OW 1417   6.365   1.075   3.890
  173SOL    HW1 1418   6.459   1.107   3.878
  173SOL    HW2 1419   6.339   1.019   3.811
  174SOL     OW 1420   4.109   5.437   3.788
  174SOL    HW1 1421   4.017   5.441   3.750
  174SOL    HW2 1422   4.158   5.358   3.750
  175SOL     OW 1423   2.981   0.246   1.646
  175SOL    HW1 1424   2.902   0.300   1.678
  175SOL    HW2 1425   3.065   0.291   1.675
  176SOL     OW 1426   0.104   4.689   1.346
  176SOL    HW1 1427   0.185   4.631   1.339
  176SOL    HW2 1428   0.044   4.653   1.418
  177SOL     OW 1429   5.821   3.215   4.238
  177SOL    HW1 1430   5.732   3.183   4.270
  177SOL    HW2 1431   5.888   3.203   4.311
  178SOL     OW 1432   3.536   4.188   5.508
  178SOL    HW1 1433   3.533   4.247   5.428
  178SOL    HW2 1434   3.628   4.150   5.518
  179SOL     OW 1435   4.175   1.184   5.708
  179SOL    HW1 1436   4.097   1.232   5.749
  179SOL    HW2 1437   4.150   1.089   5.689
  180SOL     OW 1438   2.032   6.760   0.846
  180SOL    HW1 1439   2.054   6.857   0.843
  180SOL    HW2 1440   2.008   6.729   0.754
  181SOL     OW 1441   3.621   3.425   6.099
  181SOL    HW1 1442   3.546   3.374   6.140
  181SOL    HW2 1443   3.665   3.483   6.168
  182SOL     OW 1444   4.096   1.875   5.785
  182SOL    HW1 1445   4.129   1.911   5.872
  182SOL    HW2 1446   4.021   1.933   5.751
  183SOL     OW 1447   3.292   1.790   3.742
  183SOL    HW1 1448   3.374   1.741   3.772
  183SOL    HW2 1449   3.317   1.884   3.718
  184SOL     OW 1450   0.499   6.314   4.017
  184SOL    HW1 1451   0.514   6.256   3.937
  184SOL    HW2 1452   0.406   6.349   4.016
  185SOL     OW 1453   0.801   1.066   5.235
  185SOL    HW1 1454   0.805   1.101   5.329
  185SOL    HW2 1455   0.729   1.114   5.185
  186SOL     OW 1456   6.373   1.349   4.021
  186SOL    HW1 1457   6.420   1.308   3.943
  186SOL    HW2 1458   6.312   1.282   4.063
  187SOL     OW 1459   4.935   6.477   2.490
  187SOL    HW1 1460   4.861   6.410   2.489
  187SOL    HW2 1461   4.901   6.564   2.525
  188SOL     OW 1462   1.574   3.123   3.327
  188SOL    HW1 1463   1.478   3.113   3.355
  188SOL    HW2 1464   1.603   3.043   3.275
  189SOL     OW 1465   2.127   5.642   0.564
  189SOL    HW1 1466   2.188   5.712   0.527
  189SOL    HW2 1467   2.149   5.553   0.523
  190SOL     OW 1468   6.004   3.343   5.465
  190SOL    HW1 1469   5.979   3.427   5.416
  190SOL    HW2 1470   5.923   3.303   5.507
  191SOL     OW 1471   5.794   0.609   6.743
  191SOL    HW1 1472   5.812   0.668   6.822
  191SOL    HW2 1473   5.773   0.666   6.664
  192SOL     OW 1474   0.724   5.105   2.515
  192SOL    HW1 1475   0.769   5.052   2.443
  192SOL    HW2 1476   0.648   5.157   2.476
  193SOL     OW 1477   4.390   3.553   5.286
  193SOL    HW1 1478   4.358   3.463   5.316
  193SOL    HW2 1479   4.463   3.542   5.219
  194SOL     OW 1480   4.014   6.805   2.942
  194SOL    HW1 1481   4.003   6.781   2.845
  194SOL    HW2 1482   4.092   6.755   2.980
  195SOL     OW 1483   1.458   0.715   4.277
  195SOL    HW1 1484   1.444   0.631   4.225
  195SOL    HW2 1485   1.505   0.694   4.363
  196SOL     OW 1486   2.514   0.146   0.173
  196SOL    HW1 1487   2.561   0.110   0.092
  196SOL    HW2 1488   2.468   0.232   0.149
  197SOL     OW 1489   2.499   0.110   1.539
  197SOL    HW1 1490   2.428   0.040   1.548
  197SOL    HW2 1491   2.553   0.092   1.457
  198SOL     OW 1492   4.942   0.004   2.040
  198SOL    HW1 1493   4.893   6.979   1.969
  198SOL    HW2 1494   4.944   0.101   2.016
  199SOL     OW 1495   6.580   1.225   3.811
  199SOL    HW1 1496   6.571   1.227   3.711
  199SOL    HW2 1497   6.677   1.237   3.836
  200SOL     OW 1498   1.219   4.411   1.636
  200SOL    HW1 1499   1.240   4.457   1.722
  200SOL    HW2 1500   1.258   4.319   1.637
  201SOL     OW 1501   6.678   6.964   6.249
  201SOL    HW1 1502   6.710   6.871   6.233
  201SOL    HW2 1503   6.589   6.977   6.205
  202SOL     OW 1504   5.107   0.781   5.687
  202SOL    HW1 1505   5.059   0.693   5.680
  202SOL    HW2 1506   5.076   0.830   5.768
  203SOL     OW 1507   4.183   2.223   4.131
  203SOL    HW1 1508   4.090   2.192   4.150
  203SOL    HW2 1509   4.217   2.277   4.208
  204SOL     OW 1510   0.369   0.917   6.278
  204SOL    HW1 1511   0.466   0.941   6.285
  204SOL    HW2 1512   0.345   0.853   6.351
  205SOL     OW 1513   0.556   0.745   3.545
  205SOL    HW1 1514   0.643   0.754   3.593
  205SOL    HW2 1515   0.564   0.782   3.453
  206SOL     OW 1516   0.909   5.063   2.064
  206SOL    HW1 1517   0.819   5.019   2.065
  206SOL    HW2 1518   0.917   5.120   1.982
  207SOL     OW 1519   5.146   0.889   3.795
  207SOL    HW1 1520   5.112   0.820   3.859
  207SOL    HW2 1521   5.146   0.979   3.839
  208SOL     OW 1522   5.761   3.094   5.324
  208SOL    HW1 1523   5.737   3.177   5.275
  208SOL    HW2 1524   5.700   3.020   5.297
  209SOL     OW 1525   0.555   4.833   4.773
  209SOL    HW1 1526   0.470   4.812   4.723
  209SOL    HW2 1527   0.592   4.749   4.812
  210SOL     OW 1528   4.511   2.019   1.153
  210SOL    HW1 1529   4.453   2.058   1.224
  210SOL    HW2 1530   4.543   1.929   1.182
  211SOL     OW 1531   2.570   6.365   3.568
  211SOL    HW1 1532   2.647   6.319   3.612
  211SOL    HW2 1533   2.601   6.452   3.530
  212SOL     OW 1534   2.015   4.529   1.302
  212SOL    HW1 1535   2.074   4.608   1.290
  212SOL    HW2 1536   1.919   4.557   1.294
  213SOL     OW 1537   3.436   0.559   6.121
  213SOL    HW1 1538   3.494   0.478   6.115
  213SOL    HW2 1539   3.355   0.537   6.176
  214SOL     OW 1540   4.568   5.648   1.846
  214SOL    HW1 1541   4.641   5.714   1.826
  214SOL    HW2 1542   4.575   5.619   1.941
  215SOL     OW 1543   2.278   3.440   0.858
  215SOL    HW1 1544   2.212   3.510   0.829
  215SOL    HW2 1545   2.368   3.461   0.820
  216SOL     OW 1546   2.062   5.886   4.424
  216SOL    HW1 1547   2.046   5.970   4.476
  216SOL    HW2 1548   2.128   5.828   4.471
  217SOL     OW 1549   2.087   2.653   3.778
  217SOL    HW1 1550   2.059   2.564   3.741
  217SOL    HW2 1551   2.181   2.646   3.812
  218SOL     OW 1552   1.279   2.895   4.686
  218SOL    HW1 1553   1.347   2.823   4.671
  218SOL    HW2 1554   1.236   2.883   4.775
  219SOL     OW 1555   4.134   6.430   5.850
  219SOL    HW1 1556   4.079   6.384   5.920
  219SOL    HW2 1557   4.085   6.429   5.763
  220SOL     OW 1558   3.727   6.590   0.718
  220SOL    HW1 1559   3.628   6.579   0.720
  220SOL    HW2 1560   3.751   6.673   0.667
  221SOL     OW 1561   6.490   3.359   2.429
  221SOL    HW1 1562   6.474   3.265   2.460
  221SOL    HW2 1563   6.545   3.407   2.498
  222SOL     OW 1564   2.876   5.165   5.872
  222SOL    HW1 1565   2.794   5.109   5.888
  222SOL    HW2 1566   2.883   5.186   5.774
  223SOL     OW 1567   5.851   3.180   1.006
  223SOL    HW1 1568   5.935   3.178   0.952
  223SOL    HW2 1569   5.869   3.223   1.095
  224SOL     OW 1570   2.152   2.269   4.340
  224SOL    HW1 1571   2.066   2.236   4.301
  224SOL    HW2 1572   2.225   2.262   4.272
  225SOL     OW 1573   5.167   2.608   5.806
  225SOL    HW1 1574   5.097   2.672   5.838
  225SOL    HW2 1575   5.258   2.643   5.828
  226SOL     OW 1576   1.765   0.582   6.164
  226SOL    HW1 1577   1.713   0.517   6.220
  226SOL    HW2 1578   1.822   0.639   6.223
  227SOL     OW 1579   1.691   3.428   3.128
  227SOL    HW1 1580   1.612   3.453   3.184
  227SOL    HW2 1581   1.678   3.461   3.034
  228SOL     OW 1582   3.379   6.328   3.438
  228SOL    HW1 1583   3.392   6.229   3.451
  228SOL    HW2 1584   3.463   6.376   3.462
  229SOL     OW 1585   4.917   5.986   6.892
  229SOL    HW1 1586   4.979   5.962   6.817
  229SOL    HW2 1587   4.968   6.037   6.962
  230SOL     OW 1588   2.987   5.206   3.081
  230SOL    HW1 1589   3.028   5.209   3.172
  230SOL    HW2 1590   2.929   5.126   3.073
  231SOL     OW 1591   5.809   1.928   6.826
  231SOL    HW1 1592   5.716   1.896   6.840
  231SOL    HW2 1593   5.850   1.949   6.915
  232SOL     OW 1594   1.511   3.973   6.105
  232SOL    HW1 1595   1.527   4.072   6.108
  232SOL    HW2 1596   1.502   3.939   6.199
  233SOL     OW 1597   2.275   2.198   4.043
  233SOL    HW1 1598   2.318   2.122   3.994
  233SOL    HW2 1599   2.230   2.259   3.978
  234SOL     OW 1600   4.580   6.476   5.163
  234SOL    HW1 1601   4.541   6.520   5.243
  234SOL    HW2 1602   4.527   6.502   5.082
  235SOL     OW 1603   3.504   3.026   1.773
  235SOL    HW1 1604   3.490   3.049   1.870
  235SOL    HW2 1605   3.548   2.937   1.766
  236SOL     OW 1606   5.275   2.672   6.603
  236SOL    HW1 1607   5.308   2.745   6.663
  236SOL    HW2 1608   5.218   2.608   6.655
  237SOL     OW 1609   6.328   5.542   2.061
  237SOL    HW1 1610   6.384   5.624   2.055
  237SOL    HW2 1611   6.305   5.509   1.969
  238SOL     OW 1612   5.276   2.172   0.196
  238SOL    HW1 1613   5.369   2.195   0.168
  238SOL    HW2 1614   5.275   2.150   0.293
  239SOL     OW 1615   0.296   5.458   5.965
  239SOL    HW1 1616   0.329   5.398   5.892
  239SOL    HW2 1617   0.201   5.482   5.947
  240SOL     OW 1618   0.549   2.732   4.592
  240SOL    HW1 1619   0.543   2.728   4.492
  240SOL    HW2 1620   0.606   2.656   4.624
  241SOL     OW 1621   1.842   6.931   4.868
  241SOL    HW1 1622   1.846   6.952   4.771
  241SOL    HW2 1623   1.849   6.832   4.882
  242SOL     OW 1624   2.508   3.147   5.677
  242SOL    HW1 1625   2.444   3.095   5.734
  242SOL    HW2 1626   2.461   3.180   5.595
  243SOL     OW 1627   4.846   0.550   5.832
  243SOL    HW1 1628   4.937   0.559   5.874
  243SOL    HW2 1629   4.852   0.489   5.753
  244SOL     OW 1630   5.467   2.541   5.095
  244SOL    HW1 1631   5.480   2.561   4.998
  244SOL    HW2 1632   5.550   2.566   5.146
  245SOL     OW 1633   6.661   3.212   5.207
  245SOL    HW1 1634   6.692   3.120   5.229
  245SOL    HW2 1635   6.700   3.277   5.272
  246SOL     OW 1636   4.956   2.499   3.524
  246SOL    HW1 1637   4.899   2.567   3.477
  246SOL    HW2 1638   4.902   2.416   3.539
  247SOL     OW 1639   2.713   1.097   1.689
  247SOL    HW1 1640   2.746   1.003   1.680
  247SOL    HW2 1641   2.724   1.127   1.784
  248SOL     OW 1642   3.829   2.139   3.039
  248SOL    HW1 1643   3.780   2.082   3.105
  248SOL    HW2 1644   3.797   2.119   2.947
  249SOL     OW 1645   4.597   6.992   6.075
  249SOL    HW1 1646   4.498   6.980   6.076
  249SOL    HW2 1647   4.620   0.045   6.017
  250SOL     OW 1648   6.000   2.741   0.995
  250SOL    HW1 1649   5.987   2.746   0.896
  250SOL    HW2 1650   5.914   2.716   1.039
  251SOL     OW 1651   4.897   3.941   5.877
  251SOL    HW1 1652   4.968   3.871   5.870
  251SOL    HW2 1653   4.900   4.001   5.797
  252SOL     OW 1654   6.474   0.187   6.249
  252SOL    HW1 1655   6.446   0.093   6.228
  252SOL    HW2 1656   6.427   0.218   6.331
  253SOL     OW 1657   2.161   4.299   6.770
  253SOL    HW1 1658   2.106   4.253   6.840
  253SOL    HW2 1659   2.181   4.235   6.696
  254SOL     OW 1660   5.483   3.186   2.868
  254SOL    HW1 1661   5.397   3.239   2.869
  254SOL    HW2 1662   5.462   3.089   2.864
  255SOL     OW 1663   2.191   3.177   4.577
  255SOL    HW1 1664   2.200   3.271   4.609
  255SOL    HW2 1665   2.224   3.114   4.648
  256SOL     OW 1666   5.936   4.639   6.521
  256SOL    HW1 1667   6.029   4.603   6.517
  256SOL    HW2 1668   5.896   4.639   6.429
  257SOL     OW 1669   4.657   6.999   3.956
  257SOL    HW1 1670   4.616   6.936   4.022
  257SOL    HW2 1671   4.587   0.003   3.891
  258SOL     OW 1672   7.010   4.621   5.237
  258SOL    HW1 1673   6.913   4.595   5.238
  258SOL    HW2 1674   7.018   4.720   5.224
  259SOL     OW 1675   1.821   1.992   2.409
  259SOL    HW1 1676   1.881   2.027   2.337
  259SOL    HW2 1677   1.793   2.068   2.469
  260SOL     OW 1678   4.269   0.930   0.779
  260SOL    HW1 1679   4.262   1.024   0.744
  260SOL    HW2 1680   4.193   0.876   0.744
  261SOL     OW 1681   6.879   3.700   0.741
  261SOL    HW1 1682   6.869   3.686   0.643
  261SOL    HW2 1683   6.790   3.726   0.780
  262SOL     OW 1684   0.307   4.248   0.618
  262SOL    HW1 1685   0.326   4.194   0.700
  262SOL    HW2 1686   0.371   4.325   0.614
  263SOL     OW 1687   0.577   1.060   4.130
  263SOL    HW1 1688   0.484   1.052   4.094
  263SOL    HW2 1689   0.618   0.969   4.136
  264SOL     OW 1690   4.589   3.357   5.854
  264SOL    HW1 1691   4.589   3.315   5.763
  264SOL    HW2 1692   4.664   3.319   5.908
  265SOL     OW 1693   4.878   4.503   3.092
  265SOL    HW1 1694   4.786   4.535   3.072
  265SOL    HW2 1695   4.932   4.502   3.008
  266SOL     OW 1696   3.805   3.263   5.987
  266SOL    HW1 1697   3.882   3.240   6.046
  266SOL    HW2 1698   3.746   3.330   6.034
  267SOL     OW 1699   6.170   2.245   6.257
  267SOL    HW1 1700   6.265   2.212   6.253
  267SOL    HW2 1701   6.146   2.288   6.170
  268SOL     OW 1702   4.275   0.256   4.673
  268SOL    HW1 1703   4.356   0.207   4.705
  268SOL    HW2 1704   4.200   0.191   4.660
  269SOL     OW 1705   1.826   3.361   1.356
  269SOL    HW1 1706   1.744   3.331   1.307
  269SOL    HW2 1707   1.803   3.378   1.452
  270SOL     OW 1708   6.843   0.107   1.102
  270SOL    HW1 1709   6.756   0.133   1.062
  270SOL    HW2 1710   6.856   0.009   1.094
  271SOL     OW 1711   3.116   1.134   0.589
  271SOL    HW1 1712   3.081   1.174   0.674
  271SOL    HW2 1713   3.059   1.056   0.562
  272SOL     OW 1714   3.188   5.193   4.086
  272SOL    HW1 1715   3.154   5.239   4.004
  272SOL    HW2 1716   3.288   5.193   4.086
  273SOL     OW 1717   2.281   5.224   4.702
  273SOL    HW1 1718   2.356   5.256   4.761
  273SOL    HW2 1719   2.279   5.278   4.618
  274SOL     OW 1720   4.805   2.540   3.847
  274SOL    HW1 1721   4.724   2.483   3.837
  274SOL    HW2 1722   4.856   2.512   3.929
  275SOL     OW 1723   5.667   5.367   5.884
  275SOL    HW1 1724   5.633   5.461   5.889
  275SOL    HW2 1725   5.748   5.358   5.942
  276SOL     OW 1726   0.172   5.263   2.885
  276SOL    HW1 1727   0.242   5.203   2.845
  276SOL    HW2 1728   0.177   5.258   2.985
  277SOL     OW 1729   2.405   3.354   0.570
  277SOL    HW1 1730   2.416   3.425   0.639
  277SOL    HW2 1731   2.311   3.319   0.573
  278SOL     OW 1732   0.208   5.494   1.913
  278SOL    HW1 1733   0.292   5.464   1.958
  278SOL    HW2 1734   0.130   5.474   1.972
  279SOL     OW 1735   0.273   3.293   3.841
  279SOL    HW1 1736   0.259   3.374   3.898
  279SOL    HW2 1737   0.189   3.274   3.789
  280SOL     OW 1738   1.855   6.892   3.061
  280SOL    HW1 1739   1.859   6.878   2.962
  280SOL    HW2 1740   1.886   6.809   3.107
  281SOL     OW 1741   3.448   4.922   2.224
  281SOL    HW1 1742   3.410   5.013   2.240
  281SOL    HW2 1743   3.480   4.915   2.130
  282SOL     OW 1744   3.966   1.926   5.355
  282SOL    HW1 1745   3.960   1.828   5.371
  282SOL    HW2 1746   3.883   1.971   5.390
  283SOL     OW 1747   6.538   1.427   6.040
  283SOL    HW1 1748   6.521   1.375   6.124
  283SOL    HW2 1749   6.619   1.390   5.993
  284SOL     OW 1750   0.332   4.183   4.783
  284SOL    HW1 1751   0.311   4.259   4.845
  284SOL    HW2 1752   0.297   4.204   4.692
  285SOL     OW 1753   5.494   5.171   6.112
  285SOL    HW1 1754   5.551   5.122   6.047
  285SOL    HW2 1755   5.399   5.140   6.103
  286SOL     OW 1756   3.365   5.042   5.465
  286SOL    HW1 1757   3.350   4.971   5.534
  286SOL    HW2 1758   3.292   5.110   5.471
  287SOL     OW 1759   0.455   4.456   6.751
  287SOL    HW1 1760   0.427   4.520   6.822
  287SOL    HW2 1761   0.511   4.505   6.683
  288SOL     OW 1762   4.618   2.519   0.230
  288SOL    HW1 1763   4.519   2.517   0.212
  288SOL    HW2 1764   4.653   2.426   0.235
  289SOL     OW 1765   0.034   5.267   5.248
  289SOL    HW1 1766   0.131   5.254   5.227
  289SOL    HW2 1767   0.025   5.290   5.345
  290SOL     OW 1768   4.642   1.478   3.862
  290SOL    HW1 1769   4.665   1.397   3.809
  290SOL    HW2 1770   4.658   1.461   3.959
  291SOL     OW 1771   2.800   1.821   5.246
  291SOL    HW1 1772   2.891   1.854   5.221
  291SOL    HW2 1773   2.794   1.723   5.227
  292SOL     OW 1774   2.740   1.824   2.547
  292SOL    HW1 1775   2.803   1.843   2.471
  292SOL    HW2 1776   2.661   1.774   2.512
  293SOL     OW 1777   5.093   5.059   1.811
  293SOL    HW1 1778   5.025   5.028   1.745
  293SOL    HW2 1779   5.134   5.145   1.780
  294SOL     OW 1780   6.387   5.623   6.280
  294SOL    HW1 1781   6.457   5.561   6.317
  294SOL    HW2 1782   6.299   5.601   6.321
  295SOL     OW 1783   3.454   1.691   4.696
  295SOL    HW1 1784   3.494   1.608   4.734
  295SOL    HW2 1785   3.385   1.727   4.759
  296SOL     OW 1786   6.011   1.987   2.302
  296SOL    HW1 1787   5.971   2.075   2.327
  296SOL    HW2 1788   6.099   1.976   2.347
  297SOL     OW 1789   2.818   4.841   2.785
  297SOL    HW1 1790   2.878   4.862   2.708
  297SOL    HW2 1791   2.737   4.792   2.752
  298SOL     OW 1792   3.178   6.203   0.597
  298SOL    HW1 1793   3.242   6.213   0.674
  298SOL    HW2 1794   3.228   6.172   0.516
  299SOL     OW 1795   4.209   3.018   6.698
  299SOL    HW1 1796   4.263   3.091   6.657
  299SOL    HW2 1797   4.161   2.968   6.627
  300SOL     OW 1798   5.075   0.821   1.898
  300SOL    HW1 1799   5.058   0.820   1.996
  300SOL    HW2 1800   5.008   0.880   1.853
  301SOL     OW 1801   5.675   2.968   0.898
  301SOL    HW1 1802   5.722   3.052   0.926
  301SOL    HW2 1803   5.584   2.991   0.865
  302SOL     OW 1804   0.058   0.816   3.751
  302SOL    HW1 1805   0.081   0.841   3.845
  302SOL    HW2 1806   0.118   0.742   3.720
  303SOL     OW 1807   6.719   6.786   2.175
  303SOL    HW1 1808   6.724   6.885   2.164
  303SOL    HW2 1809   6.782   6.757   2.247
  304SOL     OW 1810   1.554   6.617   5.564
  304SOL    HW1 1811   1.653   6.606   5.573
  304SOL    HW2 1812   1.523   6.571   5.481
  305SOL     OW 1813   1.402   3.254   6.903
  305SOL    HW1 1814   1.347   3.171   6.901
  305SOL    HW2 1815   1.348   3.329   6.941
  306SOL     OW 1816   1.691   0.530   3.709
  306SOL    HW1 1817   1.698   0.623   3.745
  306SOL    HW2 1818   1.641   0.472   3.774
  307SOL     OW 1819   5.023   5.657   0.593
  307SOL    HW1 1820   5.100   5.706   0.551
  307SOL    HW2 1821   4.946   5.720   0.603
  308SOL     OW 1822   5.510   3.447   4.457
  308SOL    HW1 1823   5.499   3.506   4.537
  308SOL    HW2 1824   5.587   3.385   4.472
  309SOL     OW 1825   2.142   5.878   0.134
  309SOL    HW1 1826   2.099   5.853   0.048
  309SOL    HW2 1827   2.219   5.940   0.117
  310SOL     OW 1828   5.357   6.807   5.537
  310SOL    HW1 1829   5.289   6.879   5.557
  310SOL    HW2 1830   5.313   6.733   5.487
  311SOL     OW 1831   4.337   4.954   2.599
  311SOL    HW1 1832   4.273   5.029   2.620
  311SOL    HW2 1833   4.290   4.867   2.613
  312SOL     OW 1834   4.190   1.152   4.576
  312SOL    HW1 1835   4.127   1.111   4.643
  312SOL    HW2 1836   4.271   1.093   4.567
  313SOL     OW 1837   3.066   3.623   2.381
  313SOL    HW1 1838   3.108   3.549   2.434
  313SOL    HW2 1839   3.095   3.617   2.286
  314SOL     OW 1840   2.586   4.939   6.811
  314SOL    HW1 1841   2.563   4.851   6.852
  314SOL    HW2 1842   2.610   4.926   6.715
  315SOL     OW 1843   1.037   3.010   3.856
  315SOL    HW1 1844   1.090   3.073   3.912
  315SOL    HW2 1845   1.099   2.945   3.812
  316SOL     OW 1846   2.841   1.088   4.286
  316SOL    HW1 1847   2.807   1.006   4.240
  316SOL    HW2 1848   2.912   1.130   4.229
  317SOL     OW 1849   6.905   1.446   0.681
  317SOL    HW1 1850   6.836   1.510   0.715
  317SOL    HW2 1851   6.878   1.411   0.591
  318SOL     OW 1852   0.613   5.270   6.701
  318SOL    HW1 1853   0.522   5.309   6.717
  318SOL    HW2 1854   0.636   5.278   6.604
  319SOL     OW 1855   6.541   1.283   3.434
  319SOL    HW1 1856   6.503   1.330   3.514
  319SOL    HW2 1857   6.483   1.300   3.354
  320SOL     OW 1858   6.827   2.108   1.276
  320SOL    HW1 1859   6.740   2.073   1.309
  320SOL    HW2 1860   6.812   2.197   1.231
  321SOL     OW 1861   3.700   1.780   0.035
  321SOL    HW1 1862   3.750   1.698   0.064
  321SOL    HW2 1863   3.720   1.856   0.096
  322SOL     OW 1864   3.298   3.072   4.142
  322SOL    HW1 1865   3.216   3.085   4.087
  322SOL    HW2 1866   3.275   3.030   4.229
  323SOL     OW 1867   0.956   2.982   6.790
  323SOL    HW1 1868   0.934   2.885   6.776
  323SOL    HW2 1869   0.874   3.037   6.775
  324SOL     OW 1870   2.690   1.265   4.671
  324SOL    HW1 1871   2.713   1.323   4.592
  324SOL    HW2 1872   2.665   1.324   4.748
  325SOL     OW 1873   0.508   2.919   1.773
  325SOL    HW1 1874   0.519   2.973   1.689
  325SOL    HW2 1875   0.465   2.831   1.751
  326SOL     OW 1876   1.206   5.146   6.561
  326SOL    HW1 1877   1.196   5.071   6.496
  326SOL    HW2 1878   1.209   5.110   6.654
  327SOL     OW 1879   1.344   4.358   3.352
  327SOL    HW1 1880   1.386   4.352   3.443
  327SOL    HW2 1881   1.325   4.266   3.318
  328SOL     OW 1882   1.349   5.852   1.614
  328SOL    HW1 1883   1.424   5.916   1.601
  328SOL    HW2 1884   1.382   5.772   1.663
  329SOL     OW 1885   3.935   3.552   4.692
  329SOL    HW1 1886   3.903   3.497   4.769
  329SOL    HW2 1887   3.976   3.637   4.727
  330SOL     OW 1888   3.815   6.744   1.394
  330SOL    HW1 1889   3.796   6.685   1.472
  330SOL    HW2 1890   3.762   6.828   1.402
  331SOL     OW 1891   3.407   5.492   0.472
  331SOL    HW1 1892   3.312   5.499   0.505
  331SOL    HW2 1893   3.416   5.545   0.388
  332SOL     OW 1894   4.644   1.931   5.003
  332SOL    HW1 1895   4.667   1.834   4.993
  332SOL    HW2 1896   4.573   1.956   4.937
  333SOL     OW 1897   3.046   0.355   6.090
  333SOL    HW1 1898   3.101   0.395   6.016
  333SOL    HW2 1899   3.001   0.428   6.141
  334SOL     OW 1900   3.586   0.652   1.661
  334SOL    HW1 1901   3.521   0.662   1.585
  334SOL    HW2 1902   3.537   0.655   1.748
  335SOL     OW 1903   4.295   6.812   5.484
  335SOL    HW1 1904   4.294   6.879   5.409
  335SOL    HW2 1905   4.236   6.735   5.461
  336SOL     OW 1906   1.867   0.878   3.511
  336SOL    HW1 1907   1.801   0.814   3.550
  336SOL    HW2 1908   1.958   0.836   3.508
  337SOL     OW 1909   0.420   2.835   0.119
  337SOL    HW1 1910   0.363   2.754   0.105
  337SOL    HW2 1911   0.427   2.853   0.218
  338SOL     OW 1912   2.971   2.444   1.475
  338SOL    HW1 1913   2.885   2.394   1.492
  338SOL    HW2 1914   3.026   2.444   1.559
  339SOL     OW 1915   3.647   6.076   3.942
  339SOL    HW1 1916   3.661   6.037   4.033
  339SOL    HW2 1917   3.605   6.166   3.949
  340SOL     OW 1918   4.815   4.177   5.246
  340SOL    HW1 1919   4.912   4.157   5.257
  340SOL    HW2 1920   4.787   4.158   5.152
  341SOL     OW 1921   6.450   0.564   4.956
  341SOL    HW1 1922   6.394   0.574   4.875
  341SOL    HW2 1923   6.433   0.475   4.998
  342SOL     OW 1924   6.263   3.701   6.987
  342SOL    HW1 1925   6.212   3.616   7.001
  342SOL    HW2 1926   6.233   3.744   6.902
  343SOL     OW 1927   1.523   5.513   0.532
  343SOL    HW1 1928   1.613   5.471   0.532
  343SOL    HW2 1929   1.462   5.461   0.592
  344SOL     OW 1930   1.323   3.796   1.943
  344SOL    HW1 1931   1.268   3.804   1.860
  344SOL    HW2 1932   1.398   3.732   1.927
  345SOL     OW 1933   4.142   1.605   3.200
  345SOL    HW1 1934   4.161   1.703   3.207
  345SOL    HW2 1935   4.093   1.587   3.115
  346SOL     OW 1936   2.117   0.622   2.979
  346SOL    HW1 1937   2.036   0.657   2.932
  346SOL    HW2 1938   2.190   0.608   2.912
  347SOL     OW 1939   2.929   5.811   6.461
  347SOL    HW1 1940   2.975   5.848   6.541
  347SOL    HW2 1941   2.995   5.802   6.386
  348SOL     OW 1942   5.269   4.059   2.348
  348SOL    HW1 1943   5.242   4.087   2.256
  348SOL    HW2 1944   5.357   4.011   2.344
  349SOL     OW 1945   6.806   5.298   1.072
  349SOL    HW1 1946   6.890   5.245   1.072
  349SOL    HW2 1947   6.731   5.243   1.109
  350SOL     OW 1948   3.481   3.487   0.921
  350SOL    HW1 1949   3.499   3.531   0.833
  350SOL    HW2 1950   3.398   3.432   0.914
  351SOL     OW 1951   1.911   3.081   1.391
  351SOL    HW1 1952   1.880   2.986   1.390
  351SOL    HW2 1953   1.985   3.092   1.457
  352SOL     OW 1954   3.002   0.849   4.934
  352SOL    HW1 1955   2.955   0.913   4.873
  352SOL    HW2 1956   3.091   0.887   4.960
  353SOL     OW 1957   2.026   0.069   1.096
  353SOL    HW1 1958   1.982   7.020   1.146
  353SOL    HW2 1959   2.081   0.031   1.021
  354SOL     OW 1960   3.723   2.642   0.886
  354SOL    HW1 1961   3.775   2.581   0.947
  354SOL    HW2 1962   3.736   2.612   0.791
  355SOL     OW 1963   1.038   3.435   2.562
  355SOL    HW1 1964   1.008   3.438   2.466
  355SOL    HW2 1965   0.959   3.424   2.622
  356SOL     OW 1966   2.988   0.092   6.092
  356SOL    HW1 1967   3.008   0.189   6.077
  356SOL    HW2 1968   3.063   0.051   6.144
  357SOL     OW 1969   6.693   6.139   5.763
  357SOL    HW1 1970   6.752   6.064   5.734
  357SOL    HW2 1971   6.597   6.110   5.760
  358SOL     OW 1972   4.089   6.674   0.464
  358SOL    HW1 1973   4.073   6.625   0.378
  358SOL    HW2 1974   4.025   6.750   0.471
  359SOL     OW 1975   1.754   2.572   2.128
  359SOL    HW1 1976   1.750   2.626   2.212
  359SOL    HW2 1977   1.844   2.530   2.119
  360SOL     OW 1978   0.609   5.211   6.405
  360SOL    HW1 1979   0.633   5.115   6.416
  360SOL    HW2 1980   0.509   5.221   6.404
  361SOL     OW 1981   6.406   5.726   3.183
  361SOL    HW1 1982   6.384   5.815   3.145
  361SOL    HW2 1983   6.496   5.729   3.227
  362SOL     OW 1984   3.907   3.723   1.356
  362SOL    HW1 1985   3.933   3.712   1.260
  362SOL    HW2 1986   3.910   3.634   1.401
  363SOL     OW 1987   5.390   4.224   3.313
  363SOL    HW1 1988   5.470   4.255   3.365
  363SOL    HW2 1989   5.419   4.155   3.247
  364SOL     OW 1990   6.731   5.376   6.596
  364SOL    HW1 1991   6.656   5.435   6.627
  364SOL    HW2 1992   6.759   5.315   6.669
  365SOL     OW 1993   6.277   6.348   2.494
  365SOL    HW1 1994   6.280   6.248   2.482
  365SOL    HW2 1995   6.210   6.370   2.565
  366SOL     OW 1996   6.095   0.963   6.243
  366SOL    HW1 1997   6.167   0.921   6.299
  366SOL    HW2 1998   6.032   0.891   6.212
  367SOL     OW 1999   5.406   3.100   0.792
  367SOL    HW1 2000   5.336   3.037   0.757
  367SOL    HW2 2001   5.363   3.164   0.856
  368SOL     OW 2002   0.175   3.917   4.842
  368SOL    HW1 2003   0.196   4.014   4.838
  368SOL    HW2 2004   0.252   3.868   4.883
  369SOL     OW 2005   6.501   5.371   2.195
  369SOL    HW1 2006   6.448   5.421   2.127
  369SOL    HW2 2007   6.515   5.277   2.163
  370SOL     OW 2008   2.731   1.434   5.862
  370SOL    HW1 2009   2.746   1.456   5.766
  370SOL    HW2 2010   2.687   1.512   5.907
  371SOL     OW 2011   2.370   3.655   6.076
  371SOL    HW1 2012   2.275   3.628   6.092
  371SOL    HW2 2013   2.395   3.635   5.981
  372SOL     OW 2014   0.863   6.387   6.000
  372SOL    HW1 2015   0.832   6.473   6.040
  372SOL    HW2 2016   0.893   6.403   5.906
  373SOL     OW 2017   6.503   6.780   4.550
  373SOL    HW1 2018   6.437   6.831   4.496
  373SOL    HW2 2019   6.572   6.842   4.587
  374SOL     OW 2020   2.577   1.705   3.679
  374SOL    HW1 2021   2.628   1.791   3.668
  374SOL    HW2 2022   2.624   1.646   3.744
  375SOL     OW 2023   1.015   4.037   3.998
  375SOL    HW1 2024   1.103   4.047   4.046
  375SOL    HW2 2025   0.999   4.118   3.941
  376SOL     OW 2026   2.554   1.978   5.224
  376SOL    HW1 2027   2.558   2.033   5.307
  376SOL    HW2 2028   2.643   1.938   5.205
  377SOL     OW 2029   1.203   1.726   1.268
  377SOL    HW1 2030   1.293   1.683   1.266
  377SOL    HW2 2031   1.194   1.789   1.190
  378SOL     OW 2032   3.564   2.271   5.765
  378SOL    HW1 2033   3.536   2.193   5.708
  378SOL    HW2 2034   3.517   2.266   5.853
  379SOL     OW 2035   5.940   4.394   1.038
  379SOL    HW1 2036   6.032   4.358   1.054
  379SOL    HW2 2037   5.934   4.431   0.945
  380SOL     OW 2038   2.706   1.380   1.214
  380SOL    HW1 2039   2.637   1.390   1.143
  380SOL    HW2 2040   2.666   1.333   1.293
  381SOL     OW 2041   1.593   3.492   2.484
  381SOL    HW1 2042   1.679   3.539   2.462
  381SOL    HW2 2043   1.608   3.426   2.557
  382SOL     OW 2044   5.841   6.994   6.218
  382SOL    HW1 2045   5.911   6.942   6.268
  382SOL    HW2 2046   5.873   0.062   6.202
  383SOL     OW 2047   4.496   3.874   5.893
  383SOL    HW1 2048   4.575   3.814   5.897
  383SOL    HW2 2049   4.519   3.957   5.842
  384SOL     OW 2050   7.011   5.917   4.749
  384SOL    HW1 2051   0.012   5.901   4.654
  384SOL    HW2 2052   6.912   5.922   4.756
  385SOL     OW 2053   3.958   5.697   5.159
  385SOL    HW1 2054   3.906   5.616   5.186
  385SOL    HW2 2055   4.052   5.671   5.137
  386SOL     OW 2056   2.302   6.630   5.282
  386SOL    HW1 2057   2.385   6.651   5.334
  386SOL    HW2 2058   2.263   6.714   5.246
  387SOL     OW 2059   0.889   6.940   3.561
  387SOL    HW1 2060   0.832   6.924   3.480
  387SOL    HW2 2061   0.835   6.925   3.644
  388SOL     OW 2062   1.626   1.565   4.229
  388SOL    HW1 2063   1.714   1.603   4.258
  388SOL    HW2 2064   1.641   1.483   4.173
  389SOL     OW 2065   3.645   4.720   0.736
  389SOL    HW1 2066   3.668   4.730   0.833
  389SOL    HW2 2067   3.629   4.809   0.696
  390SOL     OW 2068   3.692   1.423   0.293
  390SOL    HW1 2069   3.754   1.414   0.371
  390SOL    HW2 2070   3.664   1.518   0.283
  391SOL     OW 2071   2.446   3.818   5.720
  391SOL    HW1 2072   2.420   3.730   5.758
  391SOL    HW2 2073   2.473   3.806   5.624
  392SOL     OW 2074   1.899   4.453   0.671
  392SOL    HW1 2075   1.956   4.535   0.673
  392SOL    HW2 2076   1.916   4.399   0.753
  393SOL     OW 2077   1.253   4.445   6.511
  393SOL    HW1 2078   1.212   4.380   6.446
  393SOL    HW2 2079   1.352   4.433   6.511
  394SOL     OW 2080   6.920   2.618   0.883
  394SOL    HW1 2081   6.910   2.528   0.925
  394SOL    HW2 2082   6.829   2.653   0.858
  395SOL     OW 2083   4.887   4.918   3.085
  395SOL    HW1 2084   4.924   4.865   3.161
  395SOL    HW2 2085   4.843   5.001   3.120
  396SOL     OW 2086   2.887   3.275   2.113
  396SOL    HW1 2087   2.814   3.269   2.181
  396SOL    HW2 2088   2.858   3.335   2.038
  397SOL     OW 2089   5.571   1.630   5.898
  397SOL    HW1 2090   5.613   1.608   5.810
  397SOL    HW2 2091   5.473   1.609   5.894
  398SOL     OW 2092   1.109   0.049   3.671
  398SOL    HW1 2093   1.033   0.018   3.613
  398SOL    HW2 2094   1.076   0.059   3.765
  399SOL     OW 2095   5.361   6.444   3.589
  399SOL    HW1 2096   5.282   6.504   3.572
  399SOL    HW2 2097   5.328   6.354   3.618
  400SOL     OW 2098   6.181   6.530   5.264
  400SOL    HW1 2099   6.120   6.597   5.221
  400SOL    HW2 2100   6.240   6.489   5.195
  401SOL     OW 2101   5.116   0.246   6.486
  401SOL    HW1 2102   5.054   0.189   6.432
  401SOL    HW2 2103   5.093   0.239   6.583
  402SOL     OW 2104   6.300   0.418   3.643
  402SOL    HW1 2105   6.305   0.516   3.666
  402SOL    HW2 2106   6.374   0.395   3.579
  403SOL     OW 2107   3.883   1.188   4.945
  403SOL    HW1 2108   3.864   1.207   5.041
  403SOL    HW2 2109   3.830   1.252   4.888
  404SOL     OW 2110   1.688   4.513   3.896
  404SOL    HW1 2111   1.652   4.420   3.890
  404SOL    HW2 2112   1.757   4.517   3.969
  405SOL     OW 2113   2.091   3.000   3.182
  405SOL    HW1 2114   1.991   2.996   3.185
  405SOL    HW2 2115   2.119   3.065   3.111
  406SOL     OW 2116   0.280   4.507   4.629
  406SOL    HW1 2117   0.260   4.486   4.725
  406SOL    HW2 2118   0.289   4.422   4.578
  407SOL     OW 2119   1.058   1.633   5.263
  407SOL    HW1 2120   1.153   1.615   5.288
  407SOL    HW2 2121   1.054   1.665   5.168
  408SOL     OW 2122   2.888   2.158   3.258
  408SOL    HW1 2123   2.969   2.105   3.231
  408SOL    HW2 2124   2.806   2.102   3.243
  409SOL     OW 2125   6.079   3.718   2.202
  409SOL    HW1 2126   5.986   3.688   2.181
  409SOL    HW2 2127   6.113   3.667   2.282
  410SOL     OW 2128   0.935   1.834   0.988
  410SOL    HW1 2129   0.905   1.827   1.083
  410SOL    HW2 2130   1.033   1.813   0.982
  411SOL     OW 2131   6.605   0.726   1.334
  411SOL    HW1 2132   6.622   0.802   1.270
  411SOL    HW2 2133   6.566   0.762   1.418
  412SOL     OW 2134   3.671   5.629   3.059
  412SOL    HW1 2135   3.582   5.659   3.095
  412SOL    HW2 2136   3.657   5.552   2.996
  413SOL     OW 2137   5.939   4.032   2.142
  413SOL    HW1 2138   6.035   4.011   2.157
  413SOL    HW2 2139   5.925   4.063   2.048
  414SOL     OW 2140   3.860   5.850   3.304
  414SOL    HW1 2141   3.861   5.753   3.329
  414SOL    HW2 2142   3.842   5.859   3.206
  415SOL     OW 2143   0.201   0.339   6.965
  415SOL    HW1 2144   0.153   0.418   7.003
  415SOL    HW2 2145   0.166   0.255   7.007
  416SOL     OW 2146   4.920   6.080   4.839
  416SOL    HW1 2147   4.823   6.063   4.827
  416SOL    HW2 2148   4.959   6.111   4.752
  417SOL     OW 2149   2.219   6.814   5.618
  417SOL    HW1 2150   2.189   6.724   5.586
  417SOL    HW2 2151   2.314   6.809   5.650
  418SOL     OW 2152   3.426   6.476   6.541
  418SOL    HW1 2153   3.390   6.402   6.598
  418SOL    HW2 2154   3.495   6.440   6.478
  419SOL     OW 2155   1.535   6.732   3.169
  419SOL    HW1 2156   1.623   6.689   3.150
  419SOL    HW2 2157   1.496   6.692   3.253
  420SOL     OW 2158   5.937   1.368   6.827
  420SOL    HW1 2159   6.016   1.424   6.850
  420SOL    HW2 2160   5.933   1.353   6.729
  421SOL     OW 2161   6.130   4.004   5.180
  421SOL    HW1 2162   6.052   4.048   5.225
  421SOL    HW2 2163   6.212   4.017   5.236
  422SOL     OW 2164   5.304   3.717   1.436
  422SOL    HW1 2165   5.389   3.663   1.439
  422SOL    HW2 2166   5.247   3.684   1.361
  423SOL     OW 2167   0.923   2.420   6.553
  423SOL    HW1 2168   0.900   2.446   6.647
  423SOL    HW2 2169   1.022   2.406   6.546
  424SOL     OW 2170   1.965   5.096   1.895
  424SOL    HW1 2171   1.871   5.061   1.895
  424SOL    HW2 2172   1.963   5.195   1.884
  425SOL     OW 2173   4.907   1.817   3.977
  425SOL    HW1 2174   4.921   1.746   4.046
  425SOL    HW2 2175   4.840   1.785   3.910
  426SOL     OW 2176   2.629   2.139   4.559
  426SOL    HW1 2177   2.632   2.093   4.648
  426SOL    HW2 2178   2.717   2.181   4.540
  427SOL     OW 2179   6.380   6.907   3.939
  427SOL    HW1 2180   6.413   6.996   3.972
  427SOL    HW2 2181   6.429   6.834   3.987
  428SOL     OW 2182   3.589   0.221   3.403
  428SOL    HW1 2183   3.594   0.288   3.478
  428SOL    HW2 2184   3.676   0.172   3.396
  429SOL     OW 2185   0.638   4.651   3.405
  429SOL    HW1 2186   0.618   4.746   3.379
  429SOL    HW2 2187   0.572   4.621   3.474
  430SOL     OW 2188   1.312   6.239   4.265
  430SOL    HW1 2189   1.364   6.318   4.235
  430SOL    HW2 2190   1.337   6.215   4.359
  431SOL     OW 2191   3.017   0.536   1.484
  431SOL    HW1 2192   3.085   0.469   1.456
  431SOL    HW2 2193   2.981   0.510   1.574
  432SOL     OW 2194   6.553   2.005   0.831
  432SOL    HW1 2195   6.541   2.077   0.762
  432SOL    HW2 2196   6.467   1.988   0.877
  433SOL     OW 2197   2.244   6.435   5.743
  433SOL    HW1 2198   2.187   6.472   5.670
  433SOL    HW2 2199   2.338   6.427   5.711
  434SOL     OW 2200   4.166   5.697   3.334
  434SOL    HW1 2201   4.207   5.655   3.253
  434SOL    HW2 2202   4.095   5.637   3.371
  435SOL     OW 2203   4.166   1.944   6.045
  435SOL    HW1 2204   4.134   1.869   6.103
  435SOL    HW2 2205   4.178   2.026   6.101
  436SOL     OW 2206   3.083   5.314   1.834
  436SOL    HW1 2207   2.996   5.268   1.813
  436SOL    HW2 2208   3.133   5.260   1.901
  437SOL     OW 2209   0.730   0.988   6.602
  437SOL    HW1 2210   0.702   0.910   6.659
  437SOL    HW2 2211   0.813   1.028   6.640
  438SOL     OW 2212   1.615   3.504   4.179
  438SOL    HW1 2213   1.710   3.510   4.210
  438SOL    HW2 2214   1.586   3.594   4.145
  439SOL     OW 2215   6.020   6.205   2.652
  439SOL    HW1 2216   6.053   6.296   2.677
  439SOL    HW2 2217   6.026   6.144   2.732
  440SOL     OW 2218   2.927   2.048   5.962
  440SOL    HW1 2219   2.853   1.981   5.949
  440SOL    HW2 2220   2.912   2.125   5.900
  441SOL     OW 2221   0.225   3.766   2.950
  441SOL    HW1 2222   0.318   3.744   2.982
  441SOL    HW2 2223   0.194   3.695   2.888
  442SOL     OW 2224   4.439   5.915   5.631
  442SOL    HW1 2225   4.417   5.939   5.536
  442SOL    HW2 2226   4.530   5.948   5.654
  443SOL     OW 2227   5.504   4.244   4.636
  443SOL    HW1 2228   5.512   4.180   4.712
  443SOL    HW2 2229   5.594   4.260   4.596
  444SOL     OW 2230   5.179   7.016   6.119
  444SOL    HW1 2231   5.110   0.043   6.067
  444SOL    HW2 2232   5.209   6.938   6.065
  445SOL     OW 2233   1.970   6.071   3.407
  445SOL    HW1 2234   1.908   5.996   3.381
  445SOL    HW2 2235   2.049   6.072   3.345
  446SOL     OW 2236   4.243   5.402   2.686
  446SOL    HW1 2237   4.338   5.372   2.676
  446SOL    HW2 2238   4.231   5.445   2.776
  447SOL     OW 2239   6.446   3.955   5.274
  447SOL    HW1 2240   6.523   4.004   5.315
  447SOL    HW2 2241   6.421   3.878   5.332
  448SOL     OW 2242   2.572   0.635   2.927
  448SOL    HW1 2243   2.619   0.714   2.968
  448SOL    HW2 2244   2.517   0.666   2.849
  449SOL     OW 2245   3.049   1.134   4.074
  449SOL    HW1 2246   3.066   1.184   3.989
  449SOL    HW2 2247   3.053   1.036   4.057
  450SOL     OW 2248   1.825   4.483   3.192
  450SOL    HW1 2249   1.906   4.456   3.245
  450SOL    HW2 2250   1.794   4.573   3.223
  451SOL     OW 2251   1.763   1.946   4.395
  451SOL    HW1 2252   1.765   1.955   4.494
  451SOL    HW2 2253   1.848   1.982   4.356
  452SOL     OW 2254   4.518   6.728   1.272
  452SOL    HW1 2255   4.525   6.817   1.227
  452SOL    HW2 2256   4.589   6.667   1.236
  453SOL     OW 2257   3.698   0.092   6.672
  453SOL    HW1 2258   3.777   0.047   6.714
  453SOL    HW2 2259   3.723   0.186   6.646
  454SOL     OW 2260   6.963   3.489   6.460
  454SOL    HW1 2261   6.918   3.532   6.538
  454SOL    HW2 2262   0.035   3.515   6.459
  455SOL     OW 2263   5.155   2.519   4.780
  455SOL    HW1 2264   5.089   2.578   4.733
  455SOL    HW2 2265   5.106   2.451   4.834
  456SOL     OW 2266   0.997   0.244   4.767
  456SOL    HW1 2267   1.014   0.286   4.857
  456SOL    HW2 2268   0.971   0.148   4.780
  457SOL     OW 2269   1.849   4.141   4.475
  457SOL    HW1 2270   1.812   4.232   4.496
  457SOL    HW2 2271   1.918   4.117   4.543
  458SOL     OW 2272   2.729   6.605   2.900
  458SOL    HW1 2273   2.715   6.601   2.999
  458SOL    HW2 2274   2.719   6.700   2.869
  459SOL     OW 2275   1.752   7.007   5.849
  459SOL    HW1 2276   1.810   6.955   5.787
  459SOL    HW2 2277   1.735   0.072   5.811
  460SOL     OW 2278   1.443   0.049   4.753
  460SOL    HW1 2279   1.506   0.018   4.682
  460SOL    HW2 2280   1.453   0.147   4.767
  461SOL     OW 2281   6.556   5.141   5.868
  461SOL    HW1 2282   6.526   5.189   5.786
  461SOL    HW2 2283   6.519   5.048   5.867
  462SOL     OW 2284   3.953   3.200   6.239
  462SOL    HW1 2285   3.860   3.164   6.246
  462SOL    HW2 2286   3.967   3.270   6.309
  463SOL     OW 2287   0.004   0.200   3.937
  463SOL    HW1 2288   0.018   0.298   3.923
  463SOL    HW2 2289   6.934   0.182   3.959
  464SOL     OW 2290   2.619   0.637   5.916
  464SOL    HW1 2291   2.690   0.567   5.907
  464SOL    HW2 2292   2.594   0.647   6.012
  465SOL     OW 2293   0.541   2.493   7.020
  465SOL    HW1 2294   0.495   2.571   0.037
  465SOL    HW2 2295   0.499   2.408   0.026
  466SOL     OW 2296   2.773   6.629   4.217
  466SOL    HW1 2297   2.831   6.557   4.254
  466SOL    HW2 2298   2.761   6.615   4.119
  467SOL     OW 2299   1.491   1.504   2.102
  467SOL    HW1 2300   1.463   1.595   2.132
  467SOL    HW2 2301   1.410   1.449   2.081
  468SOL     OW 2302   3.294   5.507   4.906
  468SOL    HW1 2303   3.211   5.484   4.956
  468SOL    HW2 2304   3.327   5.426   4.856
  469SOL     OW 2305   2.828   3.661   6.159
  469SOL    HW1 2306   2.779   3.577   6.137
  469SOL    HW2 2307   2.831   3.720   6.078
  470SOL     OW 2308   4.008   6.104   1.392
  470SOL    HW1 2309   4.060   6.025   1.423
  470SOL    HW2 2310   4.030   6.183   1.448
  471SOL     OW 2311   2.351   2.776   3.929
  471SOL    HW1 2312   2.426   2.732   3.979
  471SOL    HW2 2313   2.301   2.838   3.991
  472SOL     OW 2314   5.613   4.463   6.700
  472SOL    HW1 2315   5.672   4.383   6.712
  472SOL    HW2 2316   5.601   4.482   6.603
  473SOL     OW 2317   1.395   1.729   2.222
  473SOL    HW1 2318   1.484   1.772   2.232
  473SOL    HW2 2319   1.327   1.797   2.195
  474SOL     OW 2320   5.288   5.525   4.760
  474SOL    HW1 2321   5.264   5.505   4.855
  474SOL    HW2 2322   5.382   5.496   4.743
  475SOL     OW 2323   6.276   2.677   0.500
  475SOL    HW1 2324   6.253   2.763   0.546
  475SOL    HW2 2325   6.195   2.619   0.494
  476SOL     OW 2326   6.903   4.000   1.735
  476SOL    HW1 2327   6.955   4.082   1.711
  476SOL    HW2 2328   6.938   3.963   1.821
  477SOL     OW 2329   2.768   5.831   3.327
  477SOL    HW1 2330   2.722   5.822   3.415
  477SOL    HW2 2331   2.715   5.890   3.266
  478SOL     OW 2332   4.083   5.755   2.900
  478SOL    HW1 2333   4.136   5.807   2.834
  478SOL    HW2 2334   4.056   5.667   2.859
  479SOL     OW 2335   3.942   3.195   4.976
  479SOL    HW1 2336   3.991   3.196   4.889
  479SOL    HW2 2337   4.001   3.231   5.048
  480SOL     OW 2338   2.960   0.663   1.040
  480SOL    HW1 2339   2.864   0.651   1.067
  480SOL    HW2 2340   2.983   0.594   0.971
  481SOL     OW 2341   0.574   6.883   1.871
  481SOL    HW1 2342   0.560   6.813   1.941
  481SOL    HW2 2343   0.668   6.880   1.839
  482SOL     OW 2344   4.819   5.006   2.017
  482SOL    HW1 2345   4.738   5.061   2.035
  482SOL    HW2 2346   4.794   4.925   1.964
  483SOL     OW 2347   6.815   2.465   2.616
  483SOL    HW1 2348   6.791   2.559   2.594
  483SOL    HW2 2349   6.829   2.457   2.715
  484SOL     OW 2350   1.427   4.073   4.528
  484SOL    HW1 2351   1.467   4.022   4.604
  484SOL    HW2 2352   1.454   4.031   4.441
  485SOL     OW 2353   4.974   4.506   2.490
  485SOL    HW1 2354   4.946   4.492   2.395
  485SOL    HW2 2355   4.941   4.596   2.521
  486SOL     OW 2356   5.865   1.962   0.060
  486SOL    HW1 2357   5.804   1.914   0.122
  486SOL    HW2 2358   5.867   2.059   0.082
  487SOL     OW 2359   0.403   0.520   3.475
  487SOL    HW1 2360   0.477   0.559   3.529
  487SOL    HW2 2361   0.363   0.443   3.524
  488SOL     OW 2362   1.029   0.143   2.272
  488SOL    HW1 2363   0.984   0.208   2.211
  488SOL    HW2 2364   1.052   0.060   2.221
  489SOL     OW 2365   5.592   6.321   5.643
  489SOL    HW1 2366   5.577   6.259   5.720
  489SOL    HW2 2367   5.601   6.415   5.677
  490SOL     OW 2368   2.145   6.120   4.060
  490SOL    HW1 2369   2.242   6.133   4.079
  490SOL    HW2 2370   2.094   6.201   4.091
  491SOL     OW 2371   1.564   3.188   1.276
  491SOL    HW1 2372   1.507   3.148   1.348
  491SOL    HW2 2373   1.616   3.116   1.231
  492SOL     OW 2374   1.344   1.049   5.542
  492SOL    HW1 2375   1.291   0.965   5.550
  492SOL    HW2 2376   1.302   1.120   5.598
  493SOL     OW 2377   3.068   6.770   5.752
  493SOL    HW1 2378   3.052   6.747   5.656
  493SOL    HW2 2379   3.088   6.867   5.760
  494SOL     OW 2380   1.401   6.860   6.491
  494SOL    HW1 2381   1.430   6.934   6.552
  494SOL    HW2 2382   1.342   6.898   6.419
  495SOL     OW 2383   3.593   5.855   3.740
  495SOL    HW1 2384   3.593   5.931   3.805
  495SOL    HW2 2385   3.666   5.869   3.673
  496SOL     OW 2386   6.065   2.768   1.875
  496SOL    HW1 2387   6.076   2.771   1.775
  496SOL    HW2 2388   6.038   2.676   1.903
  497SOL     OW 2389   3.166   1.357   4.801
  497SOL    HW1 2390   3.187   1.263   4.776
  497SOL    HW2 2391   3.115   1.401   4.727
  498SOL     OW 2392   0.869   4.557   2.738
  498SOL    HW1 2393   0.792   4.620   2.752
  498SOL    HW2 2394   0.836   4.472   2.698
  499SOL     OW 2395   1.657   5.500   4.429
  499SOL    HW1 2396   1.679   5.587   4.386
  499SOL    HW2 2397   1.567   5.469   4.398
  500SOL     OW 2398   5.737   2.572   0.022
  500SOL    HW1 2399   5.689   2.573   0.110
  500SOL    HW2 2400   5.826   2.616   0.032
  501SOL     OW 2401   3.845   6.703   0.934
  501SOL    HW1 2402   3.790   6.652   0.869
  501SOL    HW2 2403   3.850   6.653   1.020
  502SOL     OW 2404   0.767   4.701   5.854
  502SOL    HW1 2405   0.719   4.758   5.788
  502SOL    HW2 2406   0.865   4.721   5.851
  503SOL     OW 2407   1.311   4.717   5.888
  503SOL    HW1 2408   1.341   4.714   5.984
  503SOL    HW2 2409   1.385   4.685   5.829
  504SOL     OW 2410   1.157   5.689   2.376
  504SOL    HW1 2411   1.131   5.614   2.437
  504SOL    HW2 2412   1.182   5.653   2.286
  505SOL     OW 2413   4.091   6.306   4.699
  505SOL    HW1 2414   4.044   6.252   4.629
  505SOL    HW2 2415   4.034   6.383   4.726
  506SOL     OW 2416   3.249   5.996   2.493
  506SOL    HW1 2417   3.273   6.081   2.445
  506SOL    HW2 2418   3.246   6.013   2.591
  507SOL     OW 2419   2.980   6.254   3.189
  507SOL    HW1 2420   2.956   6.350   3.172
  507SOL    HW2 2421   3.004   6.243   3.285
  508SOL     OW 2422   0.109   3.390   1.872
  508SOL    HW1 2423   0.082   3.464   1.933
  508SOL    HW2 2424   0.150   3.316   1.926
  509SOL     OW 2425   3.663   1.314   1.334
  509SOL    HW1 2426   3.582   1.368   1.315
  509SOL    HW2 2427   3.730   1.326   1.261
  510SOL     OW 2428   6.710   4.443   6.037
  510SOL    HW1 2429   6.692   4.470   6.132
  510SOL    HW2 2430   6.801   4.403   6.030
  511SOL     OW 2431   0.845   2.097   6.499
  511SOL    HW1 2432   0.750   2.074   6.522
  511SOL    HW2 2433   0.855   2.196   6.492
  512SOL     OW 2434   6.792   2.678   6.788
  512SOL    HW1 2435   6.764   2.637   6.701
  512SOL    HW2 2436   6.806   2.776   6.776
  513SOL     OW 2437   5.215   0.002   3.152
  513SOL    HW1 2438   5.129   7.010   3.200
  513SOL    HW2 2439   5.243   0.097   3.167
  514SOL     OW 2440   6.765   0.713   4.363
  514SOL    HW1 2441   6.827   0.635   4.356
  514SOL    HW2 2442   6.725   0.714   4.455
  515SOL     OW 2443   1.943   0.822   0.480
  515SOL    HW1 2444   1.904   0.852   0.393
  515SOL    HW2 2445   1.998   0.740   0.465
  516SOL     OW 2446   2.832   4.758   1.750
  516SOL    HW1 2447   2.807   4.686   1.815
  516SOL    HW2 2448   2.752   4.782   1.695
  517SOL     OW 2449   3.294   4.828   1.886
  517SOL    HW1 2450   3.371   4.791   1.937
  517SOL    HW2 2451   3.327   4.870   1.802
  518SOL     OW 2452   2.525   2.119   3.568
  518SOL    HW1 2453   2.584   2.197   3.547
  518SOL    HW2 2454   2.509   2.115   3.667
  519SOL     OW 2455   0.279   6.616   3.219
  519SOL    HW1 2456   0.308   6.703   3.178
  519SOL    HW2 2457   0.355   6.578   3.273
  520SOL     OW 2458   6.277   3.769   6.640
  520SOL    HW1 2459   6.199   3.707   6.633
  520SOL    HW2 2460   6.322   3.777   6.551
  521SOL     OW 2461   5.901   5.723   5.459
  521SOL    HW1 2462   5.903   5.651   5.390
  521SOL    HW2 2463   5.963   5.797   5.432
  522SOL     OW 2464   4.033   3.634   3.194
  522SOL    HW1 2465   3.977   3.552   3.200
  522SOL    HW2 2466   4.085   3.645   3.278
  523SOL     OW 2467   0.100   6.012   1.442
  523SOL    HW1 2468   0.038   6.076   1.487
  523SOL    HW2 2469   0.184   6.059   1.415
  524SOL     OW 2470   1.346   2.559   2.808
  524SOL    HW1 2471   1.381   2.639   2.856
  524SOL    HW2 2472   1.396   2.478   2.837
  525SOL     OW 2473   1.964   4.280   5.811
  525SOL    HW1 2474   2.044   4.292   5.870
  525SOL    HW2 2475   1.993   4.247   5.721
  526SOL     OW 2476   3.544   6.714   4.105
  526SOL    HW1 2477   3.565   6.616   4.095
  526SOL    HW2 2478   3.459   6.724   4.156
  527SOL     OW 2479   6.749   2.815   0.764
  527SOL    HW1 2480   6.846   2.819   0.744
  527SOL    HW2 2481   6.711   2.907   0.766
  528SOL     OW 2482   1.738   2.458   3.526
  528SOL    HW1 2483   1.784   2.442   3.439
  528SOL    HW2 2484   1.715   2.555   3.534
  529SOL     OW 2485   1.601   6.611   5.056
  529SOL    HW1 2486   1.548   6.684   5.099
  529SOL    HW2 2487   1.691   6.646   5.029
  530SOL     OW 2488   4.134   3.653   2.958
  530SOL    HW1 2489   4.233   3.664   2.970
  530SOL    HW2 2490   4.089   3.657   3.047
  531SOL     OW 2491   0.788   1.407   2.881
  531SOL    HW1 2492   0.856   1.425   2.952
  531SOL    HW2 2493   0.751   1.494   2.849
  532SOL     OW 2494   0.984   2.796   0.384
  532SOL    HW1 2495   0.996   2.821   0.480
  532SOL    HW2 2496   0.894   2.828   0.352
  533SOL     OW 2497   4.127   6.901   3.522
  533SOL    HW1 2498   4.085   6.907   3.431
  533SOL    HW2 2499   4.059   6.921   3.592
  534SOL     OW 2500   5.836   5.851   3.144
  534SOL    HW1 2501   5.906   5.881   3.078
  534SOL    HW2 2502   5.834   5.751   3.147
  535SOL     OW 2503   6.680   4.245   3.364
  535SOL    HW1 2504   6.755   4.275   3.305
  535SOL    HW2 2505   6.711   4.243   3.459
  536SOL     OW 2506   6.505   4.849   2.737
  536SOL    HW1 2507   6.434   4.808   2.794
  536SOL    HW2 2508   6.494   4.948   2.736
  537SOL     OW 2509   3.133   6.967   4.835
  537SOL    HW1 2510   3.103   6.940   4.927
  537SOL    HW2 2511   3.120   0.040   4.823
  538SOL     OW 2512   0.321   4.556   3.929
  538SOL    HW1 2513   0.338   4.556   4.028
  538SOL    HW2 2514   0.251   4.623   3.907
  539SOL     OW 2515   2.134   4.709   1.901
  539SOL    HW1 2516   2.206   4.673   1.841
  539SOL    HW2 2517   2.049   4.717   1.850
  540SOL     OW 2518   1.186   1.485   2.790
  540SOL    HW1 2519   1.119   1.414   2.766
  540SOL    HW2 2520   1.275   1.443   2.806
  541SOL     OW 2521   5.498   5.503   4.282
  541SOL    HW1 2522   5.436   5.541   4.213
  541SOL    HW2 2523   5.445   5.455   4.351
  542SOL     OW 2524   4.497   6.276   6.672
  542SOL    HW1 2525   4.545   6.268   6.760
  542SOL    HW2 2526   4.508   6.191   6.621
  543SOL     OW 2527   6.104   3.565   4.029
  543SOL    HW1 2528   6.196   3.525   4.031
  543SOL    HW2 2529   6.056   3.540   4.113
  544SOL     OW 2530   1.027   4.661   6.682
  544SOL    HW1 2531   1.017   4.664   6.781
  544SOL    HW2 2532   1.118   4.695   6.656
  545SOL     OW 2533   3.608   0.745   1.087
  545SOL    HW1 2534   3.645   0.683   1.156
  545SOL    HW2 2535   3.509   0.731   1.079
  546SOL     OW 2536   1.323   3.833   0.906
  546SOL    HW1 2537   1.377   3.761   0.951
  546SOL    HW2 2538   1.328   3.822   0.807
  547SOL     OW 2539   3.769   2.038   0.582
  547SOL    HW1 2540   3.688   2.002   0.536
  547SOL    HW2 2541   3.790   1.982   0.662
  548SOL     OW 2542   3.293   3.311   1.842
  548SOL    HW1 2543   3.365   3.275   1.901
  548SOL    HW2 2544   3.218   3.245   1.838
  549SOL     OW 2545   5.274   2.390   1.952
  549SOL    HW1 2546   5.259   2.313   1.890
  549SOL    HW2 2547   5.261   2.476   1.903
  550SOL     OW 2548   1.333   5.538   3.648
  550SOL    HW1 2549   1.366   5.624   3.687
  550SOL    HW2 2550   1.236   5.545   3.628
  551SOL     OW 2551   0.365   0.006   1.782
  551SOL    HW1 2552   0.342   0.074   1.851
  551SOL    HW2 2553   0.456   6.994   1.801
  552SOL     OW 2554   5.985   4.116   6.770
  552SOL    HW1 2555   5.914   4.058   6.729
  552SOL    HW2 2556   5.953   4.210   6.773
  553SOL     OW 2557   2.628   6.723   4.419
  553SOL    HW1 2558   2.671   6.694   4.333
  553SOL    HW2 2559   2.562   6.796   4.400
  554SOL     OW 2560   5.763   0.290   0.086
  554SOL    HW1 2561   5.804   0.278   7.021
  554SOL    HW2 2562   5.681   0.232   0.093
  555SOL     OW 2563   3.397   4.962   4.853
  555SOL    HW1 2564   3.466   4.941   4.783
  555SOL    HW2 2565   3.434   5.030   4.916
  556SOL     OW 2566   5.110   1.726   3.804
  556SOL    HW1 2567   5.065   1.637   3.796
  556SOL    HW2 2568   5.043   1.796   3.829
  557SOL     OW 2569   6.562   5.560   0.511
  557SOL    HW1 2570   6.659   5.582   0.505
  557SOL    HW2 2571   6.528   5.578   0.603
  558SOL     OW 2572   3.067   3.307   3.295
  558SOL    HW1 2573   3.151   3.296   3.349
  558SOL    HW2 2574   3.030   3.217   3.272
  559SOL     OW 2575   0.203   5.692   6.138
  559SOL    HW1 2576   0.199   5.596   6.108
  559SOL    HW2 2577   0.294   5.729   6.118
  560SOL     OW 2578   6.529   3.711   3.686
  560SOL    HW1 2579   6.507   3.678   3.778
  560SOL    HW2 2580   6.452   3.764   3.651
  561SOL     OW 2581   0.513   2.493   1.223
  561SOL    HW1 2582   0.591   2.463   1.279
  561SOL    HW2 2583   0.539   2.492   1.127
  562SOL     OW 2584   4.467   6.861   6.310
  562SOL    HW1 2585   4.540   6.884   6.246
  562SOL    HW2 2586   4.502   6.865   6.404
  563SOL     OW 2587   3.063   0.477   3.853
  563SOL    HW1 2588   3.127   0.400   3.855
  563SOL    HW2 2589   3.037   0.497   3.759
  564SOL     OW 2590   1.176   2.701   0.220
  564SOL    HW1 2591   1.162   2.712   0.122
  564SOL    HW2 2592   1.094   2.730   0.269
  565SOL     OW 2593   3.308   3.842   4.829
  565SOL    HW1 2594   3.213   3.867   4.808
  565SOL    HW2 2595   3.367   3.922   4.815
  566SOL     OW 2596   0.490   4.317   3.388
  566SOL    HW1 2597   0.473   4.415   3.381
  566SOL    HW2 2598   0.410   4.272   3.428
  567SOL     OW 2599   2.751   2.803   1.718
  567SOL    HW1 2600   2.760   2.728   1.652
  567SOL    HW2 2601   2.841   2.835   1.745
  568SOL     OW 2602   4.885   0.189   6.886
  568SOL    HW1 2603   4.856   0.123   6.956
  568SOL    HW2 2604   4.949   0.146   6.823
  569SOL     OW 2605   1.422   2.916   0.000
  569SOL    HW1 2606   1.367   2.913   0.084
  569SOL    HW2 2607   1.372   2.870   6.952
  570SOL     OW 2608   3.804   6.821   6.511
  570SOL    HW1 2609   3.734   6.787   6.574
  570SOL    HW2 2610   3.793   6.920   6.499
  571SOL     OW 2611   2.938   4.854   2.535
  571SOL    HW1 2612   3.012   4.795   2.503
  571SOL    HW2 2613   2.933   4.935   2.477
  572SOL     OW 2614   2.825   4.895   5.616
  572SOL    HW1 2615   2.853   4.988   5.593
  572SOL    HW2 2616   2.824   4.839   5.532
  573SOL     OW 2617   5.363   1.051   5.958
  573SOL    HW1 2618   5.418   1.036   5.875
  573SOL    HW2 2619   5.423   1.079   6.033
  574SOL     OW 2620   3.598   1.536   4.892
  574SOL    HW1 2621   3.511   1.535   4.941
  574SOL    HW2 2622   3.639   1.445   4.895
  575SOL     OW 2623   5.078   3.888   1.586
  575SOL    HW1 2624   5.012   3.947   1.539
  575SOL    HW2 2625   5.077   3.797   1.544
  576SOL     OW 2626   1.497   2.354   2.925
  576SOL    HW1 2627   1.475   2.263   2.960
  576SOL    HW2 2628   1.519   2.415   3.001
  577SOL     OW 2629   1.054   1.282   2.664
  577SOL    HW1 2630   1.114   1.226   2.607
  577SOL    HW2 2631   0.960   1.275   2.631
  578SOL     OW 2632   6.578   5.297   4.582
  578SOL    HW1 2633   6.519   5.278   4.503
  578SOL    HW2 2634   6.666   5.332   4.551
  579SOL     OW 2635   1.887   3.605   4.207
  579SOL    HW1 2636   1.930   3.527   4.161
  579SOL    HW2 2637   1.851   3.669   4.138
  580SOL     OW 2638   4.622   5.157   5.444
  580SOL    HW1 2639   4.606   5.240   5.497
  580SOL    HW2 2640   4.654   5.181   5.353
  581SOL     OW 2641   1.567   2.346   1.674
  581SOL    HW1 2642   1.549   2.331   1.576
  581SOL    HW2 2643   1.571   2.258   1.721
  582SOL     OW 2644   4.842   5.690   2.334
  582SOL    HW1 2645   4.806   5.602   2.363
  582SOL    HW2 2646   4.767   5.753   2.317
  583SOL     OW 2647   2.738   6.062   5.105
  583SOL    HW1 2648   2.710   6.157   5.099
  583SOL    HW2 2649   2.759   6.027   5.014
  584SOL     OW 2650   2.529   5.528   6.665
  584SOL    HW1 2651   2.607   5.589   6.655
  584SOL    HW2 2652   2.506   5.518   6.762
  585SOL     OW 2653   4.600   1.673   6.533
  585SOL    HW1 2654   4.669   1.732   6.575
  585SOL    HW2 2655   4.644   1.592   6.494
  586SOL     OW 2656   3.403   0.171   6.281
  586SOL    HW1 2657   3.425   0.231   6.203
  586SOL    HW2 2658   3.316   0.200   6.321
  587SOL     OW 2659   4.634   2.137   4.010
  587SOL    HW1 2660   4.541   2.110   4.038
  587SOL    HW2 2661   4.697   2.120   4.086
  588SOL     OW 2662   2.704   5.511   1.215
  588SOL    HW1 2663   2.679   5.414   1.216
  588SOL    HW2 2664   2.684   5.550   1.125
  589SOL     OW 2665   3.456   4.555   1.617
  589SOL    HW1 2666   3.390   4.483   1.640
  589SOL    HW2 2667   3.500   4.588   1.700
  590SOL     OW 2668   5.208   2.752   2.200
  590SOL    HW1 2669   5.146   2.715   2.131
  590SOL    HW2 2670   5.300   2.715   2.184
  591SOL     OW 2671   3.436   5.709   3.557
  591SOL    HW1 2672   3.504   5.679   3.491
  591SOL    HW2 2673   3.480   5.766   3.627
  592SOL     OW 2674   3.881   1.071   1.262
  592SOL    HW1 2675   3.929   1.011   1.199
  592SOL    HW2 2676   3.904   1.166   1.242
  593SOL     OW 2677   3.894   2.142   4.478
  593SOL    HW1 2678   3.979   2.138   4.530
  593SOL    HW2 2679   3.817   2.154   4.541
  594SOL     OW 2680   6.601   1.395   0.308
  594SOL    HW1 2681   6.597   1.341   0.225
  594SOL    HW2 2682   6.547   1.478   0.297
  595SOL     OW 2683   5.385   0.935   3.663
  595SOL    HW1 2684   5.418   1.029   3.656
  595SOL    HW2 2685   5.291   0.935   3.697
  596SOL     OW 2686   0.797   5.522   3.588
  596SOL    HW1 2687   0.776   5.556   3.680
  596SOL    HW2 2688   0.712   5.515   3.535
  597SOL     OW 2689   2.091   0.263   0.317
  597SOL    HW1 2690   2.012   0.279   0.377
  597SOL    HW2 2691   2.081   0.175   0.271
  598SOL     OW 2692   3.836   3.753   5.257
  598SOL    HW1 2693   3.921   3.802   5.276
  598SOL    HW2 2694   3.789   3.732   5.343
  599SOL     OW 2695   2.810   6.567   2.098
  599SOL    HW1 2696   2.828   6.495   2.032
  599SOL    HW2 2697   2.717   6.602   2.085
  600SOL     OW 2698   6.217   1.481   6.802
  600SOL    HW1 2699   6.239   1.578   6.791
  600SOL    HW2 2700   6.280   1.426   6.748
  601SOL     OW 2701   1.305   0.485   4.605
  601SOL    HW1 2702   1.257   0.510   4.689
  601SOL    HW2 2703   1.388   0.540   4.596
  602SOL     OW 2704   1.337   1.130   6.236
  602SOL    HW1 2705   1.318   1.227   6.225
  602SOL    HW2 2706   1.348   1.109   6.334
  603SOL     OW 2707   2.894   2.640   5.391
  603SOL    HW1 2708   2.987   2.603   5.388
  603SOL    HW2 2709   2.881   2.691   5.476
  604SOL     OW 2710   1.106   2.029   1.342
  604SOL    HW1 2711   1.085   1.965   1.268
  604SOL    HW2 2712   1.131   1.978   1.424
  605SOL     OW 2713   6.572   5.525   0.103
  605SOL    HW1 2714   6.671   5.540   0.100
  605SOL    HW2 2715   6.533   5.578   0.178
  606SOL     OW 2716   4.987   6.363   6.636
  606SOL    HW1 2717   5.022   6.363   6.542
  606SOL    HW2 2718   4.888   6.374   6.635
  607SOL     OW 2719   5.998   5.285   4.865
  607SOL    HW1 2720   6.044   5.212   4.815
  607SOL    HW2 2721   6.066   5.344   4.908
  608SOL     OW 2722   3.874   6.199   6.736
  608SOL    HW1 2723   3.779   6.176   6.761
  608SOL    HW2 2724   3.893   6.293   6.764
  609SOL     OW 2725   3.669   2.902   2.499
  609SOL    HW1 2726   3.764   2.924   2.476
  609SOL    HW2 2727   3.661   2.886   2.597
  610SOL     OW 2728   5.749   4.101   2.329
  610SOL    HW1 2729   5.813   4.061   2.264
  610SOL    HW2 2730   5.791   4.102   2.420
  611SOL     OW 2731   4.258   6.789   2.238
  611SOL    HW1 2732   4.206   6.832   2.312
  611SOL    HW2 2733   4.286   6.859   2.172
  612SOL     OW 2734   3.836   6.217   4.619
  612SOL    HW1 2735   3.842   6.241   4.716
  612SOL    HW2 2736   3.833   6.117   4.610
  613SOL     OW 2737   4.598   6.211   5.339
  613SOL    HW1 2738   4.616   6.293   5.284
  613SOL    HW2 2739   4.595   6.235   5.436
  614SOL     OW 2740   5.154   5.756   0.109
  614SOL    HW1 2741   5.183   5.661   0.103
  614SOL    HW2 2742   5.061   5.760   0.148
  615SOL     OW 2743   6.978   2.220   2.071
  615SOL    HW1 2744   7.025   2.135   2.045
  615SOL    HW2 2745   6.966   2.278   1.991
  616SOL     OW 2746   0.691   2.999   3.439
  616SOL    HW1 2747   0.740   2.978   3.524
  616SOL    HW2 2748   0.700   2.923   3.375
  617SOL     OW 2749   0.461   4.599   5.907
  617SOL    HW1 2750   0.390   4.644   5.852
  617SOL    HW2 2751   0.509   4.667   5.961
  618SOL     OW 2752   6.518   2.590   0.560
  618SOL    HW1 2753   6.554   2.629   0.644
  618SOL    HW2 2754   6.421   2.614   0.551
  619SOL     OW 2755   4.264   0.992   0.192
  619SOL    HW1 2756   4.313   0.910   0.223
  619SOL    HW2 2757   4.176   0.997   0.240
  620SOL     OW 2758   4.183   2.488   1.309
  620SOL    HW1 2759   4.119   2.565   1.304
  620SOL    HW2 2760   4.136   2.403   1.285
  621SOL     OW 2761   2.071   6.828   0.388
  621SOL    HW1 2762   2.116   6.743   0.415
  621SOL    HW2 2763   2.128   6.877   0.323
  622SOL     OW 2764   1.085   0.280   6.284
  622SOL    HW1 2765   1.079   0.244   6.191
  622SOL    HW2 2766   1.173   0.328   6.296
  623SOL     OW 2767   0.628   5.865   5.414
  623SOL    HW1 2768   0.635   5.786   5.474
  623SOL    HW2 2769   0.703   5.864   5.348
  624SOL     OW 2770   0.228   2.884   0.837
  624SOL    HW1 2771   0.248   2.980   0.853
  624SOL    HW2 2772   0.206   2.839   0.924
  625SOL     OW 2773   1.864   1.733   1.536
  625SOL    HW1 2774   1.901   1.819   1.572
  625SOL    HW2 2775   1.905   1.714   1.447
  626SOL     OW 2776   2.080   6.131   3.658
  626SOL    HW1 2777   2.036   6.091   3.578
  626SOL    HW2 2778   2.125   6.217   3.633
  627SOL     OW 2779   5.102   6.502   0.090
  627SOL    HW1 2780   5.177   6.506   0.024
  627SOL    HW2 2781   5.015   6.495   0.041
  628SOL     OW 2782   6.119   5.850   6.326
  628SOL    HW1 2783   6.048   5.910   6.365
  628SOL    HW2 2784   6.163   5.896   6.250
  629SOL     OW 2785   6.854   6.269   0.032
  629SOL    HW1 2786   6.945   6.280   7.018
  629SOL    HW2 2787   6.861   6.224   0.121
  630SOL     OW 2788   6.800   1.933   2.349
  630SOL    HW1 2789   6.829   1.869   2.278
  630SOL    HW2 2790   6.829   2.025   2.324
  631SOL     OW 2791   3.273   6.645   5.423
  631SOL    HW1 2792   3.305   6.689   5.339
  631SOL    HW2 2793   3.296   6.702   5.501
  632SOL     OW 2794   2.540   0.981   0.722
  632SOL    HW1 2795   2.539   1.015   0.628
  632SOL    HW2 2796   2.622   0.926   0.737
  633SOL     OW 2797   4.702   4.365   0.509
  633SOL    HW1 2798   4.746   4.314   0.583
  633SOL    HW2 2799   4.765   4.435   0.476
  634SOL     OW 2800   4.630   4.870   1.219
  634SOL    HW1 2801   4.640   4.960   1.176
  634SOL    HW2 2802   4.538   4.863   1.259
  635SOL     OW 2803   4.850   5.203   0.846
  635SOL    HW1 2804   4.923   5.135   0.838
  635SOL    HW2 2805   4.829   5.240   0.755
  636SOL     OW 2806   4.428   5.255   6.599
  636SOL    HW1 2807   4.384   5.187   6.541
  636SOL    HW2 2808   4.408   5.234   6.695
  637SOL     OW 2809   6.496   4.126   3.002
  637SOL    HW1 2810   6.502   4.153   2.905
  637SOL    HW2 2811   6.554   4.187   3.056
  638SOL     OW 2812   5.110   2.164   3.183
  638SOL    HW1 2813   5.098   2.247   3.237
  638SOL    HW2 2814   5.135   2.189   3.089
  639SOL     OW 2815   4.980   3.775   2.769
  639SOL    HW1 2816   5.054   3.764   2.703
  639SOL    HW2 2817   4.942   3.686   2.793
  640SOL     OW 2818   0.158   5.079   4.325
  640SOL    HW1 2819   0.110   5.107   4.408
  640SOL    HW2 2820   0.209   5.157   4.289
  641SOL     OW 2821   6.739   6.027   4.750
  641SOL    HW1 2822   6.719   6.100   4.684
  641SOL    HW2 2823   6.729   6.062   4.843
  642SOL     OW 2824   0.486   3.211   4.586
  642SOL    HW1 2825   0.484   3.121   4.631
  642SOL    HW2 2826   0.393   3.246   4.580
  643SOL     OW 2827   5.025   5.371   4.776
  643SOL    HW1 2828   4.956   5.442   4.761
  643SOL    HW2 2829   4.979   5.283   4.794
  644SOL     OW 2830   1.436   5.669   4.361
  644SOL    HW1 2831   1.375   5.632   4.431
  644SOL    HW2 2832   1.431   5.613   4.278
  645SOL     OW 2833   4.669   1.663   4.331
  645SOL    HW1 2834   4.764   1.647   4.358
  645SOL    HW2 2835   4.656   1.760   4.311
  646SOL     OW 2836   2.997   1.422   4.572
  646SOL    HW1 2837   2.989   1.522   4.564
  646SOL    HW2 2838   2.910   1.380   4.550
  647SOL     OW 2839   5.739   2.325   5.095
  647SOL    HW1 2840   5.657   2.322   5.039
  647SOL    HW2 2841   5.755   2.234   5.135
  648SOL     OW 2842   0.178   3.539   3.993
  648SOL    HW1 2843   0.095   3.490   3.966
  648SOL    HW2 2844   0.174   3.632   3.957
  649SOL     OW 2845   3.224   3.737   0.984
  649SOL    HW1 2846   3.246   3.726   1.081
  649SOL    HW2 2847   3.205   3.648   0.943
  650SOL     OW 2848   6.442   4.764   0.987
  650SOL    HW1 2849   6.398   4.839   1.037
  650SOL    HW2 2850   6.394   4.750   0.900
  651SOL     OW 2851   6.572   6.627   5.813
  651SOL    HW1 2852   6.537   6.718   5.790
  651SOL    HW2 2853   6.553   6.564   5.738
  652SOL     OW 2854   5.343   5.955   3.503
  652SOL    HW1 2855   5.323   5.857   3.508
  652SOL    HW2 2856   5.277   5.999   3.443
  653SOL     OW 2857   2.812   5.914   4.888
  653SOL    HW1 2858   2.882   5.963   4.836
  653SOL    HW2 2859   2.743   5.878   4.826
  654SOL     OW 2860   0.228   4.081   6.162
  654SOL    HW1 2861   0.191   4.081   6.255
  654SOL    HW2 2862   0.280   3.997   6.147
  655SOL     OW 2863   0.841   6.137   1.983
  655SOL    HW1 2864   0.829   6.077   1.904
  655SOL    HW2 2865   0.906   6.096   2.047
  656SOL     OW 2866   2.018   5.557   1.961
  656SOL    HW1 2867   2.065   5.644   1.947
  656SOL    HW2 2868   1.973   5.530   1.876
  657SOL     OW 2869   1.532   2.295   1.403
  657SOL    HW1 2870   1.434   2.274   1.399
  657SOL    HW2 2871   1.552   2.369   1.338
  658SOL     OW 2872   2.995   3.640   6.378
  658SOL    HW1 2873   2.942   3.634   6.294
  658SOL    HW2 2874   2.957   3.713   6.436
  659SOL     OW 2875   2.541   6.033   5.873
  659SOL    HW1 2876   2.497   5.946   5.892
  659SOL    HW2 2877   2.516   6.100   5.944
  660SOL     OW 2878   5.381   4.407   2.503
  660SOL    HW1 2879   5.300   4.393   2.559
  660SOL    HW2 2880   5.377   4.497   2.460
  661SOL     OW 2881   4.041   5.337   3.106
  661SOL    HW1 2882   4.106   5.272   3.146
  661SOL    HW2 2883   3.952   5.292   3.096
  662SOL     OW 2884   4.100   0.075   5.576
  662SOL    HW1 2885   4.011   0.121   5.578
  662SOL    HW2 2886   4.093   7.016   5.522
  663SOL     OW 2887   2.511   3.886   6.167
  663SOL    HW1 2888   2.440   3.816   6.165
  663SOL    HW2 2889   2.529   3.917   6.074
  664SOL     OW 2890   6.869   5.281   6.150
  664SOL    HW1 2891   6.821   5.194   6.162
  664SOL    HW2 2892   6.932   5.294   6.228
  665SOL     OW 2893   5.412   5.127   1.855
  665SOL    HW1 2894   5.328   5.143   1.802
  665SOL    HW2 2895   5.393   5.064   1.930
  666SOL     OW 2896   5.092   1.792   2.516
  666SOL    HW1 2897   5.003   1.801   2.559
  666SOL    HW2 2898   5.091   1.837   2.427
  667SOL     OW 2899   1.291   4.838   3.538
  667SOL    HW1 2900   1.220   4.787   3.490
  667SOL    HW2 2901   1.371   4.779   3.551
  668SOL     OW 2902   5.289   6.780   6.013
  668SOL    HW1 2903   5.355   6.753   6.084
  668SOL    HW2 2904   5.328   6.762   5.923
  669SOL     OW 2905   4.172   0.587   2.890
  669SOL    HW1 2906   4.244   0.539   2.841
  669SOL    HW2 2907   4.188   0.581   2.989
  670SOL     OW 2908   3.430   2.524   1.228
  670SOL    HW1 2909   3.419   2.611   1.276
  670SOL    HW2 2910   3.384   2.529   1.139
  671SOL     OW 2911   1.475   6.347   0.407
  671SOL    HW1 2912   1.459   6.266   0.350
  671SOL    HW2 2913   1.493   6.426   0.348
  672SOL     OW 2914   0.754   5.407   2.323
  672SOL    HW1 2915   0.690   5.336   2.350
  672SOL    HW2 2916   0.758   5.477   2.394
  673SOL     OW 2917   6.747   6.573   1.536
  673SOL    HW1 2918   6.705   6.601   1.622
  673SOL    HW2 2919   6.800   6.649   1.498
  674SOL     OW 2920   1.140   1.500   4.851
  674SOL    HW1 2921   1.116   1.553   4.769
  674SOL    HW2 2922   1.237   1.512   4.871
  675SOL     OW 2923   0.857   0.832   3.119
  675SOL    HW1 2924   0.819   0.790   3.202
  675SOL    HW2 2925   0.814   0.921   3.104
  676SOL     OW 2926   3.301   6.249   2.385
  676SOL    HW1 2927   3.260   6.324   2.333
  676SOL    HW2 2928   3.355   6.287   2.460
  677SOL     OW 2929   5.697   2.189   0.706
  677SOL    HW1 2930   5.622   2.145   0.658
  677SOL    HW2 2931   5.755   2.238   0.641
  678SOL     OW 2932   2.184   0.354   5.461
  678SOL    HW1 2933   2.148   0.412   5.387
  678SOL    HW2 2934   2.122   0.277   5.475
  679SOL     OW 2935   4.240   1.948   3.520
  679SOL    HW1 2936   4.256   2.026   3.582
  679SOL    HW2 2937   4.268   1.864   3.566
  680SOL     OW 2938   5.323   5.704   5.868
  680SOL    HW1 2939   5.242   5.662   5.909
  680SOL    HW2 2940   5.406   5.664   5.906
  681SOL     OW 2941   5.503   4.692   1.793
  681SOL    HW1 2942   5.550   4.773   1.829
  681SOL    HW2 2943   5.534   4.674   1.700
  682SOL     OW 2944   0.035   1.258   0.814
  682SOL    HW1 2945   7.015   1.173   0.839
  682SOL    HW2 2946   7.002   1.310   0.752
  683SOL     OW 2947   5.100   3.304   0.454
  683SOL    HW1 2948   5.045   3.327   0.374
  683SOL    HW2 2949   5.162   3.229   0.432
  684SOL     OW 2950   6.926   1.212   0.124
  684SOL    HW1 2951   6.879   1.129   0.154
  684SOL    HW2 2952   6.924   1.280   0.197
  685SOL     OW 2953   3.490   1.180   3.343
  685SOL    HW1 2954   3.512   1.275   3.318
  685SOL    HW2 2955   3.482   1.173   3.443
  686SOL     OW 2956   4.876   3.159   3.968
  686SOL    HW1 2957   4.968   3.147   3.931
  686SOL    HW2 2958   4.830   3.071   3.976
  687SOL     OW 2959   0.150   2.472   4.506
  687SOL    HW1 2960   0.203   2.388   4.488
  687SOL    HW2 2961   0.065   2.448   4.553
  688SOL     OW 2962   0.248   1.401   0.087
  688SOL    HW1 2963   0.306   1.361   0.017
  688SOL    HW2 2964   0.153   1.405   0.054
  689SOL     OW 2965   6.911   4.839   6.615
  689SOL    HW1 2966   7.006   4.809   6.603
  689SOL    HW2 2967   6.891   4.911   6.549
  690SOL     OW 2968   0.689   4.083   2.438
  690SOL    HW1 2969   0.765   4.055   2.496
  690SOL    HW2 2970   0.620   4.131   2.493
  691SOL     OW 2971   2.460   6.974   0.479
  691SOL    HW1 2972   2.527   6.918   0.528
  691SOL    HW2 2973   2.498   0.040   0.463
  692SOL     OW 2974   3.393   0.154   4.059
  692SOL    HW1 2975   3.421   0.213   4.136
  692SOL    HW2 2976   3.327   0.087   4.091
  693SOL     OW 2977   5.394   0.469   3.694
  693SOL    HW1 2978   5.429   0.563   3.691
  693SOL    HW2 2979   5.437   0.420   3.769
  694SOL     OW 2980   4.298   6.215   3.299
  694SOL    HW1 2981   4.307   6.116   3.287
  694SOL    HW2 2982   4.389   6.257   3.298
  695SOL     OW 2983   4.421   6.994   3.830
  695SOL    HW1 2984   4.445   6.900   3.806
  695SOL    HW2 2985   4.381   6.996   3.922
  696SOL     OW 2986   4.829   4.741   2.570
  696SOL    HW1 2987   4.832   4.774   2.665
  696SOL    HW2 2988   4.760   4.793   2.519
  697SOL     OW 2989   1.932   3.801   3.649
  697SOL    HW1 2990   2.023   3.840   3.635
  697SOL    HW2 2991   1.934   3.703   3.627
  698SOL     OW 2992   4.704   6.897   0.931
  698SOL    HW1 2993   4.771   6.968   0.911
  698SOL    HW2 2994   4.616   6.920   0.890
  699SOL     OW 2995   2.028   3.535   6.287
  699SOL    HW1 2996   2.039   3.548   6.189
  699SOL    HW2 2997   2.097   3.471   6.321
  700SOL     OW 2998   2.731   0.368   2.557
  700SOL    HW1 2999   2.633   0.386   2.570
  700SOL    HW2 3000   2.749   0.347   2.461
  701SOL     OW 3001   6.355   3.911   6.080
  701SOL    HW1 3002   6.436   3.946   6.127
  701SOL    HW2 3003   6.376   3.896   5.983
  702SOL     OW 3004   1.495   6.046   4.756
  702SOL    HW1 3005   1.422   6.019   4.818
  702SOL    HW2 3006   1.578   6.067   4.808
  703SOL     OW 3007   3.474   3.738   6.594
  703SOL    HW1 3008   3.463   3.824   6.545
  703SOL    HW2 3009   3.564   3.736   6.639
  704SOL     OW 3010   1.603   2.704   0.535
  704SOL    HW1 3011   1.512   2.702   0.495
  704SOL    HW2 3012   1.608   2.639   0.611
  705SOL     OW 3013   6.022   5.458   2.647
  705SOL    HW1 3014   5.999   5.539   2.593
  705SOL    HW2 3015   6.121   5.447   2.651
  706SOL     OW 3016   4.489   1.983   4.780
  706SOL    HW1 3017   4.537   1.933   4.708
  706SOL    HW2 3018   4.461   2.072   4.746
  707SOL     OW 3019   4.584   5.443   2.095
  707SOL    HW1 3020   4.506   5.403   2.047
  707SOL    HW2 3021   4.668   5.393   2.070
  708SOL     OW 3022   3.661   0.123   2.406
  708SOL    HW1 3023   3.710   0.070   2.337
  708SOL    HW2 3024   3.714   0.125   2.491
  709SOL     OW 3025   0.364   6.075   1.083
  709SOL    HW1 3026   0.360   5.978   1.057
  709SOL    HW2 3027   0.433   6.121   1.026
  710SOL     OW 3028   3.901   2.563   1.153
  710SOL    HW1 3029   3.887   2.490   1.086
  710SOL    HW2 3030   3.842   2.548   1.232
  711SOL     OW 3031   6.988   3.052   5.833
  711SOL    HW1 3032   0.060   3.049   5.809
  711SOL    HW2 3033   6.936   2.996   5.769
  712SOL     OW 3034   4.457   2.537   1.276
  712SOL    HW1 3035   4.363   2.533   1.310
  712SOL    HW2 3036   4.464   2.607   1.205
  713SOL     OW 3037   4.230   2.512   5.754
  713SOL    HW1 3038   4.264   2.586   5.811
  713SOL    HW2 3039   4.299   2.439   5.749
  714SOL     OW 3040   6.944   4.653   3.619
  714SOL    HW1 3041   6.846   4.634   3.617
  714SOL    HW2 3042   6.979   4.657   3.525
  715SOL     OW 3043   5.140   5.994   6.718
  715SOL    HW1 3044   5.150   6.093   6.729
  715SOL    HW2 3045   5.192   5.946   6.789
  716SOL     OW 3046   0.776   0.814   1.993
  716SOL    HW1 3047   0.781   0.843   1.898
  716SOL    HW2 3048   0.801   0.890   2.053
  717SOL     OW 3049   6.618   4.056   4.411
  717SOL    HW1 3050   6.637   3.994   4.487
  717SOL    HW2 3051   6.540   4.021   4.358
  718SOL     OW 3052   4.447   3.019   6.016
  718SOL    HW1 3053   4.375   2.952   5.997
  718SOL    HW2 3054   4.535   2.985   5.984
  719SOL     OW 3055   6.473   1.111   2.890
  719SOL    HW1 3056   6.490   1.209   2.902
  719SOL    HW2 3057   6.377   1.096   2.868
  720SOL     OW 3058   2.173   0.362   6.207
  720SOL    HW1 3059   2.222   0.440   6.245
  720SOL    HW2 3060   2.102   0.333   6.271
  721SOL     OW 3061   2.449   1.872   3.144
  721SOL    HW1 3062   2.365   1.893   3.094
  721SOL    HW2 3063   2.440   1.782   3.188
  722SOL     OW 3064   2.894   0.186   5.575
  722SOL    HW1 3065   2.877   0.091   5.550
  722SOL    HW2 3066   2.888   0.196   5.675
  723SOL     OW 3067   1.480   4.412   3.590
  723SOL    HW1 3068   1.404   4.419   3.655
  723SOL    HW2 3069   1.530   4.499   3.588
  724SOL     OW 3070   1.400   2.532   3.905
  724SOL    HW1 3071   1.443   2.457   3.954
  724SOL    HW2 3072   1.301   2.532   3.925
  725SOL     OW 3073   2.431   5.843   1.633
  725SOL    HW1 3074   2.493   5.891   1.572
  725SOL    HW2 3075   2.338   5.848   1.598
  726SOL     OW 3076   3.516   4.985   1.329
  726SOL    HW1 3077   3.602   4.991   1.379
  726SOL    HW2 3078   3.442   4.962   1.392
  727SOL     OW 3079   6.210   4.887   5.670
  727SOL    HW1 3080   6.258   4.830   5.603
  727SOL    HW2 3081   6.239   4.859   5.762
  728SOL     OW 3082   6.693   3.308   4.159
  728SOL    HW1 3083   6.623   3.309   4.230
  728SOL    HW2 3084   6.690   3.394   4.107
  729SOL     OW 3085   0.409   1.886   1.777
  729SOL    HW1 3086   0.329   1.910   1.833
  729SOL    HW2 3087   0.486   1.944   1.803
  730SOL     OW 3088   5.641   0.141   4.465
  730SOL    HW1 3089   5.718   0.139   4.401
  730SOL    HW2 3090   5.556   0.154   4.413
  731SOL     OW 3091   4.898   4.540   6.268
  731SOL    HW1 3092   4.879   4.547   6.366
  731SOL    HW2 3093   4.996   4.552   6.253
  732SOL     OW 3094   5.563   3.058   1.667
  732SOL    HW1 3095   5.572   3.109   1.753
  732SOL    HW2 3096   5.551   2.960   1.688
  733SOL     OW 3097   5.222   7.013   4.777
  733SOL    HW1 3098   5.277   6.970   4.850
  733SOL    HW2 3099   5.272   7.008   4.691
  734SOL     OW 3100   6.436   5.108   2.810
  734SOL    HW1 3101   6.391   5.109   2.900
  734SOL    HW2 3102   6.401   5.184   2.755
  735SOL     OW 3103   4.571   1.569   0.209
  735SOL    HW1 3104   4.568   1.506   0.286
  735SOL    HW2 3105   4.481   1.573   0.165
  736SOL     OW 3106   6.909   1.749   3.567
  736SOL    HW1 3107   6.914   1.663   3.617
  736SOL    HW2 3108   6.991   1.759   3.510
  737SOL     OW 3109   5.241   1.680   4.868
  737SOL    HW1 3110   5.255   1.752   4.936
  737SOL    HW2 3111   5.221   1.722   4.780
  738SOL     OW 3112   2.413   3.628   1.055
  738SOL    HW1 3113   2.341   3.611   0.988
  738SOL    HW2 3114   2.444   3.541   1.093
  739SOL     OW 3115   4.493   1.068   3.750
  739SOL    HW1 3116   4.436   1.118   3.684
  739SOL    HW2 3117   4.439   0.996   3.793
  740SOL     OW 3118   6.459   1.485   1.489
  740SOL    HW1 3119   6.554   1.477   1.459
  740SOL    HW2 3120   6.436   1.581   1.503
  741SOL     OW 3121   1.668   0.622   3.445
  741SOL    HW1 3122   1.695   0.585   3.534
  741SOL    HW2 3123   1.741   0.609   3.379
  742SOL     OW 3124   3.033   6.703   1.555
  742SOL    HW1 3125   3.068   6.723   1.647
  742SOL    HW2 3126   3.019   6.789   1.505
  743SOL     OW 3127   0.949   4.814   3.581
  743SOL    HW1 3128   0.952   4.716   3.567
  743SOL    HW2 3129   1.013   4.840   3.654
  744SOL     OW 3130   5.542   0.377   1.055
  744SOL    HW1 3131   5.477   0.343   1.123
  744SOL    HW2 3132   5.594   0.453   1.093
  745SOL     OW 3133   1.677   5.180   4.331
  745SOL    HW1 3134   1.615   5.152   4.258
  745SOL    HW2 3135   1.683   5.280   4.333
  746SOL     OW 3136   6.675   4.094   0.058
  746SOL    HW1 3137   6.716   4.185   0.051
  746SOL    HW2 3138   6.729   4.038   0.120
  747SOL     OW 3139   3.673   6.403   4.238
  747SOL    HW1 3140   3.764   6.445   4.234
  747SOL    HW2 3141   3.682   6.304   4.250
  748SOL     OW 3142   4.036   4.816   1.944
  748SOL    HW1 3143   4.079   4.824   1.854
  748SOL    HW2 3144   4.084   4.746   1.997
  749SOL     OW 3145   5.716   3.819   4.679
  749SOL    HW1 3146   5.754   3.795   4.590
  749SOL    HW2 3147   5.773   3.890   4.722
  750SOL     OW 3148   2.460   1.966   1.499
  750SOL    HW1 3149   2.431   1.881   1.543
  750SOL    HW2 3150   2.383   2.006   1.451
  751SOL     OW 3151   4.079   1.467   6.991
  751SOL    HW1 3152   4.045   1.513   6.909
  751SOL    HW2 3153   4.057   1.369   6.986
  752SOL     OW 3154   3.603   1.057   1.869
  752SOL    HW1 3155   3.558   0.998   1.802
  752SOL    HW2 3156   3.541   1.131   1.895
  753SOL     OW 3157   1.536   3.486   5.889
  753SOL    HW1 3158   1.562   3.548   5.815
  753SOL    HW2 3159   1.445   3.449   5.870
  754SOL     OW 3160   4.563   2.110   5.210
  754SOL    HW1 3161   4.619   2.051   5.152
  754SOL    HW2 3162   4.471   2.118   5.170
  755SOL     OW 3163   1.877   4.815   4.990
  755SOL    HW1 3164   1.977   4.818   4.983
  755SOL    HW2 3165   1.851   4.810   5.087
  756SOL     OW 3166   2.901   6.244   6.984
  756SOL    HW1 3167   2.834   6.177   7.015
  756SOL    HW2 3168   2.854   6.326   6.951
  757SOL     OW 3169   0.651   0.293   4.163
  757SOL    HW1 3170   0.696   0.338   4.240
  757SOL    HW2 3171   0.561   0.333   4.149
  758SOL     OW 3172   3.079   0.273   2.846
  758SOL    HW1 3173   2.982   0.273   2.871
  758SOL    HW2 3174   3.112   0.367   2.839
  759SOL     OW 3175   0.485   2.422   1.875
  759SOL    HW1 3176   0.488   2.399   1.778
  759SOL    HW2 3177   0.391   2.444   1.901
  760SOL     OW 3178   6.186   6.843   4.140
  760SOL    HW1 3179   6.216   6.834   4.045
  760SOL    HW2 3180   6.177   6.940   4.163
  761SOL     OW 3181   5.623   4.154   6.145
  761SOL    HW1 3182   5.685   4.111   6.211
  761SOL    HW2 3183   5.581   4.084   6.088
  762SOL     OW 3184   2.558   6.802   4.941
  762SOL    HW1 3185   2.557   6.749   5.026
  762SOL    HW2 3186   2.649   6.840   4.925
  763SOL     OW 3187   4.305   5.348   6.329
  763SOL    HW1 3188   4.239   5.358   6.254
  763SOL    HW2 3189   4.306   5.253   6.360
  764SOL     OW 3190   5.648   0.718   4.994
  764SOL    HW1 3191   5.711   0.765   5.056
  764SOL    HW2 3192   5.681   0.625   4.978
  765SOL     OW 3193   1.319   5.508   1.325
  765SOL    HW1 3194   1.231   5.541   1.359
  765SOL    HW2 3195   1.387   5.582   1.331
  766SOL     OW 3196   2.622   2.479   6.524
  766SOL    HW1 3197   2.650   2.389   6.490
  766SOL    HW2 3198   2.554   2.519   6.462
  767SOL     OW 3199   6.615   6.044   2.705
  767SOL    HW1 3200   6.698   5.990   2.695
  767SOL    HW2 3201   6.630   6.116   2.774
  768SOL     OW 3202   2.777   6.180   2.497
  768SOL    HW1 3203   2.731   6.154   2.581
  768SOL    HW2 3204   2.748   6.119   2.423
  769SOL     OW 3205   2.342   1.317   5.491
  769SOL    HW1 3206   2.393   1.358   5.416
  769SOL    HW2 3207   2.361   1.218   5.494
  770SOL     OW 3208   1.520   4.484   3.156
  770SOL    HW1 3209   1.470   4.436   3.229
  770SOL    HW2 3210   1.618   4.475   3.171
  771SOL     OW 3211   1.069   4.661   2.574
  771SOL    HW1 3212   1.071   4.761   2.566
  771SOL    HW2 3213   0.989   4.632   2.626
  772SOL     OW 3214   5.934   4.828   6.695
  772SOL    HW1 3215   5.982   4.902   6.649
  772SOL    HW2 3216   5.938   4.745   6.639
  773SOL     OW 3217   0.309   4.315   3.782
  773SOL    HW1 3218   0.367   4.396   3.790
  773SOL    HW2 3219   0.338   4.246   3.847
  774SOL     OW 3220   1.777   1.544   1.131
  774SOL    HW1 3221   1.739   1.530   1.223
  774SOL    HW2 3222   1.737   1.625   1.090
  775SOL     OW 3223   1.819   2.334   3.743
  775SOL    HW1 3224   1.919   2.332   3.746
  775SOL    HW2 3225   1.789   2.386   3.663
  776SOL     OW 3226   1.082   0.547   5.439
  776SOL    HW1 3227   1.028   0.619   5.482
  776SOL    HW2 3228   1.135   0.499   5.509
  777SOL     OW 3229   1.895   4.237   1.942
  777SOL    HW1 3230   1.942   4.279   1.864
  777SOL    HW2 3231   1.916   4.139   1.944
  778SOL     OW 3232   2.184   1.393   2.272
  778SOL    HW1 3233   2.278   1.420   2.292
  778SOL    HW2 3234   2.136   1.375   2.357
  779SOL     OW 3235   6.834   2.767   2.605
  779SOL    HW1 3236   6.829   2.847   2.665
  779SOL    HW2 3237   6.773   2.780   2.527
  780SOL     OW 3238   0.670   3.191   4.053
  780SOL    HW1 3239   0.597   3.237   4.102
  780SOL    HW2 3240   0.759   3.226   4.085
  781SOL     OW 3241   5.877   6.773   0.255
  781SOL    HW1 3242   5.938   6.801   0.329
  781SOL    HW2 3243   5.801   6.838   0.248
  782SOL     OW 3244   1.556   3.848   6.376
  782SOL    HW1 3245   1.654   3.828   6.374
  782SOL    HW2 3246   1.505   3.765   6.353
  783SOL     OW 3247   5.101   4.773   1.908
  783SOL    HW1 3248   5.034   4.710   1.947
  783SOL    HW2 3249   5.101   4.765   1.809
  784SOL     OW 3250   4.654   5.253   0.501
  784SOL    HW1 3251   4.577   5.290   0.449
  784SOL    HW2 3252   4.714   5.328   0.529
  785SOL     OW 3253   0.743   2.071   3.544
  785SOL    HW1 3254   0.769   2.160   3.504
  785SOL    HW2 3255   0.721   2.083   3.641
  786SOL     OW 3256   0.794   0.123   3.315
  786SOL    HW1 3257   0.708   0.174   3.307
  786SOL    HW2 3258   0.867   0.186   3.343
  787SOL     OW 3259   1.373   0.233   6.808
  787SOL    HW1 3260   1.313   0.304   6.770
  787SOL    HW2 3261   1.341   0.206   6.898
  788SOL     OW 3262   3.897   1.531   0.538
  788SOL    HW1 3263   3.822   1.492   0.591
  788SOL    HW2 3264   3.980   1.478   0.554
  789SOL     OW 3265   4.154   4.097   1.395
  789SOL    HW1 3266   4.060   4.088   1.364
  789SOL    HW2 3267   4.203   4.012   1.376
  790SOL     OW 3268   1.717   1.556   2.986
  790SOL    HW1 3269   1.634   1.571   2.932
  790SOL    HW2 3270   1.796   1.590   2.935
  791SOL     OW 3271   1.706   5.883   4.566
  791SOL    HW1 3272   1.737   5.828   4.489
  791SOL    HW2 3273   1.612   5.858   4.589
  792SOL     OW 3274   0.485   1.181   1.333
  792SOL    HW1 3275   0.494   1.151   1.238
  792SOL    HW2 3276   0.432   1.266   1.336
  793SOL     OW 3277   4.996   4.849   3.779
  793SOL    HW1 3278   5.086   4.890   3.791
  793SOL    HW2 3279   4.949   4.894   3.703
  794SOL     OW 3280   3.049   4.049   6.232
  794SOL    HW1 3281   2.963   4.101   6.236
  794SOL    HW2 3282   3.029   3.956   6.200
  795SOL     OW 3283   3.795   6.812   4.466
  795SOL    HW1 3284   3.766   6.833   4.560
  795SOL    HW2 3285   3.734   6.743   4.427
  796SOL     OW 3286   0.755   2.655   5.804
  796SOL    HW1 3287   0.691   2.625   5.733
  796SOL    HW2 3288   0.781   2.750   5.788
  797SOL     OW 3289   5.778   2.023   1.217
  797SOL    HW1 3290   5.712   2.097   1.226
  797SOL    HW2 3291   5.813   1.999   1.308
  798SOL     OW 3292   3.371   6.447   2.129
  798SOL    HW1 3293   3.424   6.370   2.164
  798SOL    HW2 3294   3.274   6.433   2.150
  799SOL     OW 3295   0.189   0.464   6.418
  799SOL    HW1 3296   0.175   0.542   6.357
  799SOL    HW2 3297   0.220   0.498   6.507
  800SOL     OW 3298   5.231   1.694   3.077
  800SOL    HW1 3299   5.309   1.703   3.139
  800SOL    HW2 3300   5.240   1.760   3.002
  801SOL     OW 3301   2.226   4.464   4.565
  801SOL    HW1 3302   2.150   4.525   4.543
  801SOL    HW2 3303   2.266   4.429   4.480
  802SOL     OW 3304   2.937   1.411   0.833
  802SOL    HW1 3305   2.897   1.335   0.782
  802SOL    HW2 3306   2.907   1.497   0.792
  803SOL     OW 3307   1.041   0.005   6.059
  803SOL    HW1 3308   1.018   7.016   6.155
  803SOL    HW2 3309   1.020   0.100   6.034
  804SOL     OW 3310   5.784   6.561   0.153
  804SOL    HW1 3311   5.816   6.645   0.197
  804SOL    HW2 3312   5.859   6.519   0.104
  805SOL     OW 3313   3.213   0.793   3.769
  805SOL    HW1 3314   3.134   0.804   3.709
  805SOL    HW2 3315   3.282   0.863   3.747
  806SOL     OW 3316   5.455   1.327   4.405
  806SOL    HW1 3317   5.419   1.244   4.446
  806SOL    HW2 3318   5.380   1.390   4.386
  807SOL     OW 3319   1.036   0.905   5.190
  807SOL    HW1 3320   1.096   0.979   5.220
  807SOL    HW2 3321   0.946   0.943   5.167
  808SOL     OW 3322   4.117   4.189   6.445
  808SOL    HW1 3323   4.082   4.096   6.459
  808SOL    HW2 3324   4.053   4.255   6.484
  809SOL     OW 3325   0.652   4.943   1.472
  809SOL    HW1 3326   0.683   4.997   1.394
  809SOL    HW2 3327   0.560   4.909   1.455
  810SOL     OW 3328   3.406   4.124   1.166
  810SOL    HW1 3329   3.330   4.116   1.232
  810SOL    HW2 3330   3.433   4.032   1.137
  811SOL     OW 3331   5.124   6.051   5.441
  811SOL    HW1 3332   5.211   6.079   5.399
  811SOL    HW2 3333   5.061   6.019   5.370
  812SOL     OW 3334   6.730   0.528   2.501
  812SOL    HW1 3335   6.709   0.434   2.526
  812SOL    HW2 3336   6.650   0.586   2.518
  813SOL     OW 3337   4.218   6.990   4.041
  813SOL    HW1 3338   4.222   6.890   4.045
  813SOL    HW2 3339   4.132   7.021   4.081
  814SOL     OW 3340   5.747   6.122   3.171
  814SOL    HW1 3341   5.692   6.121   3.254
  814SOL    HW2 3342   5.771   6.028   3.145
  815SOL     OW 3343   6.983   3.558   3.576
  815SOL    HW1 3344   6.912   3.624   3.602
  815SOL    HW2 3345   6.940   3.478   3.535
  816SOL     OW 3346   6.224   5.867   0.488
  816SOL    HW1 3347   6.161   5.935   0.451
  816SOL    HW2 3348   6.183   5.776   0.479
  817SOL     OW 3349   1.951   5.693   1.529
  817SOL    HW1 3350   1.896   5.614   1.555
  817SOL    HW2 3351   2.048   5.673   1.547
  818SOL     OW 3352   5.876   2.467   3.067
  818SOL    HW1 3353   5.813   2.394   3.093
  818SOL    HW2 3354   5.860   2.547   3.126
  819SOL     OW 3355   5.896   3.054   2.450
  819SOL    HW1 3356   5.983   3.100   2.469
  819SOL    HW2 3357   5.904   3.000   2.367
  820SOL     OW 3358   3.386   2.134   5.146
  820SOL    HW1 3359   3.303   2.180   5.115
  820SOL    HW2 3360   3.445   2.200   5.194
  821SOL     OW 3361   6.896   4.004   0.528
  821SOL    HW1 3362   6.967   3.992   0.597
  821SOL    HW2 3363   6.935   4.052   0.449
  822SOL     OW 3364   0.599   3.464   3.402
  822SOL    HW1 3365   0.551   3.552   3.399
  822SOL    HW2 3366   0.627   3.445   3.496
  823SOL     OW 3367   5.439   3.810   6.416
  823SOL    HW1 3368   5.482   3.807   6.326
  823SOL    HW2 3369   5.400   3.720   6.437
  824SOL     OW 3370   4.697   1.436   5.975
  824SOL    HW1 3371   4.627   1.386   6.025
  824SOL    HW2 3372   4.781   1.442   6.030
  825SOL     OW 3373   0.120   5.003   1.415
  825SOL    HW1 3374   0.061   4.948   1.355
  825SOL    HW2 3375   0.101   5.100   1.400
  826SOL     OW 3376   3.768   2.126   5.884
  826SOL    HW1 3377   3.713   2.202   5.849
  826SOL    HW2 3378   3.823   2.089   5.809
  827SOL     OW 3379   2.881   4.704   5.394
  827SOL    HW1 3380   2.884   4.633   5.324
  827SOL    HW2 3381   2.882   4.661   5.485
  828SOL     OW 3382   5.195   6.245   6.752
  828SOL    HW1 3383   5.281   6.263   6.702
  828SOL    HW2 3384   5.120   6.291   6.705
  829SOL     OW 3385   3.912   3.732   2.172
  829SOL    HW1 3386   3.837   3.684   2.125
  829SOL    HW2 3387   3.873   3.799   2.235
  830SOL     OW 3388   5.877   5.040   6.343
  830SOL    HW1 3389   5.780   5.022   6.357
  830SOL    HW2 3390   5.895   5.138   6.354
  831SOL     OW 3391   6.063   0.527   6.726
  831SOL    HW1 3392   5.971   0.565   6.719
  831SOL    HW2 3393   6.065   0.458   6.798
  832SOL     OW 3394   3.994   1.116   2.811
  832SOL    HW1 3395   4.042   1.201   2.834
  832SOL    HW2 3396   4.054   1.056   2.759
  833SOL     OW 3397   1.405   3.336   6.603
  833SOL    HW1 3398   1.429   3.312   6.697
  833SOL    HW2 3399   1.379   3.432   6.598
  834SOL     OW 3400   4.381   4.105   0.930
  834SOL    HW1 3401   4.400   4.011   0.958
  834SOL    HW2 3402   4.440   4.130   0.853
  835SOL     OW 3403   3.139   0.056   5.438
  835SOL    HW1 3404   3.221   0.036   5.385
  835SOL    HW2 3405   3.140   0.002   5.522
  836SOL     OW 3406   3.644   7.013   5.179
  836SOL    HW1 3407   3.619   0.012   5.085
  836SOL    HW2 3408   3.676   6.919   5.181
  837SOL     OW 3409   6.183   0.054   1.051
  837SOL    HW1 3410   6.213   6.987   1.074
  837SOL    HW2 3411   6.143   0.054   0.960
  838SOL     OW 3412   1.965   1.070   4.265
  838SOL    HW1 3413   1.994   1.133   4.192
  838SOL    HW2 3414   2.036   1.065   4.335
  839SOL     OW 3415   1.330   1.750   1.855
  839SOL    HW1 3416   1.285   1.666   1.884
  839SOL    HW2 3417   1.320   1.761   1.756
  840SOL     OW 3418   6.468   5.732   6.945
  840SOL    HW1 3419   6.383   5.778   6.971
  840SOL    HW2 3420   6.497   5.672   7.019
  841SOL     OW 3421   3.159   5.603   6.361
  841SOL    HW1 3422   3.240   5.544   6.362
  841SOL    HW2 3423   3.136   5.626   6.266
  842SOL     OW 3424   3.481   0.327   4.551
  842SOL    HW1 3425   3.404   0.380   4.585
  842SOL    HW2 3426   3.566   0.379   4.564
  843SOL     OW 3427   1.307   1.334   1.098
  843SOL    HW1 3428   1.365   1.312   1.176
  843SOL    HW2 3429   1.211   1.334   1.126
  844SOL     OW 3430   5.681   0.033   0.582
  844SOL    HW1 3431   5.617   0.077   0.519
  844SOL    HW2 3432   5.649   6.966   0.602
  845SOL     OW 3433   4.726   4.209   4.240
  845SOL    HW1 3434   4.660   4.283   4.227
  845SOL    HW2 3435   4.718   4.144   4.165
  846SOL     OW 3436   2.146   1.439   5.965
  846SOL    HW1 3437   2.212   1.452   5.891
  846SOL    HW2 3438   2.151   1.517   6.028
  847SOL     OW 3439   1.723   3.600   0.975
  847SOL    HW1 3440   1.710   3.633   1.069
  847SOL    HW2 3441   1.634   3.587   0.931
  848SOL     OW 3442   6.929   0.091   5.884
  848SOL    HW1 3443   6.952   0.178   5.841
  848SOL    HW2 3444   6.931   0.101   5.984
  849SOL     OW 3445   6.439   3.910   5.811
  849SOL    HW1 3446   6.453   3.976   5.737
  849SOL    HW2 3447   6.415   3.821   5.773
  850SOL     OW 3448   4.622   1.420   4.151
  850SOL    HW1 3449   4.605   1.513   4.183
  850SOL    HW2 3450   4.549   1.359   4.183
  851SOL     OW 3451   6.688   2.912   2.010
  851SOL    HW1 3452   6.600   2.918   2.059
  851SOL    HW2 3453   6.703   2.995   1.958
  852SOL     OW 3454   1.233   3.686   0.174
  852SOL    HW1 3455   1.270   3.725   0.258
  852SOL    HW2 3456   1.186   3.758   0.122
  853SOL     OW 3457   0.707   4.715   0.932
  853SOL    HW1 3458   0.697   4.679   1.025
  853SOL    HW2 3459   0.796   4.689   0.895
  854SOL     OW 3460   5.640   5.307   0.696
  854SOL    HW1 3461   5.677   5.320   0.604
  854SOL    HW2 3462   5.691   5.234   0.742
  855SOL     OW 3463   0.093   6.794   1.547
  855SOL    HW1 3464   0.146   6.878   1.546
  855SOL    HW2 3465   0.049   6.783   1.636
  856SOL     OW 3466   1.346   2.131   6.354
  856SOL    HW1 3467   1.263   2.134   6.410
  856SOL    HW2 3468   1.423   2.167   6.407
  857SOL     OW 3469   6.321   5.332   1.631
  857SOL    HW1 3470   6.346   5.399   1.561
  857SOL    HW2 3471   6.396   5.323   1.696
  858SOL     OW 3472   3.316   3.690   1.246
  858SOL    HW1 3473   3.281   3.620   1.309
  858SOL    HW2 3474   3.413   3.672   1.229
  859SOL     OW 3475   5.663   0.085   4.716
  859SOL    HW1 3476   5.619   7.023   4.734
  859SOL    HW2 3477   5.660   0.104   4.618
  860SOL     OW 3478   6.487   2.570   0.860
  860SOL    HW1 3479   6.478   2.666   0.883
  860SOL    HW2 3480   6.400   2.536   0.825
  861SOL     OW 3481   2.741   5.505   3.687
  861SOL    HW1 3482   2.662   5.443   3.684
  861SOL    HW2 3483   2.717   5.587   3.739
  862SOL     OW 3484   0.987   3.601   4.305
  862SOL    HW1 3485   0.924   3.597   4.382
  862SOL    HW2 3486   0.942   3.563   4.224
  863SOL     OW 3487   5.909   1.403   0.225
  863SOL    HW1 3488   5.987   1.342   0.240
  863SOL    HW2 3489   5.841   1.358   0.168
  864SOL     OW 3490   4.187   5.621   3.985
  864SOL    HW1 3491   4.285   5.638   3.986
  864SOL    HW2 3492   4.165   5.557   3.911
  865SOL     OW 3493   1.662   6.373   5.762
  865SOL    HW1 3494   1.656   6.298   5.696
  865SOL    HW2 3495   1.573   6.417   5.770
  866SOL     OW 3496   2.138   1.672   1.405
  866SOL    HW1 3497   2.234   1.677   1.378
  866SOL    HW2 3498   2.130   1.625   1.493
  867SOL     OW 3499   5.382   3.913   0.344
  867SOL    HW1 3500   5.342   4.003   0.360
  867SOL    HW2 3501   5.312   3.843   0.354
  868SOL     OW 3502   6.270   1.430   0.482
  868SOL    HW1 3503   6.170   1.437   0.479
  868SOL    HW2 3504   6.310   1.510   0.437
  869SOL     OW 3505   0.538   4.195   2.631
  869SOL    HW1 3506   0.553   4.127   2.703
  869SOL    HW2 3507   0.442   4.223   2.631
  870SOL     OW 3508   4.017   3.623   0.159
  870SOL    HW1 3509   4.034   3.714   0.196
  870SOL    HW2 3510   4.078   3.606   0.081
  871SOL     OW 3511   5.197   2.190   2.674
  871SOL    HW1 3512   5.159   2.117   2.617
  871SOL    HW2 3513   5.208   2.273   2.619
  872SOL     OW 3514   5.275   3.577   3.826
  872SOL    HW1 3515   5.267   3.551   3.922
  872SOL    HW2 3516   5.226   3.663   3.810
  873SOL     OW 3517   6.200   6.355   4.822
  873SOL    HW1 3518   6.274   6.289   4.813
  873SOL    HW2 3519   6.112   6.306   4.820
  874SOL     OW 3520   0.823   3.686   5.633
  874SOL    HW1 3521   0.859   3.748   5.563
  874SOL    HW2 3522   0.774   3.611   5.589
  875SOL     OW 3523   5.351   4.059   0.816
  875SOL    HW1 3524   5.256   4.026   0.813
  875SOL    HW2 3525   5.371   4.111   0.734
  876SOL     OW 3526   1.210   4.325   1.996
  876SOL    HW1 3527   1.209   4.312   2.095
  876SOL    HW2 3528   1.253   4.412   1.974
  877SOL     OW 3529   4.012   4.686   5.880
  877SOL    HW1 3530   3.916   4.657   5.873
  877SOL    HW2 3531   4.025   4.736   5.965
  878SOL     OW 3532   3.573   5.638   5.039
  878SOL    HW1 3533   3.494   5.583   5.066
  878SOL    HW2 3534   3.647   5.579   5.008
  879SOL     OW 3535   3.681   1.910   1.010
  879SOL    HW1 3536   3.692   2.007   1.032
  879SOL    HW2 3537   3.694   1.897   0.912
  880SOL     OW 3538   2.955   3.620   4.096
  880SOL    HW1 3539   2.870   3.644   4.143
  880SOL    HW2 3540   2.972   3.522   4.106
  881SOL     OW 3541   5.997   3.591   5.646
  881SOL    HW1 3542   5.950   3.564   5.730
  881SOL    HW2 3543   5.930   3.609   5.574
  882SOL     OW 3544   1.066   2.656   4.467
  882SOL    HW1 3545   1.143   2.592   4.465
  882SOL    HW2 3546   1.092   2.742   4.423
  883SOL     OW 3547   3.601   0.587   0.573
  883SOL    HW1 3548   3.523   0.630   0.617
  883SOL    HW2 3549   3.607   0.491   0.602
  884SOL     OW 3550   6.847   4.484   0.404
  884SOL    HW1 3551   6.869   4.540   0.324
  884SOL    HW2 3552   6.929   4.474   0.461
  885SOL     OW 3553   4.348   6.462   5.664
  885SOL    HW1 3554   4.340   6.368   5.632
  885SOL    HW2 3555   4.297   6.473   5.750
  886SOL     OW 3556   4.344   0.999   1.235
  886SOL    HW1 3557   4.355   1.051   1.150
  886SOL    HW2 3558   4.409   1.034   1.303
  887SOL     OW 3559   3.776   5.590   3.538
  887SOL    HW1 3560   3.822   5.503   3.554
  887SOL    HW2 3561   3.705   5.579   3.469
  888SOL     OW 3562   0.280   6.829   2.621
  888SOL    HW1 3563   0.280   6.916   2.671
  888SOL    HW2 3564   0.203   6.773   2.651
  889SOL     OW 3565   6.916   1.179   6.147
  889SOL    HW1 3566   6.903   1.172   6.245
  889SOL    HW2 3567   7.013   1.164   6.125
  890SOL     OW 3568   2.263   4.902   2.036
  890SOL    HW1 3569   2.198   4.917   2.109
  890SOL    HW2 3570   2.222   4.844   1.965
  891SOL     OW 3571   6.884   3.694   0.467
  891SOL    HW1 3572   6.927   3.780   0.495
  891SOL    HW2 3573   6.823   3.711   0.390
  892SOL     OW 3574   3.527   3.782   5.289
  892SOL    HW1 3575   3.475   3.847   5.235
  892SOL    HW2 3576   3.625   3.797   5.275
  893SOL     OW 3577   1.439   0.357   2.994
  893SOL    HW1 3578   1.380   0.301   2.936
  893SOL    HW2 3579   1.436   0.322   3.088
  894SOL     OW 3580   1.017   2.796   2.896
  894SOL    HW1 3581   0.952   2.736   2.944
  894SOL    HW2 3582   1.087   2.827   2.959
  895SOL     OW 3583   1.513   5.107   3.660
  895SOL    HW1 3584   1.527   5.195   3.705
  895SOL    HW2 3585   1.428   5.109   3.607
  896SOL     OW 3586   6.218   5.830   1.398
  896SOL    HW1 3587   6.315   5.828   1.424
  896SOL    HW2 3588   6.178   5.740   1.415
  897SOL     OW 3589   4.299   0.116   6.661
  897SOL    HW1 3590   4.320   0.082   6.569
  897SOL    HW2 3591   4.245   0.048   6.711
  898SOL     OW 3592   3.678   5.759   2.223
  898SOL    HW1 3593   3.719   5.843   2.186
  898SOL    HW2 3594   3.588   5.780   2.261
  899SOL     OW 3595   0.252   5.715   0.265
  899SOL    HW1 3596   0.316   5.783   0.230
  899SOL    HW2 3597   0.292   5.669   0.344
  900SOL     OW 3598   4.643   5.997   6.668
  900SOL    HW1 3599   4.601   6.031   6.584
  900SOL    HW2 3600   4.713   5.930   6.646
  901SOL     OW 3601   0.915   0.766   4.595
  901SOL    HW1 3602   0.979   0.749   4.670
  901SOL    HW2 3603   0.963   0.760   4.508
  902SOL     OW 3604   1.318   2.519   1.178
  902SOL    HW1 3605   1.259   2.600   1.180
  902SOL    HW2 3606   1.286   2.457   1.107
  903SOL     OW 3607   7.009   3.221   6.433
  903SOL    HW1 3608   6.911   3.199   6.428
  903SOL    HW2 3609   7.019   3.317   6.459
  904SOL     OW 3610   2.333   2.824   2.638
  904SOL    HW1 3611   2.432   2.818   2.621
  904SOL    HW2 3612   2.307   2.758   2.708
  905SOL     OW 3613   5.171   4.561   6.231
  905SOL    HW1 3614   5.212   4.539   6.143
  905SOL    HW2 3615   5.241   4.597   6.293
  906SOL     OW 3616   1.038   2.782   6.397
  906SOL    HW1 3617   1.093   2.862   6.423
  906SOL    HW2 3618   1.021   2.783   6.299
  907SOL     OW 3619   5.250   2.619   1.813
  907SOL    HW1 3620   5.256   2.711   1.852
  907SOL    HW2 3621   5.182   2.618   1.740
  908SOL     OW 3622   2.315   4.692   2.903
  908SOL    HW1 3623   2.311   4.790   2.885
  908SOL    HW2 3624   2.238   4.666   2.961
  909SOL     OW 3625   3.402   5.878   2.239
  909SOL    HW1 3626   3.406   5.939   2.160
  909SOL    HW2 3627   3.366   5.928   2.317
  910SOL     OW 3628   3.130   0.852   0.928
  910SOL    HW1 3629   3.090   0.927   0.876
  910SOL    HW2 3630   3.058   0.793   0.964
  911SOL     OW 3631   0.482   5.865   6.932
  911SOL    HW1 3632   0.580   5.882   6.944
  911SOL    HW2 3633   0.468   5.774   6.894
  912SOL     OW 3634   4.669   0.316   3.359
  912SOL    HW1 3635   4.726   0.287   3.282
  912SOL    HW2 3636   4.720   0.307   3.444
  913SOL     OW 3637   2.266   0.915   3.758
  913SOL    HW1 3638   2.205   0.896   3.835
  913SOL    HW2 3639   2.314   0.831   3.733
  914SOL     OW 3640   2.657   6.066   5.368
  914SOL    HW1 3641   2.696   6.072   5.277
  914SOL    HW2 3642   2.687   6.145   5.423
  915SOL     OW 3643   0.175   3.258   0.596
  915SOL    HW1 3644   0.187   3.276   0.498
  915SOL    HW2 3645   0.091   3.206   0.610
  916SOL     OW 3646   2.156   3.127   2.678
  916SOL    HW1 3647   2.157   3.214   2.630
  916SOL    HW2 3648   2.249   3.089   2.681
  917SOL     OW 3649   6.263   0.741   2.582
  917SOL    HW1 3650   6.254   0.840   2.569
  917SOL    HW2 3651   6.177   0.696   2.560
  918SOL     OW 3652   3.158   0.262   0.848
  918SOL    HW1 3653   3.244   0.260   0.900
  918SOL    HW2 3654   3.092   0.201   0.890
  919SOL     OW 3655   6.683   6.652   3.357
  919SOL    HW1 3656   6.692   6.562   3.400
  919SOL    HW2 3657   6.596   6.693   3.382
  920SOL     OW 3658   2.445   4.859   2.267
  920SOL    HW1 3659   2.523   4.797   2.265
  920SOL    HW2 3660   2.397   4.854   2.179
  921SOL     OW 3661   4.259   5.055   2.899
  921SOL    HW1 3662   4.354   5.060   2.869
  921SOL    HW2 3663   4.200   5.103   2.833
  922SOL     OW 3664   3.201   3.694   5.212
  922SOL    HW1 3665   3.251   3.623   5.262
  922SOL    HW2 3666   3.263   3.770   5.192
  923SOL     OW 3667   2.702   4.219   5.657
  923SOL    HW1 3668   2.631   4.233   5.726
  923SOL    HW2 3669   2.688   4.283   5.581
  924SOL     OW 3670   5.939   2.785   2.995
  924SOL    HW1 3671   5.865   2.774   3.061
  924SOL    HW2 3672   6.001   2.707   3.001
  925SOL     OW 3673   7.022   2.055   6.812
  925SOL    HW1 3674   7.004   2.089   6.720
  925SOL    HW2 3675   7.012   1.956   6.813
  926SOL     OW 3676   6.245   1.322   0.978
  926SOL    HW1 3677   6.344   1.328   0.963
  926SOL    HW2 3678   6.218   1.390   1.046
  927SOL     OW 3679   5.841   4.145   2.912
  927SOL    HW1 3680   5.831   4.065   2.852
  927SOL    HW2 3681   5.859   4.114   3.006
  928SOL     OW 3682   1.210   6.407   0.164
  928SOL    HW1 3683   1.214   6.478   0.094
  928SOL    HW2 3684   1.271   6.332   0.138
  929SOL     OW 3685   0.346   0.223   1.028
  929SOL    HW1 3686   0.251   0.233   0.997
  929SOL    HW2 3687   0.351   0.242   1.126
  930SOL     OW 3688   5.763   5.969   3.844
  930SOL    HW1 3689   5.761   5.985   3.943
  930SOL    HW2 3690   5.847   5.920   3.821
  931SOL     OW 3691   5.744   1.727   4.446
  931SOL    HW1 3692   5.720   1.633   4.472
  931SOL    HW2 3693   5.748   1.785   4.527
  932SOL     OW 3694   3.148   0.017   3.499
  932SOL    HW1 3695   3.231   0.059   3.461
  932SOL    HW2 3696   3.136   0.048   3.594
  933SOL     OW 3697   1.792   5.710   3.558
  933SOL    HW1 3698   1.891   5.703   3.571
  933SOL    HW2 3699   1.773   5.775   3.485
  934SOL     OW 3700   1.574   0.270   6.092
  934SOL    HW1 3701   1.564   0.275   5.993
  934SOL    HW2 3702   1.487   0.295   6.135
  935SOL     OW 3703   4.752   4.028   4.038
  935SOL    HW1 3704   4.840   4.028   3.990
  935SOL    HW2 3705   4.742   3.944   4.090
  936SOL     OW 3706   0.900   0.562   6.192
  936SOL    HW1 3707   0.873   0.480   6.142
  936SOL    HW2 3708   0.861   0.643   6.147
  937SOL     OW 3709   5.674   1.577   5.326
  937SOL    HW1 3710   5.618   1.512   5.378
  937SOL    HW2 3711   5.628   1.665   5.323
  938SOL     OW 3712   6.605   5.452   6.283
  938SOL    HW1 3713   6.678   5.504   6.239
  938SOL    HW2 3714   6.632   5.429   6.376
  939SOL     OW 3715   6.426   6.741   5.205
  939SOL    HW1 3716   6.520   6.774   5.198
  939SOL    HW2 3717   6.426   6.641   5.207
  940SOL     OW 3718   1.324   3.464   1.626
  940SOL    HW1 3719   1.334   3.491   1.531
  940SOL    HW2 3720   1.254   3.520   1.670
  941SOL     OW 3721   5.065   1.214   6.135
  941SOL    HW1 3722   5.088   1.266   6.217
  941SOL    HW2 3723   5.010   1.134   6.160
  942SOL     OW 3724   5.063   6.620   2.886
  942SOL    HW1 3725   4.981   6.627   2.828
  942SOL    HW2 3726   5.141   6.592   2.831
  943SOL     OW 3727   2.120   3.874   4.009
  943SOL    HW1 3728   2.022   3.876   4.028
  943SOL    HW2 3729   2.140   3.800   3.946
  944SOL     OW 3730   0.310   4.979   6.394
  944SOL    HW1 3731   0.352   4.905   6.341
  944SOL    HW2 3732   0.211   4.976   6.384
  945SOL     OW 3733   6.678   4.090   5.444
  945SOL    HW1 3734   6.753   4.049   5.393
  945SOL    HW2 3735   6.712   4.171   5.493
  946SOL     OW 3736   4.877   3.088   5.880
  946SOL    HW1 3737   4.856   3.150   5.956
  946SOL    HW2 3738   4.804   3.093   5.812
  947SOL     OW 3739   3.899   3.000   3.796
  947SOL    HW1 3740   3.973   3.011   3.730
  947SOL    HW2 3741   3.866   3.091   3.823
  948SOL     OW 3742   3.494   0.723   2.959
  948SOL    HW1 3743   3.447   0.810   2.976
  948SOL    HW2 3744   3.427   0.648   2.962
  949SOL     OW 3745   0.956   6.123   6.429
  949SOL    HW1 3746   0.933   6.162   6.340
  949SOL    HW2 3747   1.001   6.034   6.415
  950SOL     OW 3748   5.227   5.580   1.769
  950SOL    HW1 3749   5.327   5.584   1.773
  950SOL    HW2 3750   5.189   5.651   1.828
  951SOL     OW 3751   2.095   0.925   4.006
  951SOL    HW1 3752   2.091   0.848   4.070
  951SOL    HW2 3753   2.147   1.000   4.047
  952SOL     OW 3754   4.573   1.791   2.994
  952SOL    HW1 3755   4.508   1.743   3.053
  952SOL    HW2 3756   4.653   1.818   3.048
  953SOL     OW 3757   5.451   4.792   4.082
  953SOL    HW1 3758   5.491   4.707   4.050
  953SOL    HW2 3759   5.376   4.819   4.022
  954SOL     OW 3760   3.763   5.717   1.566
  954SOL    HW1 3761   3.852   5.758   1.586
  954SOL    HW2 3762   3.753   5.632   1.617
  955SOL     OW 3763   0.474   3.384   2.345
  955SOL    HW1 3764   0.459   3.385   2.246
  955SOL    HW2 3765   0.555   3.330   2.366
  956SOL     OW 3766   6.570   1.043   2.612
  956SOL    HW1 3767   6.525   1.055   2.700
  956SOL    HW2 3768   6.573   0.945   2.590
  957SOL     OW 3769   6.243   3.542   4.587
  957SOL    HW1 3770   6.148   3.545   4.556
  957SOL    HW2 3771   6.256   3.462   4.645
  958SOL     OW 3772   3.934   1.891   1.889
  958SOL    HW1 3773   3.914   1.904   1.986
  958SOL    HW2 3774   3.943   1.981   1.845
  959SOL     OW 3775   4.599   6.009   2.803
  959SOL    HW1 3776   4.584   5.952   2.884
  959SOL    HW2 3777   4.602   5.951   2.722
  960SOL     OW 3778   0.665   6.604   2.075
  960SOL    HW1 3779   0.596   6.648   2.133
  960SOL    HW2 3780   0.683   6.512   2.110
  961SOL     OW 3781   4.530   6.358   3.279
  961SOL    HW1 3782   4.576   6.427   3.334
  961SOL    HW2 3783   4.597   6.303   3.230
  962SOL     OW 3784   0.303   1.548   5.457
  962SOL    HW1 3785   0.273   1.479   5.523
  962SOL    HW2 3786   0.266   1.527   5.367
  963SOL     OW 3787   5.978   1.646   6.495
  963SOL    HW1 3788   6.018   1.707   6.564
  963SOL    HW2 3789   5.954   1.699   6.414
  964SOL     OW 3790   5.543   4.497   6.962
  964SOL    HW1 3791   5.555   4.592   6.990
  964SOL    HW2 3792   5.581   4.484   6.871
  965SOL     OW 3793   5.238   2.219   1.721
  965SOL    HW1 3794   5.158   2.168   1.691
  965SOL    HW2 3795   5.244   2.305   1.670
  966SOL     OW 3796   5.750   2.339   2.635
  966SOL    HW1 3797   5.679   2.308   2.572
  966SOL    HW2 3798   5.707   2.371   2.720
  967SOL     OW 3799   2.400   4.683   0.806
  967SOL    HW1 3800   2.375   4.590   0.782
  967SOL    HW2 3801   2.336   4.719   0.874
  968SOL     OW 3802   3.511   0.395   2.011
  968SOL    HW1 3803   3.485   0.465   2.077
  968SOL    HW2 3804   3.444   0.321   2.012
  969SOL     OW 3805   2.479   5.818   6.061
  969SOL    HW1 3806   2.480   5.835   6.159
  969SOL    HW2 3807   2.504   5.724   6.042
  970SOL     OW 3808   5.378   1.141   6.418
  970SOL    HW1 3809   5.304   1.190   6.372
  970SOL    HW2 3810   5.394   1.182   6.508
  971SOL     OW 3811   6.950   2.487   2.883
  971SOL    HW1 3812   7.017   2.559   2.861
  971SOL    HW2 3813   6.998   2.400   2.891
  972SOL     OW 3814   5.640   2.918   1.958
  972SOL    HW1 3815   5.661   2.845   1.894
  972SOL    HW2 3816   5.544   2.911   1.988
  973SOL     OW 3817   0.011   5.255   6.589
  973SOL    HW1 3818   7.008   5.221   6.679
  973SOL    HW2 3819   6.998   5.197   6.517
  974SOL     OW 3820   5.473   5.891   2.177
  974SOL    HW1 3821   5.476   5.933   2.268
  974SOL    HW2 3822   5.438   5.957   2.111
  975SOL     OW 3823   1.743   0.258   6.514
  975SOL    HW1 3824   1.773   0.188   6.450
  975SOL    HW2 3825   1.643   0.269   6.507
  976SOL     OW 3826   6.954   3.537   2.411
  976SOL    HW1 3827   0.004   3.473   2.401
  976SOL    HW2 3828   6.953   3.575   2.503
  977SOL     OW 3829   0.819   6.910   2.102
  977SOL    HW1 3830   0.903   6.940   2.058
  977SOL    HW2 3831   0.791   6.822   2.065
  978SOL     OW 3832   5.023   2.995   5.671
  978SOL    HW1 3833   5.086   2.934   5.719
  978SOL    HW2 3834   4.957   3.033   5.736
  979SOL     OW 3835   0.362   2.038   0.338
  979SOL    HW1 3836   0.384   2.119   0.393
  979SOL    HW2 3837   0.366   1.956   0.395
  980SOL     OW 3838   4.533   2.590   3.472
  980SOL    HW1 3839   4.476   2.517   3.511
  980SOL    HW2 3840   4.573   2.644   3.546
  981SOL     OW 3841   0.374   1.729   4.703
  981SOL    HW1 3842   0.359   1.630   4.694
  981SOL    HW2 3843   0.438   1.760   4.633
  982SOL     OW 3844   2.150   1.766   5.091
  982SOL    HW1 3845   2.099   1.753   5.006
  982SOL    HW2 3846   2.107   1.837   5.147
  983SOL     OW 3847   6.226   3.196   4.067
  983SOL    HW1 3848   6.126   3.188   4.060
  983SOL    HW2 3849   6.267   3.104   4.070
  984SOL     OW 3850   2.653   2.063   4.831
  984SOL    HW1 3851   2.698   2.118   4.901
  984SOL    HW2 3852   2.554   2.069   4.842
  985SOL     OW 3853   6.094   3.369   5.018
  985SOL    HW1 3854   6.041   3.453   5.026
  985SOL    HW2 3855   6.153   3.359   5.099
  986SOL     OW 3856   5.925   4.978   1.044
  986SOL    HW1 3857   5.890   4.951   1.133
  986SOL    HW2 3858   6.000   4.918   1.017
  987SOL     OW 3859   4.753   6.908   2.612
  987SOL    HW1 3860   4.781   6.951   2.698
  987SOL    HW2 3861   4.832   6.863   2.570
  988SOL     OW 3862   3.977   3.134   1.654
  988SOL    HW1 3863   4.037   3.179   1.721
  988SOL    HW2 3864   3.911   3.076   1.702
  989SOL     OW 3865   6.293   1.443   6.282
  989SOL    HW1 3866   6.242   1.366   6.320
  989SOL    HW2 3867   6.232   1.501   6.229
  990SOL     OW 3868   4.493   0.956   2.224
  990SOL    HW1 3869   4.538   0.883   2.174
  990SOL    HW2 3870   4.530   1.044   2.194
  991SOL     OW 3871   0.653   3.776   4.669
  991SOL    HW1 3872   0.586   3.747   4.601
  991SOL    HW2 3873   0.693   3.864   4.642
  992SOL     OW 3874   0.384   3.323   1.283
  992SOL    HW1 3875   0.451   3.396   1.269
  992SOL    HW2 3876   0.337   3.338   1.371
  993SOL     OW 3877   0.203   4.882   0.832
  993SOL    HW1 3878   0.185   4.980   0.838
  993SOL    HW2 3879   0.289   4.861   0.879
  994SOL     OW 3880   4.036   5.223   1.081
  994SOL    HW1 3881   4.012   5.310   1.039
  994SOL    HW2 3882   4.075   5.240   1.172
  995SOL     OW 3883   3.629   2.856   5.549
  995SOL    HW1 3884   3.581   2.938   5.579
  995SOL    HW2 3885   3.662   2.869   5.455
  996SOL     OW 3886   3.586   4.994   4.648
  996SOL    HW1 3887   3.622   4.935   4.577
  996SOL    HW2 3888   3.503   5.040   4.615
  997SOL     OW 3889   1.126   0.334   3.581
  997SOL    HW1 3890   1.210   0.388   3.586
  997SOL    HW2 3891   1.142   0.243   3.619
  998SOL     OW 3892   5.344   0.380   5.005
  998SOL    HW1 3893   5.280   0.439   4.957
  998SOL    HW2 3894   5.396   0.326   4.939
  999SOL     OW 3895   5.046   4.495   2.880
  999SOL    HW1 3896   5.060   4.444   2.794
  999SOL    HW2 3897   5.097   4.581   2.876
 1000SOL     OW 3898   2.691   1.008   1.278
 1000SOL    HW1 3899   2.605   0.960   1.261
 1000SOL    HW2 3900   2.672   1.099   1.313
 1001SOL     OW 3901   5.074   5.613   0.868
 1001SOL    HW1 3902   5.067   5.630   0.770
 1001SOL    HW2 3903   5.003   5.548   0.896
 1002SOL     OW 3904   5.855   1.977   1.554
 1002SOL    HW1 3905   5.908   1.901   1.592
 1002SOL    HW2 3906   5.758   1.952   1.552
 1003SOL     OW 3907   1.777   6.377   2.350
 1003SOL    HW1 3908   1.750   6.452   2.411
 1003SOL    HW2 3909   1.704   6.361   2.284
 1004SOL     OW 3910   0.183   0.738   1.863
 1004SOL    HW1 3911   0.267   0.688   1.883
 1004SOL    HW2 3912   0.184   0.826   1.911
 1005SOL     OW 3913   2.216   3.163   3.935
 1005SOL    HW1 3914   2.253   3.144   3.844
 1005SOL    HW2 3915   2.174   3.081   3.972
 1006SOL     OW 3916   1.431   4.449   1.165
 1006SOL    HW1 3917   1.361   4.384   1.136
 1006SOL    HW2 3918   1.512   4.439   1.106
 1007SOL     OW 3919   4.544   0.331   4.894
 1007SOL    HW1 3920   4.628   0.376   4.924
 1007SOL    HW2 3921   4.566   0.241   4.857
 1008SOL     OW 3922   1.070   3.327   5.828
 1008SOL    HW1 3923   0.994   3.392   5.836
 1008SOL    HW2 3924   1.063   3.278   5.741
 1009SOL     OW 3925   0.670   4.900   5.086
 1009SOL    HW1 3926   0.660   4.807   5.122
 1009SOL    HW2 3927   0.749   4.944   5.129
 1010SOL     OW 3928   3.693   2.159   7.001
 1010SOL    HW1 3929   3.787   2.145   0.004
 1010SOL    HW2 3930   3.631   2.132   0.049
 1011SOL     OW 3931   1.597   4.971   2.401
 1011SOL    HW1 3932   1.694   4.947   2.395
 1011SOL    HW2 3933   1.567   4.963   2.496
 1012SOL     OW 3934   6.721   0.053   2.130
 1012SOL    HW1 3935   6.796   0.103   2.174
 1012SOL    HW2 3936   6.721   0.073   2.032
 1013SOL     OW 3937   1.293   1.206   5.777
 1013SOL    HW1 3938   1.264   1.196   5.872
 1013SOL    HW2 3939   1.243   1.281   5.734
 1014SOL     OW 3940   6.395   5.040   5.465
 1014SOL    HW1 3941   6.411   5.129   5.505
 1014SOL    HW2 3942   6.299   5.032   5.439
 1015SOL     OW 3943   2.763   6.765   6.155
 1015SOL    HW1 3944   2.686   6.824   6.131
 1015SOL    HW2 3945   2.806   6.730   6.071
 1016SOL     OW 3946   4.217   3.574   6.984
 1016SOL    HW1 3947   4.301   3.627   6.977
 1016SOL    HW2 3948   4.169   3.574   6.896
 1017SOL     OW 3949   4.271   2.756   1.506
 1017SOL    HW1 3950   4.302   2.848   1.484
 1017SOL    HW2 3951   4.350   2.699   1.529
 1018SOL     OW 3952   0.372   4.559   4.213
 1018SOL    HW1 3953   0.310   4.577   4.290
 1018SOL    HW2 3954   0.458   4.609   4.227
 1019SOL     OW 3955   0.037   6.473   0.776
 1019SOL    HW1 3956   0.080   6.542   0.835
 1019SOL    HW2 3957   6.978   6.441   0.819
 1020SOL     OW 3958   6.503   1.330   0.960
 1020SOL    HW1 3959   6.582   1.387   0.982
 1020SOL    HW2 3960   6.523   1.276   0.878
 1021SOL     OW 3961   5.454   0.126   1.382
 1021SOL    HW1 3962   5.456   0.086   1.474
 1021SOL    HW2 3963   5.488   0.220   1.385
 1022SOL     OW 3964   3.173   4.566   5.422
 1022SOL    HW1 3965   3.136   4.654   5.453
 1022SOL    HW2 3966   3.114   4.528   5.351
 1023SOL     OW 3967   0.652   0.349   3.211
 1023SOL    HW1 3968   0.696   0.400   3.137
 1023SOL    HW2 3969   0.555   0.336   3.189
 1024SOL     OW 3970   0.605   2.840   4.161
 1024SOL    HW1 3971   0.659   2.783   4.223
 1024SOL    HW2 3972   0.594   2.931   4.201
 1025SOL     OW 3973   3.603   3.565   1.600
 1025SOL    HW1 3974   3.627   3.471   1.623
 1025SOL    HW2 3975   3.582   3.616   1.683
 1026SOL     OW 3976   2.443   2.321   1.337
 1026SOL    HW1 3977   2.396   2.400   1.297
 1026SOL    HW2 3978   2.540   2.342   1.348
 1027SOL     OW 3979   3.351   6.025   1.991
 1027SOL    HW1 3980   3.345   5.967   1.910
 1027SOL    HW2 3981   3.419   6.096   1.976
 1028SOL     OW 3982   2.410   6.476   1.517
 1028SOL    HW1 3983   2.446   6.569   1.522
 1028SOL    HW2 3984   2.311   6.480   1.499
 1029SOL     OW 3985   1.847   0.232   6.110
 1029SOL    HW1 3986   1.749   0.246   6.094
 1029SOL    HW2 3987   1.865   0.134   6.119
 1030SOL     OW 3988   3.330   2.683   1.640
 1030SOL    HW1 3989   3.325   2.592   1.600
 1030SOL    HW2 3990   3.397   2.684   1.713
 1031SOL     OW 3991   4.576   3.987   1.480
 1031SOL    HW1 3992   4.611   4.015   1.569
 1031SOL    HW2 3993   4.491   3.936   1.491
 1032SOL     OW 3994   2.593   2.130   5.897
 1032SOL    HW1 3995   2.629   2.037   5.909
 1032SOL    HW2 3996   2.511   2.127   5.840
 1033SOL     OW 3997   1.424   6.359   2.098
 1033SOL    HW1 3998   1.373   6.359   2.184
 1033SOL    HW2 3999   1.381   6.296   2.033
 1034SOL     OW 4000   0.227   5.327   4.594
 1034SOL    HW1 4001   0.280   5.376   4.663
 1034SOL    HW2 4002   0.289   5.283   4.528
 1035SOL     OW 4003   0.188   1.487   5.215
 1035SOL    HW1 4004   0.132   1.405   5.223
 1035SOL    HW2 4005   0.253   1.475   5.139
 1036SOL     OW 4006   3.981   6.947   1.784
 1036SOL    HW1 4007   3.958   6.851   1.801
 1036SOL    HW2 4008   3.994   6.994   1.872
 1037SOL     OW 4009   1.726   1.135   1.818
 1037SOL    HW1 4010   1.632   1.122   1.851
 1037SOL    HW2 4011   1.758   1.051   1.774
 1038SOL     OW 4012   1.764   1.039   5.103
 1038SOL    HW1 4013   1.747   1.096   5.183
 1038SOL    HW2 4014   1.777   0.944   5.132
 1039SOL     OW 4015   3.448   3.754   4.316
 1039SOL    HW1 4016   3.477   3.840   4.273
 1039SOL    HW2 4017   3.357   3.730   4.284
 1040SOL     OW 4018   4.870   1.178   2.718
 1040SOL    HW1 4019   4.832   1.112   2.783
 1040SOL    HW2 4020   4.806   1.254   2.707
 1041SOL     OW 4021   0.080   6.491   3.549
 1041SOL    HW1 4022   0.068   6.508   3.647
 1041SOL    HW2 4023   0.071   6.578   3.499
 1042SOL     OW 4024   4.351   5.364   1.942
 1042SOL    HW1 4025   4.294   5.315   2.008
 1042SOL    HW2 4026   4.299   5.440   1.903
 1043SOL     OW 4027   2.938   2.214   4.229
 1043SOL    HW1 4028   3.027   2.245   4.197
 1043SOL    HW2 4029   2.942   2.197   4.328
 1044SOL     OW 4030   5.633   5.451   2.756
 1044SOL    HW1 4031   5.589   5.540   2.767
 1044SOL    HW2 4032   5.624   5.420   2.662
 1045SOL     OW 4033   4.036   0.085   2.860
 1045SOL    HW1 4034   3.987   0.159   2.812
 1045SOL    HW2 4035   3.991   7.024   2.841
 1046SOL     OW 4036   1.592   0.776   0.521
 1046SOL    HW1 4037   1.568   0.689   0.478
 1046SOL    HW2 4038   1.644   0.832   0.457
 1047SOL     OW 4039   1.796   0.273   4.009
 1047SOL    HW1 4040   1.778   0.214   4.088
 1047SOL    HW2 4041   1.712   0.286   3.957
 1048SOL     OW 4042   3.999   6.089   3.414
 1048SOL    HW1 4043   4.091   6.117   3.388
 1048SOL    HW2 4044   3.966   6.018   3.351
 1049SOL     OW 4045   6.535   6.678   4.007
 1049SOL    HW1 4046   6.486   6.652   4.090
 1049SOL    HW2 4047   6.496   6.629   3.929
 1050SOL     OW 4048   4.106   4.756   1.155
 1050SOL    HW1 4049   4.059   4.669   1.169
 1050SOL    HW2 4050   4.049   4.816   1.100
 1051SOL     OW 4051   1.024   5.738   0.392
 1051SOL    HW1 4052   1.086   5.701   0.323
 1051SOL    HW2 4053   1.054   5.709   0.483
 1052SOL     OW 4054   4.085   0.331   4.967
 1052SOL    HW1 4055   4.026   0.293   4.896
 1052SOL    HW2 4056   4.055   0.424   4.989
 1053SOL     OW 4057   6.054   4.801   2.666
 1053SOL    HW1 4058   6.006   4.718   2.697
 1053SOL    HW2 4059   6.030   4.877   2.726
 1054SOL     OW 4060   3.432   3.634   0.444
 1054SOL    HW1 4061   3.345   3.614   0.398
 1054SOL    HW2 4062   3.472   3.717   0.406
 1055SOL     OW 4063   3.575   6.079   4.696
 1055SOL    HW1 4064   3.605   6.007   4.758
 1055SOL    HW2 4065   3.655   6.128   4.661
 1056SOL     OW 4066   2.488   4.062   6.950
 1056SOL    HW1 4067   2.565   4.000   6.934
 1056SOL    HW2 4068   2.488   4.133   6.880
 1057SOL     OW 4069   2.968   3.541   1.656
 1057SOL    HW1 4070   3.016   3.501   1.577
 1057SOL    HW2 4071   2.877   3.570   1.628
 1058SOL     OW 4072   4.615   2.320   3.826
 1058SOL    HW1 4073   4.546   2.282   3.764
 1058SOL    HW2 4074   4.625   2.260   3.905
 1059SOL     OW 4075   2.736   0.698   2.160
 1059SOL    HW1 4076   2.792   0.640   2.219
 1059SOL    HW2 4077   2.675   0.753   2.217
 1060SOL     OW 4078   0.007   4.878   4.232
 1060SOL    HW1 4079   0.056   4.965   4.242
 1060SOL    HW2 4080   0.039   4.830   4.151
 1061SOL     OW 4081   6.622   3.077   0.846
 1061SOL    HW1 4082   6.525   3.097   0.860
 1061SOL    HW2 4083   6.670   3.161   0.822
 1062SOL     OW 4084   5.333   4.817   6.047
 1062SOL    HW1 4085   5.266   4.863   5.989
 1062SOL    HW2 4086   5.323   4.718   6.036
 1063SOL     OW 4087   1.317   5.013   1.034
 1063SOL    HW1 4088   1.302   5.086   1.100
 1063SOL    HW2 4089   1.251   4.939   1.051
 1064SOL     OW 4090   1.399   4.203   2.891
 1064SOL    HW1 4091   1.380   4.166   2.800
 1064SOL    HW2 4092   1.453   4.137   2.943
 1065SOL     OW 4093   4.163   0.865   3.605
 1065SOL    HW1 4094   4.099   0.902   3.538
 1065SOL    HW2 4095   4.193   0.775   3.575
 1066SOL     OW 4096   4.806   6.605   2.777
 1066SOL    HW1 4097   4.737   6.575   2.711
 1066SOL    HW2 4098   4.764   6.663   2.847
 1067SOL     OW 4099   0.885   3.102   0.912
 1067SOL    HW1 4100   0.977   3.140   0.903
 1067SOL    HW2 4101   0.845   3.088   0.821
 1068SOL     OW 4102   6.300   5.032   3.040
 1068SOL    HW1 4103   6.228   5.095   3.012
 1068SOL    HW2 4104   6.301   4.952   2.980
 1069SOL     OW 4105   4.435   5.232   0.935
 1069SOL    HW1 4106   4.514   5.291   0.946
 1069SOL    HW2 4107   4.393   5.248   0.846
 1070SOL     OW 4108   6.997   0.623   2.011
 1070SOL    HW1 4109   0.020   0.678   1.943
 1070SOL    HW2 4110   6.927   0.679   2.055
 1071SOL     OW 4111   1.190   0.882   4.505
 1071SOL    HW1 4112   1.280   0.869   4.464
 1071SOL    HW2 4113   1.127   0.920   4.437
 1072SOL     OW 4114   1.970   1.208   0.760
 1072SOL    HW1 4115   1.996   1.289   0.813
 1072SOL    HW2 4116   2.047   1.180   0.702
 1073SOL     OW 4117   4.509   0.004   2.574
 1073SOL    HW1 4118   4.606   7.009   2.569
 1073SOL    HW2 4119   4.457   6.945   2.590
 1074SOL     OW 4120   2.344   5.259   1.377
 1074SOL    HW1 4121   2.374   5.231   1.468
 1074SOL    HW2 4122   2.258   5.309   1.385
 1075SOL     OW 4123   5.324   0.734   3.447
 1075SOL    HW1 4124   5.262   0.677   3.500
 1075SOL    HW2 4125   5.373   0.797   3.508
 1076SOL     OW 4126   0.331   2.137   5.492
 1076SOL    HW1 4127   0.287   2.078   5.425
 1076SOL    HW2 4128   0.397   2.197   5.445
 1077SOL     OW 4129   5.566   6.900   0.958
 1077SOL    HW1 4130   5.629   6.952   1.014
 1077SOL    HW2 4131   5.575   6.928   0.862
 1078SOL     OW 4132   0.752   0.791   2.422
 1078SOL    HW1 4133   0.705   0.758   2.340
 1078SOL    HW2 4134   0.796   0.714   2.468
 1079SOL     OW 4135   1.636   6.838   2.619
 1079SOL    HW1 4136   1.563   6.846   2.686
 1079SOL    HW2 4137   1.633   6.747   2.577
 1080SOL     OW 4138   2.026   5.147   3.338
 1080SOL    HW1 4139   2.104   5.203   3.311
 1080SOL    HW2 4140   2.026   5.062   3.284
 1081SOL     OW 4141   0.146   5.312   5.518
 1081SOL    HW1 4142   0.224   5.375   5.513
 1081SOL    HW2 4143   0.083   5.343   5.589
 1082SOL     OW 4144   5.432   2.084   4.685
 1082SOL    HW1 4145   5.385   2.047   4.605
 1082SOL    HW2 4146   5.442   2.011   4.754
 1083SOL     OW 4147   4.763   4.048   0.745
 1083SOL    HW1 4148   4.827   4.126   0.747
 1083SOL    HW2 4149   4.671   4.082   0.728
 1084SOL     OW 4150   5.981   6.513   6.980
 1084SOL    HW1 4151   6.061   6.453   6.973
 1084SOL    HW2 4152   5.907   6.476   6.924
 1085SOL     OW 4153   2.172   3.500   4.673
 1085SOL    HW1 4154   2.230   3.559   4.729
 1085SOL    HW2 4155   2.160   3.542   4.583
 1086SOL     OW 4156   0.793   5.292   0.541
 1086SOL    HW1 4157   0.790   5.193   0.525
 1086SOL    HW2 4158   0.830   5.338   0.460
 1087SOL     OW 4159   6.036   2.381   5.158
 1087SOL    HW1 4160   6.062   2.292   5.120
 1087SOL    HW2 4161   6.005   2.370   5.252
 1088SOL     OW 4162   0.720   3.829   2.725
 1088SOL    HW1 4163   0.624   3.809   2.702
 1088SOL    HW2 4164   0.749   3.770   2.800
 1089SOL     OW 4165   1.062   5.892   4.328
 1089SOL    HW1 4166   1.057   5.987   4.361
 1089SOL    HW2 4167   1.038   5.830   4.402
 1090SOL     OW 4168   2.683   2.383   3.206
 1090SOL    HW1 4169   2.755   2.314   3.214
 1090SOL    HW2 4170   2.598   2.347   3.246
 1091SOL     OW 4171   2.901   2.227   4.546
 1091SOL    HW1 4172   2.907   2.314   4.593
 1091SOL    HW2 4173   2.961   2.160   4.590
 1092SOL     OW 4174   1.214   4.306   1.069
 1092SOL    HW1 4175   1.272   4.224   1.061
 1092SOL    HW2 4176   1.118   4.279   1.071
 1093SOL     OW 4177   1.847   1.385   1.898
 1093SOL    HW1 4178   1.796   1.306   1.865
 1093SOL    HW2 4179   1.827   1.464   1.841
 1094SOL     OW 4180   0.332   0.096   2.457
 1094SOL    HW1 4181   0.369   0.151   2.532
 1094SOL    HW2 4182   0.390   0.016   2.443
 1095SOL     OW 4183   1.171   3.012   6.472
 1095SOL    HW1 4184   1.259   2.999   6.427
 1095SOL    HW2 4185   1.171   3.099   6.522
 1096SOL     OW 4186   3.703   4.375   1.664
 1096SOL    HW1 4187   3.671   4.448   1.725
 1096SOL    HW2 4188   3.648   4.293   1.679
 1097SOL     OW 4189   2.380   4.443   4.308
 1097SOL    HW1 4190   2.361   4.533   4.268
 1097SOL    HW2 4191   2.479   4.432   4.318
 1098SOL     OW 4192   4.417   3.953   6.601
 1098SOL    HW1 4193   4.391   4.007   6.680
 1098SOL    HW2 4194   4.466   3.871   6.631
 1099SOL     OW 4195   3.418   0.557   5.774
 1099SOL    HW1 4196   3.441   0.618   5.851
 1099SOL    HW2 4197   3.497   0.551   5.713
 1100SOL     OW 4198   3.845   1.886   4.366
 1100SOL    HW1 4199   3.872   1.974   4.406
 1100SOL    HW2 4200   3.926   1.834   4.344
 1101SOL     OW 4201   5.572   2.842   6.095
 1101SOL    HW1 4202   5.636   2.767   6.079
 1101SOL    HW2 4203   5.520   2.824   6.178
 1102SOL     OW 4204   0.834   0.018   4.529
 1102SOL    HW1 4205   0.836   0.058   4.437
 1102SOL    HW2 4206   0.885   0.077   4.592
 1103SOL     OW 4207   4.198   1.636   0.193
 1103SOL    HW1 4208   4.178   1.580   0.113
 1103SOL    HW2 4209   4.112   1.658   0.240
 1104SOL     OW 4210   2.097   3.544   6.028
 1104SOL    HW1 4211   2.106   3.572   5.932
 1104SOL    HW2 4212   2.039   3.463   6.033
 1105SOL     OW 4213   6.467   3.634   4.735
 1105SOL    HW1 4214   6.381   3.594   4.702
 1105SOL    HW2 4215   6.447   3.718   4.786
 1106SOL     OW 4216   0.081   2.318   1.601
 1106SOL    HW1 4217   0.150   2.341   1.670
 1106SOL    HW2 4218   0.088   2.221   1.578
 1107SOL     OW 4219   0.905   0.717   6.932
 1107SOL    HW1 4220   0.909   0.754   7.025
 1107SOL    HW2 4221   0.965   0.637   6.926
 1108SOL     OW 4222   3.252   0.175   5.021
 1108SOL    HW1 4223   3.327   0.210   5.077
 1108SOL    HW2 4224   3.252   0.075   5.023
 1109SOL     OW 4225   4.787   1.219   4.485
 1109SOL    HW1 4226   4.761   1.162   4.408
 1109SOL    HW2 4227   4.707   1.236   4.542
 1110SOL     OW 4228   3.365   1.939   3.394
 1110SOL    HW1 4229   3.305   1.863   3.369
 1110SOL    HW2 4230   3.385   1.994   3.313
 1111SOL     OW 4231   4.771   5.426   6.305
 1111SOL    HW1 4232   4.865   5.426   6.269
 1111SOL    HW2 4233   4.757   5.510   6.357
 1112SOL     OW 4234   5.411   0.660   2.807
 1112SOL    HW1 4235   5.381   0.713   2.728
 1112SOL    HW2 4236   5.509   0.678   2.823
 1113SOL     OW 4237   6.074   4.725   1.746
 1113SOL    HW1 4238   5.995   4.779   1.718
 1113SOL    HW2 4239   6.048   4.665   1.822
 1114SOL     OW 4240   3.711   1.709   5.994
 1114SOL    HW1 4241   3.671   1.716   5.902
 1114SOL    HW2 4242   3.734   1.801   6.026
 1115SOL     OW 4243   4.102   3.046   6.065
 1115SOL    HW1 4244   4.051   3.097   6.134
 1115SOL    HW2 4245   4.135   3.109   5.994
 1116SOL     OW 4246   4.946   0.058   6.342
 1116SOL    HW1 4247   4.948   7.023   6.263
 1116SOL    HW2 4248   4.859   0.049   6.389
 1117SOL     OW 4249   2.418   2.224   2.081
 1117SOL    HW1 4250   2.434   2.144   2.024
 1117SOL    HW2 4251   2.488   2.293   2.062
 1118SOL     OW 4252   2.702   4.505   0.205
 1118SOL    HW1 4253   2.725   4.601   0.188
 1118SOL    HW2 4254   2.714   4.452   0.121
 1119SOL     OW 4255   4.165   4.876   1.711
 1119SOL    HW1 4256   4.237   4.945   1.717
 1119SOL    HW2 4257   4.201   4.794   1.665
 1120SOL     OW 4258   6.036   6.263   0.171
 1120SOL    HW1 4259   6.040   6.356   0.207
 1120SOL    HW2 4260   6.129   6.229   0.157
 1121SOL     OW 4261   6.056   4.379   4.528
 1121SOL    HW1 4262   6.076   4.388   4.430
 1121SOL    HW2 4263   6.019   4.288   4.546
 1122SOL     OW 4264   5.598   2.374   0.930
 1122SOL    HW1 4265   5.652   2.313   0.873
 1122SOL    HW2 4266   5.642   2.464   0.934
 1123SOL     OW 4267   4.913   1.689   3.450
 1123SOL    HW1 4268   4.827   1.740   3.447
 1123SOL    HW2 4269   4.955   1.689   3.359
 1124SOL     OW 4270   0.028   3.431   5.391
 1124SOL    HW1 4271   6.966   3.385   5.408
 1124SOL    HW2 4272   0.103   3.366   5.404
 1125SOL     OW 4273   2.474   2.120   3.823
 1125SOL    HW1 4274   2.468   2.049   3.893
 1125SOL    HW2 4275   2.532   2.195   3.856
 1126SOL     OW 4276   5.351   4.967   0.286
 1126SOL    HW1 4277   5.272   4.911   0.309
 1126SOL    HW2 4278   5.321   5.050   0.238
 1127SOL     OW 4279   5.244   5.223   4.606
 1127SOL    HW1 4280   5.332   5.260   4.577
 1127SOL    HW2 4281   5.178   5.298   4.618
 1128SOL     OW 4282   5.830   1.941   5.461
 1128SOL    HW1 4283   5.761   1.923   5.531
 1128SOL    HW2 4284   5.917   1.898   5.488
 1129SOL     OW 4285   1.568   0.387   0.841
 1129SOL    HW1 4286   1.612   0.337   0.916
 1129SOL    HW2 4287   1.636   0.442   0.793
 1130SOL     OW 4288   2.882   4.937   0.443
 1130SOL    HW1 4289   2.838   4.913   0.357
 1130SOL    HW2 4290   2.820   4.917   0.519
 1131SOL     OW 4291   0.973   5.714   5.819
 1131SOL    HW1 4292   0.938   5.705   5.726
 1131SOL    HW2 4293   1.065   5.676   5.825
 1132SOL     OW 4294   5.317   6.915   2.231
 1132SOL    HW1 4295   5.255   6.842   2.261
 1132SOL    HW2 4296   5.280   6.957   2.149
 1133SOL     OW 4297   0.649   0.944   0.586
 1133SOL    HW1 4298   0.643   1.010   0.511
 1133SOL    HW2 4299   0.688   0.990   0.667
 1134SOL     OW 4300   5.236   0.301   2.524
 1134SOL    HW1 4301   5.216   0.397   2.505
 1134SOL    HW2 4302   5.304   0.295   2.597
 1135SOL     OW 4303   2.078   0.254   3.333
 1135SOL    HW1 4304   2.010   0.190   3.298
 1135SOL    HW2 4305   2.114   0.308   3.257
 1136SOL     OW 4306   4.538   4.788   2.837
 1136SOL    HW1 4307   4.463   4.750   2.783
 1136SOL    HW2 4308   4.508   4.800   2.932
 1137SOL     OW 4309   0.998   6.963   0.207
 1137SOL    HW1 4310   0.973   6.940   0.301
 1137SOL    HW2 4311   1.097   6.960   0.197
 1138SOL     OW 4312   6.804   0.665   5.887
 1138SOL    HW1 4313   6.833   0.635   5.796
 1138SOL    HW2 4314   6.868   0.732   5.922
 1139SOL     OW 4315   3.200   4.817   2.215
 1139SOL    HW1 4316   3.203   4.777   2.123
 1139SOL    HW2 4317   3.288   4.860   2.236
 1140SOL     OW 4318   2.749   0.921   1.974
 1140SOL    HW1 4319   2.838   0.938   1.931
 1140SOL    HW2 4320   2.758   0.849   2.043
 1141SOL     OW 4321   0.618   6.391   6.820
 1141SOL    HW1 4322   0.521   6.375   6.800
 1141SOL    HW2 4323   0.667   6.410   6.735
 1142SOL     OW 4324   3.064   6.704   4.322
 1142SOL    HW1 4325   3.000   6.775   4.292
 1142SOL    HW2 4326   3.074   6.710   4.422
 1143SOL     OW 4327   2.099   2.775   3.400
 1143SOL    HW1 4328   2.178   2.813   3.352
 1143SOL    HW2 4329   2.089   2.819   3.489
 1144SOL     OW 4330   6.278   4.865   4.443
 1144SOL    HW1 4331   6.203   4.834   4.501
 1144SOL    HW2 4332   6.361   4.873   4.498
 1145SOL     OW 4333   6.640   4.025   1.779
 1145SOL    HW1 4334   6.601   4.096   1.838
 1145SOL    HW2 4335   6.737   4.015   1.799
 1146SOL     OW 4336   6.929   0.530   2.971
 1146SOL    HW1 4337   6.921   0.611   3.029
 1146SOL    HW2 4338   6.899   0.450   3.022
 1147SOL     OW 4339   2.831   5.878   1.266
 1147SOL    HW1 4340   2.869   5.954   1.319
 1147SOL    HW2 4341   2.850   5.792   1.314
 1148SOL     OW 4342   4.435   5.961   0.750
 1148SOL    HW1 4343   4.379   5.878   0.743
 1148SOL    HW2 4344   4.396   6.032   0.691
 1149SOL     OW 4345   6.352   3.498   2.687
 1149SOL    HW1 4346   6.301   3.582   2.706
 1149SOL    HW2 4347   6.342   3.474   2.591
 1150SOL     OW 4348   1.492   3.540   0.612
 1150SOL    HW1 4349   1.518   3.450   0.646
 1150SOL    HW2 4350   1.425   3.530   0.538
 1151SOL     OW 4351   4.969   4.407   6.940
 1151SOL    HW1 4352   5.004   4.353   6.863
 1151SOL    HW2 4353   4.914   4.349   7.000
 1152SOL     OW 4354   5.377   5.306   6.804
 1152SOL    HW1 4355   5.419   5.385   6.760
 1152SOL    HW2 4356   5.391   5.225   6.747
 1153SOL     OW 4357   0.899   0.466   1.671
 1153SOL    HW1 4358   0.830   0.513   1.617
 1153SOL    HW2 4359   0.862   0.380   1.706
 1154SOL     OW 4360   6.503   4.333   1.567
 1154SOL    HW1 4361   6.565   4.279   1.624
 1154SOL    HW2 4362   6.541   4.342   1.475
 1155SOL     OW 4363   2.204   4.962   5.953
 1155SOL    HW1 4364   2.114   4.933   5.985
 1155SOL    HW2 4365   2.250   4.886   5.908
 1156SOL     OW 4366   4.697   1.653   4.983
 1156SOL    HW1 4367   4.746   1.594   5.048
 1156SOL    HW2 4368   4.615   1.606   4.952
 1157SOL     OW 4369   5.057   1.833   5.909
 1157SOL    HW1 4370   4.976   1.775   5.909
 1157SOL    HW2 4371   5.031   1.927   5.930
 1158SOL     OW 4372   6.862   5.132   5.732
 1158SOL    HW1 4373   6.902   5.042   5.714
 1158SOL    HW2 4374   6.836   5.138   5.828
 1159SOL     OW 4375   6.636   6.739   3.716
 1159SOL    HW1 4376   6.656   6.837   3.724
 1159SOL    HW2 4377   6.545   6.720   3.753
 1160SOL     OW 4378   4.976   4.731   1.121
 1160SOL    HW1 4379   5.075   4.740   1.117
 1160SOL    HW2 4380   4.939   4.797   1.186
 1161SOL     OW 4381   5.874   6.456   5.916
 1161SOL    HW1 4382   5.889   6.534   5.978
 1161SOL    HW2 4383   5.962   6.417   5.889
 1162SOL     OW 4384   3.538   2.654   6.774
 1162SOL    HW1 4385   3.637   2.639   6.778
 1162SOL    HW2 4386   3.509   2.657   6.678
 1163SOL     OW 4387   6.956   4.028   1.361
 1163SOL    HW1 4388   6.932   3.976   1.279
 1163SOL    HW2 4389   0.004   3.980   1.409
 1164SOL     OW 4390   6.085   3.264   4.390
 1164SOL    HW1 4391   6.092   3.186   4.453
 1164SOL    HW2 4392   6.162   3.261   4.326
 1165SOL     OW 4393   3.454   4.968   3.654
 1165SOL    HW1 4394   3.527   5.036   3.657
 1165SOL    HW2 4395   3.444   4.926   3.745
 1166SOL     OW 4396   3.677   0.054   0.113
 1166SOL    HW1 4397   3.660   6.991   0.071
 1166SOL    HW2 4398   3.593   0.088   0.156
 1167SOL     OW 4399   4.657   6.174   6.885
 1167SOL    HW1 4400   4.662   6.103   6.815
 1167SOL    HW2 4401   4.749   6.198   6.914
 1168SOL     OW 4402   5.064   2.547   2.854
 1168SOL    HW1 4403   5.127   2.619   2.884
 1168SOL    HW2 4404   4.971   2.570   2.882
 1169SOL     OW 4405   4.636   2.821   5.819
 1169SOL    HW1 4406   4.690   2.757   5.872
 1169SOL    HW2 4407   4.551   2.777   5.789
 1170SOL     OW 4408   5.221   0.202   2.873
 1170SOL    HW1 4409   5.230   0.155   2.785
 1170SOL    HW2 4410   5.201   0.135   2.944
 1171SOL     OW 4411   2.516   6.687   0.314
 1171SOL    HW1 4412   2.506   6.629   0.233
 1171SOL    HW2 4413   2.584   6.758   0.296
 1172SOL     OW 4414   3.358   4.280   1.451
 1172SOL    HW1 4415   3.284   4.346   1.460
 1172SOL    HW2 4416   3.320   4.187   1.454
 1173SOL     OW 4417   2.946   0.725   0.233
 1173SOL    HW1 4418   2.962   0.720   0.331
 1173SOL    HW2 4419   3.032   0.707   0.184
 1174SOL     OW 4420   2.726   4.981   1.408
 1174SOL    HW1 4421   2.766   4.943   1.325
 1174SOL    HW2 4422   2.786   4.963   1.486
 1175SOL     OW 4423   4.617   4.461   6.897
 1175SOL    HW1 4424   4.648   4.397   6.826
 1175SOL    HW2 4425   4.545   4.418   6.951
 1176SOL     OW 4426   6.305   4.059   6.515
 1176SOL    HW1 4427   6.403   4.068   6.496
 1176SOL    HW2 4428   6.291   4.043   6.612
 1177SOL     OW 4429   0.509   3.413   5.215
 1177SOL    HW1 4430   0.506   3.511   5.236
 1177SOL    HW2 4431   0.462   3.362   5.286
 1178SOL     OW 4432   3.429   4.325   0.710
 1178SOL    HW1 4433   3.490   4.388   0.661
 1178SOL    HW2 4434   3.339   4.326   0.667
 1179SOL     OW 4435   2.261   6.085   0.992
 1179SOL    HW1 4436   2.214   6.010   0.946
 1179SOL    HW2 4437   2.284   6.156   0.925
 1180SOL     OW 4438   2.569   5.971   4.598
 1180SOL    HW1 4439   2.569   5.902   4.671
 1180SOL    HW2 4440   2.560   5.926   4.510
 1181SOL     OW 4441   6.779   4.500   6.326
 1181SOL    HW1 4442   6.722   4.538   6.399
 1181SOL    HW2 4443   6.827   4.573   6.278
 1182SOL     OW 4444   3.794   5.234   3.129
 1182SOL    HW1 4445   3.767   5.141   3.104
 1182SOL    HW2 4446   3.731   5.299   3.086
 1183SOL     OW 4447   3.161   5.075   1.389
 1183SOL    HW1 4448   3.120   5.017   1.459
 1183SOL    HW2 4449   3.223   5.140   1.433
 1184SOL     OW 4450   6.896   1.422   5.114
 1184SOL    HW1 4451   6.937   1.331   5.112
 1184SOL    HW2 4452   6.861   1.442   5.205
 1185SOL     OW 4453   1.231   0.697   0.212
 1185SOL    HW1 4454   1.234   0.724   0.116
 1185SOL    HW2 4455   1.189   0.606   0.220
 1186SOL     OW 4456   5.003   6.431   5.174
 1186SOL    HW1 4457   5.021   6.332   5.176
 1186SOL    HW2 4458   4.973   6.457   5.082
 1187SOL     OW 4459   5.092   0.172   4.961
 1187SOL    HW1 4460   5.130   0.129   4.880
 1187SOL    HW2 4461   5.166   0.207   5.019
 1188SOL     OW 4462   2.427   5.603   6.415
 1188SOL    HW1 4463   2.415   5.520   6.362
 1188SOL    HW2 4464   2.452   5.579   6.509
 1189SOL     OW 4465   6.501   1.762   1.583
 1189SOL    HW1 4466   6.480   1.728   1.674
 1189SOL    HW2 4467   6.566   1.838   1.591
 1190SOL     OW 4468   3.233   5.749   2.820
 1190SOL    HW1 4469   3.145   5.731   2.864
 1190SOL    HW2 4470   3.235   5.844   2.788
 1191SOL     OW 4471   4.289   5.865   4.280
 1191SOL    HW1 4472   4.333   5.870   4.190
 1191SOL    HW2 4473   4.220   5.793   4.279
 1192SOL     OW 4474   5.138   5.260   3.534
 1192SOL    HW1 4475   5.208   5.209   3.583
 1192SOL    HW2 4476   5.120   5.346   3.582
 1193SOL     OW 4477   6.896   1.988   5.559
 1193SOL    HW1 4478   6.821   1.925   5.542
 1193SOL    HW2 4479   6.922   2.034   5.474
 1194SOL     OW 4480   6.322   1.082   1.788
 1194SOL    HW1 4481   6.412   1.076   1.832
 1194SOL    HW2 4482   6.321   1.157   1.723
 1195SOL     OW 4483   0.447   3.534   0.527
 1195SOL    HW1 4484   0.528   3.538   0.585
 1195SOL    HW2 4485   0.426   3.439   0.506
 1196SOL     OW 4486   6.503   4.939   3.542
 1196SOL    HW1 4487   6.519   4.912   3.637
 1196SOL    HW2 4488   6.490   5.038   3.536
 1197SOL     OW 4489   4.613   6.172   3.945
 1197SOL    HW1 4490   4.668   6.152   3.864
 1197SOL    HW2 4491   4.518   6.186   3.918
 1198SOL     OW 4492   1.764   3.692   1.908
 1198SOL    HW1 4493   1.676   3.662   1.870
 1198SOL    HW2 4494   1.832   3.620   1.893
 1199SOL     OW 4495   3.574   3.966   2.666
 1199SOL    HW1 4496   3.486   3.922   2.647
 1199SOL    HW2 4497   3.626   3.910   2.731
 1200SOL     OW 4498   3.068   3.950   4.738
 1200SOL    HW1 4499   2.984   3.950   4.792
 1200SOL    HW2 4500   3.045   3.956   4.641
 1201SOL     OW 4501   0.385   1.586   4.208
 1201SOL    HW1 4502   0.445   1.574   4.287
 1201SOL    HW2 4503   0.366   1.496   4.167
 1202SOL     OW 4504   0.293   6.102   5.710
 1202SOL    HW1 4505   0.216   6.148   5.667
 1202SOL    HW2 4506   0.376   6.157   5.696
 1203SOL     OW 4507   0.721   5.338   0.794
 1203SOL    HW1 4508   0.624   5.335   0.817
 1203SOL    HW2 4509   0.734   5.315   0.698
 1204SOL     OW 4510   4.379   1.410   1.534
 1204SOL    HW1 4511   4.359   1.315   1.512
 1204SOL    HW2 4512   4.374   1.466   1.451
 1205SOL     OW 4513   3.895   4.049   0.652
 1205SOL    HW1 4514   3.943   3.990   0.717
 1205SOL    HW2 4515   3.945   4.049   0.565
 1206SOL     OW 4516   2.233   2.772   5.701
 1206SOL    HW1 4517   2.265   2.678   5.690
 1206SOL    HW2 4518   2.191   2.803   5.615
 1207SOL     OW 4519   1.134   0.610   0.934
 1207SOL    HW1 4520   1.214   0.598   0.875
 1207SOL    HW2 4521   1.126   0.533   0.997
 1208SOL     OW 4522   3.342   3.363   1.571
 1208SOL    HW1 4523   3.304   3.398   1.656
 1208SOL    HW2 4524   3.439   3.342   1.584
 1209SOL     OW 4525   4.698   0.618   3.971
 1209SOL    HW1 4526   4.604   0.625   3.936
 1209SOL    HW2 4527   4.734   0.527   3.952
 1210SOL     OW 4528   3.921   6.520   3.797
 1210SOL    HW1 4529   3.981   6.508   3.717
 1210SOL    HW2 4530   3.830   6.484   3.776
 1211SOL     OW 4531   1.225   2.824   3.082
 1211SOL    HW1 4532   1.309   2.777   3.057
 1211SOL    HW2 4533   1.242   2.887   3.158
 1212SOL     OW 4534   6.606   0.308   5.892
 1212SOL    HW1 4535   6.582   0.389   5.837
 1212SOL    HW2 4536   6.615   0.334   5.988
 1213SOL     OW 4537   6.022   2.623   1.447
 1213SOL    HW1 4538   6.029   2.544   1.387
 1213SOL    HW2 4539   5.990   2.594   1.537
 1214SOL     OW 4540   1.035   3.149   0.123
 1214SOL    HW1 4541   1.036   3.223   0.056
 1214SOL    HW2 4542   0.941   3.132   0.153
 1215SOL     OW 4543   0.618   4.923   3.305
 1215SOL    HW1 4544   0.583   4.963   3.221
 1215SOL    HW2 4545   0.712   4.956   3.321
 1216SOL     OW 4546   5.649   1.296   0.458
 1216SOL    HW1 4547   5.743   1.266   0.476
 1216SOL    HW2 4548   5.644   1.333   0.365
 1217SOL     OW 4549   2.770   4.418   0.886
 1217SOL    HW1 4550   2.700   4.473   0.930
 1217SOL    HW2 4551   2.728   4.335   0.848
 1218SOL     OW 4552   1.609   3.184   4.945
 1218SOL    HW1 4553   1.672   3.235   4.887
 1218SOL    HW2 4554   1.610   3.088   4.919
 1219SOL     OW 4555   6.078   5.997   1.902
 1219SOL    HW1 4556   6.104   5.987   1.806
 1219SOL    HW2 4557   6.150   5.958   1.960
 1220SOL     OW 4558   0.882   4.708   2.264
 1220SOL    HW1 4559   0.948   4.633   2.261
 1220SOL    HW2 4560   0.790   4.670   2.274
 1221SOL     OW 4561   4.015   3.429   6.398
 1221SOL    HW1 4562   4.075   3.497   6.355
 1221SOL    HW2 4563   4.012   3.444   6.496
 1222SOL     OW 4564   6.735   1.449   6.633
 1222SOL    HW1 4565   6.833   1.470   6.623
 1222SOL    HW2 4566   6.725   1.355   6.667
 1223SOL     OW 4567   4.105   1.539   0.790
 1223SOL    HW1 4568   4.130   1.633   0.812
 1223SOL    HW2 4569   4.067   1.535   0.698
 1224SOL     OW 4570   3.216   5.739   0.359
 1224SOL    HW1 4571   3.163   5.676   0.302
 1224SOL    HW2 4572   3.156   5.779   0.428
 1225SOL     OW 4573   3.280   2.969   6.783
 1225SOL    HW1 4574   3.219   2.996   6.857
 1225SOL    HW2 4575   3.266   3.030   6.705
 1226SOL     OW 4576   2.922   6.898   1.354
 1226SOL    HW1 4577   3.012   6.942   1.350
 1226SOL    HW2 4578   2.852   6.965   1.378
 1227SOL     OW 4579   4.962   4.649   5.789
 1227SOL    HW1 4580   4.958   4.617   5.695
 1227SOL    HW2 4581   5.006   4.740   5.792
 1228SOL     OW 4582   2.722   2.275   6.370
 1228SOL    HW1 4583   2.763   2.186   6.387
 1228SOL    HW2 4584   2.740   2.303   6.275
 1229SOL     OW 4585   3.236   5.846   6.463
 1229SOL    HW1 4586   3.183   5.761   6.459
 1229SOL    HW2 4587   3.331   5.825   6.488
 1230SOL     OW 4588   5.131   6.341   1.867
 1230SOL    HW1 4589   5.196   6.344   1.943
 1230SOL    HW2 4590   5.083   6.429   1.860
 1231SOL     OW 4591   2.054   2.051   5.727
 1231SOL    HW1 4592   2.076   1.970   5.781
 1231SOL    HW2 4593   1.969   2.092   5.762
 1232SOL     OW 4594   0.162   1.899   5.610
 1232SOL    HW1 4595   0.062   1.903   5.612
 1232SOL    HW2 4596   0.198   1.987   5.578
 1233SOL     OW 4597   0.904   5.322   5.192
 1233SOL    HW1 4598   0.864   5.257   5.257
 1233SOL    HW2 4599   0.917   5.277   5.103
 1234SOL     OW 4600   6.545   2.872   6.325
 1234SOL    HW1 4601   6.641   2.861   6.301
 1234SOL    HW2 4602   6.497   2.921   6.251
 1235SOL     OW 4603   6.082   5.876   2.991
 1235SOL    HW1 4604   6.158   5.941   2.995
 1235SOL    HW2 4605   6.081   5.831   2.902
 1236SOL     OW 4606   4.462   0.817   0.258
 1236SOL    HW1 4607   4.552   0.853   0.232
 1236SOL    HW2 4608   4.461   0.799   0.356
 1237SOL     OW 4609   2.019   4.806   5.761
 1237SOL    HW1 4610   2.059   4.732   5.815
 1237SOL    HW2 4611   2.019   4.780   5.664
 1238SOL     OW 4612   1.272   0.790   6.975
 1238SOL    HW1 4613   1.333   0.816   6.901
 1238SOL    HW2 4614   1.232   0.700   6.954
 1239SOL     OW 4615   6.857   6.867   6.616
 1239SOL    HW1 4616   6.951   6.884   6.644
 1239SOL    HW2 4617   6.810   6.813   6.686
 1240SOL     OW 4618   5.223   6.101   0.625
 1240SOL    HW1 4619   5.213   6.048   0.541
 1240SOL    HW2 4620   5.146   6.084   0.685
 1241SOL     OW 4621   5.365   3.770   4.150
 1241SOL    HW1 4622   5.273   3.746   4.118
 1241SOL    HW2 4623   5.417   3.686   4.166
 1242SOL     OW 4624   0.745   3.901   1.211
 1242SOL    HW1 4625   0.697   3.901   1.299
 1242SOL    HW2 4626   0.806   3.822   1.207
 1243SOL     OW 4627   0.474   0.222   4.928
 1243SOL    HW1 4628   0.478   0.312   4.883
 1243SOL    HW2 4629   0.378   0.195   4.939
 1244SOL     OW 4630   5.925   6.394   4.425
 1244SOL    HW1 4631   5.973   6.451   4.491
 1244SOL    HW2 4632   5.920   6.300   4.460
 1245SOL     OW 4633   5.885   4.340   0.744
 1245SOL    HW1 4634   5.937   4.308   0.665
 1245SOL    HW2 4635   5.832   4.421   0.719
 1246SOL     OW 4636   2.807   0.314   1.191
 1246SOL    HW1 4637   2.789   0.386   1.258
 1246SOL    HW2 4638   2.733   0.312   1.123
 1247SOL     OW 4639   0.623   6.798   6.307
 1247SOL    HW1 4640   0.689   6.802   6.382
 1247SOL    HW2 4641   0.619   6.888   6.263
 1248SOL     OW 4642   2.064   0.164   5.036
 1248SOL    HW1 4643   2.001   0.200   4.967
 1248SOL    HW2 4644   2.014   0.145   5.120
 1249SOL     OW 4645   6.507   2.021   2.543
 1249SOL    HW1 4646   6.520   2.108   2.494
 1249SOL    HW2 4647   6.546   1.946   2.489
 1250SOL     OW 4648   6.371   5.474   3.862
 1250SOL    HW1 4649   6.438   5.486   3.788
 1250SOL    HW2 4650   6.407   5.513   3.947
 1251SOL     OW 4651   2.573   0.717   3.576
 1251SOL    HW1 4652   2.635   0.639   3.582
 1251SOL    HW2 4653   2.528   0.717   3.486
 1252SOL     OW 4654   4.664   3.100   6.217
 1252SOL    HW1 4655   4.689   3.019   6.268
 1252SOL    HW2 4656   4.585   3.080   6.158
 1253SOL     OW 4657   3.115   6.095   2.124
 1253SOL    HW1 4658   3.093   6.017   2.183
 1253SOL    HW2 4659   3.197   6.074   2.070
 1254SOL     OW 4660   1.150   2.757   2.593
 1254SOL    HW1 4661   1.104   2.750   2.682
 1254SOL    HW2 4662   1.222   2.688   2.587
 1255SOL     OW 4663   5.720   1.418   6.314
 1255SOL    HW1 4664   5.773   1.406   6.231
 1255SOL    HW2 4665   5.627   1.446   6.291
 1256SOL     OW 4666   6.845   6.741   2.896
 1256SOL    HW1 4667   6.799   6.829   2.905
 1256SOL    HW2 4668   6.812   6.678   2.967
 1257SOL     OW 4669   6.751   5.855   5.092
 1257SOL    HW1 4670   6.848   5.868   5.072
 1257SOL    HW2 4671   6.724   5.763   5.065
 1258SOL     OW 4672   1.794   4.745   3.255
 1258SOL    HW1 4673   1.734   4.813   3.298
 1258SOL    HW2 4674   1.803   4.765   3.157
 1259SOL     OW 4675   3.564   0.846   4.183
 1259SOL    HW1 4676   3.574   0.774   4.114
 1259SOL    HW2 4677   3.478   0.895   4.169
 1260SOL     OW 4678   2.366   1.944   0.170
 1260SOL    HW1 4679   2.410   1.932   0.082
 1260SOL    HW2 4680   2.327   2.036   0.177
 1261SOL     OW 4681   0.056   6.084   6.786
 1261SOL    HW1 4682   0.090   6.021   6.855
 1261SOL    HW2 4683   0.051   6.176   6.825
 1262SOL     OW 4684   5.941   4.616   1.309
 1262SOL    HW1 4685   5.973   4.556   1.236
 1262SOL    HW2 4686   5.920   4.561   1.390
 1263SOL     OW 4687   6.919   2.609   1.708
 1263SOL    HW1 4688   6.902   2.706   1.724
 1263SOL    HW2 4689   6.979   2.599   1.628
 1264SOL     OW 4690   0.325   4.551   1.293
 1264SOL    HW1 4691   0.307   4.504   1.207
 1264SOL    HW2 4692   0.299   4.493   1.370
 1265SOL     OW 4693   5.484   5.269   4.465
 1265SOL    HW1 4694   5.531   5.294   4.549
 1265SOL    HW2 4695   5.504   5.173   4.443
 1266SOL     OW 4696   0.370   1.849   4.168
 1266SOL    HW1 4697   0.346   1.866   4.072
 1266SOL    HW2 4698   0.403   1.755   4.177
 1267SOL     OW 4699   4.692   0.190   1.085
 1267SOL    HW1 4700   4.689   0.238   1.173
 1267SOL    HW2 4701   4.775   0.135   1.080
 1268SOL     OW 4702   2.735   2.056   0.575
 1268SOL    HW1 4703   2.760   2.141   0.620
 1268SOL    HW2 4704   2.684   2.077   0.491
 1269SOL     OW 4705   5.914   4.199   5.240
 1269SOL    HW1 4706   5.824   4.212   5.196
 1269SOL    HW2 4707   5.980   4.260   5.197
 1270SOL     OW 4708   1.326   3.092   3.634
 1270SOL    HW1 4709   1.304   3.003   3.674
 1270SOL    HW2 4710   1.413   3.125   3.671
 1271SOL     OW 4711   2.759   1.957   3.639
 1271SOL    HW1 4712   2.824   1.934   3.567
 1271SOL    HW2 4713   2.702   2.034   3.609
 1272SOL     OW 4714   6.126   4.354   6.864
 1272SOL    HW1 4715   6.197   4.285   6.848
 1272SOL    HW2 4716   6.083   4.377   6.776
 1273SOL     OW 4717   0.672   2.970   0.009
 1273SOL    HW1 4718   0.583   2.929   0.026
 1273SOL    HW2 4719   0.703   3.017   0.092
 1274SOL     OW 4720   6.791   4.584   1.637
 1274SOL    HW1 4721   6.723   4.537   1.694
 1274SOL    HW2 4722   6.768   4.681   1.631
 1275SOL     OW 4723   3.328   1.605   4.250
 1275SOL    HW1 4724   3.353   1.677   4.185
 1275SOL    HW2 4725   3.273   1.644   4.324
 1276SOL     OW 4726   6.495   5.745   5.331
 1276SOL    HW1 4727   6.478   5.717   5.425
 1276SOL    HW2 4728   6.542   5.672   5.282
 1277SOL     OW 4729   1.208   5.565   5.886
 1277SOL    HW1 4730   1.264   5.548   5.805
 1277SOL    HW2 4731   1.249   5.638   5.941
 1278SOL     OW 4732   0.852   6.737   4.846
 1278SOL    HW1 4733   0.782   6.702   4.908
 1278SOL    HW2 4734   0.922   6.668   4.831
 1279SOL     OW 4735   2.065   5.326   0.548
 1279SOL    HW1 4736   2.028   5.233   0.550
 1279SOL    HW2 4737   2.088   5.350   0.454
 1280SOL     OW 4738   4.060   6.068   4.134
 1280SOL    HW1 4739   4.048   5.985   4.080
 1280SOL    HW2 4740   4.146   6.063   4.185
 1281SOL     OW 4741   2.256   6.350   3.227
 1281SOL    HW1 4742   2.289   6.256   3.231
 1281SOL    HW2 4743   2.333   6.413   3.231
 1282SOL     OW 4744   6.486   2.530   0.240
 1282SOL    HW1 4745   6.570   2.585   0.247
 1282SOL    HW2 4746   6.503   2.439   0.279
 1283SOL     OW 4747   6.737   3.456   5.636
 1283SOL    HW1 4748   6.821   3.487   5.681
 1283SOL    HW2 4749   6.659   3.467   5.699
 1284SOL     OW 4750   4.956   2.142   1.406
 1284SOL    HW1 4751   4.887   2.214   1.405
 1284SOL    HW2 4752   4.983   2.122   1.500
 1285SOL     OW 4753   4.551   1.929   5.797
 1285SOL    HW1 4754   4.474   1.965   5.746
 1285SOL    HW2 4755   4.549   1.829   5.795
 1286SOL     OW 4756   4.137   3.823   1.753
 1286SOL    HW1 4757   4.122   3.868   1.842
 1286SOL    HW2 4758   4.153   3.726   1.768
 1287SOL     OW 4759   5.767   4.895   4.962
 1287SOL    HW1 4760   5.852   4.932   4.998
 1287SOL    HW2 4761   5.702   4.881   5.037
 1288SOL     OW 4762   3.948   3.275   0.053
 1288SOL    HW1 4763   3.859   3.269   0.098
 1288SOL    HW2 4764   4.012   3.213   0.099
 1289SOL     OW 4765   6.595   6.855   1.262
 1289SOL    HW1 4766   6.538   6.792   1.314
 1289SOL    HW2 4767   6.561   6.861   1.168
 1290SOL     OW 4768   0.875   6.485   6.947
 1290SOL    HW1 4769   0.876   6.453   0.016
 1290SOL    HW2 4770   0.780   6.491   6.916
 1291SOL     OW 4771   0.277   4.251   4.493
 1291SOL    HW1 4772   0.190   4.241   4.444
 1291SOL    HW2 4773   0.351   4.222   4.433
 1292SOL     OW 4774   0.581   5.981   2.254
 1292SOL    HW1 4775   0.534   6.056   2.208
 1292SOL    HW2 4776   0.630   5.926   2.186
 1293SOL     OW 4777   1.314   2.140   0.150
 1293SOL    HW1 4778   1.358   2.055   0.178
 1293SOL    HW2 4779   1.245   2.166   0.217
 1294SOL     OW 4780   0.507   3.777   6.379
 1294SOL    HW1 4781   0.523   3.875   6.372
 1294SOL    HW2 4782   0.444   3.759   6.454
 1295SOL     OW 4783   0.539   3.876   1.413
 1295SOL    HW1 4784   0.504   3.901   1.503
 1295SOL    HW2 4785   0.498   3.935   1.344
 1296SOL     OW 4786   3.741   6.509   5.405
 1296SOL    HW1 4787   3.810   6.575   5.435
 1296SOL    HW2 4788   3.764   6.477   5.313
 1297SOL     OW 4789   6.796   0.159   1.382
 1297SOL    HW1 4790   6.723   0.095   1.406
 1297SOL    HW2 4791   6.789   0.183   1.285
 1298SOL     OW 4792   5.683   5.215   3.517
 1298SOL    HW1 4793   5.681   5.148   3.592
 1298SOL    HW2 4794   5.607   5.280   3.529
 1299SOL     OW 4795   2.115   3.172   3.397
 1299SOL    HW1 4796   2.098   3.126   3.309
 1299SOL    HW2 4797   2.052   3.248   3.407
 1300SOL     OW 4798   1.798   3.010   0.650
 1300SOL    HW1 4799   1.777   2.982   0.556
 1300SOL    HW2 4800   1.887   2.973   0.677
 1301SOL     OW 4801   0.060   6.695   0.968
 1301SOL    HW1 4802   0.116   6.776   0.952
 1301SOL    HW2 4803   6.992   6.723   0.990
 1302SOL     OW 4804   4.314   0.370   5.717
 1302SOL    HW1 4805   4.329   0.320   5.632
 1302SOL    HW2 4806   4.376   0.448   5.721
 1303SOL     OW 4807   3.843   1.962   1.550
 1303SOL    HW1 4808   3.785   2.035   1.514
 1303SOL    HW2 4809   3.785   1.893   1.595
 1304SOL     OW 4810   2.102   0.835   6.817
 1304SOL    HW1 4811   2.169   0.761   6.824
 1304SOL    HW2 4812   2.049   0.825   6.733
 1305SOL     OW 4813   5.430   3.462   1.161
 1305SOL    HW1 4814   5.459   3.512   1.242
 1305SOL    HW2 4815   5.487   3.380   1.151
 1306SOL     OW 4816   1.030   5.693   3.845
 1306SOL    HW1 4817   0.984   5.779   3.824
 1306SOL    HW2 4818   0.992   5.655   3.930
 1307SOL     OW 4819   1.633   3.976   4.055
 1307SOL    HW1 4820   1.645   4.061   4.107
 1307SOL    HW2 4821   1.546   3.934   4.078
 1308SOL     OW 4822   6.373   0.280   5.321
 1308SOL    HW1 4823   6.338   0.366   5.358
 1308SOL    HW2 4824   6.463   0.260   5.361
 1309SOL     OW 4825   5.772   5.191   5.393
 1309SOL    HW1 4826   5.737   5.261   5.455
 1309SOL    HW2 4827   5.844   5.139   5.440
 1310SOL     OW 4828   6.296   4.037   4.279
 1310SOL    HW1 4829   6.220   3.993   4.230
 1310SOL    HW2 4830   6.294   4.010   4.375
 1311SOL     OW 4831   0.384   5.812   5.699
 1311SOL    HW1 4832   0.483   5.809   5.709
 1311SOL    HW2 4833   0.353   5.907   5.693
 1312SOL     OW 4834   1.015   6.779   6.741
 1312SOL    HW1 4835   1.053   6.866   6.709
 1312SOL    HW2 4836   1.001   6.782   6.840
 1313SOL     OW 4837   0.501   4.980   3.039
 1313SOL    HW1 4838   0.589   4.944   3.006
 1313SOL    HW2 4839   0.431   4.909   3.031
 1314SOL     OW 4840   4.395   1.335   5.426
 1314SOL    HW1 4841   4.443   1.263   5.475
 1314SOL    HW2 4842   4.308   1.299   5.391
 1315SOL     OW 4843   0.188   1.629   2.660
 1315SOL    HW1 4844   0.138   1.701   2.709
 1315SOL    HW2 4845   0.133   1.545   2.659
 1316SOL     OW 4846   3.110   6.478   6.172
 1316SOL    HW1 4847   3.052   6.445   6.098
 1316SOL    HW2 4848   3.053   6.499   6.252
 1317SOL     OW 4849   2.163   4.347   5.967
 1317SOL    HW1 4850   2.159   4.396   6.054
 1317SOL    HW2 4851   2.204   4.257   5.981
 1318SOL     OW 4852   0.953   2.349   0.926
 1318SOL    HW1 4853   1.002   2.262   0.934
 1318SOL    HW2 4854   0.923   2.377   1.017
 1319SOL     OW 4855   6.690   6.482   6.935
 1319SOL    HW1 4856   6.763   6.417   6.954
 1319SOL    HW2 4857   6.641   6.503   7.019
 1320SOL     OW 4858   3.742   4.742   6.671
 1320SOL    HW1 4859   3.681   4.793   6.611
 1320SOL    HW2 4860   3.690   4.700   6.745
 1321SOL     OW 4861   5.791   2.418   6.309
 1321SOL    HW1 4862   5.792   2.345   6.377
 1321SOL    HW2 4863   5.869   2.478   6.323
 1322SOL     OW 4864   3.412   1.376   3.583
 1322SOL    HW1 4865   3.397   1.295   3.640
 1322SOL    HW2 4866   3.486   1.430   3.622
 1323SOL     OW 4867   4.063   0.018   6.125
 1323SOL    HW1 4868   4.097   6.953   6.150
 1323SOL    HW2 4869   4.083   0.036   6.028
 1324SOL     OW 4870   0.667   3.632   7.010
 1324SOL    HW1 4871   0.671   3.671   0.076
 1324SOL    HW2 4872   0.573   3.633   6.977
 1325SOL     OW 4873   2.720   6.967   3.960
 1325SOL    HW1 4874   2.666   6.915   4.026
 1325SOL    HW2 4875   2.723   6.917   3.873
 1326SOL     OW 4876   4.669   3.483   5.440
 1326SOL    HW1 4877   4.600   3.468   5.511
 1326SOL    HW2 4878   4.638   3.555   5.378
 1327SOL     OW 4879   0.865   5.992   1.458
 1327SOL    HW1 4880   0.841   6.077   1.505
 1327SOL    HW2 4881   0.928   6.012   1.382
 1328SOL     OW 4882   2.207   3.277   1.418
 1328SOL    HW1 4883   2.278   3.333   1.460
 1328SOL    HW2 4884   2.118   3.321   1.432
 1329SOL     OW 4885   0.705   2.255   1.933
 1329SOL    HW1 4886   0.652   2.338   1.951
 1329SOL    HW2 4887   0.803   2.276   1.942
 1330SOL     OW 4888   0.770   1.044   2.130
 1330SOL    HW1 4889   0.674   1.019   2.146
 1330SOL    HW2 4890   0.774   1.119   2.065
 1331SOL     OW 4891   4.884   3.528   2.856
 1331SOL    HW1 4892   4.792   3.509   2.891
 1331SOL    HW2 4893   4.911   3.457   2.792
 1332SOL     OW 4894   2.626   0.029   6.969
 1332SOL    HW1 4895   2.584   0.047   6.881
 1332SOL    HW2 4896   2.643   6.956   6.979
 1333SOL     OW 4897   3.496   3.308   4.154
 1333SOL    HW1 4898   3.435   3.232   4.180
 1333SOL    HW2 4899   3.440   3.387   4.129
 1334SOL     OW 4900   6.064   1.730   3.894
 1334SOL    HW1 4901   5.987   1.669   3.874
 1334SOL    HW2 4902   6.148   1.690   3.857
 1335SOL     OW 4903   2.333   1.825   2.305
 1335SOL    HW1 4904   2.300   1.919   2.296
 1335SOL    HW2 4905   2.259   1.762   2.281
 1336SOL     OW 4906   2.335   2.477   5.436
 1336SOL    HW1 4907   2.378   2.403   5.385
 1336SOL    HW2 4908   2.277   2.530   5.375
 1337SOL     OW 4909   1.623   1.822   4.038
 1337SOL    HW1 4910   1.601   1.730   4.071
 1337SOL    HW2 4911   1.717   1.845   4.063
 1338SOL     OW 4912   5.698   2.530   5.258
 1338SOL    HW1 4913   5.727   2.448   5.208
 1338SOL    HW2 4914   5.770   2.599   5.252
 1339SOL     OW 4915   6.275   2.319   6.519
 1339SOL    HW1 4916   6.336   2.355   6.449
 1339SOL    HW2 4917   6.230   2.394   6.567
 1340SOL     OW 4918   6.312   2.327   3.095
 1340SOL    HW1 4919   6.379   2.356   3.027
 1340SOL    HW2 4920   6.248   2.262   3.054
 1341SOL     OW 4921   5.495   6.780   6.727
 1341SOL    HW1 4922   5.580   6.794   6.778
 1341SOL    HW2 4923   5.456   6.869   6.705
 1342SOL     OW 4924   2.989   6.173   5.907
 1342SOL    HW1 4925   3.075   6.129   5.882
 1342SOL    HW2 4926   2.927   6.106   5.945
 1343SOL     OW 4927   5.536   5.709   2.463
 1343SOL    HW1 4928   5.500   5.662   2.383
 1343SOL    HW2 4929   5.491   5.674   2.545
 1344SOL     OW 4930   0.155   6.115   4.619
 1344SOL    HW1 4931   0.166   6.183   4.691
 1344SOL    HW2 4932   0.098   6.040   4.652
 1345SOL     OW 4933   1.107   6.867   3.285
 1345SOL    HW1 4934   1.193   6.848   3.237
 1345SOL    HW2 4935   1.125   6.872   3.383
 1346SOL     OW 4936   0.822   5.343   4.544
 1346SOL    HW1 4937   0.836   5.244   4.556
 1346SOL    HW2 4938   0.788   5.382   4.629
 1347SOL     OW 4939   0.415   6.637   5.872
 1347SOL    HW1 4940   0.394   6.735   5.867
 1347SOL    HW2 4941   0.498   6.624   5.926
 1348SOL     OW 4942   5.747   6.198   3.688
 1348SOL    HW1 4943   5.766   6.108   3.727
 1348SOL    HW2 4944   5.833   6.245   3.667
 1349SOL     OW 4945   4.578   2.528   5.502
 1349SOL    HW1 4946   4.613   2.514   5.410
 1349SOL    HW2 4947   4.567   2.626   5.519
 1350SOL     OW 4948   5.143   5.443   5.698
 1350SOL    HW1 4949   5.216   5.416   5.760
 1350SOL    HW2 4950   5.180   5.507   5.630
 1351SOL     OW 4951   5.657   2.047   2.893
 1351SOL    HW1 4952   5.737   2.027   2.836
 1351SOL    HW2 4953   5.575   2.050   2.836
 1352SOL     OW 4954   6.807   6.410   2.809
 1352SOL    HW1 4955   6.745   6.484   2.782
 1352SOL    HW2 4956   6.902   6.441   2.802
 1353SOL     OW 4957   0.075   2.229   0.673
 1353SOL    HW1 4958   0.118   2.210   0.585
 1353SOL    HW2 4959   0.096   2.322   0.702
 1354SOL     OW 4960   1.122   4.119   1.849
 1354SOL    HW1 4961   1.183   4.197   1.862
 1354SOL    HW2 4962   1.084   4.090   1.937
 1355SOL     OW 4963   5.859   2.661   3.984
 1355SOL    HW1 4964   5.856   2.622   4.076
 1355SOL    HW2 4965   5.772   2.642   3.937
 1356SOL     OW 4966   3.565   3.427   2.414
 1356SOL    HW1 4967   3.509   3.373   2.352
 1356SOL    HW2 4968   3.645   3.374   2.442
 1357SOL     OW 4969   0.646   3.309   6.122
 1357SOL    HW1 4970   0.631   3.381   6.189
 1357SOL    HW2 4971   0.742   3.310   6.093
 1358SOL     OW 4972   3.975   6.485   6.227
 1358SOL    HW1 4973   3.931   6.572   6.205
 1358SOL    HW2 4974   3.940   6.452   6.315
 1359SOL     OW 4975   5.894   5.253   2.235
 1359SOL    HW1 4976   5.989   5.231   2.259
 1359SOL    HW2 4977   5.838   5.252   2.318
 1360SOL     OW 4978   2.958   3.092   0.273
 1360SOL    HW1 4979   2.912   3.160   0.330
 1360SOL    HW2 4980   3.004   3.137   0.197
 1361SOL     OW 4981   6.434   5.303   5.674
 1361SOL    HW1 4982   6.357   5.359   5.703
 1361SOL    HW2 4983   6.496   5.357   5.618
 1362SOL     OW 4984   3.101   4.006   3.406
 1362SOL    HW1 4985   3.019   3.955   3.431
 1362SOL    HW2 4986   3.108   4.010   3.306
 1363SOL     OW 4987   6.942   5.356   2.882
 1363SOL    HW1 4988   0.006   5.316   2.864
 1363SOL    HW2 4989   6.953   5.450   2.913
 1364SOL     OW 4990   6.527   3.905   1.094
 1364SOL    HW1 4991   6.567   3.934   1.181
 1364SOL    HW2 4992   6.449   3.845   1.111
 1365SOL     OW 4993   0.715   3.950   6.149
 1365SOL    HW1 4994   0.639   4.004   6.187
 1365SOL    HW2 4995   0.785   4.011   6.113
 1366SOL     OW 4996   1.070   4.810   0.206
 1366SOL    HW1 4997   1.070   4.906   0.178
 1366SOL    HW2 4998   1.160   4.770   0.189
 1367SOL     OW 4999   1.747   0.272   3.418
 1367SOL    HW1 5000   1.786   0.212   3.348
 1367SOL    HW2 5001   1.766   0.367   3.395
 1368SOL     OW 5002   5.714   0.691   3.272
 1368SOL    HW1 5003   5.681   0.785   3.262
 1368SOL    HW2 5004   5.681   0.636   3.195
 1369SOL     OW 5005   2.455   6.735   1.495
 1369SOL    HW1 5006   2.387   6.797   1.535
 1369SOL    HW2 5007   2.539   6.739   1.550
 1370SOL     OW 5008   3.631   0.523   0.873
 1370SOL    HW1 5009   3.613   0.493   0.779
 1370SOL    HW2 5010   3.631   0.623   0.877
 1371SOL     OW 5011   6.043   1.753   4.354
 1371SOL    HW1 5012   6.134   1.791   4.371
 1371SOL    HW2 5013   5.995   1.744   4.441
 1372SOL     OW 5014   1.415   3.077   0.341
 1372SOL    HW1 5015   1.342   3.016   0.308
 1372SOL    HW2 5016   1.434   3.145   0.271
 1373SOL     OW 5017   5.517   3.092   0.333
 1373SOL    HW1 5018   5.541   3.126   0.424
 1373SOL    HW2 5019   5.600   3.077   0.279
 1374SOL     OW 5020   4.712   2.068   0.028
 1374SOL    HW1 5021   4.670   2.056   6.964
 1374SOL    HW2 5022   4.811   2.051   0.021
 1375SOL     OW 5023   0.098   3.759   6.367
 1375SOL    HW1 5024   0.106   3.741   6.269
 1375SOL    HW2 5025   0.152   3.692   6.418
 1376SOL     OW 5026   4.667   4.286   4.636
 1376SOL    HW1 5027   4.657   4.322   4.729
 1376SOL    HW2 5028   4.682   4.187   4.641
 1377SOL     OW 5029   6.611   4.019   6.170
 1377SOL    HW1 5030   6.685   4.065   6.220
 1377SOL    HW2 5031   6.585   4.074   6.091
 1378SOL     OW 5032   6.262   0.896   4.788
 1378SOL    HW1 5033   6.188   0.942   4.836
 1378SOL    HW2 5034   6.350   0.929   4.822
 1379SOL     OW 5035   3.168   6.702   2.732
 1379SOL    HW1 5036   3.147   6.747   2.645
 1379SOL    HW2 5037   3.247   6.643   2.721
 1380SOL     OW 5038   0.416   0.210   2.771
 1380SOL    HW1 5039   0.515   0.211   2.783
 1380SOL    HW2 5040   0.384   0.303   2.754
 1381SOL     OW 5041   5.946   2.198   0.256
 1381SOL    HW1 5042   5.966   2.252   0.175
 1381SOL    HW2 5043   6.024   2.139   0.278
 1382SOL     OW 5044   4.637   4.645   0.667
 1382SOL    HW1 5045   4.644   4.644   0.567
 1382SOL    HW2 5046   4.601   4.733   0.697
 1383SOL     OW 5047   1.019   6.908   1.255
 1383SOL    HW1 5048   1.070   6.824   1.233
 1383SOL    HW2 5049   0.921   6.887   1.259
 1384SOL     OW 5050   4.004   0.345   2.476
 1384SOL    HW1 5051   4.103   0.357   2.461
 1384SOL    HW2 5052   3.967   0.426   2.521
 1385SOL     OW 5053   1.245   3.507   3.430
 1385SOL    HW1 5054   1.164   3.536   3.379
 1385SOL    HW2 5055   1.257   3.566   3.510
 1386SOL     OW 5056   2.403   1.504   4.849
 1386SOL    HW1 5057   2.359   1.427   4.803
 1386SOL    HW2 5058   2.396   1.586   4.793
 1387SOL     OW 5059   4.086   6.413   2.938
 1387SOL    HW1 5060   4.175   6.424   2.983
 1387SOL    HW2 5061   4.075   6.483   2.868
 1388SOL     OW 5062   0.161   6.519   2.970
 1388SOL    HW1 5063   0.183   6.552   3.061
 1388SOL    HW2 5064   0.150   6.419   2.973
 1389SOL     OW 5065   0.320   1.053   4.039
 1389SOL    HW1 5066   0.255   1.090   4.105
 1389SOL    HW2 5067   0.277   0.980   3.986
 1390SOL     OW 5068   4.799   2.292   6.257
 1390SOL    HW1 5069   4.892   2.321   6.232
 1390SOL    HW2 5070   4.736   2.368   6.243
 1391SOL     OW 5071   6.477   1.010   5.347
 1391SOL    HW1 5072   6.516   1.047   5.263
 1391SOL    HW2 5073   6.396   1.063   5.373
 1392SOL     OW 5074   5.416   6.031   6.440
 1392SOL    HW1 5075   5.374   6.113   6.480
 1392SOL    HW2 5076   5.440   6.050   6.345
 1393SOL     OW 5077   6.194   3.912   6.304
 1393SOL    HW1 5078   6.231   3.973   6.374
 1393SOL    HW2 5079   6.249   3.919   6.221
 1394SOL     OW 5080   4.133   6.435   3.599
 1394SOL    HW1 5081   4.121   6.336   3.611
 1394SOL    HW2 5082   4.064   6.470   3.536
 1395SOL     OW 5083   1.560   4.131   3.623
 1395SOL    HW1 5084   1.647   4.154   3.668
 1395SOL    HW2 5085   1.507   4.215   3.609
 1396SOL     OW 5086   1.544   0.076   4.004
 1396SOL    HW1 5087   1.542   0.175   4.009
 1396SOL    HW2 5088   1.514   0.046   3.914
 1397SOL     OW 5089   0.458   5.982   4.331
 1397SOL    HW1 5090   0.361   5.983   4.308
 1397SOL    HW2 5091   0.495   6.075   4.321
 1398SOL     OW 5092   1.239   1.559   6.527
 1398SOL    HW1 5093   1.197   1.524   6.444
 1398SOL    HW2 5094   1.246   1.485   6.594
 1399SOL     OW 5095   4.413   0.435   0.097
 1399SOL    HW1 5096   4.386   0.341   0.118
 1399SOL    HW2 5097   4.494   0.434   0.038
 1400SOL     OW 5098   6.802   2.190   4.473
 1400SOL    HW1 5099   6.853   2.122   4.420
 1400SOL    HW2 5100   6.761   2.146   4.553
 1401SOL     OW 5101   6.386   6.542   4.563
 1401SOL    HW1 5102   6.316   6.578   4.625
 1401SOL    HW2 5103   6.454   6.613   4.546
 1402SOL     OW 5104   5.778   3.955   6.661
 1402SOL    HW1 5105   5.820   3.908   6.739
 1402SOL    HW2 5106   5.681   3.971   6.679
 1403SOL     OW 5107   2.226   2.117   1.043
 1403SOL    HW1 5108   2.272   2.072   1.120
 1403SOL    HW2 5109   2.293   2.137   0.971
 1404SOL     OW 5110   5.699   6.976   0.262
 1404SOL    HW1 5111   5.661   7.023   0.182
 1404SOL    HW2 5112   5.658   7.014   0.345
 1405SOL     OW 5113   2.787   3.358   0.306
 1405SOL    HW1 5114   2.716   3.286   0.304
 1405SOL    HW2 5115   2.746   3.444   0.336
 1406SOL     OW 5116   2.054   4.966   0.722
 1406SOL    HW1 5117   2.147   4.977   0.757
 1406SOL    HW2 5118   2.059   4.941   0.625
 1407SOL     OW 5119   1.586   3.837   3.395
 1407SOL    HW1 5120   1.619   3.743   3.391
 1407SOL    HW2 5121   1.497   3.842   3.348
 1408SOL     OW 5122   5.264   6.644   6.776
 1408SOL    HW1 5123   5.346   6.699   6.764
 1408SOL    HW2 5124   5.282   6.571   6.842
 1409SOL     OW 5125   6.997   1.151   4.808
 1409SOL    HW1 5126   6.977   1.069   4.756
 1409SOL    HW2 5127   6.931   1.161   4.882
 1410SOL     OW 5128   3.519   3.877   0.368
 1410SOL    HW1 5129   3.561   3.928   0.443
 1410SOL    HW2 5130   3.438   3.925   0.336
 1411SOL     OW 5131   3.799   6.222   6.243
 1411SOL    HW1 5132   3.834   6.260   6.157
 1411SOL    HW2 5133   3.872   6.172   6.289
 1412SOL     OW 5134   0.608   4.473   1.911
 1412SOL    HW1 5135   0.675   4.398   1.914
 1412SOL    HW2 5136   0.655   4.559   1.889
 1413SOL     OW 5137   1.405   1.653   4.364
 1413SOL    HW1 5138   1.494   1.624   4.329
 1413SOL    HW2 5139   1.362   1.715   4.299
 1414SOL     OW 5140   1.727   2.621   1.698
 1414SOL    HW1 5141   1.669   2.540   1.711
 1414SOL    HW2 5142   1.725   2.649   1.602
 1415SOL     OW 5143   3.090   1.905   4.197
 1415SOL    HW1 5144   3.163   1.965   4.227
 1415SOL    HW2 5145   3.113   1.867   4.107
 1416SOL     OW 5146   4.061   0.722   4.361
 1416SOL    HW1 5147   4.137   0.715   4.425
 1416SOL    HW2 5148   4.086   0.784   4.286
 1417SOL     OW 5149   3.498   2.684   6.176
 1417SOL    HW1 5150   3.535   2.693   6.083
 1417SOL    HW2 5151   3.403   2.715   6.177
 1418SOL     OW 5152   3.252   3.542   0.224
 1418SOL    HW1 5153   3.291   3.452   0.244
 1418SOL    HW2 5154   3.154   3.532   0.205
 1419SOL     OW 5155   2.186   5.543   4.113
 1419SOL    HW1 5156   2.273   5.494   4.126
 1419SOL    HW2 5157   2.115   5.478   4.085
 1420SOL     OW 5158   3.459   5.275   2.578
 1420SOL    HW1 5159   3.372   5.233   2.552
 1420SOL    HW2 5160   3.531   5.243   2.517
 1421SOL     OW 5161   1.232   4.212   4.167
 1421SOL    HW1 5162   1.282   4.126   4.178
 1421SOL    HW2 5163   1.272   4.265   4.093
 1422SOL     OW 5164   3.379   4.445   5.812
 1422SOL    HW1 5165   3.338   4.440   5.903
 1422SOL    HW2 5166   3.332   4.380   5.751
 1423SOL     OW 5167   3.559   1.459   5.291
 1423SOL    HW1 5168   3.598   1.551   5.278
 1423SOL    HW2 5169   3.480   1.447   5.231
 1424SOL     OW 5170   6.540   3.697   0.000
 1424SOL    HW1 5171   6.440   3.702   0.003
 1424SOL    HW2 5172   6.568   3.601   0.003
 1425SOL     OW 5173   2.271   5.760   5.224
 1425SOL    HW1 5174   2.328   5.685   5.190
 1425SOL    HW2 5175   2.324   5.845   5.223
 1426SOL     OW 5176   1.831   1.597   6.205
 1426SOL    HW1 5177   1.774   1.601   6.287
 1426SOL    HW2 5178   1.777   1.623   6.125
 1427SOL     OW 5179   0.049   0.481   3.903
 1427SOL    HW1 5180   0.040   0.504   4.000
 1427SOL    HW2 5181   6.997   0.522   3.853
 1428SOL     OW 5182   6.935   1.836   2.095
 1428SOL    HW1 5183   7.011   1.847   2.159
 1428SOL    HW2 5184   6.956   1.885   2.011
 1429SOL     OW 5185   5.732   1.586   6.820
 1429SOL    HW1 5186   5.693   1.618   6.734
 1429SOL    HW2 5187   5.782   1.501   6.805
 1430SOL     OW 5188   2.181   3.882   4.397
 1430SOL    HW1 5189   2.252   3.919   4.337
 1430SOL    HW2 5190   2.169   3.941   4.476
 1431SOL     OW 5191   2.481   2.515   6.775
 1431SOL    HW1 5192   2.539   2.486   6.698
 1431SOL    HW2 5193   2.398   2.557   6.739
 1432SOL     OW 5194   2.145   1.299   1.582
 1432SOL    HW1 5195   2.107   1.391   1.593
 1432SOL    HW2 5196   2.100   1.252   1.507
 1433SOL     OW 5197   4.188   6.711   4.066
 1433SOL    HW1 5198   4.220   6.631   4.016
 1433SOL    HW2 5199   4.233   6.714   4.156
 1434SOL     OW 5200   6.696   1.136   6.484
 1434SOL    HW1 5201   6.674   1.212   6.423
 1434SOL    HW2 5202   6.794   1.116   6.479
 1435SOL     OW 5203   6.686   0.913   3.704
 1435SOL    HW1 5204   6.616   0.895   3.773
 1435SOL    HW2 5205   6.698   0.832   3.647
 1436SOL     OW 5206   5.902   3.605   0.224
 1436SOL    HW1 5207   5.920   3.598   0.322
 1436SOL    HW2 5208   5.872   3.697   0.202
 1437SOL     OW 5209   3.091   0.564   5.410
 1437SOL    HW1 5210   3.109   0.614   5.325
 1437SOL    HW2 5211   3.142   0.607   5.484
 1438SOL     OW 5212   2.928   0.512   1.741
 1438SOL    HW1 5213   2.856   0.516   1.809
 1438SOL    HW2 5214   3.017   0.519   1.786
 1439SOL     OW 5215   0.860   5.195   1.024
 1439SOL    HW1 5216   0.835   5.243   0.940
 1439SOL    HW2 5217   0.938   5.242   1.066
 1440SOL     OW 5218   3.831   3.426   4.906
 1440SOL    HW1 5219   3.820   3.478   4.990
 1440SOL    HW2 5220   3.847   3.330   4.927
 1441SOL     OW 5221   6.530   3.661   4.098
 1441SOL    HW1 5222   6.483   3.576   4.076
 1441SOL    HW2 5223   6.628   3.650   4.083
 1442SOL     OW 5224   6.584   4.747   0.375
 1442SOL    HW1 5225   6.593   4.756   0.276
 1442SOL    HW2 5226   6.487   4.739   0.399
 1443SOL     OW 5227   0.974   2.266   4.529
 1443SOL    HW1 5228   0.977   2.166   4.529
 1443SOL    HW2 5229   0.983   2.300   4.436
 1444SOL     OW 5230   4.461   6.514   1.944
 1444SOL    HW1 5231   4.392   6.502   1.873
 1444SOL    HW2 5232   4.422   6.492   2.033
 1445SOL     OW 5233   0.367   2.522   2.347
 1445SOL    HW1 5234   0.290   2.509   2.284
 1445SOL    HW2 5235   0.429   2.444   2.341
 1446SOL     OW 5236   5.183   2.210   6.212
 1446SOL    HW1 5237   5.124   2.263   6.151
 1446SOL    HW2 5238   5.154   2.222   6.307
 1447SOL     OW 5239   6.559   0.114   4.810
 1447SOL    HW1 5240   6.607   0.193   4.773
 1447SOL    HW2 5241   6.591   0.031   4.765
 1448SOL     OW 5242   6.219   2.410   0.449
 1448SOL    HW1 5243   6.259   2.318   0.440
 1448SOL    HW2 5244   6.291   2.478   0.441
 1449SOL     OW 5245   6.240   0.178   6.827
 1449SOL    HW1 5246   6.244   0.265   6.876
 1449SOL    HW2 5247   6.183   0.188   6.746
 1450SOL     OW 5248   0.168   2.425   2.189
 1450SOL    HW1 5249   0.104   2.501   2.198
 1450SOL    HW2 5250   0.120   2.344   2.156
 1451SOL     OW 5251   3.151   0.498   2.049
 1451SOL    HW1 5252   3.175   0.574   2.108
 1451SOL    HW2 5253   3.167   0.523   1.953
 1452SOL     OW 5254   4.770   2.498   4.560
 1452SOL    HW1 5255   4.778   2.425   4.492
 1452SOL    HW2 5256   4.759   2.459   4.651
 1453SOL     OW 5257   6.681   3.742   5.289
 1453SOL    HW1 5258   6.742   3.694   5.226
 1453SOL    HW2 5259   6.609   3.788   5.237
 1454SOL     OW 5260   6.567   2.548   2.379
 1454SOL    HW1 5261   6.553   2.637   2.421
 1454SOL    HW2 5262   6.589   2.559   2.282
 1455SOL     OW 5263   1.778   0.577   1.798
 1455SOL    HW1 5264   1.786   0.488   1.753
 1455SOL    HW2 5265   1.685   0.611   1.790
 1456SOL     OW 5266   6.193   0.032   5.330
 1456SOL    HW1 5267   6.203   0.131   5.314
 1456SOL    HW2 5268   6.169   7.012   5.244
 1457SOL     OW 5269   1.567   0.109   1.911
 1457SOL    HW1 5270   1.515   0.186   1.948
 1457SOL    HW2 5271   1.529   0.023   1.947
 1458SOL     OW 5272   4.918   6.321   3.937
 1458SOL    HW1 5273   4.882   6.409   3.906
 1458SOL    HW2 5274   4.887   6.304   4.031
 1459SOL     OW 5275   2.986   4.539   6.201
 1459SOL    HW1 5276   3.048   4.461   6.199
 1459SOL    HW2 5277   3.025   4.615   6.150
 1460SOL     OW 5278   0.346   5.198   6.125
 1460SOL    HW1 5279   0.421   5.215   6.061
 1460SOL    HW2 5280   0.330   5.099   6.132
 1461SOL     OW 5281   0.430   4.629   3.573
 1461SOL    HW1 5282   0.477   4.573   3.641
 1461SOL    HW2 5283   0.392   4.711   3.618
 1462SOL     OW 5284   6.744   1.276   5.961
 1462SOL    HW1 5285   6.822   1.243   6.014
 1462SOL    HW2 5286   6.694   1.198   5.923
 1463SOL     OW 5287   0.068   5.699   6.351
 1463SOL    HW1 5288   0.126   5.687   6.270
 1463SOL    HW2 5289   0.119   5.674   6.432
 1464SOL     OW 5290   6.401   6.643   1.001
 1464SOL    HW1 5291   6.417   6.596   0.914
 1464SOL    HW2 5292   6.419   6.580   1.077
 1465SOL     OW 5293   1.406   1.861   2.708
 1465SOL    HW1 5294   1.326   1.908   2.743
 1465SOL    HW2 5295   1.433   1.902   2.621
 1466SOL     OW 5296   1.269   0.629   2.742
 1466SOL    HW1 5297   1.208   0.603   2.667
 1466SOL    HW2 5298   1.262   0.728   2.758
 1467SOL     OW 5299   2.180   1.553   1.916
 1467SOL    HW1 5300   2.274   1.563   1.950
 1467SOL    HW2 5301   2.120   1.530   1.992
 1468SOL     OW 5302   5.149   5.478   2.933
 1468SOL    HW1 5303   5.192   5.404   2.881
 1468SOL    HW2 5304   5.198   5.564   2.916
 1469SOL     OW 5305   1.129   0.469   2.520
 1469SOL    HW1 5306   1.212   0.488   2.469
 1469SOL    HW2 5307   1.113   0.370   2.523
 1470SOL     OW 5308   1.628   1.160   2.735
 1470SOL    HW1 5309   1.690   1.238   2.728
 1470SOL    HW2 5310   1.576   1.150   2.650
 1471SOL     OW 5311   0.448   0.708   0.754
 1471SOL    HW1 5312   0.534   0.687   0.801
 1471SOL    HW2 5313   0.383   0.633   0.768
 1472SOL     OW 5314   4.358   5.461   4.932
 1472SOL    HW1 5315   4.317   5.412   4.856
 1472SOL    HW2 5316   4.404   5.396   4.993
 1473SOL     OW 5317   5.806   5.929   4.152
 1473SOL    HW1 5318   5.888   5.935   4.096
 1473SOL    HW2 5319   5.822   5.970   4.242
 1474SOL     OW 5320   6.456   6.080   4.032
 1474SOL    HW1 5321   6.473   6.059   4.129
 1474SOL    HW2 5322   6.358   6.075   4.014
 1475SOL     OW 5323   6.332   0.158   1.326
 1475SOL    HW1 5324   6.239   0.187   1.303
 1475SOL    HW2 5325   6.329   0.065   1.362
 1476SOL     OW 5326   1.410   1.565   0.936
 1476SOL    HW1 5327   1.474   1.627   0.981
 1476SOL    HW2 5328   1.364   1.509   1.004
 1477SOL     OW 5329   2.349   0.263   6.465
 1477SOL    HW1 5330   2.302   0.350   6.452
 1477SOL    HW2 5331   2.434   0.263   6.413
 1478SOL     OW 5332   5.329   4.444   0.237
 1478SOL    HW1 5333   5.425   4.436   0.263
 1478SOL    HW2 5334   5.315   4.401   0.148
 1479SOL     OW 5335   1.630   3.550   0.011
 1479SOL    HW1 5336   1.643   3.499   6.952
 1479SOL    HW2 5337   1.678   3.503   0.086
 1480SOL     OW 5338   2.492   0.037   6.719
 1480SOL    HW1 5339   2.405   0.084   6.711
 1480SOL    HW2 5340   2.559   0.082   6.659
 1481SOL     OW 5341   0.117   2.356   4.990
 1481SOL    HW1 5342   0.021   2.337   4.968
 1481SOL    HW2 5343   0.175   2.331   4.913
 1482SOL     OW 5344   5.274   2.230   1.381
 1482SOL    HW1 5345   5.283   2.329   1.397
 1482SOL    HW2 5346   5.178   2.208   1.366
 1483SOL     OW 5347   6.806   2.630   6.276
 1483SOL    HW1 5348   6.860   2.710   6.303
 1483SOL    HW2 5349   6.833   2.601   6.184
 1484SOL     OW 5350   5.944   4.594   4.106
 1484SOL    HW1 5351   6.005   4.600   4.027
 1484SOL    HW2 5352   5.917   4.686   4.134
 1485SOL     OW 5353   3.922   2.156   2.504
 1485SOL    HW1 5354   3.857   2.165   2.428
 1485SOL    HW2 5355   3.906   2.070   2.552
 1486SOL     OW 5356   4.778   2.568   2.863
 1486SOL    HW1 5357   4.815   2.490   2.813
 1486SOL    HW2 5358   4.686   2.547   2.894
 1487SOL     OW 5359   6.866   2.598   0.016
 1487SOL    HW1 5360   6.848   2.675   0.077
 1487SOL    HW2 5361   6.821   2.613   6.954
 1488SOL     OW 5362   6.111   2.148   3.013
 1488SOL    HW1 5363   6.055   2.156   3.096
 1488SOL    HW2 5364   6.076   2.210   2.943
 1489SOL     OW 5365   3.998   5.280   4.033
 1489SOL    HW1 5366   3.994   5.302   4.130
 1489SOL    HW2 5367   4.022   5.362   3.981
 1490SOL     OW 5368   1.421   3.054   1.482
 1490SOL    HW1 5369   1.445   2.970   1.530
 1490SOL    HW2 5370   1.329   3.083   1.509
 1491SOL     OW 5371   5.954   3.399   3.845
 1491SOL    HW1 5372   6.004   3.443   3.920
 1491SOL    HW2 5373   5.863   3.439   3.837
 1492SOL     OW 5374   5.667   1.806   2.005
 1492SOL    HW1 5375   5.627   1.828   2.094
 1492SOL    HW2 5376   5.621   1.726   1.967
 1493SOL     OW 5377   5.185   0.024   4.343
 1493SOL    HW1 5378   5.109   0.001   4.404
 1493SOL    HW2 5379   5.151   0.078   4.266
 1494SOL     OW 5380   4.316   2.482   6.209
 1494SOL    HW1 5381   4.342   2.504   6.303
 1494SOL    HW2 5382   4.244   2.545   6.179
 1495SOL     OW 5383   0.524   3.046   4.316
 1495SOL    HW1 5384   0.622   3.062   4.324
 1495SOL    HW2 5385   0.491   3.002   4.399
 1496SOL     OW 5386   1.178   1.432   2.468
 1496SOL    HW1 5387   1.223   1.517   2.496
 1496SOL    HW2 5388   1.147   1.383   2.550
 1497SOL     OW 5389   0.782   3.464   2.686
 1497SOL    HW1 5390   0.779   3.393   2.756
 1497SOL    HW2 5391   0.718   3.537   2.710
 1498SOL     OW 5392   1.354   4.774   6.154
 1498SOL    HW1 5393   1.440   4.821   6.135
 1498SOL    HW2 5394   1.328   4.787   6.249
 1499SOL     OW 5395   1.376   3.574   5.544
 1499SOL    HW1 5396   1.399   3.477   5.551
 1499SOL    HW2 5397   1.306   3.587   5.474
 1500SOL     OW 5398   5.785   6.637   6.797
 1500SOL    HW1 5399   5.800   6.704   6.724
 1500SOL    HW2 5400   5.823   6.671   6.882
 1501SOL     OW 5401   4.498   1.374   6.739
 1501SOL    HW1 5402   4.589   1.414   6.736
 1501SOL    HW2 5403   4.451   1.406   6.822
 1502SOL     OW 5404   5.957   6.966   1.209
 1502SOL    HW1 5405   5.870   6.988   1.165
 1502SOL    HW2 5406   5.996   0.024   1.248
 1503SOL     OW 5407   2.652   1.226   2.141
 1503SOL    HW1 5408   2.698   1.268   2.063
 1503SOL    HW2 5409   2.696   1.138   2.162
 1504SOL     OW 5410   1.201   1.293   4.689
 1504SOL    HW1 5411   1.180   1.333   4.778
 1504SOL    HW2 5412   1.251   1.359   4.634
 1505SOL     OW 5413   5.732   0.916   6.573
 1505SOL    HW1 5414   5.759   0.966   6.490
 1505SOL    HW2 5415   5.694   0.827   6.547
 1506SOL     OW 5416   2.194   5.467   2.158
 1506SOL    HW1 5417   2.141   5.492   2.077
 1506SOL    HW2 5418   2.219   5.370   2.153
 1507SOL     OW 5419   1.069   2.194   5.781
 1507SOL    HW1 5420   1.014   2.122   5.824
 1507SOL    HW2 5421   1.045   2.200   5.684
 1508SOL     OW 5422   5.849   1.028   1.455
 1508SOL    HW1 5423   5.917   1.032   1.381
 1508SOL    HW2 5424   5.762   0.997   1.418
 1509SOL     OW 5425   4.269   2.629   6.772
 1509SOL    HW1 5426   4.171   2.651   6.780
 1509SOL    HW2 5427   4.322   2.713   6.779
 1510SOL     OW 5428   5.826   2.468   3.704
 1510SOL    HW1 5429   5.792   2.413   3.627
 1510SOL    HW2 5430   5.751   2.524   3.740
 1511SOL     OW 5431   3.056   2.666   1.025
 1511SOL    HW1 5432   3.056   2.582   1.080
 1511SOL    HW2 5433   2.990   2.731   1.062
 1512SOL     OW 5434   6.990   6.500   1.788
 1512SOL    HW1 5435   6.977   6.597   1.813
 1512SOL    HW2 5436   0.041   6.492   1.724
 1513SOL     OW 5437   4.188   0.485   3.798
 1513SOL    HW1 5438   4.213   0.414   3.733
 1513SOL    HW2 5439   4.089   0.483   3.814
 1514SOL     OW 5440   5.545   2.928   5.255
 1514SOL    HW1 5441   5.574   2.907   5.162
 1514SOL    HW2 5442   5.445   2.937   5.257
 1515SOL     OW 5443   6.380   3.357   5.451
 1515SOL    HW1 5444   6.472   3.387   5.424
 1515SOL    HW2 5445   6.339   3.425   5.512
 1516SOL     OW 5446   0.808   0.410   0.915
 1516SOL    HW1 5447   0.845   0.447   1.000
 1516SOL    HW2 5448   0.878   0.354   0.870
 1517SOL     OW 5449   4.297   5.702   3.067
 1517SOL    HW1 5450   4.220   5.694   3.003
 1517SOL    HW2 5451   4.361   5.771   3.034
 1518SOL     OW 5452   0.762   3.151   0.181
 1518SOL    HW1 5453   0.775   3.176   0.277
 1518SOL    HW2 5454   0.740   3.232   0.127
 1519SOL     OW 5455   6.936   4.783   1.916
 1519SOL    HW1 5456   6.930   4.846   1.993
 1519SOL    HW2 5457   6.865   4.713   1.923
 1520SOL     OW 5458   1.339   3.014   2.444
 1520SOL    HW1 5459   1.253   3.002   2.493
 1520SOL    HW2 5460   1.368   3.110   2.449
 1521SOL     OW 5461   2.819   3.605   7.023
 1521SOL    HW1 5462   2.723   3.579   7.014
 1521SOL    HW2 5463   2.825   3.703   0.016
 1522SOL     OW 5464   6.567   1.435   5.228
 1522SOL    HW1 5465   6.591   1.519   5.277
 1522SOL    HW2 5466   6.619   1.430   5.143
 1523SOL     OW 5467   5.291   4.162   0.326
 1523SOL    HW1 5468   5.359   4.235   0.330
 1523SOL    HW2 5469   5.216   4.189   0.266
 1524SOL     OW 5470   1.007   1.877   1.647
 1524SOL    HW1 5471   0.974   1.789   1.613
 1524SOL    HW2 5472   0.942   1.913   1.714
 1525SOL     OW 5473   5.946   2.183   6.774
 1525SOL    HW1 5474   5.910   2.090   6.769
 1525SOL    HW2 5475   6.014   2.196   6.702
 1526SOL     OW 5476   1.736   0.759   6.778
 1526SOL    HW1 5477   1.650   0.750   6.727
 1526SOL    HW2 5478   1.758   0.855   6.790
 1527SOL     OW 5479   3.476   0.546   5.382
 1527SOL    HW1 5480   3.524   0.514   5.463
 1527SOL    HW2 5481   3.532   0.530   5.301
 1528SOL     OW 5482   5.046   5.571   2.474
 1528SOL    HW1 5483   4.954   5.607   2.461
 1528SOL    HW2 5484   5.101   5.591   2.393
 1529SOL     OW 5485   3.961   1.081   0.241
 1529SOL    HW1 5486   3.869   1.046   0.224
 1529SOL    HW2 5487   3.960   1.138   0.323
 1530SOL     OW 5488   2.674   0.619   1.899
 1530SOL    HW1 5489   2.711   0.692   1.842
 1530SOL    HW2 5490   2.707   0.630   1.993
 1531SOL     OW 5491   5.977   1.605   4.709
 1531SOL    HW1 5492   5.902   1.539   4.704
 1531SOL    HW2 5493   6.041   1.576   4.780
 1532SOL     OW 5494   2.655   2.988   6.262
 1532SOL    HW1 5495   2.575   3.002   6.321
 1532SOL    HW2 5496   2.664   3.066   6.200
 1533SOL     OW 5497   0.210   3.536   6.468
 1533SOL    HW1 5498   0.294   3.506   6.512
 1533SOL    HW2 5499   0.197   3.486   6.383
 1534SOL     OW 5500   1.257   4.713   6.549
 1534SOL    HW1 5501   1.241   4.616   6.529
 1534SOL    HW2 5502   1.353   4.727   6.572
 1535SOL     OW 5503   5.097   6.102   4.111
 1535SOL    HW1 5504   5.167   6.173   4.103
 1535SOL    HW2 5505   5.120   6.041   4.187
 1536SOL     OW 5506   4.180   4.474   5.646
 1536SOL    HW1 5507   4.104   4.437   5.593
 1536SOL    HW2 5508   4.144   4.514   5.731
 1537SOL     OW 5509   4.093   5.545   2.443
 1537SOL    HW1 5510   4.046   5.599   2.373
 1537SOL    HW2 5511   4.026   5.501   2.502
 1538SOL     OW 5512   3.070   5.673   6.129
 1538SOL    HW1 5513   3.058   5.755   6.074
 1538SOL    HW2 5514   3.039   5.593   6.076
 1539SOL     OW 5515   4.221   4.419   1.305
 1539SOL    HW1 5516   4.315   4.443   1.279
 1539SOL    HW2 5517   4.165   4.412   1.223
 1540SOL     OW 5518   1.110   0.013   5.395
 1540SOL    HW1 5519   1.051   6.961   5.417
 1540SOL    HW2 5520   1.064   0.098   5.421
 1541SOL     OW 5521   3.519   3.144   2.017
 1541SOL    HW1 5522   3.607   3.190   2.005
 1541SOL    HW2 5523   3.525   3.082   2.095
 1542SOL     OW 5524   0.122   5.594   1.390
 1542SOL    HW1 5525   0.126   5.526   1.464
 1542SOL    HW2 5526   0.071   5.674   1.421
 1543SOL     OW 5527   3.025   3.355   4.119
 1543SOL    HW1 5528   3.020   3.263   4.080
 1543SOL    HW2 5529   3.025   3.349   4.219
 1544SOL     OW 5530   2.925   3.794   2.549
 1544SOL    HW1 5531   2.995   3.731   2.514
 1544SOL    HW2 5532   2.850   3.800   2.483
 1545SOL     OW 5533   5.304   1.039   4.842
 1545SOL    HW1 5534   5.309   0.957   4.785
 1545SOL    HW2 5535   5.267   1.115   4.788
 1546SOL     OW 5536   5.469   0.378   6.022
 1546SOL    HW1 5537   5.466   0.447   6.094
 1546SOL    HW2 5538   5.560   0.378   5.980
 1547SOL     OW 5539   2.601   4.648   2.761
 1547SOL    HW1 5540   2.502   4.646   2.776
 1547SOL    HW2 5541   2.648   4.639   2.848
 1548SOL     OW 5542   5.143   3.343   6.071
 1548SOL    HW1 5543   5.150   3.246   6.051
 1548SOL    HW2 5544   5.148   3.358   6.169
 1549SOL     OW 5545   5.302   1.404   2.391
 1549SOL    HW1 5546   5.244   1.442   2.463
 1549SOL    HW2 5547   5.388   1.456   2.387
 1550SOL     OW 5548   3.218   6.039   5.793
 1550SOL    HW1 5549   3.237   5.978   5.716
 1550SOL    HW2 5550   3.294   6.036   5.858
 1551SOL     OW 5551   2.230   3.101   0.631
 1551SOL    HW1 5552   2.240   3.021   0.571
 1551SOL    HW2 5553   2.176   3.075   0.711
 1552SOL     OW 5554   0.271   0.151   1.303
 1552SOL    HW1 5555   0.185   0.197   1.284
 1552SOL    HW2 5556   0.268   0.111   1.395
 1553SOL     OW 5557   6.529   1.892   6.268
 1553SOL    HW1 5558   6.484   1.830   6.332
 1553SOL    HW2 5559   6.496   1.875   6.176
 1554SOL     OW 5560   3.464   2.092   2.493
 1554SOL    HW1 5561   3.371   2.117   2.517
 1554SOL    HW2 5562   3.528   2.129   2.560
 1555SOL     OW 5563   4.859   2.439   5.856
 1555SOL    HW1 5564   4.802   2.425   5.775
 1555SOL    HW2 5565   4.837   2.528   5.898
 1556SOL     OW 5566   3.737   0.972   0.195
 1556SOL    HW1 5567   3.673   1.043   0.224
 1556SOL    HW2 5568   3.724   0.890   0.250
 1557SOL     OW 5569   3.043   1.771   0.521
 1557SOL    HW1 5570   3.101   1.696   0.554
 1557SOL    HW2 5571   3.076   1.858   0.557
 1558SOL     OW 5572   5.740   1.935   4.269
 1558SOL    HW1 5573   5.744   1.858   4.332
 1558SOL    HW2 5574   5.822   1.936   4.212
 1559SOL     OW 5575   0.285   2.666   0.682
 1559SOL    HW1 5576   0.358   2.612   0.723
 1559SOL    HW2 5577   0.284   2.758   0.722
 1560SOL     OW 5578   2.724   1.337   6.513
 1560SOL    HW1 5579   2.635   1.372   6.485
 1560SOL    HW2 5580   2.753   1.382   6.597
 1561SOL     OW 5581   5.280   5.710   3.410
 1561SOL    HW1 5582   5.376   5.701   3.385
 1561SOL    HW2 5583   5.223   5.661   3.344
 1562SOL     OW 5584   4.059   6.329   1.545
 1562SOL    HW1 5585   3.964   6.351   1.567
 1562SOL    HW2 5586   4.104   6.411   1.510
 1563SOL     OW 5587   2.110   1.835   5.864
 1563SOL    HW1 5588   2.075   1.769   5.797
 1563SOL    HW2 5589   2.206   1.813   5.883
 1564SOL     OW 5590   1.364   2.547   2.521
 1564SOL    HW1 5591   1.365   2.553   2.621
 1564SOL    HW2 5592   1.426   2.473   2.492
 1565SOL     OW 5593   4.000   5.206   4.665
 1565SOL    HW1 5594   4.089   5.241   4.692
 1565SOL    HW2 5595   3.973   5.245   4.577
 1566SOL     OW 5596   6.411   5.347   4.789
 1566SOL    HW1 5597   6.485   5.329   4.724
 1566SOL    HW2 5598   6.329   5.297   4.761
 1567SOL     OW 5599   6.485   5.840   0.516
 1567SOL    HW1 5600   6.503   5.788   0.600
 1567SOL    HW2 5601   6.386   5.852   0.506
 1568SOL     OW 5602   2.225   6.611   2.990
 1568SOL    HW1 5603   2.266   6.525   2.959
 1568SOL    HW2 5604   2.256   6.686   2.930
 1569SOL     OW 5605   3.907   6.598   3.490
 1569SOL    HW1 5606   3.927   6.648   3.406
 1569SOL    HW2 5607   3.808   6.582   3.497
 1570SOL     OW 5608   1.392   6.734   0.423
 1570SOL    HW1 5609   1.336   6.670   0.477
 1570SOL    HW2 5610   1.462   6.683   0.374
 1571SOL     OW 5611   6.798   1.769   3.164
 1571SOL    HW1 5612   6.813   1.868   3.173
 1571SOL    HW2 5613   6.735   1.752   3.088
 1572SOL     OW 5614   2.104   5.680   1.272
 1572SOL    HW1 5615   2.021   5.688   1.329
 1572SOL    HW2 5616   2.155   5.599   1.299
 1573SOL     OW 5617   6.197   5.494   1.838
 1573SOL    HW1 5618   6.122   5.554   1.811
 1573SOL    HW2 5619   6.210   5.424   1.767
 1574SOL     OW 5620   6.689   2.278   3.072
 1574SOL    HW1 5621   6.776   2.230   3.069
 1574SOL    HW2 5622   6.661   2.292   3.167
 1575SOL     OW 5623   2.475   1.287   1.827
 1575SOL    HW1 5624   2.518   1.335   1.751
 1575SOL    HW2 5625   2.483   1.342   1.910
 1576SOL     OW 5626   0.588   0.123   3.704
 1576SOL    HW1 5627   0.657   0.051   3.711
 1576SOL    HW2 5628   0.633   0.212   3.710
 1577SOL     OW 5629   2.226   0.972   5.568
 1577SOL    HW1 5630   2.163   0.991   5.644
 1577SOL    HW2 5631   2.207   1.035   5.493
 1578SOL     OW 5632   5.052   1.549   5.512
 1578SOL    HW1 5633   5.081   1.516   5.422
 1578SOL    HW2 5634   4.957   1.580   5.508
 1579SOL     OW 5635   6.961   1.629   2.426
 1579SOL    HW1 5636   7.003   1.716   2.405
 1579SOL    HW2 5637   6.915   1.634   2.515
 1580SOL     OW 5638   3.541   4.124   4.014
 1580SOL    HW1 5639   3.446   4.132   3.985
 1580SOL    HW2 5640   3.598   4.106   3.933
 1581SOL     OW 5641   6.637   4.807   5.667
 1581SOL    HW1 5642   6.722   4.758   5.650
 1581SOL    HW2 5643   6.618   4.868   5.590
 1582SOL     OW 5644   3.035   6.051   4.831
 1582SOL    HW1 5645   3.097   5.989   4.783
 1582SOL    HW2 5646   2.985   6.106   4.764
 1583SOL     OW 5647   0.344   5.739   3.542
 1583SOL    HW1 5648   0.263   5.789   3.515
 1583SOL    HW2 5649   0.354   5.742   3.642
 1584SOL     OW 5650   0.574   5.115   5.664
 1584SOL    HW1 5651   0.638   5.184   5.630
 1584SOL    HW2 5652   0.519   5.080   5.588
 1585SOL     OW 5653   4.306   2.336   2.608
 1585SOL    HW1 5654   4.219   2.325   2.656
 1585SOL    HW2 5655   4.316   2.265   2.538
 1586SOL     OW 5656   2.948   5.078   2.380
 1586SOL    HW1 5657   2.945   5.096   2.282
 1586SOL    HW2 5658   2.877   5.131   2.426
 1587SOL     OW 5659   2.502   5.577   5.134
 1587SOL    HW1 5660   2.535   5.670   5.115
 1587SOL    HW2 5661   2.571   5.511   5.106
 1588SOL     OW 5662   4.589   1.025   1.934
 1588SOL    HW1 5663   4.587   0.937   1.983
 1588SOL    HW2 5664   4.613   1.098   1.999
 1589SOL     OW 5665   0.312   3.123   2.346
 1589SOL    HW1 5666   0.280   3.029   2.335
 1589SOL    HW2 5667   0.411   3.127   2.329
 1590SOL     OW 5668   4.946   0.683   3.822
 1590SOL    HW1 5669   4.874   0.661   3.888
 1590SOL    HW2 5670   4.923   0.768   3.776
 1591SOL     OW 5671   6.907   5.938   1.260
 1591SOL    HW1 5672   6.909   5.992   1.176
 1591SOL    HW2 5673   6.973   5.975   1.325
 1592SOL     OW 5674   2.219   4.079   6.589
 1592SOL    HW1 5675   2.301   4.037   6.550
 1592SOL    HW2 5676   2.173   4.013   6.648
 1593SOL     OW 5677   0.748   6.981   5.195
 1593SOL    HW1 5678   0.823   0.008   5.154
 1593SOL    HW2 5679   0.785   6.898   5.237
 1594SOL     OW 5680   0.461   6.145   2.074
 1594SOL    HW1 5681   0.363   6.161   2.088
 1594SOL    HW2 5682   0.476   6.107   1.983
 1595SOL     OW 5683   0.878   4.936   1.058
 1595SOL    HW1 5684   0.783   4.913   1.037
 1595SOL    HW2 5685   0.890   5.035   1.054
 1596SOL     OW 5686   6.781   3.768   3.584
 1596SOL    HW1 5687   6.704   3.730   3.635
 1596SOL    HW2 5688   6.750   3.846   3.529
 1597SOL     OW 5689   1.482   6.220   1.187
 1597SOL    HW1 5690   1.430   6.138   1.206
 1597SOL    HW2 5691   1.521   6.214   1.095
 1598SOL     OW 5692   0.863   4.328   6.106
 1598SOL    HW1 5693   0.798   4.315   6.182
 1598SOL    HW2 5694   0.919   4.409   6.124
 1599SOL     OW 5695   5.216   5.230   5.065
 1599SOL    HW1 5696   5.146   5.231   5.137
 1599SOL    HW2 5697   5.285   5.160   5.087
 1600SOL     OW 5698   2.751   1.708   3.187
 1600SOL    HW1 5699   2.670   1.722   3.245
 1600SOL    HW2 5700   2.730   1.736   3.093
 1601SOL     OW 5701   6.472   0.111   4.020
 1601SOL    HW1 5702   6.487   0.124   4.118
 1601SOL    HW2 5703   6.447   0.199   3.978
 1602SOL     OW 5704   4.418   4.618   3.678
 1602SOL    HW1 5705   4.369   4.555   3.616
 1602SOL    HW2 5706   4.352   4.678   3.723
 1603SOL     OW 5707   2.693   5.406   2.864
 1603SOL    HW1 5708   2.678   5.380   2.959
 1603SOL    HW2 5709   2.749   5.489   2.860
 1604SOL     OW 5710   4.905   4.957   1.626
 1604SOL    HW1 5711   4.851   4.919   1.701
 1604SOL    HW2 5712   4.889   4.904   1.543
 1605SOL     OW 5713   6.791   5.364   2.013
 1605SOL    HW1 5714   6.781   5.461   1.989
 1605SOL    HW2 5715   6.746   5.308   1.943
 1606SOL     OW 5716   4.139   5.960   5.691
 1606SOL    HW1 5717   4.226   5.910   5.695
 1606SOL    HW2 5718   4.109   5.980   5.784
 1607SOL     OW 5719   3.913   6.877   0.495
 1607SOL    HW1 5720   3.906   6.947   0.423
 1607SOL    HW2 5721   3.834   6.886   0.556
 1608SOL     OW 5722   6.841   1.310   3.435
 1608SOL    HW1 5723   6.742   1.324   3.430
 1608SOL    HW2 5724   6.861   1.212   3.426
 1609SOL     OW 5725   3.536   6.785   0.304
 1609SOL    HW1 5726   3.547   6.685   0.298
 1609SOL    HW2 5727   3.591   6.829   0.233
 1610SOL     OW 5728   5.794   5.809   0.536
 1610SOL    HW1 5729   5.886   5.776   0.518
 1610SOL    HW2 5730   5.790   5.907   0.519
 1611SOL     OW 5731   2.633   2.921   0.462
 1611SOL    HW1 5732   2.641   3.008   0.511
 1611SOL    HW2 5733   2.557   2.868   0.500
 1612SOL     OW 5734   3.123   6.883   0.740
 1612SOL    HW1 5735   3.043   6.926   0.782
 1612SOL    HW2 5736   3.106   6.786   0.727
 1613SOL     OW 5737   1.719   5.608   2.042
 1613SOL    HW1 5738   1.806   5.643   2.007
 1613SOL    HW2 5739   1.729   5.584   2.139
 1614SOL     OW 5740   5.583   1.745   6.170
 1614SOL    HW1 5741   5.545   1.835   6.148
 1614SOL    HW2 5742   5.582   1.688   6.088
 1615SOL     OW 5743   6.258   5.861   0.008
 1615SOL    HW1 5744   6.181   5.821   0.058
 1615SOL    HW2 5745   6.293   5.940   0.058
 1616SOL     OW 5746   3.767   1.007   4.586
 1616SOL    HW1 5747   3.758   0.917   4.542
 1616SOL    HW2 5748   3.765   1.078   4.516
 1617SOL     OW 5749   5.465   6.083   3.275
 1617SOL    HW1 5750   5.378   6.106   3.318
 1617SOL    HW2 5751   5.538   6.087   3.342
 1618SOL     OW 5752   1.751   6.570   3.238
 1618SOL    HW1 5753   1.837   6.590   3.191
 1618SOL    HW2 5754   1.765   6.496   3.303
 1619SOL     OW 5755   0.498   4.758   1.266
 1619SOL    HW1 5756   0.582   4.712   1.237
 1619SOL    HW2 5757   0.423   4.692   1.271
 1620SOL     OW 5758   3.211   4.740   1.489
 1620SOL    HW1 5759   3.217   4.734   1.588
 1620SOL    HW2 5760   3.247   4.656   1.448
 1621SOL     OW 5761   6.001   0.589   1.014
 1621SOL    HW1 5762   5.927   0.578   0.948
 1621SOL    HW2 5763   6.035   0.498   1.042
 1622SOL     OW 5764   0.709   3.504   5.479
 1622SOL    HW1 5765   0.698   3.428   5.415
 1622SOL    HW2 5766   0.619   3.541   5.501
 1623SOL     OW 5767   0.676   2.939   4.751
 1623SOL    HW1 5768   0.621   2.946   4.834
 1623SOL    HW2 5769   0.630   2.880   4.685
 1624SOL     OW 5770   3.926   0.625   5.064
 1624SOL    HW1 5771   3.859   0.624   4.990
 1624SOL    HW2 5772   3.992   0.698   5.049
 1625SOL     OW 5773   1.276   4.642   0.135
 1625SOL    HW1 5774   1.315   4.687   0.055
 1625SOL    HW2 5775   1.349   4.619   0.199
 1626SOL     OW 5776   3.759   0.928   0.925
 1626SOL    HW1 5777   3.720   0.860   0.987
 1626SOL    HW2 5778   3.686   0.967   0.869
 1627SOL     OW 5779   5.904   3.098   3.667
 1627SOL    HW1 5780   5.874   3.193   3.662
 1627SOL    HW2 5781   5.841   3.046   3.725
 1628SOL     OW 5782   4.329   5.131   0.238
 1628SOL    HW1 5783   4.230   5.139   0.244
 1628SOL    HW2 5784   4.353   5.072   0.161
 1629SOL     OW 5785   2.538   0.999   3.762
 1629SOL    HW1 5786   2.442   1.014   3.784
 1629SOL    HW2 5787   2.561   0.903   3.775
 1630SOL     OW 5788   0.586   4.783   6.058
 1630SOL    HW1 5789   0.593   4.880   6.035
 1630SOL    HW2 5790   0.660   4.732   6.014
 1631SOL     OW 5791   0.719   2.760   0.292
 1631SOL    HW1 5792   0.647   2.827   0.310
 1631SOL    HW2 5793   0.689   2.670   0.323
 1632SOL     OW 5794   5.249   2.724   1.536
 1632SOL    HW1 5795   5.198   2.804   1.568
 1632SOL    HW2 5796   5.321   2.753   1.473
 1633SOL     OW 5797   5.090   3.837   4.720
 1633SOL    HW1 5798   5.039   3.842   4.634
 1633SOL    HW2 5799   5.184   3.866   4.705
 1634SOL     OW 5800   4.678   6.019   4.152
 1634SOL    HW1 5801   4.761   6.056   4.194
 1634SOL    HW2 5802   4.647   6.079   4.078
 1635SOL     OW 5803   0.612   4.810   0.064
 1635SOL    HW1 5804   0.594   4.790   6.994
 1635SOL    HW2 5805   0.705   4.845   0.074
 1636SOL     OW 5806   2.934   5.058   0.973
 1636SOL    HW1 5807   2.957   5.107   0.889
 1636SOL    HW2 5808   3.007   4.993   0.994
 1637SOL     OW 5809   6.999   0.409   3.529
 1637SOL    HW1 5810   7.021   0.456   3.443
 1637SOL    HW2 5811   6.974   0.476   3.599
 1638SOL     OW 5812   0.715   3.297   2.950
 1638SOL    HW1 5813   0.694   3.375   3.009
 1638SOL    HW2 5814   0.747   3.220   3.005
 1639SOL     OW 5815   5.611   5.260   1.390
 1639SOL    HW1 5816   5.709   5.241   1.379
 1639SOL    HW2 5817   5.558   5.190   1.343
 1640SOL     OW 5818   5.570   0.490   6.910
 1640SOL    HW1 5819   5.624   0.462   6.990
 1640SOL    HW2 5820   5.619   0.563   6.862
 1641SOL     OW 5821   5.396   2.122   3.202
 1641SOL    HW1 5822   5.430   2.032   3.232
 1641SOL    HW2 5823   5.296   2.122   3.204
 1642SOL     OW 5824   6.618   3.449   0.046
 1642SOL    HW1 5825   6.585   3.432   0.139
 1642SOL    HW2 5826   6.585   3.378   7.011
 1643SOL     OW 5827   3.011   4.887   4.046
 1643SOL    HW1 5828   2.928   4.832   4.042
 1643SOL    HW2 5829   3.010   4.943   4.129
 1644SOL     OW 5830   5.787   3.840   0.122
 1644SOL    HW1 5831   5.688   3.848   0.126
 1644SOL    HW2 5832   5.813   3.791   0.039
 1645SOL     OW 5833   2.150   5.544   5.923
 1645SOL    HW1 5834   2.194   5.583   5.842
 1645SOL    HW2 5835   2.218   5.494   5.977
 1646SOL     OW 5836   2.608   0.018   1.155
 1646SOL    HW1 5837   2.514   7.010   1.155
 1646SOL    HW2 5838   2.618   0.090   1.088
 1647SOL     OW 5839   6.156   2.700   3.906
 1647SOL    HW1 5840   6.083   2.655   3.958
 1647SOL    HW2 5841   6.125   2.716   3.812
 1648SOL     OW 5842   4.925   5.898   0.204
 1648SOL    HW1 5843   4.947   5.958   0.128
 1648SOL    HW2 5844   4.841   5.929   0.248
 1649SOL     OW 5845   3.490   1.643   3.865
 1649SOL    HW1 5846   3.568   1.641   3.802
 1649SOL    HW2 5847   3.523   1.654   3.959
 1650SOL     OW 5848   0.745   5.815   4.961
 1650SOL    HW1 5849   0.743   5.774   5.052
 1650SOL    HW2 5850   0.674   5.774   4.904
 1651SOL     OW 5851   0.280   2.103   1.997
 1651SOL    HW1 5852   0.279   2.101   2.097
 1651SOL    HW2 5853   0.372   2.129   1.966
 1652SOL     OW 5854   1.563   2.736   2.694
 1652SOL    HW1 5855   1.542   2.724   2.597
 1652SOL    HW2 5856   1.493   2.792   2.737
 1653SOL     OW 5857   0.739   6.518   0.323
 1653SOL    HW1 5858   0.701   6.426   0.334
 1653SOL    HW2 5859   0.817   6.515   0.260
 1654SOL     OW 5860   7.008   3.379   1.631
 1654SOL    HW1 5861   6.915   3.404   1.658
 1654SOL    HW2 5862   0.044   3.396   1.708
 1655SOL     OW 5863   0.468   2.644   4.320
 1655SOL    HW1 5864   0.371   2.619   4.330
 1655SOL    HW2 5865   0.482   2.685   4.230
 1656SOL     OW 5866   2.111   5.311   2.976
 1656SOL    HW1 5867   2.085   5.234   3.033
 1656SOL    HW2 5868   2.193   5.288   2.924
 1657SOL     OW 5869   5.740   1.283   4.112
 1657SOL    HW1 5870   5.707   1.351   4.047
 1657SOL    HW2 5871   5.799   1.217   4.065
 1658SOL     OW 5872   6.071   1.294   1.439
 1658SOL    HW1 5873   5.989   1.322   1.388
 1658SOL    HW2 5874   6.044   1.256   1.527
 1659SOL     OW 5875   3.009   0.284   6.997
 1659SOL    HW1 5876   2.994   0.214   6.927
 1659SOL    HW2 5877   2.923   0.334   7.012
 1660SOL     OW 5878   2.004   5.961   2.413
 1660SOL    HW1 5879   2.041   5.948   2.505
 1660SOL    HW2 5880   2.078   5.984   2.350
 1661SOL     OW 5881   2.061   6.356   1.686
 1661SOL    HW1 5882   2.115   6.272   1.684
 1661SOL    HW2 5883   2.090   6.416   1.611
 1662SOL     OW 5884   0.375   1.301   4.178
 1662SOL    HW1 5885   0.356   1.315   4.275
 1662SOL    HW2 5886   0.428   1.217   4.166
 1663SOL     OW 5887   4.450   5.568   3.231
 1663SOL    HW1 5888   4.402   5.631   3.171
 1663SOL    HW2 5889   4.521   5.520   3.180
 1664SOL     OW 5890   2.427   5.989   5.237
 1664SOL    HW1 5891   2.408   6.074   5.186
 1664SOL    HW2 5892   2.493   6.008   5.310
 1665SOL     OW 5893   6.500   3.101   2.571
 1665SOL    HW1 5894   6.518   3.122   2.667
 1665SOL    HW2 5895   6.414   3.051   2.562
 1666SOL     OW 5896   5.157   1.322   6.840
 1666SOL    HW1 5897   5.251   1.344   6.865
 1666SOL    HW2 5898   5.155   1.237   6.787
 1667SOL     OW 5899   0.042   6.478   1.149
 1667SOL    HW1 5900   0.082   6.557   1.102
 1667SOL    HW2 5901   0.106   6.402   1.146
 1668SOL     OW 5902   4.897   5.402   3.845
 1668SOL    HW1 5903   4.801   5.385   3.820
 1668SOL    HW2 5904   4.901   5.442   3.937
 1669SOL     OW 5905   6.944   4.651   5.797
 1669SOL    HW1 5906   6.932   4.670   5.699
 1669SOL    HW2 5907   7.002   4.723   5.837
 1670SOL     OW 5908   6.707   4.636   5.229
 1670SOL    HW1 5909   6.669   4.555   5.273
 1670SOL    HW2 5910   6.657   4.718   5.258
 1671SOL     OW 5911   5.635   1.738   3.332
 1671SOL    HW1 5912   5.683   1.652   3.317
 1671SOL    HW2 5913   5.654   1.801   3.258
 1672SOL     OW 5914   2.147   3.389   1.101
 1672SOL    HW1 5915   2.140   3.301   1.149
 1672SOL    HW2 5916   2.208   3.379   1.023
 1673SOL     OW 5917   1.362   1.595   5.236
 1673SOL    HW1 5918   1.367   1.581   5.335
 1673SOL    HW2 5919   1.406   1.518   5.190
 1674SOL     OW 5920   0.829   3.009   2.450
 1674SOL    HW1 5921   0.770   2.945   2.401
 1674SOL    HW2 5922   0.805   3.103   2.424
 1675SOL     OW 5923   4.827   6.967   0.000
 1675SOL    HW1 5924   4.829   6.958   0.100
 1675SOL    HW2 5925   4.745   6.922   6.990
 1676SOL     OW 5926   2.278   2.108   1.333
 1676SOL    HW1 5927   2.332   2.190   1.351
 1676SOL    HW2 5928   2.195   2.110   1.388
 1677SOL     OW 5929   3.758   3.526   3.852
 1677SOL    HW1 5930   3.816   3.553   3.929
 1677SOL    HW2 5931   3.663   3.545   3.874
 1678SOL     OW 5932   6.605   4.756   2.464
 1678SOL    HW1 5933   6.651   4.707   2.538
 1678SOL    HW2 5934   6.516   4.788   2.495
 1679SOL     OW 5935   2.616   1.735   4.473
 1679SOL    HW1 5936   2.544   1.798   4.503
 1679SOL    HW2 5937   2.598   1.706   4.379
 1680SOL     OW 5938   0.463   3.607   5.547
 1680SOL    HW1 5939   0.363   3.606   5.538
 1680SOL    HW2 5940   0.489   3.672   5.619
 1681SOL     OW 5941   0.603   4.812   6.764
 1681SOL    HW1 5942   0.651   4.895   6.737
 1681SOL    HW2 5943   0.505   4.823   6.746
 1682SOL     OW 5944   1.527   0.596   5.688
 1682SOL    HW1 5945   1.520   0.511   5.740
 1682SOL    HW2 5946   1.436   0.627   5.662
 1683SOL     OW 5947   6.070   5.654   2.481
 1683SOL    HW1 5948   6.089   5.588   2.409
 1683SOL    HW2 5949   5.988   5.706   2.459
 1684SOL     OW 5950   0.818   5.858   2.118
 1684SOL    HW1 5951   0.816   5.758   2.115
 1684SOL    HW2 5952   0.877   5.887   2.193
 1685SOL     OW 5953   1.537   1.136   5.375
 1685SOL    HW1 5954   1.623   1.086   5.387
 1685SOL    HW2 5955   1.482   1.126   5.458
 1686SOL     OW 5956   2.442   6.221   4.511
 1686SOL    HW1 5957   2.482   6.142   4.557
 1686SOL    HW2 5958   2.515   6.279   4.473
 1687SOL     OW 5959   1.369   2.951   1.822
 1687SOL    HW1 5960   1.276   2.943   1.859
 1687SOL    HW2 5961   1.387   3.046   1.798
 1688SOL     OW 5962   2.314   1.787   3.636
 1688SOL    HW1 5963   2.274   1.714   3.691
 1688SOL    HW2 5964   2.412   1.794   3.656
 1689SOL     OW 5965   6.242   0.565   2.896
 1689SOL    HW1 5966   6.309   0.515   2.951
 1689SOL    HW2 5967   6.286   0.644   2.853
 1690SOL     OW 5968   1.653   2.489   4.663
 1690SOL    HW1 5969   1.673   2.420   4.593
 1690SOL    HW2 5970   1.590   2.451   4.730
 1691SOL     OW 5971   5.207   2.900   3.775
 1691SOL    HW1 5972   5.174   2.818   3.729
 1691SOL    HW2 5973   5.306   2.895   3.787
 1692SOL     OW 5974   4.735   6.455   0.977
 1692SOL    HW1 5975   4.730   6.360   0.948
 1692SOL    HW2 5976   4.701   6.464   1.071
 1693SOL     OW 5977   6.505   2.416   2.938
 1693SOL    HW1 5978   6.570   2.349   2.973
 1693SOL    HW2 5979   6.515   2.424   2.839
 1694SOL     OW 5980   6.171   1.976   3.624
 1694SOL    HW1 5981   6.174   2.070   3.591
 1694SOL    HW2 5982   6.172   1.976   3.724
 1695SOL     OW 5983   4.035   0.720   6.186
 1695SOL    HW1 5984   4.105   0.785   6.153
 1695SOL    HW2 5985   4.042   0.713   6.285
 1696SOL     OW 5986   4.135   6.158   1.735
 1696SOL    HW1 5987   4.101   6.227   1.671
 1696SOL    HW2 5988   4.100   6.179   1.827
 1697SOL     OW 5989   6.863   1.360   0.400
 1697SOL    HW1 5990   6.869   1.265   0.429
 1697SOL    HW2 5991   6.768   1.382   0.378
 1698SOL     OW 5992   3.390   6.801   0.539
 1698SOL    HW1 5993   3.425   6.804   0.445
 1698SOL    HW2 5994   3.391   6.894   0.577
 1699SOL     OW 5995   2.590   1.605   6.789
 1699SOL    HW1 5996   2.527   1.617   6.712
 1699SOL    HW2 5997   2.663   1.542   6.762
 1700SOL     OW 5998   6.235   4.519   3.737
 1700SOL    HW1 5999   6.306   4.449   3.722
 1700SOL    HW2 6000   6.195   4.544   3.649
 1701SOL     OW 6001   5.604   5.414   6.223
 1701SOL    HW1 6002   5.546   5.417   6.305
 1701SOL    HW2 6003   5.577   5.337   6.166
 1702SOL     OW 6004   6.523   1.568   0.622
 1702SOL    HW1 6005   6.590   1.595   0.690
 1702SOL    HW2 6006   6.505   1.469   0.631
 1703SOL     OW 6007   3.619   1.679   0.306
 1703SOL    HW1 6008   3.606   1.670   0.207
 1703SOL    HW2 6009   3.676   1.759   0.325
 1704SOL     OW 6010   0.907   2.222   0.119
 1704SOL    HW1 6011   0.875   2.172   0.200
 1704SOL    HW2 6012   0.966   2.163   0.065
 1705SOL     OW 6013   3.019   2.110   1.883
 1705SOL    HW1 6014   2.982   2.190   1.929
 1705SOL    HW2 6015   2.990   2.109   1.788
 1706SOL     OW 6016   5.010   1.524   1.551
 1706SOL    HW1 6017   5.028   1.431   1.582
 1706SOL    HW2 6018   4.918   1.529   1.512
 1707SOL     OW 6019   4.149   1.719   2.771
 1707SOL    HW1 6020   4.107   1.687   2.686
 1707SOL    HW2 6021   4.096   1.685   2.848
 1708SOL     OW 6022   4.974   6.013   2.019
 1708SOL    HW1 6023   4.983   6.049   2.112
 1708SOL    HW2 6024   4.959   6.088   1.955
 1709SOL     OW 6025   3.139   6.576   2.954
 1709SOL    HW1 6026   3.161   6.635   2.877
 1709SOL    HW2 6027   3.211   6.582   3.023
 1710SOL     OW 6028   4.556   4.801   3.123
 1710SOL    HW1 6029   4.547   4.702   3.133
 1710SOL    HW2 6030   4.647   4.830   3.153
 1711SOL     OW 6031   1.839   5.049   4.654
 1711SOL    HW1 6032   1.883   5.051   4.564
 1711SOL    HW2 6033   1.909   5.038   4.725
 1712SOL     OW 6034   6.395   2.388   4.577
 1712SOL    HW1 6035   6.436   2.336   4.501
 1712SOL    HW2 6036   6.300   2.361   4.589
 1713SOL     OW 6037   4.605   2.483   2.035
 1713SOL    HW1 6038   4.578   2.545   1.962
 1713SOL    HW2 6039   4.553   2.504   2.118
 1714SOL     OW 6040   3.516   1.391   6.276
 1714SOL    HW1 6041   3.463   1.325   6.223
 1714SOL    HW2 6042   3.455   1.438   6.340
 1715SOL     OW 6043   2.276   6.051   3.331
 1715SOL    HW1 6044   2.347   5.989   3.298
 1715SOL    HW2 6045   2.316   6.114   3.399
 1716SOL     OW 6046   3.503   7.009   3.629
 1716SOL    HW1 6047   3.569   6.972   3.694
 1716SOL    HW2 6048   3.540   7.001   3.536
 1717SOL     OW 6049   3.335   5.832   4.882
 1717SOL    HW1 6050   3.433   5.820   4.865
 1717SOL    HW2 6051   3.292   5.873   4.802
 1718SOL     OW 6052   3.129   1.135   2.056
 1718SOL    HW1 6053   3.163   1.115   2.148
 1718SOL    HW2 6054   3.077   1.221   2.058
 1719SOL     OW 6055   2.044   2.956   0.794
 1719SOL    HW1 6056   2.131   2.921   0.828
 1719SOL    HW2 6057   1.973   2.941   0.863
 1720SOL     OW 6058   6.879   3.366   6.737
 1720SOL    HW1 6059   6.879   3.274   6.698
 1720SOL    HW2 6060   6.932   3.366   6.822
 1721SOL     OW 6061   2.135   6.471   1.469
 1721SOL    HW1 6062   2.120   6.410   1.392
 1721SOL    HW2 6063   2.101   6.562   1.447
 1722SOL     OW 6064   3.069   1.460   3.720
 1722SOL    HW1 6065   3.137   1.509   3.666
 1722SOL    HW2 6066   2.984   1.513   3.722
 1723SOL     OW 6067   5.905   2.296   7.021
 1723SOL    HW1 6068   5.922   2.281   6.923
 1723SOL    HW2 6069   5.829   2.360   0.006
 1724SOL     OW 6070   0.656   2.945   1.999
 1724SOL    HW1 6071   0.647   2.868   2.062
 1724SOL    HW2 6072   0.597   2.931   1.920
 1725SOL     OW 6073   1.641   5.215   6.026
 1725SOL    HW1 6074   1.677   5.180   5.939
 1725SOL    HW2 6075   1.553   5.172   6.044
 1726SOL     OW 6076   5.997   4.236   4.914
 1726SOL    HW1 6077   6.058   4.258   4.990
 1726SOL    HW2 6078   5.919   4.298   4.915
 1727SOL     OW 6079   3.979   3.163   4.104
 1727SOL    HW1 6080   3.973   3.068   4.074
 1727SOL    HW2 6081   3.978   3.223   4.024
 1728SOL     OW 6082   5.787   5.332   5.065
 1728SOL    HW1 6083   5.854   5.327   4.990
 1728SOL    HW2 6084   5.827   5.290   5.146
 1729SOL     OW 6085   2.121   4.027   2.774
 1729SOL    HW1 6086   2.135   4.125   2.759
 1729SOL    HW2 6087   2.149   3.976   2.692
 1730SOL     OW 6088   2.431   0.481   5.488
 1730SOL    HW1 6089   2.408   0.569   5.530
 1730SOL    HW2 6090   2.347   0.433   5.462
 1731SOL     OW 6091   0.657   4.100   3.931
 1731SOL    HW1 6092   0.574   4.152   3.908
 1731SOL    HW2 6093   0.704   4.145   4.007
 1732SOL     OW 6094   2.644   5.005   5.982
 1732SOL    HW1 6095   2.601   4.954   5.908
 1732SOL    HW2 6096   2.648   4.947   6.064
 1733SOL     OW 6097   1.679   4.054   1.190
 1733SOL    HW1 6098   1.769   4.088   1.218
 1733SOL    HW2 6099   1.681   4.033   1.092
 1734SOL     OW 6100   4.726   2.972   1.231
 1734SOL    HW1 6101   4.649   3.012   1.282
 1734SOL    HW2 6102   4.710   2.982   1.133
 1735SOL     OW 6103   4.436   5.517   6.556
 1735SOL    HW1 6104   4.348   5.563   6.550
 1735SOL    HW2 6105   4.423   5.418   6.550
 1736SOL     OW 6106   3.653   3.647   1.113
 1736SOL    HW1 6107   3.631   3.572   1.050
 1736SOL    HW2 6108   3.631   3.620   1.207
 1737SOL     OW 6109   4.687   0.529   4.685
 1737SOL    HW1 6110   4.590   0.504   4.685
 1737SOL    HW2 6111   4.735   0.477   4.755
 1738SOL     OW 6112   2.257   2.712   4.558
 1738SOL    HW1 6113   2.165   2.740   4.531
 1738SOL    HW2 6114   2.271   2.731   4.655
 1739SOL     OW 6115   6.856   2.265   4.818
 1739SOL    HW1 6116   6.881   2.169   4.831
 1739SOL    HW2 6117   6.757   2.275   4.824
 1740SOL     OW 6118   0.029   2.624   4.919
 1740SOL    HW1 6119   0.120   2.633   4.879
 1740SOL    HW2 6120   7.021   2.531   4.904
 1741SOL     OW 6121   2.522   0.410   4.635
 1741SOL    HW1 6122   2.432   0.423   4.595
 1741SOL    HW2 6123   2.513   0.371   4.727
 1742SOL     OW 6124   5.878   0.595   5.456
 1742SOL    HW1 6125   5.813   0.532   5.499
 1742SOL    HW2 6126   5.970   0.558   5.464
 1743SOL     OW 6127   0.517   1.842   2.125
 1743SOL    HW1 6128   0.560   1.757   2.094
 1743SOL    HW2 6129   0.587   1.913   2.134
 1744SOL     OW 6130   6.411   3.467   3.748
 1744SOL    HW1 6131   6.418   3.525   3.667
 1744SOL    HW2 6132   6.337   3.400   3.734
 1745SOL     OW 6133   5.323   5.606   2.648
 1745SOL    HW1 6134   5.231   5.644   2.642
 1745SOL    HW2 6135   5.372   5.650   2.724
 1746SOL     OW 6136   1.472   4.285   3.958
 1746SOL    HW1 6137   1.431   4.290   3.866
 1746SOL    HW2 6138   1.560   4.237   3.952
 1747SOL     OW 6139   4.473   1.423   2.753
 1747SOL    HW1 6140   4.455   1.390   2.846
 1747SOL    HW2 6141   4.411   1.378   2.689
 1748SOL     OW 6142   0.003   2.033   4.379
 1748SOL    HW1 6143   0.103   2.023   4.389
 1748SOL    HW2 6144   6.992   1.951   4.336
 1749SOL     OW 6145   2.471   6.727   5.727
 1749SOL    HW1 6146   2.526   6.802   5.691
 1749SOL    HW2 6147   2.530   6.648   5.745
 1750SOL     OW 6148   5.263   6.753   3.520
 1750SOL    HW1 6149   5.227   6.846   3.522
 1750SOL    HW2 6150   5.193   6.691   3.486
 1751SOL     OW 6151   4.811   1.975   4.760
 1751SOL    HW1 6152   4.778   2.032   4.685
 1751SOL    HW2 6153   4.735   1.952   4.821
 1752SOL     OW 6154   6.262   0.733   2.061
 1752SOL    HW1 6155   6.232   0.748   1.967
 1752SOL    HW2 6156   6.282   0.821   2.104
 1753SOL     OW 6157   6.495   0.808   1.569
 1753SOL    HW1 6158   6.448   0.737   1.622
 1753SOL    HW2 6159   6.578   0.836   1.617
 1754SOL     OW 6160   1.509   4.797   6.573
 1754SOL    HW1 6161   1.569   4.814   6.651
 1754SOL    HW2 6162   1.538   4.851   6.495
 1755SOL     OW 6163   7.009   5.279   0.315
 1755SOL    HW1 6164   7.019   5.350   0.245
 1755SOL    HW2 6165   6.954   5.204   0.278
 1756SOL     OW 6166   4.240   5.501   5.349
 1756SOL    HW1 6167   4.252   5.403   5.334
 1756SOL    HW2 6168   4.153   5.517   5.396
 1757SOL     OW 6169   3.091   5.236   4.728
 1757SOL    HW1 6170   3.074   5.172   4.802
 1757SOL    HW2 6171   3.028   5.313   4.735
 1758SOL     OW 6172   1.872   1.286   4.620
 1758SOL    HW1 6173   1.952   1.312   4.565
 1758SOL    HW2 6174   1.899   1.215   4.685
 1759SOL     OW 6175   2.776   6.311   5.508
 1759SOL    HW1 6176   2.713   6.287   5.582
 1759SOL    HW2 6177   2.803   6.407   5.517
 1760SOL     OW 6178   5.777   0.919   3.747
 1760SOL    HW1 6179   5.843   0.905   3.673
 1760SOL    HW2 6180   5.711   0.989   3.720
 1761SOL     OW 6181   0.148   1.180   2.062
 1761SOL    HW1 6182   0.158   1.264   2.115
 1761SOL    HW2 6183   0.238   1.147   2.036
 1762SOL     OW 6184   0.268   1.232   4.488
 1762SOL    HW1 6185   0.252   1.196   4.580
 1762SOL    HW2 6186   0.193   1.294   4.463
 1763SOL     OW 6187   0.568   4.729   4.248
 1763SOL    HW1 6188   0.664   4.745   4.271
 1763SOL    HW2 6189   0.509   4.788   4.303
 1764SOL     OW 6190   2.294   2.691   2.012
 1764SOL    HW1 6191   2.349   2.715   1.932
 1764SOL    HW2 6192   2.309   2.759   2.084
 1765SOL     OW 6193   3.528   0.692   1.926
 1765SOL    HW1 6194   3.469   0.752   1.979
 1765SOL    HW2 6195   3.603   0.659   1.983
 1766SOL     OW 6196   5.545   4.598   3.788
 1766SOL    HW1 6197   5.635   4.614   3.749
 1766SOL    HW2 6198   5.554   4.577   3.886
 1767SOL     OW 6199   0.952   4.129   3.376
 1767SOL    HW1 6200   0.905   4.098   3.458
 1767SOL    HW2 6201   0.891   4.187   3.322
 1768SOL     OW 6202   3.145   0.608   6.836
 1768SOL    HW1 6203   3.100   0.533   6.786
 1768SOL    HW2 6204   3.238   0.619   6.801
 1769SOL     OW 6205   5.566   0.977   6.961
 1769SOL    HW1 6206   5.622   0.925   7.025
 1769SOL    HW2 6207   5.556   1.071   6.994
 1770SOL     OW 6208   6.678   4.958   5.017
 1770SOL    HW1 6209   6.680   5.007   5.104
 1770SOL    HW2 6210   6.702   5.020   4.943
 1771SOL     OW 6211   1.417   4.967   0.384
 1771SOL    HW1 6212   1.392   4.937   0.476
 1771SOL    HW2 6213   1.475   4.898   0.341
 1772SOL     OW 6214   3.713   6.110   3.538
 1772SOL    HW1 6215   3.780   6.065   3.479
 1772SOL    HW2 6216   3.621   6.079   3.514
 1773SOL     OW 6217   2.461   2.649   5.956
 1773SOL    HW1 6218   2.398   2.609   6.022
 1773SOL    HW2 6219   2.447   2.606   5.866
 1774SOL     OW 6220   5.580   6.596   1.927
 1774SOL    HW1 6221   5.524   6.564   1.851
 1774SOL    HW2 6222   5.666   6.632   1.893
 1775SOL     OW 6223   1.535   5.657   6.164
 1775SOL    HW1 6224   1.480   5.587   6.208
 1775SOL    HW2 6225   1.495   5.680   6.075
 1776SOL     OW 6226   5.043   0.795   6.351
 1776SOL    HW1 6227   4.961   0.793   6.408
 1776SOL    HW2 6228   5.080   0.702   6.345
 1777SOL     OW 6229   2.647   6.812   6.784
 1777SOL    HW1 6230   2.606   6.904   6.786
 1777SOL    HW2 6231   2.745   6.819   6.802
 1778SOL     OW 6232   5.103   2.046   4.289
 1778SOL    HW1 6233   5.081   2.143   4.299
 1778SOL    HW2 6234   5.107   2.023   4.191
 1779SOL     OW 6235   5.246   1.230   5.424
 1779SOL    HW1 6236   5.248   1.303   5.492
 1779SOL    HW2 6237   5.187   1.156   5.456
 1780SOL     OW 6238   1.828   3.914   5.829
 1780SOL    HW1 6239   1.875   3.835   5.790
 1780SOL    HW2 6240   1.886   3.955   5.900
 1781SOL     OW 6241   5.519   6.244   4.993
 1781SOL    HW1 6242   5.566   6.156   4.999
 1781SOL    HW2 6243   5.440   6.236   4.932
 1782SOL     OW 6244   2.243   1.040   2.859
 1782SOL    HW1 6245   2.164   1.030   2.918
 1782SOL    HW2 6246   2.251   0.961   2.799
 1783SOL     OW 6247   3.203   3.139   6.563
 1783SOL    HW1 6248   3.222   3.083   6.483
 1783SOL    HW2 6249   3.233   3.233   6.546
 1784SOL     OW 6250   2.472   1.390   1.057
 1784SOL    HW1 6251   2.474   1.460   0.985
 1784SOL    HW2 6252   2.455   1.301   1.016
 1785SOL     OW 6253   5.929   6.742   3.919
 1785SOL    HW1 6254   6.006   6.677   3.916
 1785SOL    HW2 6255   5.849   6.700   3.877
 1786SOL     OW 6256   2.086   4.550   6.945
 1786SOL    HW1 6257   2.049   4.461   6.917
 1786SOL    HW2 6258   2.141   4.588   6.871
 1787SOL     OW 6259   2.828   2.053   6.242
 1787SOL    HW1 6260   2.798   2.109   6.165
 1787SOL    HW2 6261   2.918   2.084   6.272
 1788SOL     OW 6262   4.696   4.139   6.833
 1788SOL    HW1 6263   4.701   4.118   6.735
 1788SOL    HW2 6264   4.609   4.107   6.869
 1789SOL     OW 6265   5.735   3.157   2.039
 1789SOL    HW1 6266   5.693   3.213   1.967
 1789SOL    HW2 6267   5.722   3.060   2.018
 1790SOL     OW 6268   2.688   1.246   4.978
 1790SOL    HW1 6269   2.665   1.252   5.076
 1790SOL    HW2 6270   2.668   1.154   4.945
 1791SOL     OW 6271   6.362   1.628   3.401
 1791SOL    HW1 6272   6.302   1.702   3.370
 1791SOL    HW2 6273   6.456   1.660   3.403
 1792SOL     OW 6274   6.929   1.814   4.230
 1792SOL    HW1 6275   7.008   1.753   4.244
 1792SOL    HW2 6276   6.936   1.857   4.141
 1793SOL     OW 6277   6.476   2.101   4.200
 1793SOL    HW1 6278   6.567   2.086   4.161
 1793SOL    HW2 6279   6.408   2.048   4.150
 1794SOL     OW 6280   5.312   6.832   5.027
 1794SOL    HW1 6281   5.368   6.762   5.071
 1794SOL    HW2 6282   5.218   6.826   5.060
 1795SOL     OW 6283   0.019   5.126   2.202
 1795SOL    HW1 6284   0.088   5.126   2.275
 1795SOL    HW2 6285   6.960   5.166   2.236
 1796SOL     OW 6286   2.708   1.896   5.885
 1796SOL    HW1 6287   2.658   1.854   5.961
 1796SOL    HW2 6288   2.760   1.827   5.836
 1797SOL     OW 6289   0.877   6.948   5.585
 1797SOL    HW1 6290   0.795   6.903   5.550
 1797SOL    HW2 6291   0.957   6.892   5.562
 1798SOL     OW 6292   3.629   3.025   5.320
 1798SOL    HW1 6293   3.542   3.005   5.276
 1798SOL    HW2 6294   3.704   3.005   5.258
 1799SOL     OW 6295   4.754   2.967   6.446
 1799SOL    HW1 6296   4.799   2.889   6.489
 1799SOL    HW2 6297   4.806   3.051   6.465
 1800SOL     OW 6298   4.979   4.994   3.547
 1800SOL    HW1 6299   4.986   5.091   3.524
 1800SOL    HW2 6300   5.071   4.955   3.555
 1801SOL     OW 6301   1.031   1.526   2.226
 1801SOL    HW1 6302   0.945   1.568   2.255
 1801SOL    HW2 6303   1.079   1.488   2.305
 1802SOL     OW 6304   6.457   6.301   3.650
 1802SOL    HW1 6305   6.371   6.250   3.652
 1802SOL    HW2 6306   6.530   6.244   3.687
 1803SOL     OW 6307   0.272   0.382   1.966
 1803SOL    HW1 6308   0.211   0.411   2.040
 1803SOL    HW2 6309   0.352   0.336   2.005
 1804SOL     OW 6310   4.108   3.393   5.080
 1804SOL    HW1 6311   4.140   3.473   5.028
 1804SOL    HW2 6312   4.009   3.399   5.092
 1805SOL     OW 6313   0.358   5.264   5.799
 1805SOL    HW1 6314   0.434   5.212   5.759
 1805SOL    HW2 6315   0.273   5.237   5.754
 1806SOL     OW 6316   0.701   2.502   1.598
 1806SOL    HW1 6317   0.744   2.521   1.687
 1806SOL    HW2 6318   0.607   2.472   1.613
 1807SOL     OW 6319   6.199   2.637   6.535
 1807SOL    HW1 6320   6.282   2.627   6.480
 1807SOL    HW2 6321   6.223   2.672   6.626
 1808SOL     OW 6322   5.965   4.140   4.552
 1808SOL    HW1 6323   5.900   4.098   4.615
 1808SOL    HW2 6324   6.030   4.071   4.520
 1809SOL     OW 6325   3.003   2.118   5.555
 1809SOL    HW1 6326   2.971   2.124   5.650
 1809SOL    HW2 6327   3.098   2.147   5.550
 1810SOL     OW 6328   0.794   0.554   5.148
 1810SOL    HW1 6329   0.787   0.515   5.056
 1810SOL    HW2 6330   0.889   0.582   5.165
 1811SOL     OW 6331   5.399   4.595   2.040
 1811SOL    HW1 6332   5.368   4.686   2.070
 1811SOL    HW2 6333   5.435   4.602   1.947
 1812SOL     OW 6334   4.182   6.222   6.604
 1812SOL    HW1 6335   4.161   6.320   6.605
 1812SOL    HW2 6336   4.198   6.191   6.698
 1813SOL     OW 6337   5.318   5.196   2.368
 1813SOL    HW1 6338   5.246   5.218   2.434
 1813SOL    HW2 6339   5.381   5.129   2.409
 1814SOL     OW 6340   5.756   0.539   0.857
 1814SOL    HW1 6341   5.706   0.598   0.920
 1814SOL    HW2 6342   5.753   0.577   0.765
 1815SOL     OW 6343   6.274   0.248   2.925
 1815SOL    HW1 6344   6.175   0.240   2.938
 1815SOL    HW2 6345   6.321   0.181   2.984
 1816SOL     OW 6346   3.586   5.042   6.262
 1816SOL    HW1 6347   3.488   5.040   6.243
 1816SOL    HW2 6348   3.637   5.024   6.178
 1817SOL     OW 6349   3.527   0.962   3.177
 1817SOL    HW1 6350   3.598   0.981   3.109
 1817SOL    HW2 6351   3.517   1.040   3.238
 1818SOL     OW 6352   1.591   0.241   0.470
 1818SOL    HW1 6353   1.581   0.143   0.452
 1818SOL    HW2 6354   1.515   0.271   0.528
 1819SOL     OW 6355   1.531   5.423   1.969
 1819SOL    HW1 6356   1.606   5.489   1.972
 1819SOL    HW2 6357   1.519   5.383   2.059
 1820SOL     OW 6358   2.924   0.543   2.292
 1820SOL    HW1 6359   3.005   0.589   2.256
 1820SOL    HW2 6360   2.939   0.520   2.388
 1821SOL     OW 6361   2.494   1.008   1.914
 1821SOL    HW1 6362   2.589   0.980   1.925
 1821SOL    HW2 6363   2.490   1.105   1.887
 1822SOL     OW 6364   1.325   2.900   1.242
 1822SOL    HW1 6365   1.388   2.925   1.316
 1822SOL    HW2 6366   1.368   2.917   1.154
 1823SOL     OW 6367   2.827   6.075   3.096
 1823SOL    HW1 6368   2.847   6.000   3.034
 1823SOL    HW2 6369   2.910   6.130   3.110
 1824SOL     OW 6370   4.194   4.204   0.162
 1824SOL    HW1 6371   4.173   4.222   0.066
 1824SOL    HW2 6372   4.242   4.117   0.170
 1825SOL     OW 6373   0.791   3.056   4.344
 1825SOL    HW1 6374   0.833   3.130   4.396
 1825SOL    HW2 6375   0.862   2.992   4.314
 1826SOL     OW 6376   3.036   0.740   1.285
 1826SOL    HW1 6377   3.022   0.670   1.355
 1826SOL    HW2 6378   2.996   0.710   1.198
 1827SOL     OW 6379   5.607   5.543   0.861
 1827SOL    HW1 6380   5.512   5.546   0.894
 1827SOL    HW2 6381   5.618   5.462   0.803
 1828SOL     OW 6382   1.523   2.606   6.513
 1828SOL    HW1 6383   1.510   2.520   6.563
 1828SOL    HW2 6384   1.441   2.662   6.523
 1829SOL     OW 6385   3.288   6.821   3.468
 1829SOL    HW1 6386   3.223   6.893   3.492
 1829SOL    HW2 6387   3.245   6.759   3.402
 1830SOL     OW 6388   5.643   6.475   4.308
 1830SOL    HW1 6389   5.663   6.516   4.219
 1830SOL    HW2 6390   5.725   6.476   4.364
 1831SOL     OW 6391   5.257   6.283   3.021
 1831SOL    HW1 6392   5.298   6.328   3.100
 1831SOL    HW2 6393   5.228   6.190   3.047
 1832SOL     OW 6394   3.922   2.429   0.386
 1832SOL    HW1 6395   3.826   2.418   0.412
 1832SOL    HW2 6396   3.977   2.444   0.468
 1833SOL     OW 6397   5.250   0.511   1.198
 1833SOL    HW1 6398   5.158   0.506   1.238
 1833SOL    HW2 6399   5.277   0.606   1.187
 1834SOL     OW 6400   2.177   3.935   1.176
 1834SOL    HW1 6401   2.093   3.880   1.177
 1834SOL    HW2 6402   2.254   3.880   1.206
 1835SOL     OW 6403   0.948   4.431   1.730
 1835SOL    HW1 6404   1.042   4.437   1.697
 1835SOL    HW2 6405   0.888   4.403   1.655
 1836SOL     OW 6406   5.523   2.542   1.849
 1836SOL    HW1 6407   5.562   2.450   1.852
 1836SOL    HW2 6408   5.424   2.537   1.847
 1837SOL     OW 6409   1.567   6.887   6.011
 1837SOL    HW1 6410   1.647   6.946   5.998
 1837SOL    HW2 6411   1.597   6.798   6.045
 1838SOL     OW 6412   5.670   0.588   6.207
 1838SOL    HW1 6413   5.701   0.683   6.202
 1838SOL    HW2 6414   5.571   0.584   6.195
 1839SOL     OW 6415   6.401   0.838   5.611
 1839SOL    HW1 6416   6.484   0.799   5.571
 1839SOL    HW2 6417   6.344   0.877   5.538
 1840SOL     OW 6418   3.839   0.129   2.599
 1840SOL    HW1 6419   3.790   0.184   2.668
 1840SOL    HW2 6420   3.908   0.186   2.555
 1841SOL     OW 6421   2.083   0.247   2.875
 1841SOL    HW1 6422   2.180   0.257   2.894
 1841SOL    HW2 6423   2.068   0.167   2.817
 1842SOL     OW 6424   0.848   5.676   1.148
 1842SOL    HW1 6425   0.843   5.605   1.077
 1842SOL    HW2 6426   0.907   5.750   1.117
 1843SOL     OW 6427   5.537   0.416   4.163
 1843SOL    HW1 6428   5.491   0.458   4.241
 1843SOL    HW2 6429   5.635   0.434   4.169
 1844SOL     OW 6430   3.862   0.890   5.258
 1844SOL    HW1 6431   3.943   0.863   5.205
 1844SOL    HW2 6432   3.784   0.902   5.196
 1845SOL     OW 6433   2.985   6.989   3.970
 1845SOL    HW1 6434   3.029   0.008   3.892
 1845SOL    HW2 6435   2.886   7.002   3.965
 1846SOL     OW 6436   4.282   0.712   3.271
 1846SOL    HW1 6437   4.196   0.663   3.284
 1846SOL    HW2 6438   4.358   0.655   3.303
 1847SOL     OW 6439   1.322   0.127   5.558
 1847SOL    HW1 6440   1.384   0.077   5.617
 1847SOL    HW2 6441   1.261   0.063   5.511
 1848SOL     OW 6442   1.886   6.205   3.846
 1848SOL    HW1 6443   1.955   6.180   3.779
 1848SOL    HW2 6444   1.931   6.227   3.933
 1849SOL     OW 6445   4.237   2.323   1.073
 1849SOL    HW1 6446   4.156   2.313   1.015
 1849SOL    HW2 6447   4.230   2.259   1.150
 1850SOL     OW 6448   5.748   1.999   2.622
 1850SOL    HW1 6449   5.775   1.996   2.526
 1850SOL    HW2 6450   5.664   2.051   2.633
 1851SOL     OW 6451   1.343   3.488   0.013
 1851SOL    HW1 6452   1.306   3.562   0.069
 1851SOL    HW2 6453   1.440   3.504   7.022
 1852SOL     OW 6454   0.291   4.904   2.605
 1852SOL    HW1 6455   0.371   4.851   2.579
 1852SOL    HW2 6456   0.262   4.959   2.527
 1853SOL     OW 6457   6.706   2.781   2.924
 1853SOL    HW1 6458   6.751   2.855   2.873
 1853SOL    HW2 6459   6.764   2.700   2.923
 1854SOL     OW 6460   1.572   4.899   2.684
 1854SOL    HW1 6461   1.475   4.902   2.664
 1854SOL    HW2 6462   1.592   4.820   2.742
 1855SOL     OW 6463   5.144   3.081   5.440
 1855SOL    HW1 6464   5.212   3.012   5.417
 1855SOL    HW2 6465   5.093   3.051   5.521
 1856SOL     OW 6466   4.276   3.071   6.348
 1856SOL    HW1 6467   4.310   3.164   6.355
 1856SOL    HW2 6468   4.243   3.054   6.254
 1857SOL     OW 6469   4.195   1.246   0.309
 1857SOL    HW1 6470   4.279   1.297   0.287
 1857SOL    HW2 6471   4.168   1.190   0.231
 1858SOL     OW 6472   5.273   2.312   3.563
 1858SOL    HW1 6473   5.232   2.331   3.653
 1858SOL    HW2 6474   5.201   2.313   3.493
 1859SOL     OW 6475   4.722   1.718   3.810
 1859SOL    HW1 6476   4.690   1.625   3.830
 1859SOL    HW2 6477   4.705   1.739   3.714
 1860SOL     OW 6478   0.202   1.334   5.590
 1860SOL    HW1 6479   0.117   1.287   5.565
 1860SOL    HW2 6480   0.207   1.342   5.690
 1861SOL     OW 6481   4.822   0.824   3.261
 1861SOL    HW1 6482   4.776   0.874   3.188
 1861SOL    HW2 6483   4.883   0.756   3.220
 1862SOL     OW 6484   1.627   6.723   6.683
 1862SOL    HW1 6485   1.673   6.662   6.747
 1862SOL    HW2 6486   1.534   6.691   6.667
 1863SOL     OW 6487   6.617   2.654   1.862
 1863SOL    HW1 6488   6.551   2.647   1.786
 1863SOL    HW2 6489   6.696   2.707   1.833
 1864SOL     OW 6490   3.675   5.765   4.442
 1864SOL    HW1 6491   3.667   5.665   4.450
 1864SOL    HW2 6492   3.675   5.790   4.345
 1865SOL     OW 6493   3.381   1.120   1.179
 1865SOL    HW1 6494   3.457   1.074   1.225
 1865SOL    HW2 6495   3.401   1.128   1.082
 1866SOL     OW 6496   6.213   5.015   3.958
 1866SOL    HW1 6497   6.223   4.950   4.034
 1866SOL    HW2 6498   6.284   5.084   3.963
 1867SOL     OW 6499   2.370   3.459   1.560
 1867SOL    HW1 6500   2.429   3.534   1.532
 1867SOL    HW2 6501   2.371   3.451   1.659
 1868SOL     OW 6502   5.315   3.530   6.477
 1868SOL    HW1 6503   5.223   3.568   6.468
 1868SOL    HW2 6504   5.313   3.432   6.456
 1869SOL     OW 6505   6.434   3.676   4.381
 1869SOL    HW1 6506   6.386   3.597   4.420
 1869SOL    HW2 6507   6.459   3.656   4.286
 1870SOL     OW 6508   1.240   2.803   4.959
 1870SOL    HW1 6509   1.258   2.886   5.012
 1870SOL    HW2 6510   1.321   2.744   4.960
 1871SOL     OW 6511   6.040   6.858   0.431
 1871SOL    HW1 6512   6.134   6.824   0.434
 1871SOL    HW2 6513   6.039   6.957   0.436
 1872SOL     OW 6514   4.387   1.864   0.188
 1872SOL    HW1 6515   4.310   1.800   0.196
 1872SOL    HW2 6516   4.399   1.889   0.092
 1873SOL     OW 6517   6.591   0.754   5.390
 1873SOL    HW1 6518   6.686   0.774   5.414
 1873SOL    HW2 6519   6.547   0.838   5.356
 1874SOL     OW 6520   1.160   0.932   6.638
 1874SOL    HW1 6521   1.075   0.968   6.677
 1874SOL    HW2 6522   1.210   1.006   6.593
 1875SOL     OW 6523   6.427   6.575   0.747
 1875SOL    HW1 6524   6.388   6.516   0.677
 1875SOL    HW2 6525   6.471   6.654   0.704
 1876SOL     OW 6526   4.565   6.063   6.430
 1876SOL    HW1 6527   4.471   6.088   6.408
 1876SOL    HW2 6528   4.595   5.990   6.368
 1877SOL     OW 6529   0.686   1.675   3.325
 1877SOL    HW1 6530   0.696   1.670   3.226
 1877SOL    HW2 6531   0.775   1.688   3.367
 1878SOL     OW 6532   0.351   4.181   4.006
 1878SOL    HW1 6533   0.372   4.093   4.047
 1878SOL    HW2 6534   0.324   4.245   4.078
 1879SOL     OW 6535   2.714   5.706   3.874
 1879SOL    HW1 6536   2.801   5.719   3.920
 1879SOL    HW2 6537   2.643   5.760   3.920
 1880SOL     OW 6538   0.621   2.401   3.224
 1880SOL    HW1 6539   0.559   2.474   3.193
 1880SOL    HW2 6540   0.611   2.321   3.166
 1881SOL     OW 6541   0.953   1.717   3.401
 1881SOL    HW1 6542   0.960   1.720   3.501
 1881SOL    HW2 6543   1.044   1.704   3.362
 1882SOL     OW 6544   0.713   5.019   6.693
 1882SOL    HW1 6545   0.679   5.109   6.719
 1882SOL    HW2 6546   0.793   5.029   6.634
 1883SOL     OW 6547   0.689   3.379   3.642
 1883SOL    HW1 6548   0.624   3.331   3.701
 1883SOL    HW2 6549   0.775   3.328   3.639
 1884SOL     OW 6550   5.726   1.602   0.821
 1884SOL    HW1 6551   5.634   1.636   0.802
 1884SOL    HW2 6552   5.744   1.606   0.919
 1885SOL     OW 6553   6.984   2.134   0.911
 1885SOL    HW1 6554   7.022   2.141   0.819
 1885SOL    HW2 6555   6.960   2.226   0.944
 1886SOL     OW 6556   1.865   2.119   0.236
 1886SOL    HW1 6557   1.775   2.152   0.207
 1886SOL    HW2 6558   1.894   2.169   0.318
 1887SOL     OW 6559   0.248   4.394   5.779
 1887SOL    HW1 6560   0.269   4.446   5.862
 1887SOL    HW2 6561   0.160   4.349   5.789
 1888SOL     OW 6562   2.290   1.856   6.401
 1888SOL    HW1 6563   2.341   1.939   6.427
 1888SOL    HW2 6564   2.192   1.872   6.416
 1889SOL     OW 6565   4.577   3.676   6.657
 1889SOL    HW1 6566   4.610   3.683   6.563
 1889SOL    HW2 6567   4.618   3.595   6.701
 1890SOL     OW 6568   1.409   5.893   5.726
 1890SOL    HW1 6569   1.341   5.931   5.663
 1890SOL    HW2 6570   1.488   5.860   5.674
 1891SOL     OW 6571   5.247   3.394   4.127
 1891SOL    HW1 6572   5.275   3.298   4.124
 1891SOL    HW2 6573   5.190   3.410   4.208
 1892SOL     OW 6574   3.567   6.728   1.136
 1892SOL    HW1 6575   3.646   6.681   1.177
 1892SOL    HW2 6576   3.491   6.727   1.201
 1893SOL     OW 6577   3.774   2.145   5.089
 1893SOL    HW1 6578   3.748   2.204   5.164
 1893SOL    HW2 6579   3.692   2.101   5.051
 1894SOL     OW 6580   4.406   3.833   1.656
 1894SOL    HW1 6581   4.436   3.737   1.661
 1894SOL    HW2 6582   4.323   3.844   1.711
 1895SOL     OW 6583   5.983   1.003   2.780
 1895SOL    HW1 6584   6.009   0.992   2.876
 1895SOL    HW2 6585   5.915   1.075   2.772
 1896SOL     OW 6586   0.089   0.835   3.409
 1896SOL    HW1 6587   0.051   0.848   3.501
 1896SOL    HW2 6588   0.057   0.909   3.350
 1897SOL     OW 6589   6.879   5.372   3.335
 1897SOL    HW1 6590   6.930   5.327   3.408
 1897SOL    HW2 6591   6.823   5.305   3.286
 1898SOL     OW 6592   3.089   5.768   1.765
 1898SOL    HW1 6593   3.057   5.761   1.859
 1898SOL    HW2 6594   3.189   5.774   1.764
 1899SOL     OW 6595   1.071   2.501   2.735
 1899SOL    HW1 6596   1.028   2.421   2.778
 1899SOL    HW2 6597   1.132   2.545   2.800
 1900SOL     OW 6598   1.009   0.266   5.739
 1900SOL    HW1 6599   1.092   0.281   5.686
 1900SOL    HW2 6600   0.939   0.225   5.681
 1901SOL     OW 6601   2.258   1.429   1.239
 1901SOL    HW1 6602   2.197   1.472   1.172
 1901SOL    HW2 6603   2.351   1.430   1.204
 1902SOL     OW 6604   2.392   2.115   4.813
 1902SOL    HW1 6605   2.412   2.185   4.744
 1902SOL    HW2 6606   2.304   2.072   4.792
 1903SOL     OW 6607   6.973   4.114   3.962
 1903SOL    HW1 6608   6.963   4.044   4.032
 1903SOL    HW2 6609   0.042   4.146   3.960
 1904SOL     OW 6610   6.336   0.327   3.909
 1904SOL    HW1 6611   6.321   0.325   3.810
 1904SOL    HW2 6612   6.254   0.292   3.955
 1905SOL     OW 6613   0.589   2.213   4.180
 1905SOL    HW1 6614   0.504   2.209   4.128
 1905SOL    HW2 6615   0.598   2.303   4.222
 1906SOL     OW 6616   2.568   6.942   5.383
 1906SOL    HW1 6617   2.518   7.003   5.322
 1906SOL    HW2 6618   2.656   6.918   5.342
 1907SOL     OW 6619   3.129   6.672   3.322
 1907SOL    HW1 6620   3.100   6.655   3.416
 1907SOL    HW2 6621   3.178   6.592   3.287
 1908SOL     OW 6622   4.589   0.841   4.972
 1908SOL    HW1 6623   4.587   0.851   4.872
 1908SOL    HW2 6624   4.535   0.760   4.998
 1909SOL     OW 6625   1.915   3.858   2.868
 1909SOL    HW1 6626   1.928   3.839   2.965
 1909SOL    HW2 6627   1.971   3.936   2.841
 1910SOL     OW 6628   6.172   2.331   6.884
 1910SOL    HW1 6629   6.202   2.382   6.964
 1910SOL    HW2 6630   6.090   2.278   6.905
 1911SOL     OW 6631   5.834   2.095   5.711
 1911SOL    HW1 6632   5.839   2.154   5.631
 1911SOL    HW2 6633   5.760   2.028   5.699
 1912SOL     OW 6634   4.111   6.690   2.027
 1912SOL    HW1 6635   4.155   6.745   1.955
 1912SOL    HW2 6636   4.163   6.701   2.112
 1913SOL     OW 6637   1.877   6.393   5.572
 1913SOL    HW1 6638   1.928   6.308   5.557
 1913SOL    HW2 6639   1.838   6.392   5.663
 1914SOL     OW 6640   3.159   2.978   7.021
 1914SOL    HW1 6641   3.087   2.909   7.013
 1914SOL    HW2 6642   3.117   3.068   0.007
 1915SOL     OW 6643   3.828   1.190   5.386
 1915SOL    HW1 6644   3.812   1.243   5.302
 1915SOL    HW2 6645   3.843   1.094   5.362
 1916SOL     OW 6646   2.944   5.578   0.874
 1916SOL    HW1 6647   2.947   5.677   0.889
 1916SOL    HW2 6648   2.975   5.531   0.956
 1917SOL     OW 6649   3.631   3.183   4.737
 1917SOL    HW1 6650   3.626   3.241   4.655
 1917SOL    HW2 6651   3.685   3.229   4.807
 1918SOL     OW 6652   6.737   0.177   6.847
 1918SOL    HW1 6653   6.658   0.117   6.841
 1918SOL    HW2 6654   6.803   0.153   6.776
 1919SOL     OW 6655   1.806   6.768   2.379
 1919SOL    HW1 6656   1.825   6.720   2.294
 1919SOL    HW2 6657   1.737   6.839   2.362
 1920SOL     OW 6658   0.740   5.018   3.700
 1920SOL    HW1 6659   0.667   5.004   3.632
 1920SOL    HW2 6660   0.819   4.962   3.676
 1921SOL     OW 6661   1.138   3.930   0.045
 1921SOL    HW1 6662   1.119   4.020   0.085
 1921SOL    HW2 6663   1.119   3.933   6.972
 1922SOL     OW 6664   3.780   4.386   1.061
 1922SOL    HW1 6665   3.762   4.315   0.993
 1922SOL    HW2 6666   3.760   4.476   1.023
 1923SOL     OW 6667   3.403   0.641   6.756
 1923SOL    HW1 6668   3.410   0.576   6.681
 1923SOL    HW2 6669   3.464   0.614   6.831
 1924SOL     OW 6670   5.746   5.455   2.133
 1924SOL    HW1 6671   5.659   5.437   2.179
 1924SOL    HW2 6672   5.818   5.400   2.174
 1925SOL     OW 6673   3.162   3.963   2.087
 1925SOL    HW1 6674   3.084   3.903   2.065
 1925SOL    HW2 6675   3.165   3.978   2.186
 1926SOL     OW 6676   0.876   6.755   3.935
 1926SOL    HW1 6677   0.788   6.708   3.934
 1926SOL    HW2 6678   0.949   6.688   3.942
 1927SOL     OW 6679   3.782   5.151   6.421
 1927SOL    HW1 6680   3.821   5.224   6.365
 1927SOL    HW2 6681   3.714   5.101   6.366
 1928SOL     OW 6682   6.970   3.449   6.184
 1928SOL    HW1 6683   6.942   3.469   6.278
 1928SOL    HW2 6684   6.892   3.407   6.135
 1929SOL     OW 6685   0.812   6.182   1.154
 1929SOL    HW1 6686   0.806   6.098   1.100
 1929SOL    HW2 6687   0.877   6.169   1.229
 1930SOL     OW 6688   4.400   3.957   0.191
 1930SOL    HW1 6689   4.327   3.938   0.126
 1930SOL    HW2 6690   4.448   3.872   0.213
 1931SOL     OW 6691   0.064   3.142   3.319
 1931SOL    HW1 6692   7.023   3.071   3.341
 1931SOL    HW2 6693   0.139   3.140   3.385
 1932SOL     OW 6694   5.248   4.403   2.202
 1932SOL    HW1 6695   5.305   4.349   2.264
 1932SOL    HW2 6696   5.307   4.446   2.133
 1933SOL     OW 6697   3.630   4.168   0.240
 1933SOL    HW1 6698   3.577   4.159   0.155
 1933SOL    HW2 6699   3.643   4.078   0.280
 1934SOL     OW 6700   0.193   0.614   4.988
 1934SOL    HW1 6701   0.159   0.646   4.900
 1934SOL    HW2 6702   0.183   0.515   4.995
 1935SOL     OW 6703   3.385   0.755   4.722
 1935SOL    HW1 6704   3.404   0.763   4.820
 1935SOL    HW2 6705   3.292   0.724   4.708
 1936SOL     OW 6706   6.154   3.820   4.140
 1936SOL    HW1 6707   6.234   3.855   4.091
 1936SOL    HW2 6708   6.125   3.734   4.099
 1937SOL     OW 6709   4.720   6.650   0.791
 1937SOL    HW1 6710   4.755   6.569   0.839
 1937SOL    HW2 6711   4.715   6.727   0.855
 1938SOL     OW 6712   3.708   1.467   2.161
 1938SOL    HW1 6713   3.721   1.450   2.063
 1938SOL    HW2 6714   3.768   1.406   2.213
 1939SOL     OW 6715   0.185   6.653   4.832
 1939SOL    HW1 6716   0.261   6.677   4.772
 1939SOL    HW2 6717   0.099   6.663   4.783
 1940SOL     OW 6718   4.810   4.878   6.422
 1940SOL    HW1 6719   4.783   4.934   6.500
 1940SOL    HW2 6720   4.904   4.846   6.434
 1941SOL     OW 6721   0.291   4.276   2.706
 1941SOL    HW1 6722   0.269   4.371   2.730
 1941SOL    HW2 6723   0.250   4.215   2.774
 1942SOL     OW 6724   5.859   0.672   2.889
 1942SOL    HW1 6725   5.923   0.610   2.844
 1942SOL    HW2 6726   5.907   0.724   2.959
 1943SOL     OW 6727   2.500   6.315   2.230
 1943SOL    HW1 6728   2.427   6.344   2.293
 1943SOL    HW2 6729   2.577   6.280   2.283
 1944SOL     OW 6730   5.300   2.066   6.966
 1944SOL    HW1 6731   5.213   2.038   6.927
 1944SOL    HW2 6732   5.287   2.096   0.035
 1945SOL     OW 6733   4.098   6.023   2.433
 1945SOL    HW1 6734   4.018   5.965   2.415
 1945SOL    HW2 6735   4.088   6.109   2.384
 1946SOL     OW 6736   5.611   0.752   0.967
 1946SOL    HW1 6737   5.596   0.843   0.926
 1946SOL    HW2 6738   5.526   0.700   0.962
 1947SOL     OW 6739   4.861   6.120   3.748
 1947SOL    HW1 6740   4.927   6.053   3.715
 1947SOL    HW2 6741   4.877   6.139   3.845
 1948SOL     OW 6742   6.175   6.054   4.044
 1948SOL    HW1 6743   6.167   6.100   4.132
 1948SOL    HW2 6744   6.210   5.962   4.057
 1949SOL     OW 6745   4.335   4.324   6.092
 1949SOL    HW1 6746   4.245   4.348   6.055
 1949SOL    HW2 6747   4.345   4.365   6.183
 1950SOL     OW 6748   3.481   4.813   1.080
 1950SOL    HW1 6749   3.510   4.859   0.995
 1950SOL    HW2 6750   3.495   4.875   1.157
 1951SOL     OW 6751   6.073   3.902   0.906
 1951SOL    HW1 6752   5.974   3.886   0.904
 1951SOL    HW2 6753   6.105   3.922   0.814
 1952SOL     OW 6754   3.801   1.930   0.273
 1952SOL    HW1 6755   3.886   1.949   0.322
 1952SOL    HW2 6756   3.742   2.010   0.275
 1953SOL     OW 6757   6.495   3.108   7.025
 1953SOL    HW1 6758   6.557   3.159   6.965
 1953SOL    HW2 6759   6.494   3.151   0.090
 1954SOL     OW 6760   5.506   1.079   3.912
 1954SOL    HW1 6761   5.490   1.174   3.940
 1954SOL    HW2 6762   5.547   1.078   3.821
 1955SOL     OW 6763   1.484   1.055   2.490
 1955SOL    HW1 6764   1.512   0.959   2.494
 1955SOL    HW2 6765   1.387   1.062   2.513
 1956SOL     OW 6766   5.330   0.323   2.256
 1956SOL    HW1 6767   5.306   0.312   2.353
 1956SOL    HW2 6768   5.297   0.244   2.205
 1957SOL     OW 6769   6.527   5.987   4.938
 1957SOL    HW1 6770   6.456   6.019   5.002
 1957SOL    HW2 6771   6.590   5.926   4.987
 1958SOL     OW 6772   5.571   2.834   2.508
 1958SOL    HW1 6773   5.532   2.896   2.440
 1958SOL    HW2 6774   5.571   2.741   2.472
 1959SOL     OW 6775   0.266   1.419   5.853
 1959SOL    HW1 6776   0.208   1.470   5.917
 1959SOL    HW2 6777   0.333   1.480   5.813
 1960SOL     OW 6778   6.937   4.293   1.277
 1960SOL    HW1 6779   6.950   4.268   1.181
 1960SOL    HW2 6780   6.926   4.211   1.332
 1961SOL     OW 6781   5.735   4.822   4.434
 1961SOL    HW1 6782   5.769   4.734   4.403
 1961SOL    HW2 6783   5.732   4.824   4.534
 1962SOL     OW 6784   2.424   6.860   3.569
 1962SOL    HW1 6785   2.339   6.822   3.604
 1962SOL    HW2 6786   2.466   6.796   3.505
 1963SOL     OW 6787   0.896   1.140   1.319
 1963SOL    HW1 6788   0.982   1.124   1.368
 1963SOL    HW2 6789   0.863   1.053   1.282
 1964SOL     OW 6790   4.728   3.363   1.702
 1964SOL    HW1 6791   4.752   3.267   1.687
 1964SOL    HW2 6792   4.803   3.408   1.751
 1965SOL     OW 6793   1.246   3.178   3.973
 1965SOL    HW1 6794   1.233   3.202   4.069
 1965SOL    HW2 6795   1.269   3.260   3.921
 1966SOL     OW 6796   6.827   5.944   6.021
 1966SOL    HW1 6797   6.739   5.913   6.059
 1966SOL    HW2 6798   6.876   5.997   6.090
 1967SOL     OW 6799   4.692   2.340   4.761
 1967SOL    HW1 6800   4.727   2.316   4.852
 1967SOL    HW2 6801   4.595   2.364   4.769
 1968SOL     OW 6802   3.521   6.376   0.540
 1968SOL    HW1 6803   3.472   6.434   0.606
 1968SOL    HW2 6804   3.574   6.307   0.590
 1969SOL     OW 6805   0.853   1.884   1.894
 1969SOL    HW1 6806   0.890   1.930   1.975
 1969SOL    HW2 6807   0.868   1.785   1.902
 1970SOL     OW 6808   2.281   0.087   6.187
 1970SOL    HW1 6809   2.273   0.187   6.184
 1970SOL    HW2 6810   2.361   0.061   6.241
 1971SOL     OW 6811   0.254   0.594   6.102
 1971SOL    HW1 6812   0.184   0.634   6.161
 1971SOL    HW2 6813   0.232   0.612   6.006
 1972SOL     OW 6814   5.438   2.915   2.813
 1972SOL    HW1 6815   5.530   2.878   2.798
 1972SOL    HW2 6816   5.380   2.842   2.850
 1973SOL     OW 6817   2.647   3.142   0.640
 1973SOL    HW1 6818   2.727   3.201   0.632
 1973SOL    HW2 6819   2.565   3.195   0.619
 1974SOL     OW 6820   5.823   6.215   4.230
 1974SOL    HW1 6821   5.846   6.311   4.246
 1974SOL    HW2 6822   5.755   6.209   4.158
 1975SOL     OW 6823   2.505   1.646   3.338
 1975SOL    HW1 6824   2.485   1.548   3.341
 1975SOL    HW2 6825   2.552   1.672   3.423
 1976SOL     OW 6826   0.067   5.852   0.585
 1976SOL    HW1 6827   7.025   5.779   0.590
 1976SOL    HW2 6828   0.021   5.941   0.585
 1977SOL     OW 6829   0.932   3.234   3.687
 1977SOL    HW1 6830   0.938   3.141   3.722
 1977SOL    HW2 6831   1.005   3.249   3.619
 1978SOL     OW 6832   0.678   1.009   3.480
 1978SOL    HW1 6833   0.612   1.084   3.471
 1978SOL    HW2 6834   0.738   1.008   3.401
 1979SOL     OW 6835   6.307   4.420   5.355
 1979SOL    HW1 6836   6.299   4.409   5.255
 1979SOL    HW2 6837   6.218   4.403   5.397
 1980SOL     OW 6838   2.904   0.914   6.002
 1980SOL    HW1 6839   2.917   0.850   5.926
 1980SOL    HW2 6840   2.858   0.996   5.969
 1981SOL     OW 6841   6.233   2.338   2.729
 1981SOL    HW1 6842   6.139   2.365   2.751
 1981SOL    HW2 6843   6.237   2.302   2.636
 1982SOL     OW 6844   0.251   3.856   5.271
 1982SOL    HW1 6845   0.177   3.849   5.204
 1982SOL    HW2 6846   0.319   3.785   5.252
 1983SOL     OW 6847   0.524   0.952   2.865
 1983SOL    HW1 6848   0.498   0.986   2.775
 1983SOL    HW2 6849   0.441   0.929   2.917
 1984SOL     OW 6850   6.068   1.857   4.661
 1984SOL    HW1 6851   6.166   1.857   4.643
 1984SOL    HW2 6852   6.037   1.765   4.681
 1985SOL     OW 6853   1.006   6.628   2.681
 1985SOL    HW1 6854   1.027   6.620   2.778
 1985SOL    HW2 6855   0.945   6.705   2.666
 1986SOL     OW 6856   1.595   0.363   7.000
 1986SOL    HW1 6857   1.517   0.364   6.937
 1986SOL    HW2 6858   1.604   0.272   0.015
 1987SOL     OW 6859   0.981   2.724   0.830
 1987SOL    HW1 6860   1.052   2.654   0.840
 1987SOL    HW2 6861   0.903   2.700   0.887
 1988SOL     OW 6862   5.636   4.767   0.959
 1988SOL    HW1 6863   5.606   4.814   0.876
 1988SOL    HW2 6864   5.565   4.778   1.030
 1989SOL     OW 6865   2.629   6.431   4.460
 1989SOL    HW1 6866   2.721   6.433   4.501
 1989SOL    HW2 6867   2.582   6.517   4.478
 1990SOL     OW 6868   3.400   5.987   0.337
 1990SOL    HW1 6869   3.416   5.997   0.436
 1990SOL    HW2 6870   3.346   5.904   0.321
 1991SOL     OW 6871   4.563   4.627   6.441
 1991SOL    HW1 6872   4.606   4.593   6.357
 1991SOL    HW2 6873   4.633   4.667   6.500
 1992SOL     OW 6874   0.727   0.505   6.824
 1992SOL    HW1 6875   0.742   0.603   6.810
 1992SOL    HW2 6876   0.749   0.481   6.919
 1993SOL     OW 6877   4.060   3.221   4.736
 1993SOL    HW1 6878   4.039   3.145   4.675
 1993SOL    HW2 6879   4.146   3.264   4.707
 1994SOL     OW 6880   1.139   1.551   0.283
 1994SOL    HW1 6881   1.045   1.525   0.308
 1994SOL    HW2 6882   1.204   1.498   0.337
 1995SOL     OW 6883   5.920   2.401   2.222
 1995SOL    HW1 6884   5.938   2.409   2.124
 1995SOL    HW2 6885   5.871   2.482   2.254
 1996SOL     OW 6886   2.388   3.791   0.596
 1996SOL    HW1 6887   2.310   3.729   0.601
 1996SOL    HW2 6888   2.372   3.870   0.655
 1997SOL     OW 6889   4.425   0.616   4.956
 1997SOL    HW1 6890   4.378   0.551   5.017
 1997SOL    HW2 6891   4.412   0.588   4.861
 1998SOL     OW 6892   3.343   3.651   6.069
 1998SOL    HW1 6893   3.402   3.605   6.003
 1998SOL    HW2 6894   3.299   3.583   6.128
 1999SOL     OW 6895   3.810   6.623   1.648
 1999SOL    HW1 6896   3.733   6.563   1.629
 1999SOL    HW2 6897   3.817   6.638   1.747
 2000SOL     OW 6898   4.321   2.106   5.081
 2000SOL    HW1 6899   4.350   2.114   4.986
 2000SOL    HW2 6900   4.323   2.010   5.109
 2001SOL     OW 6901   3.186   1.462   1.792
 2001SOL    HW1 6902   3.244   1.409   1.853
 2001SOL    HW2 6903   3.186   1.421   1.701
 2002SOL     OW 6904   0.728   4.634   5.515
 2002SOL    HW1 6905   0.657   4.563   5.512
 2002SOL    HW2 6906   0.701   4.706   5.578
 2003SOL     OW 6907   6.001   6.557   3.580
 2003SOL    HW1 6908   5.936   6.625   3.613
 2003SOL    HW2 6909   5.970   6.523   3.491
 2004SOL     OW 6910   4.402   1.365   5.087
 2004SOL    HW1 6911   4.474   1.376   5.156
 2004SOL    HW2 6912   4.322   1.322   5.128
 2005SOL     OW 6913   1.004   4.398   6.969
 2005SOL    HW1 6914   1.080   4.356   7.018
 2005SOL    HW2 6915   1.008   4.371   6.872
 2006SOL     OW 6916   5.069   5.186   4.204
 2006SOL    HW1 6917   5.013   5.126   4.147
 2006SOL    HW2 6918   5.162   5.149   4.209
 2007SOL     OW 6919   4.477   4.953   0.859
 2007SOL    HW1 6920   4.536   4.956   0.779
 2007SOL    HW2 6921   4.443   5.045   0.879
 2008SOL     OW 6922   1.498   5.191   2.999
 2008SOL    HW1 6923   1.447   5.108   3.022
 2008SOL    HW2 6924   1.588   5.167   2.963
 2009SOL     OW 6925   5.851   0.058   1.709
 2009SOL    HW1 6926   5.841   0.061   1.808
 2009SOL    HW2 6927   5.769   0.017   1.668
 2010SOL     OW 6928   2.200   1.673   0.624
 2010SOL    HW1 6929   2.272   1.729   0.584
 2010SOL    HW2 6930   2.209   1.673   0.724
 2011SOL     OW 6931   6.633   1.373   4.962
 2011SOL    HW1 6932   6.549   1.357   4.909
 2011SOL    HW2 6933   6.712   1.360   4.903
 2012SOL     OW 6934   1.574   2.899   1.668
 2012SOL    HW1 6935   1.646   2.864   1.728
 2012SOL    HW2 6936   1.495   2.926   1.722
 2013SOL     OW 6937   6.426   1.261   3.182
 2013SOL    HW1 6938   6.342   1.217   3.151
 2013SOL    HW2 6939   6.440   1.345   3.130
 2014SOL     OW 6940   1.953   5.133   2.484
 2014SOL    HW1 6941   1.916   5.102   2.397
 2014SOL    HW2 6942   2.032   5.192   2.467
 2015SOL     OW 6943   2.301   1.474   0.455
 2015SOL    HW1 6944   2.255   1.387   0.437
 2015SOL    HW2 6945   2.255   1.521   0.530
 2016SOL     OW 6946   0.881   5.578   5.261
 2016SOL    HW1 6947   0.975   5.611   5.255
 2016SOL    HW2 6948   0.879   5.480   5.242
 2017SOL     OW 6949   2.302   6.913   4.530
 2017SOL    HW1 6950   2.212   6.945   4.560
 2017SOL    HW2 6951   2.294   6.870   4.440
 2018SOL     OW 6952   5.892   6.841   5.718
 2018SOL    HW1 6953   5.802   6.864   5.682
 2018SOL    HW2 6954   5.908   6.893   5.802
 2019SOL     OW 6955   4.882   2.126   1.948
 2019SOL    HW1 6956   4.786   2.136   1.973
 2019SOL    HW2 6957   4.930   2.213   1.963
 2020SOL     OW 6958   0.498   5.763   4.836
 2020SOL    HW1 6959   0.442   5.734   4.914
 2020SOL    HW2 6960   0.454   5.839   4.788
 2021SOL     OW 6961   2.244   5.551   3.122
 2021SOL    HW1 6962   2.186   5.618   3.168
 2021SOL    HW2 6963   2.188   5.492   3.063
 2022SOL     OW 6964   1.987   3.540   3.139
 2022SOL    HW1 6965   1.894   3.505   3.126
 2022SOL    HW2 6966   2.052   3.480   3.092
 2023SOL     OW 6967   6.274   0.764   6.341
 2023SOL    HW1 6968   6.264   0.689   6.406
 2023SOL    HW2 6969   6.329   0.734   6.263
 2024SOL     OW 6970   0.000   6.995   3.335
 2024SOL    HW1 6971   0.006   6.902   3.372
 2024SOL    HW2 6972   6.961   0.023   3.389
 2025SOL     OW 6973   2.687   2.335   2.549
 2025SOL    HW1 6974   2.623   2.268   2.586
 2025SOL    HW2 6975   2.698   2.321   2.451
 2026SOL     OW 6976   0.634   3.125   6.361
 2026SOL    HW1 6977   0.645   3.161   6.269
 2026SOL    HW2 6978   0.723   3.122   6.407
 2027SOL     OW 6979   0.839   0.999   0.376
 2027SOL    HW1 6980   0.811   0.957   0.463
 2027SOL    HW2 6981   0.939   1.005   0.372
 2028SOL     OW 6982   2.967   1.261   6.146
 2028SOL    HW1 6983   2.975   1.271   6.047
 2028SOL    HW2 6984   2.906   1.185   6.168
 2029SOL     OW 6985   6.156   0.823   0.985
 2029SOL    HW1 6986   6.150   0.870   1.073
 2029SOL    HW2 6987   6.131   0.727   0.997
 2030SOL     OW 6988   2.125   0.384   3.110
 2030SOL    HW1 6989   2.141   0.477   3.075
 2030SOL    HW2 6990   2.080   0.330   3.039
 2031SOL     OW 6991   5.983   6.430   2.206
 2031SOL    HW1 6992   6.073   6.464   2.182
 2031SOL    HW2 6993   5.928   6.505   2.245
 2032SOL     OW 6994   4.918   6.548   1.831
 2032SOL    HW1 6995   4.901   6.639   1.792
 2032SOL    HW2 6996   4.928   6.482   1.757
 2033SOL     OW 6997   3.497   4.163   0.015
 2033SOL    HW1 6998   3.444   4.245   7.020
 2033SOL    HW2 6999   3.492   4.100   6.963
 2034SOL     OW 7000   3.131   6.481   4.671
 2034SOL    HW1 7001   3.134   6.447   4.765
 2034SOL    HW2 7002   3.162   6.409   4.609
 2035SOL     OW 7003   6.790   0.580   1.660
 2035SOL    HW1 7004   6.768   0.484   1.641
 2035SOL    HW2 7005   6.752   0.606   1.749
 2036SOL     OW 7006   0.990   5.315   3.237
 2036SOL    HW1 7007   0.954   5.254   3.166
 2036SOL    HW2 7008   1.090   5.316   3.233
 2037SOL     OW 7009   0.477   2.850   5.724
 2037SOL    HW1 7010   0.458   2.798   5.807
 2037SOL    HW2 7011   0.419   2.816   5.650
 2038SOL     OW 7012   1.447   2.126   6.701
 2038SOL    HW1 7013   1.351   2.133   6.728
 2038SOL    HW2 7014   1.503   2.113   6.783
 2039SOL     OW 7015   0.938   5.251   3.531
 2039SOL    HW1 7016   0.953   5.308   3.451
 2039SOL    HW2 7017   0.913   5.309   3.609
 2040SOL     OW 7018   3.812   2.971   5.095
 2040SOL    HW1 7019   3.742   2.915   5.051
 2040SOL    HW2 7020   3.842   3.042   5.033
 2041SOL     OW 7021   0.113   5.747   5.808
 2041SOL    HW1 7022   0.160   5.671   5.853
 2041SOL    HW2 7023   0.177   5.794   5.747
 2042SOL     OW 7024   5.336   4.549   6.675
 2042SOL    HW1 7025   5.299   4.458   6.693
 2042SOL    HW2 7026   5.388   4.581   6.754
 2043SOL     OW 7027   6.306   4.109   3.234
 2043SOL    HW1 7028   6.340   4.122   3.141
 2043SOL    HW2 7029   6.238   4.036   3.235
 2044SOL     OW 7030   5.161   6.890   1.175
 2044SOL    HW1 7031   5.198   6.826   1.108
 2044SOL    HW2 7032   5.232   6.955   1.204
 2045SOL     OW 7033   3.134   5.004   3.817
 2045SOL    HW1 7034   3.149   5.100   3.842
 2045SOL    HW2 7035   3.090   4.957   3.893
 2046SOL     OW 7036   6.952   1.568   3.948
 2046SOL    HW1 7037   0.021   1.596   3.963
 2046SOL    HW2 7038   6.945   1.519   3.861
 2047SOL     OW 7039   5.526   2.268   0.323
 2047SOL    HW1 7040   5.590   2.342   0.303
 2047SOL    HW2 7041   5.575   2.193   0.368
 2048SOL     OW 7042   1.304   5.888   0.447
 2048SOL    HW1 7043   1.262   5.805   0.485
 2048SOL    HW2 7044   1.279   5.967   0.503
 2049SOL     OW 7045   4.980   1.665   6.532
 2049SOL    HW1 7046   5.002   1.738   6.467
 2049SOL    HW2 7047   4.920   1.598   6.488
 2050SOL     OW 7048   0.485   2.903   2.660
 2050SOL    HW1 7049   0.530   2.964   2.725
 2050SOL    HW2 7050   0.387   2.924   2.657
 2051SOL     OW 7051   0.940   6.000   0.739
 2051SOL    HW1 7052   1.027   5.996   0.688
 2051SOL    HW2 7053   0.866   5.971   0.679
 2052SOL     OW 7054   1.085   4.088   0.937
 2052SOL    HW1 7055   1.134   4.008   0.904
 2052SOL    HW2 7056   1.040   4.066   1.024
 2053SOL     OW 7057   5.635   6.827   4.785
 2053SOL    HW1 7058   5.734   6.835   4.771
 2053SOL    HW2 7059   5.599   6.757   4.724
 2054SOL     OW 7060   3.969   3.031   2.050
 2054SOL    HW1 7061   3.963   3.088   2.132
 2054SOL    HW2 7062   3.889   2.971   2.046
 2055SOL     OW 7063   6.043   3.619   3.513
 2055SOL    HW1 7064   5.986   3.537   3.518
 2055SOL    HW2 7065   6.030   3.673   3.596
 2056SOL     OW 7066   2.296   0.078   2.773
 2056SOL    HW1 7067   2.348   0.113   2.851
 2056SOL    HW2 7068   2.356   0.066   2.695
 2057SOL     OW 7069   5.659   3.170   3.825
 2057SOL    HW1 7070   5.659   3.087   3.881
 2057SOL    HW2 7071   5.671   3.146   3.729
 2058SOL     OW 7072   0.798   2.040   3.029
 2058SOL    HW1 7073   0.867   2.030   3.100
 2058SOL    HW2 7074   0.803   1.962   2.967
 2059SOL     OW 7075   2.568   6.151   6.392
 2059SOL    HW1 7076   2.614   6.067   6.362
 2059SOL    HW2 7077   2.484   6.127   6.440
 2060SOL     OW 7078   6.318   4.714   0.729
 2060SOL    HW1 7079   6.233   4.758   0.700
 2060SOL    HW2 7080   6.383   4.713   0.653
 2061SOL     OW 7081   0.130   1.783   3.458
 2061SOL    HW1 7082   0.185   1.704   3.484
 2061SOL    HW2 7083   0.182   1.867   3.477
 2062SOL     OW 7084   6.036   0.400   3.689
 2062SOL    HW1 7085   6.132   0.429   3.679
 2062SOL    HW2 7086   6.027   0.344   3.772
 2063SOL     OW 7087   1.800   0.024   6.351
 2063SOL    HW1 7088   1.754   6.990   6.418
 2063SOL    HW2 7089   1.844   6.993   6.281
 2064SOL     OW 7090   0.636   2.675   5.537
 2064SOL    HW1 7091   0.545   2.695   5.501
 2064SOL    HW2 7092   0.682   2.610   5.477
 2065SOL     OW 7093   6.739   2.590   4.784
 2065SOL    HW1 7094   6.699   2.499   4.800
 2065SOL    HW2 7095   6.781   2.592   4.693
 2066SOL     OW 7096   1.146   4.815   3.789
 2066SOL    HW1 7097   1.231   4.819   3.737
 2066SOL    HW2 7098   1.151   4.877   3.867
 2067SOL     OW 7099   6.366   5.261   0.684
 2067SOL    HW1 7100   6.420   5.193   0.734
 2067SOL    HW2 7101   6.386   5.253   0.586
 2068SOL     OW 7102   1.552   1.189   5.006
 2068SOL    HW1 7103   1.601   1.231   4.930
 2068SOL    HW2 7104   1.616   1.136   5.062
 2069SOL     OW 7105   0.875   3.089   3.074
 2069SOL    HW1 7106   0.819   3.010   3.051
 2069SOL    HW2 7107   0.899   3.085   3.171
 2070SOL     OW 7108   1.455   1.094   1.867
 2070SOL    HW1 7109   1.384   1.111   1.798
 2070SOL    HW2 7110   1.412   1.080   1.956
 2071SOL     OW 7111   5.844   5.580   5.188
 2071SOL    HW1 7112   5.782   5.659   5.195
 2071SOL    HW2 7113   5.794   5.501   5.152
 2072SOL     OW 7114   4.383   6.705   3.306
 2072SOL    HW1 7115   4.481   6.685   3.308
 2072SOL    HW2 7116   4.344   6.691   3.396
 2073SOL     OW 7117   3.858   0.058   4.563
 2073SOL    HW1 7118   3.869   0.021   4.655
 2073SOL    HW2 7119   3.844   7.008   4.498
 2074SOL     OW 7120   1.653   2.943   0.409
 2074SOL    HW1 7121   1.568   2.994   0.398
 2074SOL    HW2 7122   1.633   2.852   0.445
 2075SOL     OW 7123   5.506   3.301   1.515
 2075SOL    HW1 7124   5.550   3.211   1.517
 2075SOL    HW2 7125   5.483   3.329   1.608
 2076SOL     OW 7126   5.371   0.204   6.371
 2076SOL    HW1 7127   5.284   0.197   6.420
 2076SOL    HW2 7128   5.378   0.129   6.305
 2077SOL     OW 7129   5.458   2.524   2.618
 2077SOL    HW1 7130   5.404   2.608   2.606
 2077SOL    HW2 7131   5.403   2.446   2.588
 2078SOL     OW 7132   1.061   5.512   5.503
 2078SOL    HW1 7133   0.985   5.577   5.496
 2078SOL    HW2 7134   1.147   5.559   5.482
 2079SOL     OW 7135   5.260   2.242   4.034
 2079SOL    HW1 7136   5.208   2.157   4.022
 2079SOL    HW2 7137   5.353   2.220   4.061
 2080SOL     OW 7138   1.847   0.560   5.167
 2080SOL    HW1 7139   1.788   0.581   5.245
 2080SOL    HW2 7140   1.906   0.638   5.147
 2081SOL     OW 7141   1.519   5.087   4.118
 2081SOL    HW1 7142   1.438   5.142   4.139
 2081SOL    HW2 7143   1.504   5.034   4.035
 2082SOL     OW 7144   0.314   6.729   3.502
 2082SOL    HW1 7145   0.291   6.702   3.408
 2082SOL    HW2 7146   0.352   6.821   3.502
 2083SOL     OW 7147   6.275   5.079   6.157
 2083SOL    HW1 7148   6.313   5.134   6.231
 2083SOL    HW2 7149   6.287   5.128   6.070
 2084SOL     OW 7150   1.603   3.499   3.752
 2084SOL    HW1 7151   1.640   3.512   3.660
 2084SOL    HW2 7152   1.544   3.576   3.776
 2085SOL     OW 7153   4.266   0.265   6.887
 2085SOL    HW1 7154   4.327   0.220   6.951
 2085SOL    HW2 7155   4.286   0.235   6.794
 2086SOL     OW 7156   3.945   6.718   5.446
 2086SOL    HW1 7157   3.915   6.810   5.473
 2086SOL    HW2 7158   4.025   6.725   5.386
 2087SOL     OW 7159   4.908   0.196   1.319
 2087SOL    HW1 7160   4.977   0.186   1.248
 2087SOL    HW2 7161   4.942   0.155   1.404
 2088SOL     OW 7162   1.910   5.945   0.252
 2088SOL    HW1 7163   1.996   5.930   0.203
 2088SOL    HW2 7164   1.909   5.888   0.334
 2089SOL     OW 7165   5.419   2.086   6.177
 2089SOL    HW1 7166   5.471   2.142   6.112
 2089SOL    HW2 7167   5.329   2.127   6.191
 2090SOL     OW 7168   3.801   2.856   6.169
 2090SOL    HW1 7169   3.716   2.805   6.180
 2090SOL    HW2 7170   3.786   2.951   6.198
 2091SOL     OW 7171   6.909   5.359   0.597
 2091SOL    HW1 7172   6.902   5.265   0.631
 2091SOL    HW2 7173   6.954   5.358   0.507
 2092SOL     OW 7174   5.463   4.248   6.993
 2092SOL    HW1 7175   5.484   4.345   7.000
 2092SOL    HW2 7176   5.364   4.234   6.999
 2093SOL     OW 7177   2.728   2.312   1.507
 2093SOL    HW1 7178   2.646   2.278   1.553
 2093SOL    HW2 7179   2.701   2.376   1.435
 2094SOL     OW 7180   6.095   1.355   1.839
 2094SOL    HW1 7181   6.108   1.260   1.866
 2094SOL    HW2 7182   5.999   1.371   1.819
 2095SOL     OW 7183   5.394   0.099   5.041
 2095SOL    HW1 7184   5.417   0.132   5.133
 2095SOL    HW2 7185   5.362   0.005   5.047
 2096SOL     OW 7186   4.796   3.976   2.809
 2096SOL    HW1 7187   4.880   3.921   2.799
 2096SOL    HW2 7188   4.761   3.966   2.902
 2097SOL     OW 7189   2.946   2.871   6.746
 2097SOL    HW1 7190   3.017   2.839   6.684
 2097SOL    HW2 7191   2.943   2.971   6.745
 2098SOL     OW 7192   3.981   5.638   2.185
 2098SOL    HW1 7193   3.891   5.681   2.173
 2098SOL    HW2 7194   3.972   5.539   2.174
 2099SOL     OW 7195   3.007   2.930   6.135
 2099SOL    HW1 7196   2.943   2.995   6.095
 2099SOL    HW2 7197   2.964   2.840   6.141
 2100SOL     OW 7198   4.665   2.600   6.264
 2100SOL    HW1 7199   4.579   2.646   6.241
 2100SOL    HW2 7200   4.673   2.592   6.363
 2101SOL     OW 7201   1.230   6.648   2.498
 2101SOL    HW1 7202   1.257   6.742   2.482
 2101SOL    HW2 7203   1.157   6.645   2.567
 2102SOL     OW 7204   6.237   4.801   2.895
 2102SOL    HW1 7205   6.188   4.810   2.808
 2102SOL    HW2 7206   6.223   4.708   2.931
 2103SOL     OW 7207   3.943   4.361   5.514
 2103SOL    HW1 7208   3.872   4.419   5.474
 2103SOL    HW2 7209   4.012   4.340   5.445
 2104SOL     OW 7210   2.313   4.163   1.168
 2104SOL    HW1 7211   2.264   4.075   1.165
 2104SOL    HW2 7212   2.394   4.158   1.110
 2105SOL     OW 7213   4.910   6.140   5.155
 2105SOL    HW1 7214   4.864   6.173   5.072
 2105SOL    HW2 7215   4.909   6.040   5.156
 2106SOL     OW 7216   4.772   4.663   1.516
 2106SOL    HW1 7217   4.700   4.601   1.485
 2106SOL    HW2 7218   4.844   4.610   1.561
 2107SOL     OW 7219   5.227   2.426   5.423
 2107SOL    HW1 7220   5.208   2.514   5.466
 2107SOL    HW2 7221   5.260   2.361   5.491
 2108SOL     OW 7222   6.130   5.514   4.947
 2108SOL    HW1 7223   6.135   5.530   5.046
 2108SOL    HW2 7224   6.065   5.578   4.906
 2109SOL     OW 7225   4.350   5.982   2.511
 2109SOL    HW1 7226   4.265   6.008   2.464
 2109SOL    HW2 7227   4.360   5.883   2.508
 2110SOL     OW 7228   2.439   1.626   0.267
 2110SOL    HW1 7229   2.394   1.566   0.334
 2110SOL    HW2 7230   2.499   1.690   0.315
 2111SOL     OW 7231   1.540   2.387   6.649
 2111SOL    HW1 7232   1.505   2.293   6.651
 2111SOL    HW2 7233   1.579   2.410   6.738
 2112SOL     OW 7234   5.517   3.660   0.543
 2112SOL    HW1 7235   5.526   3.719   0.623
 2112SOL    HW2 7236   5.585   3.587   0.547
 2113SOL     OW 7237   2.433   2.111   5.597
 2113SOL    HW1 7238   2.432   2.150   5.505
 2113SOL    HW2 7239   2.361   2.154   5.652
 2114SOL     OW 7240   1.482   1.756   6.770
 2114SOL    HW1 7241   1.410   1.782   6.705
 2114SOL    HW2 7242   1.515   1.838   6.817
 2115SOL     OW 7243   2.153   3.355   2.445
 2115SOL    HW1 7244   2.179   3.337   2.350
 2115SOL    HW2 7245   2.061   3.394   2.449
 2116SOL     OW 7246   0.455   5.243   3.497
 2116SOL    HW1 7247   0.386   5.289   3.554
 2116SOL    HW2 7248   0.411   5.209   3.414
 2117SOL     OW 7249   6.959   5.301   1.715
 2117SOL    HW1 7250   6.990   5.284   1.809
 2117SOL    HW2 7251   6.872   5.255   1.699
 2118SOL     OW 7252   6.407   3.585   2.186
 2118SOL    HW1 7253   6.374   3.536   2.267
 2118SOL    HW2 7254   6.360   3.552   2.105
 2119SOL     OW 7255   1.410   6.955   1.213
 2119SOL    HW1 7256   1.412   6.870   1.161
 2119SOL    HW2 7257   1.395   0.006   1.150
 2120SOL     OW 7258   6.910   5.141   4.113
 2120SOL    HW1 7259   6.975   5.218   4.112
 2120SOL    HW2 7260   6.896   5.110   4.207
 2121SOL     OW 7261   1.820   4.350   6.031
 2121SOL    HW1 7262   1.873   4.362   6.115
 2121SOL    HW2 7263   1.882   4.334   5.954
 2122SOL     OW 7264   5.743   3.925   5.880
 2122SOL    HW1 7265   5.787   3.923   5.970
 2122SOL    HW2 7266   5.804   3.882   5.813
 2123SOL     OW 7267   6.996   5.989   2.471
 2123SOL    HW1 7268   0.028   5.992   2.389
 2123SOL    HW2 7269   6.953   6.078   2.485
 2124SOL     OW 7270   3.283   1.859   1.346
 2124SOL    HW1 7271   3.380   1.851   1.369
 2124SOL    HW2 7272   3.265   1.809   1.261
 2125SOL     OW 7273   2.040   0.993   2.017
 2125SOL    HW1 7274   1.991   0.922   1.966
 2125SOL    HW2 7275   2.029   1.081   1.971
 2126SOL     OW 7276   3.655   1.615   6.266
 2126SOL    HW1 7277   3.639   1.518   6.251
 2126SOL    HW2 7278   3.717   1.650   6.195
 2127SOL     OW 7279   0.434   3.519   4.927
 2127SOL    HW1 7280   0.426   3.450   4.999
 2127SOL    HW2 7281   0.513   3.499   4.870
 2128SOL     OW 7282   6.615   3.291   3.665
 2128SOL    HW1 7283   6.550   3.345   3.720
 2128SOL    HW2 7284   6.567   3.254   3.585
 2129SOL     OW 7285   4.455   3.432   5.586
 2129SOL    HW1 7286   4.459   3.494   5.664
 2129SOL    HW2 7287   4.385   3.363   5.602
 2130SOL     OW 7288   3.352   0.938   2.676
 2130SOL    HW1 7289   3.428   0.930   2.611
 2130SOL    HW2 7290   3.372   1.012   2.741
 2131SOL     OW 7291   5.461   1.337   0.908
 2131SOL    HW1 7292   5.492   1.338   0.813
 2131SOL    HW2 7293   5.397   1.413   0.923
 2132SOL     OW 7294   3.211   0.345   1.744
 2132SOL    HW1 7295   3.218   0.435   1.787
 2132SOL    HW2 7296   3.293   0.328   1.690
 2133SOL     OW 7297   3.278   3.033   0.639
 2133SOL    HW1 7298   3.266   2.972   0.717
 2133SOL    HW2 7299   3.203   3.021   0.574
 2134SOL     OW 7300   6.901   1.505   5.770
 2134SOL    HW1 7301   6.893   1.407   5.786
 2134SOL    HW2 7302   6.812   1.542   5.745
 2135SOL     OW 7303   1.408   3.309   4.742
 2135SOL    HW1 7304   1.389   3.295   4.645
 2135SOL    HW2 7305   1.470   3.237   4.774
 2136SOL     OW 7306   1.429   3.698   3.815
 2136SOL    HW1 7307   1.477   3.780   3.783
 2136SOL    HW2 7308   1.345   3.686   3.763
 2137SOL     OW 7309   2.864   5.502   4.861
 2137SOL    HW1 7310   2.840   5.584   4.912
 2137SOL    HW2 7311   2.945   5.520   4.804
 2138SOL     OW 7312   6.548   0.711   2.589
 2138SOL    HW1 7313   6.549   0.730   2.687
 2138SOL    HW2 7314   6.455   0.723   2.554
 2139SOL     OW 7315   3.950   0.830   3.419
 2139SOL    HW1 7316   3.876   0.825   3.485
 2139SOL    HW2 7317   3.929   0.773   3.340
 2140SOL     OW 7318   3.976   6.763   3.907
 2140SOL    HW1 7319   4.064   6.752   3.952
 2140SOL    HW2 7320   3.950   6.677   3.862
 2141SOL     OW 7321   0.241   3.715   1.960
 2141SOL    HW1 7322   0.248   3.703   1.861
 2141SOL    HW2 7323   0.328   3.690   2.003
 2142SOL     OW 7324   1.886   2.029   3.132
 2142SOL    HW1 7325   1.886   2.114   3.184
 2142SOL    HW2 7326   1.940   2.041   3.049
 2143SOL     OW 7327   2.762   4.555   1.501
 2143SOL    HW1 7328   2.844   4.591   1.456
 2143SOL    HW2 7329   2.759   4.589   1.595
 2144SOL     OW 7330   1.303   5.293   4.170
 2144SOL    HW1 7331   1.207   5.296   4.144
 2144SOL    HW2 7332   1.347   5.379   4.146
 2145SOL     OW 7333   4.440   5.890   4.042
 2145SOL    HW1 7334   4.435   5.885   3.942
 2145SOL    HW2 7335   4.525   5.934   4.069
 2146SOL     OW 7336   2.712   3.712   1.714
 2146SOL    HW1 7337   2.758   3.795   1.746
 2146SOL    HW2 7338   2.703   3.716   1.615
 2147SOL     OW 7339   6.306   1.795   6.074
 2147SOL    HW1 7340   6.223   1.774   6.124
 2147SOL    HW2 7341   6.283   1.841   5.988
 2148SOL     OW 7342   6.144   3.096   5.420
 2148SOL    HW1 7343   6.100   3.041   5.349
 2148SOL    HW2 7344   6.102   3.186   5.424
 2149SOL     OW 7345   3.562   1.856   1.294
 2149SOL    HW1 7346   3.634   1.860   1.225
 2149SOL    HW2 7347   3.547   1.761   1.321
 2150SOL     OW 7348   2.598   1.881   2.112
 2150SOL    HW1 7349   2.525   1.829   2.154
 2150SOL    HW2 7350   2.640   1.942   2.179
 2151SOL     OW 7351   1.242   0.386   5.605
 2151SOL    HW1 7352   1.257   0.291   5.578
 2151SOL    HW2 7353   1.323   0.420   5.652
 2152SOL     OW 7354   3.359   5.809   1.825
 2152SOL    HW1 7355   3.425   5.823   1.752
 2152SOL    HW2 7356   3.388   5.731   1.881
 2153SOL     OW 7357   3.754   1.158   2.664
 2153SOL    HW1 7358   3.842   1.162   2.710
 2153SOL    HW2 7359   3.752   1.080   2.601
 2154SOL     OW 7360   5.258   0.623   4.899
 2154SOL    HW1 7361   5.191   0.660   4.835
 2154SOL    HW2 7362   5.350   0.648   4.869
 2155SOL     OW 7363   2.537   6.199   0.444
 2155SOL    HW1 7364   2.605   6.184   0.516
 2155SOL    HW2 7365   2.446   6.204   0.486
 2156SOL     OW 7366   1.630   1.699   5.150
 2156SOL    HW1 7367   1.692   1.753   5.206
 2156SOL    HW2 7368   1.545   1.682   5.200
 2157SOL     OW 7369   5.930   0.905   3.518
 2157SOL    HW1 7370   6.022   0.943   3.518
 2157SOL    HW2 7371   5.884   0.927   3.432
 2158SOL     OW 7372   3.722   6.074   1.330
 2158SOL    HW1 7373   3.813   6.074   1.373
 2158SOL    HW2 7374   3.661   6.015   1.382
 2159SOL     OW 7375   0.981   6.375   5.280
 2159SOL    HW1 7376   0.946   6.308   5.346
 2159SOL    HW2 7377   1.043   6.330   5.216
 2160SOL     OW 7378   4.452   3.982   0.478
 2160SOL    HW1 7379   4.462   3.994   0.379
 2160SOL    HW2 7380   4.488   3.892   0.504
 2161SOL     OW 7381   5.691   5.052   2.974
 2161SOL    HW1 7382   5.668   5.015   3.064
 2161SOL    HW2 7383   5.611   5.095   2.933
 2162SOL     OW 7384   2.106   1.252   1.923
 2162SOL    HW1 7385   2.178   1.314   1.892
 2162SOL    HW2 7386   2.017   1.284   1.890
 2163SOL     OW 7387   1.578   4.376   5.856
 2163SOL    HW1 7388   1.577   4.476   5.853
 2163SOL    HW2 7389   1.672   4.345   5.866
 2164SOL     OW 7390   1.365   2.689   0.448
 2164SOL    HW1 7391   1.321   2.702   0.359
 2164SOL    HW2 7392   1.337   2.762   0.510
 2165SOL     OW 7393   0.353   1.977   2.615
 2165SOL    HW1 7394   0.362   1.904   2.547
 2165SOL    HW2 7395   0.398   1.949   2.700
 2166SOL     OW 7396   1.768   2.323   5.513
 2166SOL    HW1 7397   1.806   2.394   5.571
 2166SOL    HW2 7398   1.830   2.305   5.436
 2167SOL     OW 7399   1.720   1.557   3.255
 2167SOL    HW1 7400   1.719   1.563   3.155
 2167SOL    HW2 7401   1.800   1.605   3.290
 2168SOL     OW 7402   0.802   2.159   3.991
 2168SOL    HW1 7403   0.883   2.126   4.038
 2168SOL    HW2 7404   0.725   2.162   4.054
 2169SOL     OW 7405   5.303   1.048   6.891
 2169SOL    HW1 7406   5.384   0.997   6.917
 2169SOL    HW2 7407   5.261   1.006   6.811
 2170SOL     OW 7408   6.549   4.505   5.809
 2170SOL    HW1 7409   6.527   4.603   5.816
 2170SOL    HW2 7410   6.631   4.486   5.864
 2171SOL     OW 7411   0.438   5.190   1.460
 2171SOL    HW1 7412   0.398   5.100   1.443
 2171SOL    HW2 7413   0.530   5.194   1.421
 2172SOL     OW 7414   1.943   2.252   0.467
 2172SOL    HW1 7415   1.931   2.350   0.459
 2172SOL    HW2 7416   1.990   2.231   0.553
 2173SOL     OW 7417   3.509   0.805   5.336
 2173SOL    HW1 7418   3.488   0.708   5.344
 2173SOL    HW2 7419   3.521   0.845   5.428
 2174SOL     OW 7420   5.320   6.369   5.258
 2174SOL    HW1 7421   5.263   6.439   5.300
 2174SOL    HW2 7422   5.416   6.389   5.275
 2175SOL     OW 7423   2.157   3.000   4.359
 2175SOL    HW1 7424   2.154   3.068   4.431
 2175SOL    HW2 7425   2.099   2.922   4.383
 2176SOL     OW 7426   6.502   2.251   0.701
 2176SOL    HW1 7427   6.503   2.222   0.606
 2176SOL    HW2 7428   6.445   2.332   0.711
 2177SOL     OW 7429   6.957   2.016   3.605
 2177SOL    HW1 7430   6.918   2.068   3.529
 2177SOL    HW2 7431   6.941   1.918   3.590
 2178SOL     OW 7432   2.012   2.273   1.047
 2178SOL    HW1 7433   1.965   2.246   1.131
 2178SOL    HW2 7434   2.102   2.231   1.044
 2179SOL     OW 7435   2.068   5.075   4.822
 2179SOL    HW1 7436   2.142   5.138   4.799
 2179SOL    HW2 7437   2.030   5.100   4.911
 2180SOL     OW 7438   1.831   2.389   1.472
 2180SOL    HW1 7439   1.896   2.348   1.537
 2180SOL    HW2 7440   1.739   2.355   1.491
 2181SOL     OW 7441   4.748   5.136   4.484
 2181SOL    HW1 7442   4.801   5.053   4.499
 2181SOL    HW2 7443   4.743   5.155   4.386
 2182SOL     OW 7444   1.439   3.754   4.085
 2182SOL    HW1 7445   1.449   3.724   3.990
 2182SOL    HW2 7446   1.350   3.724   4.120
 2183SOL     OW 7447   2.819   3.821   5.905
 2183SOL    HW1 7448   2.892   3.869   5.857
 2183SOL    HW2 7449   2.737   3.877   5.905
 2184SOL     OW 7450   4.019   1.838   6.264
 2184SOL    HW1 7451   3.951   1.896   6.308
 2184SOL    HW2 7452   4.095   1.821   6.327
 2185SOL     OW 7453   0.605   1.104   1.069
 2185SOL    HW1 7454   0.667   1.172   1.031
 2185SOL    HW2 7455   0.564   1.051   0.995
 2186SOL     OW 7456   0.418   6.044   1.831
 2186SOL    HW1 7457   0.462   6.030   1.742
 2186SOL    HW2 7458   0.321   6.063   1.817
 2187SOL     OW 7459   6.706   0.210   2.853
 2187SOL    HW1 7460   6.674   0.268   2.928
 2187SOL    HW2 7461   6.770   0.142   2.888
 2188SOL     OW 7462   6.969   6.462   5.104
 2188SOL    HW1 7463   6.954   6.460   5.005
 2188SOL    HW2 7464   0.031   6.505   5.124
 2189SOL     OW 7465   1.628   6.923   0.628
 2189SOL    HW1 7466   1.704   6.858   0.618
 2189SOL    HW2 7467   1.556   6.900   0.563
 2190SOL     OW 7468   0.394   3.396   1.760
 2190SOL    HW1 7469   0.405   3.488   1.721
 2190SOL    HW2 7470   0.297   3.374   1.765
 2191SOL     OW 7471   3.268   1.737   6.776
 2191SOL    HW1 7472   3.298   1.803   6.708
 2191SOL    HW2 7473   3.330   1.739   6.854
 2192SOL     OW 7474   4.499   1.175   2.532
 2192SOL    HW1 7475   4.565   1.186   2.457
 2192SOL    HW2 7476   4.409   1.207   2.502
 2193SOL     OW 7477   5.474   5.586   6.692
 2193SOL    HW1 7478   5.397   5.614   6.635
 2193SOL    HW2 7479   5.559   5.618   6.649
 2194SOL     OW 7480   2.812   3.964   5.607
 2194SOL    HW1 7481   2.748   3.910   5.553
 2194SOL    HW2 7482   2.766   4.046   5.642
 2195SOL     OW 7483   0.166   0.734   4.750
 2195SOL    HW1 7484   0.109   0.807   4.714
 2195SOL    HW2 7485   0.231   0.704   4.680
 2196SOL     OW 7486   2.940   6.776   5.487
 2196SOL    HW1 7487   2.891   6.859   5.463
 2196SOL    HW2 7488   2.979   6.735   5.405
 2197SOL     OW 7489   3.286   3.828   0.722
 2197SOL    HW1 7490   3.264   3.804   0.817
 2197SOL    HW2 7491   3.326   3.919   0.719
 2198SOL     OW 7492   5.596   1.223   0.059
 2198SOL    HW1 7493   5.581   1.299   0.122
 2198SOL    HW2 7494   5.693   1.221   0.032
 2199SOL     OW 7495   4.907   0.838   3.523
 2199SOL    HW1 7496   5.006   0.846   3.514
 2199SOL    HW2 7497   4.868   0.814   3.434
 2200SOL     OW 7498   2.792   1.458   5.595
 2200SOL    HW1 7499   2.693   1.452   5.585
 2200SOL    HW2 7500   2.836   1.412   5.517
 2201SOL     OW 7501   6.427   2.791   3.294
 2201SOL    HW1 7502   6.437   2.728   3.371
 2201SOL    HW2 7503   6.435   2.740   3.208
 2202SOL     OW 7504   2.975   5.512   2.086
 2202SOL    HW1 7505   2.899   5.503   2.151
 2202SOL    HW2 7506   2.972   5.437   2.020
 2203SOL     OW 7507   1.712   1.948   1.179
 2203SOL    HW1 7508   1.794   1.893   1.166
 2203SOL    HW2 7509   1.737   2.045   1.181
 2204SOL     OW 7510   3.539   1.200   1.555
 2204SOL    HW1 7511   3.579   1.246   1.475
 2204SOL    HW2 7512   3.568   1.105   1.556
 2205SOL     OW 7513   0.617   0.161   6.306
 2205SOL    HW1 7514   0.694   0.170   6.369
 2205SOL    HW2 7515   0.541   0.217   6.339
 2206SOL     OW 7516   3.337   4.529   6.265
 2206SOL    HW1 7517   3.430   4.502   6.289
 2206SOL    HW2 7518   3.338   4.621   6.225
 2207SOL     OW 7519   2.794   4.637   6.409
 2207SOL    HW1 7520   2.866   4.606   6.346
 2207SOL    HW2 7521   2.710   4.585   6.391
 2208SOL     OW 7522   1.757   6.261   3.060
 2208SOL    HW1 7523   1.845   6.215   3.069
 2208SOL    HW2 7524   1.769   6.359   3.075
 2209SOL     OW 7525   1.432   6.295   5.500
 2209SOL    HW1 7526   1.368   6.230   5.458
 2209SOL    HW2 7527   1.516   6.247   5.524
 2210SOL     OW 7528   6.520   4.525   4.225
 2210SOL    HW1 7529   6.485   4.612   4.192
 2210SOL    HW2 7530   6.448   4.456   4.219
 2211SOL     OW 7531   5.597   0.195   0.808
 2211SOL    HW1 7532   5.611   0.135   0.729
 2211SOL    HW2 7533   5.686   0.225   0.842
 2212SOL     OW 7534   1.743   6.030   7.011
 2212SOL    HW1 7535   1.750   5.939   0.026
 2212SOL    HW2 7536   1.776   6.098   0.052
 2213SOL     OW 7537   3.577   2.516   5.652
 2213SOL    HW1 7538   3.667   2.551   5.626
 2213SOL    HW2 7539   3.585   2.419   5.677
 2214SOL     OW 7540   3.437   2.965   5.140
 2214SOL    HW1 7541   3.491   2.933   5.061
 2214SOL    HW2 7542   3.347   2.993   5.109
 2215SOL     OW 7543   6.274   1.082   0.394
 2215SOL    HW1 7544   6.266   1.148   0.469
 2215SOL    HW2 7545   6.369   1.051   0.386
 2216SOL     OW 7546   1.757   0.504   5.905
 2216SOL    HW1 7547   1.854   0.498   5.883
 2216SOL    HW2 7548   1.745   0.528   6.001
 2217SOL     OW 7549   4.117   6.852   1.489
 2217SOL    HW1 7550   4.064   6.880   1.409
 2217SOL    HW2 7551   4.086   6.903   1.569
 2218SOL     OW 7552   0.301   5.997   0.475
 2218SOL    HW1 7553   0.266   6.090   0.468
 2218SOL    HW2 7554   0.236   5.940   0.526
 2219SOL     OW 7555   5.533   1.720   1.689
 2219SOL    HW1 7556   5.556   1.792   1.624
 2219SOL    HW2 7557   5.469   1.656   1.647
 2220SOL     OW 7558   1.800   0.541   4.742
 2220SOL    HW1 7559   1.774   0.454   4.782
 2220SOL    HW2 7560   1.764   0.616   4.798
 2221SOL     OW 7561   5.932   1.066   5.311
 2221SOL    HW1 7562   6.001   0.994   5.307
 2221SOL    HW2 7563   5.948   1.132   5.238
 2222SOL     OW 7564   4.881   0.652   0.484
 2222SOL    HW1 7565   4.856   0.668   0.389
 2222SOL    HW2 7566   4.967   0.600   0.488
 2223SOL     OW 7567   5.916   1.230   5.095
 2223SOL    HW1 7568   5.954   1.211   5.005
 2223SOL    HW2 7569   5.886   1.326   5.098
 2224SOL     OW 7570   0.876   3.619   0.243
 2224SOL    HW1 7571   0.912   3.598   0.152
 2224SOL    HW2 7572   0.813   3.547   0.271
 2225SOL     OW 7573   6.377   6.569   3.055
 2225SOL    HW1 7574   6.441   6.644   3.041
 2225SOL    HW2 7575   6.426   6.488   3.087
 2226SOL     OW 7576   3.647   5.006   0.856
 2226SOL    HW1 7577   3.595   5.032   0.775
 2226SOL    HW2 7578   3.745   5.010   0.835
 2227SOL     OW 7579   5.533   3.576   0.205
 2227SOL    HW1 7580   5.446   3.526   0.205
 2227SOL    HW2 7581   5.530   3.648   0.274
 2228SOL     OW 7582   2.841   4.844   1.180
 2228SOL    HW1 7583   2.795   4.799   1.103
 2228SOL    HW2 7584   2.883   4.929   1.148
 2229SOL     OW 7585   4.374   2.478   4.537
 2229SOL    HW1 7586   4.336   2.513   4.623
 2229SOL    HW2 7587   4.438   2.545   4.500
 2230SOL     OW 7588   5.870   5.895   6.846
 2230SOL    HW1 7589   5.915   5.821   6.795
 2230SOL    HW2 7590   5.773   5.899   6.822
 2231SOL     OW 7591   0.382   0.734   2.095
 2231SOL    HW1 7592   0.394   0.673   2.017
 2231SOL    HW2 7593   0.305   0.704   2.151
 2232SOL     OW 7594   0.579   3.003   5.177
 2232SOL    HW1 7595   0.612   3.089   5.137
 2232SOL    HW2 7596   0.657   2.943   5.195
 2233SOL     OW 7597   2.212   3.593   0.285
 2233SOL    HW1 7598   2.223   3.657   0.210
 2233SOL    HW2 7599   2.116   3.589   0.312
 2234SOL     OW 7600   3.872   1.681   1.704
 2234SOL    HW1 7601   3.801   1.734   1.658
 2234SOL    HW2 7602   3.918   1.738   1.772
 2235SOL     OW 7603   2.783   0.119   1.417
 2235SOL    HW1 7604   2.846   0.168   1.477
 2235SOL    HW2 7605   2.775   0.167   1.330
 2236SOL     OW 7606   1.622   4.827   6.054
 2236SOL    HW1 7607   1.588   4.817   5.961
 2236SOL    HW2 7608   1.635   4.737   6.095
 2237SOL     OW 7609   5.987   5.044   4.329
 2237SOL    HW1 7610   5.938   5.055   4.415
 2237SOL    HW2 7611   5.954   4.963   4.281
 2238SOL     OW 7612   5.251   4.743   1.091
 2238SOL    HW1 7613   5.304   4.783   1.166
 2238SOL    HW2 7614   5.267   4.796   1.007
 2239SOL     OW 7615   4.156   4.799   3.302
 2239SOL    HW1 7616   4.139   4.825   3.397
 2239SOL    HW2 7617   4.070   4.793   3.252
 2240SOL     OW 7618   5.375   5.459   4.022
 2240SOL    HW1 7619   5.308   5.454   4.097
 2240SOL    HW2 7620   5.357   5.540   3.967
 2241SOL     OW 7621   0.468   6.146   3.316
 2241SOL    HW1 7622   0.389   6.137   3.376
 2241SOL    HW2 7623   0.478   6.241   3.287
 2242SOL     OW 7624   4.902   2.332   2.718
 2242SOL    HW1 7625   5.001   2.334   2.710
 2242SOL    HW2 7626   4.871   2.237   2.728
 2243SOL     OW 7627   1.632   6.602   6.056
 2243SOL    HW1 7628   1.561   6.558   6.002
 2243SOL    HW2 7629   1.658   6.544   6.133
 2244SOL     OW 7630   1.621   6.690   1.770
 2244SOL    HW1 7631   1.578   6.604   1.797
 2244SOL    HW2 7632   1.681   6.674   1.691
 2245SOL     OW 7633   0.563   1.788   1.164
 2245SOL    HW1 7634   0.603   1.877   1.144
 2245SOL    HW2 7635   0.522   1.789   1.255
 2246SOL     OW 7636   1.162   2.393   5.388
 2246SOL    HW1 7637   1.148   2.314   5.448
 2246SOL    HW2 7638   1.079   2.449   5.387
 2247SOL     OW 7639   3.288   3.220   4.525
 2247SOL    HW1 7640   3.382   3.186   4.522
 2247SOL    HW2 7641   3.256   3.236   4.432
 2248SOL     OW 7642   4.862   3.977   5.587
 2248SOL    HW1 7643   4.865   3.880   5.609
 2248SOL    HW2 7644   4.888   3.991   5.491
 2249SOL     OW 7645   6.244   6.229   3.101
 2249SOL    HW1 7646   6.280   6.281   3.178
 2249SOL    HW2 7647   6.151   6.260   3.081
 2250SOL     OW 7648   4.378   3.751   6.380
 2250SOL    HW1 7649   4.379   3.801   6.467
 2250SOL    HW2 7650   4.432   3.801   6.313
 2251SOL     OW 7651   5.256   0.729   0.058
 2251SOL    HW1 7652   5.186   0.797   0.038
 2251SOL    HW2 7653   5.258   0.660   7.012
 2252SOL     OW 7654   4.852   3.036   2.629
 2252SOL    HW1 7655   4.840   3.025   2.530
 2252SOL    HW2 7656   4.859   2.946   2.672
 2253SOL     OW 7657   1.049   3.583   6.541
 2253SOL    HW1 7658   1.083   3.635   6.463
 2253SOL    HW2 7659   0.991   3.509   6.507
 2254SOL     OW 7660   3.962   2.907   5.306
 2254SOL    HW1 7661   3.914   2.924   5.220
 2254SOL    HW2 7662   3.936   2.976   5.374
 2255SOL     OW 7663   4.725   2.580   6.532
 2255SOL    HW1 7664   4.737   2.489   6.571
 2255SOL    HW2 7665   4.650   2.627   6.579
 2256SOL     OW 7666   5.758   5.994   1.363
 2256SOL    HW1 7667   5.688   6.025   1.428
 2256SOL    HW2 7668   5.738   6.029   1.272
 2257SOL     OW 7669   0.107   2.348   3.969
 2257SOL    HW1 7670   0.103   2.349   4.068
 2257SOL    HW2 7671   0.050   2.423   3.933
 2258SOL     OW 7672   1.022   5.253   5.539
 2258SOL    HW1 7673   1.087   5.197   5.590
 2258SOL    HW2 7674   1.047   5.350   5.547
 2259SOL     OW 7675   5.489   3.821   6.857
 2259SOL    HW1 7676   5.582   3.786   6.847
 2259SOL    HW2 7677   5.477   3.903   6.801
 2260SOL     OW 7678   6.137   4.064   2.523
 2260SOL    HW1 7679   6.140   4.160   2.550
 2260SOL    HW2 7680   6.152   4.057   2.424
 2261SOL     OW 7681   6.420   6.528   6.829
 2261SOL    HW1 7682   6.443   6.528   6.731
 2261SOL    HW2 7683   6.491   6.480   6.880
 2262SOL     OW 7684   5.481   1.628   2.713
 2262SOL    HW1 7685   5.431   1.713   2.728
 2262SOL    HW2 7686   5.462   1.594   2.621
 2263SOL     OW 7687   3.526   5.669   6.879
 2263SOL    HW1 7688   3.594   5.607   6.841
 2263SOL    HW2 7689   3.440   5.661   6.828
 2264SOL     OW 7690   2.679   4.021   0.330
 2264SOL    HW1 7691   2.618   3.942   0.325
 2264SOL    HW2 7692   2.674   4.061   0.422
 2265SOL     OW 7693   0.584   1.361   4.825
 2265SOL    HW1 7694   0.606   1.326   4.917
 2265SOL    HW2 7695   0.664   1.407   4.787
 2266SOL     OW 7696   5.694   1.814   0.229
 2266SOL    HW1 7697   5.679   1.732   0.174
 2266SOL    HW2 7698   5.660   1.798   0.322
 2267SOL     OW 7699   5.041   2.683   5.115
 2267SOL    HW1 7700   4.985   2.656   5.036
 2267SOL    HW2 7701   5.129   2.637   5.111
 2268SOL     OW 7702   6.516   3.680   6.493
 2268SOL    HW1 7703   6.512   3.710   6.398
 2268SOL    HW2 7704   6.611   3.669   6.521
 2269SOL     OW 7705   5.699   5.620   4.787
 2269SOL    HW1 7706   5.643   5.689   4.833
 2269SOL    HW2 7707   5.796   5.641   4.802
 2270SOL     OW 7708   3.341   2.189   6.424
 2270SOL    HW1 7709   3.424   2.226   6.382
 2270SOL    HW2 7710   3.341   2.209   6.522
 2271SOL     OW 7711   5.903   3.953   0.653
 2271SOL    HW1 7712   5.942   4.036   0.614
 2271SOL    HW2 7713   5.804   3.958   0.649
 2272SOL     OW 7714   6.310   2.310   6.039
 2272SOL    HW1 7715   6.326   2.232   5.978
 2272SOL    HW2 7716   6.397   2.347   6.070
 2273SOL     OW 7717   2.096   0.660   2.107
 2273SOL    HW1 7718   2.101   0.746   2.157
 2273SOL    HW2 7719   2.097   0.677   2.009
 2274SOL     OW 7720   0.047   2.992   6.586
 2274SOL    HW1 7721   0.037   3.081   6.540
 2274SOL    HW2 7722   6.995   2.934   6.561
 2275SOL     OW 7723   5.813   0.754   4.392
 2275SOL    HW1 7724   5.877   0.742   4.316
 2275SOL    HW2 7725   5.719   0.745   4.358
 2276SOL     OW 7726   2.350   5.195   1.082
 2276SOL    HW1 7727   2.394   5.268   1.134
 2276SOL    HW2 7728   2.253   5.217   1.070
 2277SOL     OW 7729   4.251   3.775   5.226
 2277SOL    HW1 7730   4.315   3.698   5.229
 2277SOL    HW2 7731   4.296   3.856   5.263
 2278SOL     OW 7732   6.525   4.816   4.081
 2278SOL    HW1 7733   6.495   4.898   4.130
 2278SOL    HW2 7734   6.622   4.802   4.097
 2279SOL     OW 7735   5.337   6.199   4.798
 2279SOL    HW1 7736   5.302   6.292   4.794
 2279SOL    HW2 7737   5.269   6.140   4.841
 2280SOL     OW 7738   6.947   6.593   4.397
 2280SOL    HW1 7739   6.941   6.682   4.352
 2280SOL    HW2 7740   6.917   6.521   4.334
 2281SOL     OW 7741   3.160   1.703   2.122
 2281SOL    HW1 7742   3.251   1.717   2.083
 2281SOL    HW2 7743   3.093   1.750   2.065
 2282SOL     OW 7744   4.829   0.055   4.915
 2282SOL    HW1 7745   4.762   0.087   4.983
 2282SOL    HW2 7746   4.900   0.124   4.903
 2283SOL     OW 7747   0.417   4.591   2.066
 2283SOL    HW1 7748   0.490   4.533   2.030
 2283SOL    HW2 7749   0.333   4.537   2.076
 2284SOL     OW 7750   1.792   2.151   6.422
 2284SOL    HW1 7751   1.756   2.059   6.411
 2284SOL    HW2 7752   1.724   2.209   6.467
 2285SOL     OW 7753   2.399   2.158   0.826
 2285SOL    HW1 7754   2.433   2.246   0.793
 2285SOL    HW2 7755   2.470   2.114   0.881
 2286SOL     OW 7756   6.719   0.346   4.166
 2286SOL    HW1 7757   6.677   0.256   4.179
 2286SOL    HW2 7758   6.690   0.384   4.078
 2287SOL     OW 7759   1.223   1.231   3.064
 2287SOL    HW1 7760   1.300   1.293   3.053
 2287SOL    HW2 7761   1.168   1.231   2.980
 2288SOL     OW 7762   6.200   5.212   4.619
 2288SOL    HW1 7763   6.126   5.152   4.649
 2288SOL    HW2 7764   6.173   5.258   4.534
 2289SOL     OW 7765   0.558   4.812   2.215
 2289SOL    HW1 7766   0.495   4.747   2.173
 2289SOL    HW2 7767   0.620   4.848   2.145
 2290SOL     OW 7768   1.581   4.578   1.928
 2290SOL    HW1 7769   1.614   4.538   1.843
 2290SOL    HW2 7770   1.629   4.664   1.945
 2291SOL     OW 7771   2.814   2.309   6.705
 2291SOL    HW1 7772   2.909   2.312   6.675
 2291SOL    HW2 7773   2.776   2.402   6.704
 2292SOL     OW 7774   5.735   1.914   4.658
 2292SOL    HW1 7775   5.664   1.969   4.700
 2292SOL    HW2 7776   5.795   1.972   4.602
 2293SOL     OW 7777   5.428   6.897   1.256
 2293SOL    HW1 7778   5.464   6.864   1.169
 2293SOL    HW2 7779   5.475   6.982   1.281
 2294SOL     OW 7780   3.330   1.058   6.339
 2294SOL    HW1 7781   3.310   1.131   6.274
 2294SOL    HW2 7782   3.347   0.973   6.290
 2295SOL     OW 7783   0.466   1.901   2.897
 2295SOL    HW1 7784   0.441   1.808   2.873
 2295SOL    HW2 7785   0.429   1.924   2.987
 2296SOL     OW 7786   3.769   5.832   1.891
 2296SOL    HW1 7787   3.729   5.742   1.911
 2296SOL    HW2 7788   3.725   5.870   1.810
 2297SOL     OW 7789   4.731   4.539   5.465
 2297SOL    HW1 7790   4.716   4.633   5.493
 2297SOL    HW2 7791   4.698   4.477   5.536
 2298SOL     OW 7792   4.153   3.170   1.894
 2298SOL    HW1 7793   4.108   3.098   1.948
 2298SOL    HW2 7794   4.179   3.245   1.954
 2299SOL     OW 7795   4.541   4.941   4.837
 2299SOL    HW1 7796   4.592   4.940   4.923
 2299SOL    HW2 7797   4.533   4.848   4.802
 2300SOL     OW 7798   2.372   6.153   1.938
 2300SOL    HW1 7799   2.417   6.241   1.922
 2300SOL    HW2 7800   2.440   6.084   1.963
 2301SOL     OW 7801   3.531   2.885   2.760
 2301SOL    HW1 7802   3.621   2.913   2.793
 2301SOL    HW2 7803   3.480   2.842   2.834
 2302SOL     OW 7804   3.291   6.939   0.935
 2302SOL    HW1 7805   3.228   6.918   0.860
 2302SOL    HW2 7806   3.362   7.001   0.903
 2303SOL     OW 7807   2.330   3.557   6.401
 2303SOL    HW1 7808   2.306   3.586   6.494
 2303SOL    HW2 7809   2.283   3.472   6.379
 2304SOL     OW 7810   4.875   6.494   3.634
 2304SOL    HW1 7811   4.791   6.470   3.586
 2304SOL    HW2 7812   4.853   6.522   3.727
 2305SOL     OW 7813   2.155   0.325   2.578
 2305SOL    HW1 7814   2.129   0.328   2.482
 2305SOL    HW2 7815   2.144   0.231   2.612
 2306SOL     OW 7816   2.563   4.789   1.653
 2306SOL    HW1 7817   2.488   4.732   1.618
 2306SOL    HW2 7818   2.528   4.847   1.726
 2307SOL     OW 7819   6.676   3.955   3.374
 2307SOL    HW1 7820   6.580   3.926   3.380
 2307SOL    HW2 7821   6.680   4.055   3.370
 2308SOL     OW 7822   1.612   5.323   1.457
 2308SOL    HW1 7823   1.596   5.418   1.427
 2308SOL    HW2 7824   1.534   5.292   1.512
 2309SOL     OW 7825   1.757   0.821   6.347
 2309SOL    HW1 7826   1.768   0.881   6.267
 2309SOL    HW2 7827   1.848   0.792   6.378
 2310SOL     OW 7828   5.338   6.169   0.308
 2310SOL    HW1 7829   5.348   6.070   0.317
 2310SOL    HW2 7830   5.428   6.212   0.314
 2311SOL     OW 7831   2.022   6.700   1.419
 2311SOL    HW1 7832   1.967   6.662   1.344
 2311SOL    HW2 7833   2.092   6.761   1.381
 2312SOL     OW 7834   3.932   6.152   2.649
 2312SOL    HW1 7835   3.980   6.135   2.563
 2312SOL    HW2 7836   3.899   6.247   2.651
 2313SOL     OW 7837   5.999   6.124   1.469
 2313SOL    HW1 7838   6.051   6.173   1.399
 2313SOL    HW2 7839   5.940   6.056   1.426
 2314SOL     OW 7840   5.852   0.112   3.915
 2314SOL    HW1 7841   5.906   0.060   3.849
 2314SOL    HW2 7842   5.762   0.131   3.877
 2315SOL     OW 7843   4.804   3.218   6.582
 2315SOL    HW1 7844   4.893   3.259   6.602
 2315SOL    HW2 7845   4.750   3.280   6.525
 2316SOL     OW 7846   3.646   1.332   4.275
 2316SOL    HW1 7847   3.550   1.345   4.298
 2316SOL    HW2 7848   3.666   1.234   4.270
 2317SOL     OW 7849   0.743   6.580   2.826
 2317SOL    HW1 7850   0.661   6.538   2.788
 2317SOL    HW2 7851   0.818   6.513   2.827
 2318SOL     OW 7852   1.802   3.043   4.395
 2318SOL    HW1 7853   1.807   3.126   4.338
 2318SOL    HW2 7854   1.804   3.069   4.491
 2319SOL     OW 7855   2.284   4.665   4.156
 2319SOL    HW1 7856   2.236   4.638   4.072
 2319SOL    HW2 7857   2.224   4.721   4.212
 2320SOL     OW 7858   1.026   2.229   4.806
 2320SOL    HW1 7859   0.984   2.230   4.715
 2320SOL    HW2 7860   1.030   2.135   4.839
 2321SOL     OW 7861   2.238   0.388   6.925
 2321SOL    HW1 7862   2.235   0.370   7.023
 2321SOL    HW2 7863   2.155   0.434   6.896
 2322SOL     OW 7864   3.111   1.232   4.400
 2322SOL    HW1 7865   3.088   1.260   4.494
 2322SOL    HW2 7866   3.084   1.137   4.387
 2323SOL     OW 7867   2.887   5.136   1.769
 2323SOL    HW1 7868   2.840   5.202   1.710
 2323SOL    HW2 7869   2.834   5.124   1.853
 2324SOL     OW 7870   6.646   6.939   1.683
 2324SOL    HW1 7871   6.686   6.884   1.610
 2324SOL    HW2 7872   6.587   7.009   1.643
 2325SOL     OW 7873   1.535   5.004   2.118
 2325SOL    HW1 7874   1.568   4.985   2.210
 2325SOL    HW2 7875   1.435   4.997   2.116
 2326SOL     OW 7876   3.067   6.291   5.608
 2326SOL    HW1 7877   2.970   6.266   5.609
 2326SOL    HW2 7878   3.118   6.224   5.662
 2327SOL     OW 7879   6.402   2.890   4.320
 2327SOL    HW1 7880   6.374   2.912   4.227
 2327SOL    HW2 7881   6.449   2.801   4.321
 2328SOL     OW 7882   3.175   1.846   2.630
 2328SOL    HW1 7883   3.177   1.930   2.575
 2328SOL    HW2 7884   3.126   1.863   2.715
 2329SOL     OW 7885   1.425   3.693   5.178
 2329SOL    HW1 7886   1.483   3.774   5.170
 2329SOL    HW2 7887   1.479   3.616   5.213
 2330SOL     OW 7888   1.156   3.846   1.737
 2330SOL    HW1 7889   1.233   3.831   1.675
 2330SOL    HW2 7890   1.139   3.944   1.745
 2331SOL     OW 7891   6.116   4.797   1.099
 2331SOL    HW1 7892   6.124   4.698   1.106
 2331SOL    HW2 7893   6.142   4.839   1.186
 2332SOL     OW 7894   4.858   1.464   5.099
 2332SOL    HW1 7895   4.945   1.446   5.053
 2332SOL    HW2 7896   4.849   1.403   5.177
 2333SOL     OW 7897   0.490   5.331   3.056
 2333SOL    HW1 7898   0.507   5.236   3.027
 2333SOL    HW2 7899   0.500   5.391   2.977
 2334SOL     OW 7900   2.236   6.854   6.857
 2334SOL    HW1 7901   2.328   6.818   6.845
 2334SOL    HW2 7902   2.240   6.949   6.885
 2335SOL     OW 7903   5.744   1.626   2.821
 2335SOL    HW1 7904   5.798   1.710   2.829
 2335SOL    HW2 7905   5.659   1.646   2.772
 2336SOL     OW 7906   4.439   2.232   4.679
 2336SOL    HW1 7907   4.416   2.255   4.584
 2336SOL    HW2 7908   4.406   2.304   4.740
 2337SOL     OW 7909   4.196   0.996   3.211
 2337SOL    HW1 7910   4.109   0.989   3.161
 2337SOL    HW2 7911   4.228   0.905   3.234
 2338SOL     OW 7912   1.178   1.684   5.834
 2338SOL    HW1 7913   1.114   1.743   5.883
 2338SOL    HW2 7914   1.246   1.741   5.788
 2339SOL     OW 7915   4.010   3.906   4.989
 2339SOL    HW1 7916   3.911   3.903   4.994
 2339SOL    HW2 7917   4.040   3.877   4.898
 2340SOL     OW 7918   5.270   4.819   7.008
 2340SOL    HW1 7919   5.207   4.750   6.974
 2340SOL    HW2 7920   5.219   4.902   0.006
 2341SOL     OW 7921   5.356   3.961   1.296
 2341SOL    HW1 7922   5.334   3.882   1.352
 2341SOL    HW2 7923   5.449   3.951   1.259
 2342SOL     OW 7924   0.216   6.474   5.058
 2342SOL    HW1 7925   0.227   6.537   4.981
 2342SOL    HW2 7926   0.266   6.510   5.137
 2343SOL     OW 7927   2.010   6.120   2.749
 2343SOL    HW1 7928   1.936   6.138   2.685
 2343SOL    HW2 7929   2.037   6.024   2.742
 2344SOL     OW 7930   1.673   1.196   1.228
 2344SOL    HW1 7931   1.685   1.262   1.302
 2344SOL    HW2 7932   1.695   1.240   1.141
 2345SOL     OW 7933   3.287   5.428   5.758
 2345SOL    HW1 7934   3.336   5.392   5.837
 2345SOL    HW2 7935   3.270   5.526   5.770
 2346SOL     OW 7936   4.583   2.789   5.103
 2346SOL    HW1 7937   4.667   2.831   5.139
 2346SOL    HW2 7938   4.582   2.796   5.003
 2347SOL     OW 7939   2.654   3.461   1.776
 2347SOL    HW1 7940   2.680   3.553   1.744
 2347SOL    HW2 7941   2.559   3.463   1.809
 2348SOL     OW 7942   3.630   6.277   3.140
 2348SOL    HW1 7943   3.686   6.313   3.215
 2348SOL    HW2 7944   3.589   6.353   3.090
 2349SOL     OW 7945   0.341   4.854   5.703
 2349SOL    HW1 7946   0.299   4.778   5.652
 2349SOL    HW2 7947   0.333   4.938   5.650
 2350SOL     OW 7948   5.193   6.974   6.445
 2350SOL    HW1 7949   5.219   6.959   6.349
 2350SOL    HW2 7950   5.094   6.961   6.454
 2351SOL     OW 7951   3.222   4.907   2.497
 2351SOL    HW1 7952   3.199   5.003   2.483
 2351SOL    HW2 7953   3.218   4.859   2.409
 2352SOL     OW 7954   1.072   3.641   2.037
 2352SOL    HW1 7955   1.056   3.552   1.994
 2352SOL    HW2 7956   1.105   3.705   1.968
 2353SOL     OW 7957   3.122   4.846   5.418
 2353SOL    HW1 7958   3.030   4.811   5.400
 2353SOL    HW2 7959   3.139   4.925   5.358
 2354SOL     OW 7960   3.058   1.820   6.384
 2354SOL    HW1 7961   3.075   1.735   6.434
 2354SOL    HW2 7962   3.090   1.810   6.289
 2355SOL     OW 7963   1.367   5.609   6.698
 2355SOL    HW1 7964   1.373   5.581   6.793
 2355SOL    HW2 7965   1.305   5.548   6.648
 2356SOL     OW 7966   2.322   3.794   0.139
 2356SOL    HW1 7967   2.308   3.877   0.194
 2356SOL    HW2 7968   2.389   3.736   0.185
 2357SOL     OW 7969   4.240   5.244   3.603
 2357SOL    HW1 7970   4.173   5.235   3.529
 2357SOL    HW2 7971   4.317   5.182   3.586
 2358SOL     OW 7972   2.772   5.466   5.519
 2358SOL    HW1 7973   2.844   5.515   5.470
 2358SOL    HW2 7974   2.753   5.512   5.606
 2359SOL     OW 7975   6.954   0.604   5.650
 2359SOL    HW1 7976   6.897   0.661   5.592
 2359SOL    HW2 7977   0.024   0.611   5.621
 2360SOL     OW 7978   5.283   6.447   5.782
 2360SOL    HW1 7979   5.259   6.371   5.722
 2360SOL    HW2 7980   5.206   6.511   5.787
 2361SOL     OW 7981   2.666   0.831   5.540
 2361SOL    HW1 7982   2.764   0.855   5.543
 2361SOL    HW2 7983   2.626   0.846   5.630
 2362SOL     OW 7984   2.607   0.723   5.288
 2362SOL    HW1 7985   2.667   0.767   5.221
 2362SOL    HW2 7986   2.640   0.744   5.380
 2363SOL     OW 7987   4.017   2.690   5.773
 2363SOL    HW1 7988   4.093   2.626   5.770
 2363SOL    HW2 7989   3.960   2.672   5.853
 2364SOL     OW 7990   0.463   2.612   3.108
 2364SOL    HW1 7991   0.389   2.555   3.144
 2364SOL    HW2 7992   0.437   2.709   3.114
 2365SOL     OW 7993   6.168   2.512   6.158
 2365SOL    HW1 7994   6.225   2.445   6.110
 2365SOL    HW2 7995   6.130   2.577   6.092
 2366SOL     OW 7996   1.605   4.708   5.807
 2366SOL    HW1 7997   1.698   4.671   5.806
 2366SOL    HW2 7998   1.599   4.785   5.743
 2367SOL     OW 7999   3.779   4.024   6.960
 2367SOL    HW1 8000   3.759   4.120   6.976
 2367SOL    HW2 8001   3.715   3.967   7.012
 2368SOL     OW 8002   4.909   0.235   3.236
 2368SOL    HW1 8003   4.938   0.228   3.332
 2368SOL    HW2 8004   4.990   0.248   3.178
 2369SOL     OW 8005   1.955   2.567   5.148
 2369SOL    HW1 8006   1.987   2.576   5.242
 2369SOL    HW2 8007   1.880   2.632   5.131
 2370SOL     OW 8008   5.133   3.971   6.683
 2370SOL    HW1 8009   5.154   4.002   6.590
 2370SOL    HW2 8010   5.097   4.047   6.737
 2371SOL     OW 8011   1.375   6.191   1.876
 2371SOL    HW1 8012   1.289   6.155   1.841
 2371SOL    HW2 8013   1.450   6.131   1.849
 2372SOL     OW 8014   0.559   2.134   1.548
 2372SOL    HW1 8015   0.572   2.094   1.638
 2372SOL    HW2 8016   0.589   2.070   1.478
 2373SOL     OW 8017   6.844   6.812   0.044
 2373SOL    HW1 8018   6.780   6.856   0.108
 2373SOL    HW2 8019   6.938   6.834   0.070
 2374SOL     OW 8020   5.977   0.975   4.323
 2374SOL    HW1 8021   6.031   0.937   4.398
 2374SOL    HW2 8022   6.021   1.059   4.289
 2375SOL     OW 8023   2.211   6.534   4.824
 2375SOL    HW1 8024   2.145   6.525   4.749
 2375SOL    HW2 8025   2.213   6.628   4.856
 2376SOL     OW 8026   5.787   2.053   3.939
 2376SOL    HW1 8027   5.853   1.994   3.985
 2376SOL    HW2 8028   5.730   1.997   3.878
 2377SOL     OW 8029   3.622   4.166   2.864
 2377SOL    HW1 8030   3.705   4.151   2.918
 2377SOL    HW2 8031   3.617   4.098   2.791
 2378SOL     OW 8032   5.115   2.596   6.838
 2378SOL    HW1 8033   5.192   2.532   6.841
 2378SOL    HW2 8034   5.031   2.548   6.862
 2379SOL     OW 8035   6.678   1.780   6.596
 2379SOL    HW1 8036   6.586   1.779   6.636
 2379SOL    HW2 8037   6.725   1.694   6.619
 2380SOL     OW 8038   6.993   6.626   5.612
 2380SOL    HW1 8039   6.961   6.695   5.677
 2380SOL    HW2 8040   6.932   6.625   5.533
 2381SOL     OW 8041   2.247   4.060   4.160
 2381SOL    HW1 8042   2.289   4.126   4.097
 2381SOL    HW2 8043   2.189   3.997   4.108
 2382SOL     OW 8044   2.438   5.156   3.091
 2382SOL    HW1 8045   2.381   5.188   3.166
 2382SOL    HW2 8046   2.381   5.135   3.011
 2383SOL     OW 8047   5.537   6.091   6.962
 2383SOL    HW1 8048   5.441   6.099   6.989
 2383SOL    HW2 8049   5.568   6.178   6.924
 2384SOL     OW 8050   0.252   6.876   2.186
 2384SOL    HW1 8051   0.245   6.975   2.197
 2384SOL    HW2 8052   0.206   6.848   2.101
 2385SOL     OW 8053   6.148   6.714   1.765
 2385SOL    HW1 8054   6.103   6.715   1.855
 2385SOL    HW2 8055   6.116   6.636   1.712
 2386SOL     OW 8056   5.126   4.603   4.287
 2386SOL    HW1 8057   5.216   4.568   4.312
 2386SOL    HW2 8058   5.055   4.538   4.316
 2387SOL     OW 8059   0.323   2.002   3.491
 2387SOL    HW1 8060   0.417   1.968   3.495
 2387SOL    HW2 8061   0.320   2.097   3.520
 2388SOL     OW 8062   1.273   1.852   3.892
 2388SOL    HW1 8063   1.213   1.794   3.836
 2388SOL    HW2 8064   1.288   1.939   3.845
 2389SOL     OW 8065   5.578   3.374   3.522
 2389SOL    HW1 8066   5.487   3.387   3.483
 2389SOL    HW2 8067   5.586   3.426   3.607
 2390SOL     OW 8068   3.197   3.664   4.256
 2390SOL    HW1 8069   3.108   3.657   4.211
 2390SOL    HW2 8070   3.193   3.618   4.344
 2391SOL     OW 8071   4.517   4.157   5.895
 2391SOL    HW1 8072   4.576   4.122   5.968
 2391SOL    HW2 8073   4.435   4.198   5.935
 2392SOL     OW 8074   3.403   6.759   5.210
 2392SOL    HW1 8075   3.373   6.838   5.156
 2392SOL    HW2 8076   3.493   6.729   5.178
 2393SOL     OW 8077   4.194   4.954   0.733
 2393SOL    HW1 8078   4.215   4.998   0.646
 2393SOL    HW2 8079   4.270   4.895   0.761
 2394SOL     OW 8080   1.664   2.906   4.834
 2394SOL    HW1 8081   1.603   2.858   4.773
 2394SOL    HW2 8082   1.756   2.867   4.828
 2395SOL     OW 8083   5.974   2.929   0.090
 2395SOL    HW1 8084   5.986   2.830   0.085
 2395SOL    HW2 8085   6.056   2.974   0.056
 2396SOL     OW 8086   4.344   5.741   0.306
 2396SOL    HW1 8087   4.344   5.643   0.288
 2396SOL    HW2 8088   4.268   5.784   0.257
 2397SOL     OW 8089   0.305   3.749   0.416
 2397SOL    HW1 8090   0.348   3.671   0.462
 2397SOL    HW2 8091   0.259   3.718   0.333
 2398SOL     OW 8092   3.202   4.316   6.155
 2398SOL    HW1 8093   3.248   4.396   6.194
 2398SOL    HW2 8094   3.234   4.234   6.202
 2399SOL     OW 8095   4.910   1.090   2.452
 2399SOL    HW1 8096   4.916   1.129   2.544
 2399SOL    HW2 8097   4.906   0.990   2.459
 2400SOL     OW 8098   4.336   5.051   0.487
 2400SOL    HW1 8099   4.323   5.081   0.392
 2400SOL    HW2 8100   4.356   4.953   0.489
 2401SOL     OW 8101   4.082   0.659   6.468
 2401SOL    HW1 8102   4.092   0.737   6.529
 2401SOL    HW2 8103   4.030   0.587   6.514
 2402SOL     OW 8104   0.492   2.192   4.612
 2402SOL    HW1 8105   0.535   2.106   4.587
 2402SOL    HW2 8106   0.410   2.206   4.558
 2403SOL     OW 8107   2.991   2.736   0.107
 2403SOL    HW1 8108   2.958   2.642   0.111
 2403SOL    HW2 8109   2.913   2.799   0.106
 2404SOL     OW 8110   5.862   1.116   2.119
 2404SOL    HW1 8111   5.941   1.109   2.059
 2404SOL    HW2 8112   5.838   1.025   2.154
 2405SOL     OW 8113   3.399   3.556   3.701
 2405SOL    HW1 8114   3.432   3.462   3.711
 2405SOL    HW2 8115   3.390   3.579   3.604
 2406SOL     OW 8116   1.608   6.851   4.027
 2406SOL    HW1 8117   1.550   6.800   3.963
 2406SOL    HW2 8118   1.573   6.944   4.037
 2407SOL     OW 8119   4.839   2.779   2.716
 2407SOL    HW1 8120   4.832   2.742   2.624
 2407SOL    HW2 8121   4.822   2.707   2.783
 2408SOL     OW 8122   2.932   4.791   2.221
 2408SOL    HW1 8123   3.019   4.830   2.251
 2408SOL    HW2 8124   2.939   4.762   2.126
 2409SOL     OW 8125   1.848   2.837   1.850
 2409SOL    HW1 8126   1.944   2.860   1.833
 2409SOL    HW2 8127   1.822   2.758   1.794
 2410SOL     OW 8128   5.038   2.651   6.179
 2410SOL    HW1 8129   5.109   2.718   6.154
 2410SOL    HW2 8130   5.062   2.608   6.266
 2411SOL     OW 8131   4.560   5.428   5.539
 2411SOL    HW1 8132   4.528   5.502   5.480
 2411SOL    HW2 8133   4.659   5.435   5.551
 2412SOL     OW 8134   2.971   4.008   6.913
 2412SOL    HW1 8135   3.040   4.008   6.986
 2412SOL    HW2 8136   3.010   3.970   6.829
 2413SOL     OW 8137   6.533   2.537   6.980
 2413SOL    HW1 8138   6.615   2.593   6.994
 2413SOL    HW2 8139   6.556   2.441   6.988
 2414SOL     OW 8140   5.920   4.343   2.325
 2414SOL    HW1 8141   5.913   4.291   2.239
 2414SOL    HW2 8142   5.828   4.366   2.357
 2415SOL     OW 8143   0.895   6.640   1.167
 2415SOL    HW1 8144   0.904   6.560   1.108
 2415SOL    HW2 8145   0.810   6.688   1.145
 2416SOL     OW 8146   2.966   2.232   5.233
 2416SOL    HW1 8147   2.952   2.250   5.330
 2416SOL    HW2 8148   3.041   2.288   5.199
 2417SOL     OW 8149   4.348   2.644   6.463
 2417SOL    HW1 8150   4.371   2.740   6.451
 2417SOL    HW2 8151   4.384   2.612   6.551
 2418SOL     OW 8152   2.957   3.574   3.396
 2418SOL    HW1 8153   3.042   3.616   3.426
 2418SOL    HW2 8154   2.975   3.481   3.364
 2419SOL     OW 8155   0.781   6.420   3.434
 2419SOL    HW1 8156   0.817   6.499   3.385
 2419SOL    HW2 8157   0.828   6.337   3.403
 2420SOL     OW 8158   3.285   1.123   2.306
 2420SOL    HW1 8159   3.376   1.163   2.316
 2420SOL    HW2 8160   3.226   1.156   2.380
 2421SOL     OW 8161   2.588   1.195   5.221
 2421SOL    HW1 8162   2.673   1.188   5.274
 2421SOL    HW2 8163   2.545   1.105   5.215
 2422SOL     OW 8164   5.447   0.447   1.914
 2422SOL    HW1 8165   5.375   0.516   1.905
 2422SOL    HW2 8166   5.405   0.356   1.910
 2423SOL     OW 8167   1.660   5.813   3.779
 2423SOL    HW1 8168   1.709   5.794   3.864
 2423SOL    HW2 8169   1.698   5.758   3.705
 2424SOL     OW 8170   5.681   6.302   6.040
 2424SOL    HW1 8171   5.697   6.288   6.137
 2424SOL    HW2 8172   5.753   6.360   6.002
 2425SOL     OW 8173   6.183   0.078   4.209
 2425SOL    HW1 8174   6.226   0.154   4.259
 2425SOL    HW2 8175   6.124   0.116   4.137
 2426SOL     OW 8176   0.834   4.524   3.729
 2426SOL    HW1 8177   0.816   4.617   3.763
 2426SOL    HW2 8178   0.906   4.527   3.660
 2427SOL     OW 8179   6.242   5.518   6.753
 2427SOL    HW1 8180   6.145   5.540   6.750
 2427SOL    HW2 8181   6.257   5.445   6.819
 2428SOL     OW 8182   6.981   7.020   3.740
 2428SOL    HW1 8183   6.882   7.007   3.737
 2428SOL    HW2 8184   7.004   0.058   3.814
 2429SOL     OW 8185   6.622   6.089   4.252
 2429SOL    HW1 8186   6.722   6.089   4.243
 2429SOL    HW2 8187   6.593   6.007   4.301
 2430SOL     OW 8188   6.369   2.358   1.634
 2430SOL    HW1 8189   6.347   2.443   1.585
 2430SOL    HW2 8190   6.467   2.341   1.628
 2431SOL     OW 8191   3.744   0.279   1.919
 2431SOL    HW1 8192   3.663   0.326   1.953
 2431SOL    HW2 8193   3.776   0.214   1.988
 2432SOL     OW 8194   3.578   6.679   3.259
 2432SOL    HW1 8195   3.524   6.763   3.264
 2432SOL    HW2 8196   3.568   6.638   3.168
 2433SOL     OW 8197   3.118   6.619   0.720
 2433SOL    HW1 8198   3.101   6.574   0.808
 2433SOL    HW2 8199   3.119   6.550   0.647
 2434SOL     OW 8200   4.196   1.494   3.455
 2434SOL    HW1 8201   4.152   1.540   3.378
 2434SOL    HW2 8202   4.250   1.417   3.422
 2435SOL     OW 8203   4.838   5.472   5.507
 2435SOL    HW1 8204   4.928   5.485   5.548
 2435SOL    HW2 8205   4.845   5.476   5.408
 2436SOL     OW 8206   1.673   0.068   1.150
 2436SOL    HW1 8207   1.682   0.167   1.154
 2436SOL    HW2 8208   1.598   0.044   1.089
 2437SOL     OW 8209   3.626   5.742   0.854
 2437SOL    HW1 8210   3.565   5.796   0.913
 2437SOL    HW2 8211   3.574   5.706   0.777
 2438SOL     OW 8212   3.936   1.620   5.424
 2438SOL    HW1 8213   3.844   1.636   5.389
 2438SOL    HW2 8214   3.935   1.625   5.524
 2439SOL     OW 8215   1.198   4.290   0.084
 2439SOL    HW1 8216   1.286   4.312   0.040
 2439SOL    HW2 8217   1.214   4.231   0.163
 2440SOL     OW 8218   3.616   6.617   4.871
 2440SOL    HW1 8219   3.533   6.656   4.830
 2440SOL    HW2 8220   3.616   6.518   4.859
 2441SOL     OW 8221   6.394   0.436   0.555
 2441SOL    HW1 8222   6.380   0.513   0.617
 2441SOL    HW2 8223   6.482   0.445   0.509
 2442SOL     OW 8224   6.933   5.956   3.988
 2442SOL    HW1 8225   6.972   6.048   3.981
 2442SOL    HW2 8226   7.007   5.889   3.994
 2443SOL     OW 8227   3.405   6.678   6.369
 2443SOL    HW1 8228   3.403   6.611   6.444
 2443SOL    HW2 8229   3.408   6.771   6.408
 2444SOL     OW 8230   3.840   4.491   6.278
 2444SOL    HW1 8231   3.810   4.419   6.216
 2444SOL    HW2 8232   3.889   4.451   6.355
 2445SOL     OW 8233   6.738   0.934   2.205
 2445SOL    HW1 8234   6.825   0.983   2.208
 2445SOL    HW2 8235   6.753   0.837   2.223
 2446SOL     OW 8236   0.451   3.282   4.218
 2446SOL    HW1 8237   0.414   3.325   4.300
 2446SOL    HW2 8238   0.476   3.188   4.239
 2447SOL     OW 8239   2.469   1.160   0.917
 2447SOL    HW1 8240   2.374   1.141   0.940
 2447SOL    HW2 8241   2.508   1.082   0.868
 2448SOL     OW 8242   0.815   0.550   4.854
 2448SOL    HW1 8243   0.789   0.469   4.906
 2448SOL    HW2 8244   0.754   0.626   4.877
 2449SOL     OW 8245   0.338   3.926   2.207
 2449SOL    HW1 8246   0.264   3.927   2.274
 2449SOL    HW2 8247   0.329   4.005   2.146
 2450SOL     OW 8248   2.926   4.793   4.327
 2450SOL    HW1 8249   2.879   4.715   4.367
 2450SOL    HW2 8250   2.924   4.870   4.390
 2451SOL     OW 8251   0.146   6.933   4.094
 2451SOL    HW1 8252   0.193   6.986   4.164
 2451SOL    HW2 8253   0.169   6.969   4.004
 2452SOL     OW 8254   2.739   2.274   3.498
 2452SOL    HW1 8255   2.800   2.269   3.419
 2452SOL    HW2 8256   2.793   2.291   3.580
 2453SOL     OW 8257   0.232   3.373   0.839
 2453SOL    HW1 8258   0.159   3.403   0.900
 2453SOL    HW2 8259   0.194   3.350   0.750
 2454SOL     OW 8260   3.431   0.897   0.006
 2454SOL    HW1 8261   3.433   0.904   6.932
 2454SOL    HW2 8262   3.493   0.825   0.036
 2455SOL     OW 8263   5.116   6.969   0.887
 2455SOL    HW1 8264   5.144   6.877   0.860
 2455SOL    HW2 8265   5.196   7.019   0.921
 2456SOL     OW 8266   5.494   0.812   6.756
 2456SOL    HW1 8267   5.522   0.869   6.833
 2456SOL    HW2 8268   5.549   0.837   6.676
 2457SOL     OW 8269   6.096   6.387   6.556
 2457SOL    HW1 8270   6.139   6.315   6.611
 2457SOL    HW2 8271   6.045   6.346   6.481
 2458SOL     OW 8272   2.365   5.885   4.210
 2458SOL    HW1 8273   2.285   5.841   4.249
 2458SOL    HW2 8274   2.368   5.981   4.239
 2459SOL     OW 8275   2.835   6.323   0.256
 2459SOL    HW1 8276   2.816   6.333   0.353
 2459SOL    HW2 8277   2.934   6.319   0.242
 2460SOL     OW 8278   1.695   1.503   1.387
 2460SOL    HW1 8279   1.644   1.525   1.470
 2460SOL    HW2 8280   1.791   1.488   1.410
 2461SOL     OW 8281   4.170   0.114   3.126
 2461SOL    HW1 8282   4.214   0.202   3.143
 2461SOL    HW2 8283   4.115   0.120   3.043
 2462SOL     OW 8284   2.612   5.425   0.032
 2462SOL    HW1 8285   2.533   5.440   7.000
 2462SOL    HW2 8286   2.696   5.440   7.005
 2463SOL     OW 8287   6.317   2.623   4.155
 2463SOL    HW1 8288   6.337   2.599   4.060
 2463SOL    HW2 8289   6.257   2.702   4.157
 2464SOL     OW 8290   1.822   3.951   1.614
 2464SOL    HW1 8291   1.783   3.948   1.706
 2464SOL    HW2 8292   1.863   3.862   1.593
 2465SOL     OW 8293   0.417   6.888   1.485
 2465SOL    HW1 8294   0.428   6.793   1.512
 2465SOL    HW2 8295   0.400   6.944   1.566
 2466SOL     OW 8296   3.097   1.718   1.702
 2466SOL    HW1 8297   3.119   1.630   1.744
 2466SOL    HW2 8298   3.058   1.779   1.771
 2467SOL     OW 8299   5.817   1.491   5.099
 2467SOL    HW1 8300   5.759   1.522   5.173
 2467SOL    HW2 8301   5.885   1.561   5.078
 2468SOL     OW 8302   5.890   6.019   2.455
 2468SOL    HW1 8303   5.897   6.062   2.365
 2468SOL    HW2 8304   5.933   6.078   2.523
 2469SOL     OW 8305   3.786   4.534   5.381
 2469SOL    HW1 8306   3.690   4.508   5.372
 2469SOL    HW2 8307   3.814   4.586   5.301
 2470SOL     OW 8308   3.759   4.550   5.816
 2470SOL    HW1 8309   3.810   4.464   5.824
 2470SOL    HW2 8310   3.672   4.532   5.770
 2471SOL     OW 8311   2.457   6.564   0.933
 2471SOL    HW1 8312   2.432   6.596   1.025
 2471SOL    HW2 8313   2.442   6.637   0.867
 2472SOL     OW 8314   4.291   2.057   3.768
 2472SOL    HW1 8315   4.217   1.994   3.791
 2472SOL    HW2 8316   4.379   2.010   3.778
 2473SOL     OW 8317   2.103   4.141   5.185
 2473SOL    HW1 8318   2.060   4.053   5.204
 2473SOL    HW2 8319   2.186   4.127   5.131
 2474SOL     OW 8320   0.457   5.647   0.456
 2474SOL    HW1 8321   0.497   5.557   0.442
 2474SOL    HW2 8322   0.529   5.717   0.451
 2475SOL     OW 8323   4.982   1.320   1.261
 2475SOL    HW1 8324   5.028   1.322   1.172
 2475SOL    HW2 8325   4.901   1.379   1.258
 2476SOL     OW 8326   0.885   2.707   4.055
 2476SOL    HW1 8327   0.858   2.622   4.009
 2476SOL    HW2 8328   0.824   2.780   4.027
 2477SOL     OW 8329   5.362   0.789   2.552
 2477SOL    HW1 8330   5.294   0.858   2.528
 2477SOL    HW2 8331   5.434   0.787   2.482
 2478SOL     OW 8332   5.321   0.693   2.214
 2478SOL    HW1 8333   5.348   0.775   2.165
 2478SOL    HW2 8334   5.391   0.622   2.202
 2479SOL     OW 8335   1.648   3.782   1.184
 2479SOL    HW1 8336   1.631   3.879   1.201
 2479SOL    HW2 8337   1.581   3.727   1.233
 2480SOL     OW 8338   5.902   4.686   0.851
 2480SOL    HW1 8339   5.878   4.754   0.920
 2480SOL    HW2 8340   5.825   4.672   0.789
 2481SOL     OW 8341   2.646   6.914   0.690
 2481SOL    HW1 8342   2.681   6.827   0.723
 2481SOL    HW2 8343   2.713   6.955   0.627
 2482SOL     OW 8344   4.882   2.743   5.496
 2482SOL    HW1 8345   4.806   2.762   5.433
 2482SOL    HW2 8346   4.863   2.786   5.584
 2483SOL     OW 8347   2.303   1.456   6.940
 2483SOL    HW1 8348   2.348   1.423   6.857
 2483SOL    HW2 8349   2.284   1.553   6.931
 2484SOL     OW 8350   2.111   0.630   0.443
 2484SOL    HW1 8351   2.112   0.588   0.352
 2484SOL    HW2 8352   2.181   0.587   0.500
 2485SOL     OW 8353   4.833   4.555   2.239
 2485SOL    HW1 8354   4.824   4.655   2.249
 2485SOL    HW2 8355   4.742   4.515   2.226
 2486SOL     OW 8356   3.407   5.288   3.120
 2486SOL    HW1 8357   3.313   5.307   3.093
 2486SOL    HW2 8358   3.408   5.240   3.208
 2487SOL     OW 8359   4.306   5.207   6.832
 2487SOL    HW1 8360   4.233   5.274   6.828
 2487SOL    HW2 8361   4.267   5.115   6.824
 2488SOL     OW 8362   2.037   4.315   2.611
 2488SOL    HW1 8363   1.960   4.325   2.674
 2488SOL    HW2 8364   2.021   4.238   2.550
 2489SOL     OW 8365   2.424   6.108   3.748
 2489SOL    HW1 8366   2.368   6.027   3.725
 2489SOL    HW2 8367   2.407   6.180   3.681
 2490SOL     OW 8368   6.535   5.443   1.129
 2490SOL    HW1 8369   6.622   5.489   1.107
 2490SOL    HW2 8370   6.532   5.355   1.081
 2491SOL     OW 8371   2.946   6.218   1.632
 2491SOL    HW1 8372   2.852   6.193   1.655
 2491SOL    HW2 8373   2.948   6.315   1.605
 2492SOL     OW 8374   4.388   3.234   7.021
 2492SOL    HW1 8375   4.314   3.224   6.955
 2492SOL    HW2 8376   4.356   3.289   0.073
 2493SOL     OW 8377   5.442   6.908   2.863
 2493SOL    HW1 8378   5.383   6.960   2.803
 2493SOL    HW2 8379   5.494   6.841   2.810
 2494SOL     OW 8380   5.987   3.378   2.842
 2494SOL    HW1 8381   5.940   3.290   2.857
 2494SOL    HW2 8382   5.997   3.393   2.743
 2495SOL     OW 8383   4.920   6.997   4.451
 2495SOL    HW1 8384   4.890   0.066   4.442
 2495SOL    HW2 8385   4.868   6.940   4.387
 2496SOL     OW 8386   0.933   4.828   6.245
 2496SOL    HW1 8387   0.927   4.748   6.305
 2496SOL    HW2 8388   0.951   4.798   6.151
 2497SOL     OW 8389   0.467   0.989   0.847
 2497SOL    HW1 8390   0.497   0.909   0.796
 2497SOL    HW2 8391   0.380   0.969   0.892
 2498SOL     OW 8392   3.080   2.162   3.537
 2498SOL    HW1 8393   3.037   2.221   3.605
 2498SOL    HW2 8394   3.011   2.103   3.495
 2499SOL     OW 8395   5.440   1.773   4.399
 2499SOL    HW1 8396   5.530   1.805   4.429
 2499SOL    HW2 8397   5.452   1.703   4.329
 2500SOL     OW 8398   4.137   3.228   5.856
 2500SOL    HW1 8399   4.178   3.161   5.794
 2500SOL    HW2 8400   4.207   3.293   5.886
 2501SOL     OW 8401   0.158   5.861   6.964
 2501SOL    HW1 8402   0.239   5.875   7.021
 2501SOL    HW2 8403   0.183   5.802   6.886
 2502SOL     OW 8404   2.655   6.170   3.298
 2502SOL    HW1 8405   2.717   6.115   3.243
 2502SOL    HW2 8406   2.638   6.257   3.253
 2503SOL     OW 8407   3.629   5.806   6.223
 2503SOL    HW1 8408   3.594   5.732   6.166
 2503SOL    HW2 8409   3.628   5.892   6.171
 2504SOL     OW 8410   3.353   5.508   5.481
 2504SOL    HW1 8411   3.448   5.482   5.464
 2504SOL    HW2 8412   3.324   5.475   5.570
 2505SOL     OW 8413   1.690   6.366   4.279
 2505SOL    HW1 8414   1.691   6.282   4.333
 2505SOL    HW2 8415   1.598   6.381   4.243
 2506SOL     OW 8416   6.097   3.227   6.113
 2506SOL    HW1 8417   6.127   3.209   6.207
 2506SOL    HW2 8418   6.150   3.302   6.075
 2507SOL     OW 8419   6.926   4.204   0.337
 2507SOL    HW1 8420   6.875   4.230   0.255
 2507SOL    HW2 8421   6.920   4.277   0.405
 2508SOL     OW 8422   2.887   1.334   2.400
 2508SOL    HW1 8423   2.884   1.414   2.340
 2508SOL    HW2 8424   2.858   1.253   2.349
 2509SOL     OW 8425   5.642   2.945   3.029
 2509SOL    HW1 8426   5.652   2.922   2.932
 2509SOL    HW2 8427   5.672   3.039   3.044
 2510SOL     OW 8428   3.521   4.559   1.161
 2510SOL    HW1 8429   3.507   4.485   1.096
 2510SOL    HW2 8430   3.491   4.645   1.121
 2511SOL     OW 8431   2.399   2.504   4.430
 2511SOL    HW1 8432   2.393   2.591   4.382
 2511SOL    HW2 8433   2.320   2.493   4.490
 2512SOL     OW 8434   5.108   5.275   5.323
 2512SOL    HW1 8435   5.101   5.259   5.422
 2512SOL    HW2 8436   5.027   5.324   5.291
 2513SOL     OW 8437   1.084   3.178   5.604
 2513SOL    HW1 8438   1.071   3.257   5.544
 2513SOL    HW2 8439   1.034   3.100   5.568
 2514SOL     OW 8440   6.731   3.627   4.446
 2514SOL    HW1 8441   6.705   3.716   4.484
 2514SOL    HW2 8442   6.648   3.573   4.428
 2515SOL     OW 8443   1.306   6.823   0.875
 2515SOL    HW1 8444   1.306   6.918   0.906
 2515SOL    HW2 8445   1.359   6.767   0.939
 2516SOL     OW 8446   5.958   6.494   3.325
 2516SOL    HW1 8447   5.977   6.433   3.249
 2516SOL    HW2 8448   5.864   6.527   3.319
 2517SOL     OW 8449   1.399   5.567   5.689
 2517SOL    HW1 8450   1.492   5.581   5.724
 2517SOL    HW2 8451   1.383   5.629   5.612
 2518SOL     OW 8452   2.340   2.716   0.308
 2518SOL    HW1 8453   2.378   2.755   0.224
 2518SOL    HW2 8454   2.333   2.617   0.299
 2519SOL     OW 8455   5.003   5.592   4.319
 2519SOL    HW1 8456   5.017   5.585   4.418
 2519SOL    HW2 8457   4.945   5.671   4.300
 2520SOL     OW 8458   1.458   2.983   1.006
 2520SOL    HW1 8459   1.513   3.062   0.978
 2520SOL    HW2 8460   1.452   2.919   0.930
 2521SOL     OW 8461   1.084   6.526   5.521
 2521SOL    HW1 8462   1.032   6.453   5.477
 2521SOL    HW2 8463   1.125   6.491   5.605
 2522SOL     OW 8464   0.996   3.116   5.982
 2522SOL    HW1 8465   1.007   3.190   5.916
 2522SOL    HW2 8466   1.057   3.040   5.958
 2523SOL     OW 8467   0.417   3.231   0.958
 2523SOL    HW1 8468   0.488   3.295   0.988
 2523SOL    HW2 8469   0.349   3.280   0.904
 2524SOL     OW 8470   0.576   5.911   4.048
 2524SOL    HW1 8471   0.483   5.949   4.042
 2524SOL    HW2 8472   0.583   5.854   4.130
 2525SOL     OW 8473   1.486   2.419   4.869
 2525SOL    HW1 8474   1.519   2.343   4.925
 2525SOL    HW2 8475   1.399   2.452   4.907
 2526SOL     OW 8476   1.389   3.977   5.660
 2526SOL    HW1 8477   1.435   4.032   5.590
 2526SOL    HW2 8478   1.441   3.981   5.745
 2527SOL     OW 8479   4.524   6.915   4.890
 2527SOL    HW1 8480   4.603   6.866   4.854
 2527SOL    HW2 8481   4.440   6.870   4.860
 2528SOL     OW 8482   6.206   4.309   1.136
 2528SOL    HW1 8483   6.290   4.255   1.133
 2528SOL    HW2 8484   6.216   4.384   1.201
 2529SOL     OW 8485   5.792   5.872   6.003
 2529SOL    HW1 8486   5.870   5.930   6.028
 2529SOL    HW2 8487   5.770   5.811   6.078
 2530SOL     OW 8488   1.196   5.805   4.729
 2530SOL    HW1 8489   1.170   5.719   4.686
 2530SOL    HW2 8490   1.137   5.879   4.697
 2531SOL     OW 8491   5.448   5.736   4.627
 2531SOL    HW1 8492   5.397   5.654   4.654
 2531SOL    HW2 8493   5.510   5.762   4.701
 2532SOL     OW 8494   0.683   5.764   0.739
 2532SOL    HW1 8495   0.631   5.835   0.691
 2532SOL    HW2 8496   0.660   5.767   0.837
 2533SOL     OW 8497   5.049   6.261   3.564
 2533SOL    HW1 8498   5.101   6.288   3.645
 2533SOL    HW2 8499   4.951   6.268   3.583
 2534SOL     OW 8500   2.031   0.084   3.724
 2534SOL    HW1 8501   2.022   0.020   3.648
 2534SOL    HW2 8502   2.005   0.175   3.693
 2535SOL     OW 8503   2.657   2.542   6.976
 2535SOL    HW1 8504   2.595   2.543   6.898
 2535SOL    HW2 8505   2.752   2.548   6.943
 2536SOL     OW 8506   0.409   1.675   3.274
 2536SOL    HW1 8507   0.509   1.663   3.275
 2536SOL    HW2 8508   0.371   1.637   3.358
 2537SOL     OW 8509   5.549   5.825   0.112
 2537SOL    HW1 8510   5.499   5.877   0.042
 2537SOL    HW2 8511   5.562   5.731   0.081
 2538SOL     OW 8512   1.402   4.431   4.737
 2538SOL    HW1 8513   1.310   4.440   4.774
 2538SOL    HW2 8514   1.398   4.420   4.638
 2539SOL     OW 8515   4.199   0.060   5.874
 2539SOL    HW1 8516   4.164   0.101   5.789
 2539SOL    HW2 8517   4.223   6.990   5.856
 2540SOL     OW 8518   4.766   0.909   0.922
 2540SOL    HW1 8519   4.808   0.836   0.868
 2540SOL    HW2 8520   4.672   0.884   0.945
 2541SOL     OW 8521   1.732   0.254   5.768
 2541SOL    HW1 8522   1.754   0.277   5.673
 2541SOL    HW2 8523   1.700   0.336   5.815
 2542SOL     OW 8524   3.989   1.491   5.083
 2542SOL    HW1 8525   4.023   1.466   4.992
 2542SOL    HW2 8526   4.031   1.577   5.112
 2543SOL     OW 8527   1.915   0.804   2.879
 2543SOL    HW1 8528   1.941   0.838   2.969
 2543SOL    HW2 8529   1.827   0.844   2.852
 2544SOL     OW 8530   0.352   5.098   2.793
 2544SOL    HW1 8531   0.405   5.046   2.860
 2544SOL    HW2 8532   0.320   5.036   2.721
 2545SOL     OW 8533   1.518   0.717   1.319
 2545SOL    HW1 8534   1.515   0.707   1.219
 2545SOL    HW2 8535   1.489   0.632   1.362
 2546SOL     OW 8536   6.124   3.262   1.772
 2546SOL    HW1 8537   6.105   3.205   1.852
 2546SOL    HW2 8538   6.060   3.339   1.770
 2547SOL     OW 8539   5.049   5.523   6.506
 2547SOL    HW1 8540   5.021   5.564   6.592
 2547SOL    HW2 8541   5.030   5.425   6.507
 2548SOL     OW 8542   2.448   0.973   5.289
 2548SOL    HW1 8543   2.496   0.885   5.293
 2548SOL    HW2 8544   2.362   0.962   5.239
 2549SOL     OW 8545   2.170   2.060   1.944
 2549SOL    HW1 8546   2.236   1.985   1.948
 2549SOL    HW2 8547   2.196   2.131   2.010
 2550SOL     OW 8548   6.482   0.798   6.668
 2550SOL    HW1 8549   6.502   0.850   6.585
 2550SOL    HW2 8550   6.394   0.753   6.659
 2551SOL     OW 8551   3.180   5.374   0.073
 2551SOL    HW1 8552   3.161   5.443   0.004
 2551SOL    HW2 8553   3.279   5.360   0.080
 2552SOL     OW 8554   1.750   5.471   6.054
 2552SOL    HW1 8555   1.722   5.375   6.056
 2552SOL    HW2 8556   1.713   5.518   6.135
 2553SOL     OW 8557   2.981   3.153   6.747
 2553SOL    HW1 8558   2.907   3.198   6.697
 2553SOL    HW2 8559   3.060   3.142   6.687
 2554SOL     OW 8560   1.529   5.801   6.615
 2554SOL    HW1 8561   1.461   5.729   6.630
 2554SOL    HW2 8562   1.574   5.786   6.528
 2555SOL     OW 8563   6.222   6.350   6.922
 2555SOL    HW1 8564   6.291   6.418   6.896
 2555SOL    HW2 8565   6.205   6.288   6.846
 2556SOL     OW 8566   4.146   6.181   1.174
 2556SOL    HW1 8567   4.090   6.231   1.108
 2556SOL    HW2 8568   4.091   6.155   1.253
 2557SOL     OW 8569   2.423   1.640   6.553
 2557SOL    HW1 8570   2.330   1.641   6.518
 2557SOL    HW2 8571   2.470   1.724   6.525
 2558SOL     OW 8572   4.052   3.861   5.431
 2558SOL    HW1 8573   4.071   3.915   5.349
 2558SOL    HW2 8574   4.127   3.797   5.446
 2559SOL     OW 8575   6.335   3.442   4.020
 2559SOL    HW1 8576   6.295   3.355   4.049
 2559SOL    HW2 8577   6.362   3.436   3.924
 2560SOL     OW 8578   4.944   3.514   3.902
 2560SOL    HW1 8579   4.918   3.487   3.994
 2560SOL    HW2 8580   4.907   3.448   3.836
 2561SOL     OW 8581   3.730   0.865   3.606
 2561SOL    HW1 8582   3.676   0.834   3.685
 2561SOL    HW2 8583   3.673   0.861   3.524
 2562SOL     OW 8584   2.441   5.425   2.493
 2562SOL    HW1 8585   2.454   5.484   2.413
 2562SOL    HW2 8586   2.447   5.480   2.577
 2563SOL     OW 8587   4.345   1.606   6.475
 2563SOL    HW1 8588   4.441   1.612   6.501
 2563SOL    HW2 8589   4.315   1.692   6.434
 2564SOL     OW 8590   1.232   6.353   6.422
 2564SOL    HW1 8591   1.163   6.410   6.465
 2564SOL    HW2 8592   1.257   6.278   6.484
 2565SOL     OW 8593   6.994   0.732   1.101
 2565SOL    HW1 8594   6.980   0.681   1.186
 2565SOL    HW2 8595   7.003   0.668   1.025
 2566SOL     OW 8596   1.082   6.913   0.709
 2566SOL    HW1 8597   1.156   6.851   0.733
 2566SOL    HW2 8598   1.047   6.890   0.618
 2567SOL     OW 8599   1.244   1.303   2.086
 2567SOL    HW1 8600   1.153   1.262   2.096
 2567SOL    HW2 8601   1.293   1.298   2.173
 2568SOL     OW 8602   2.828   0.459   0.267
 2568SOL    HW1 8603   2.789   0.460   0.175
 2568SOL    HW2 8604   2.827   0.551   0.304
 2569SOL     OW 8605   2.010   1.310   2.534
 2569SOL    HW1 8606   1.977   1.223   2.497
 2569SOL    HW2 8607   1.937   1.354   2.587
 2570SOL     OW 8608   5.570   6.990   6.295
 2570SOL    HW1 8609   5.669   7.000   6.290
 2570SOL    HW2 8610   5.528   7.024   6.211
 2571SOL     OW 8611   2.978   3.335   4.381
 2571SOL    HW1 8612   2.905   3.309   4.444
 2571SOL    HW2 8613   3.014   3.425   4.406
 2572SOL     OW 8614   1.509   6.821   1.412
 2572SOL    HW1 8615   1.585   6.843   1.472
 2572SOL    HW2 8616   1.492   6.898   1.350
 2573SOL     OW 8617   6.270   1.279   2.068
 2573SOL    HW1 8618   6.204   1.345   2.103
 2573SOL    HW2 8619   6.329   1.323   2.001
 2574SOL     OW 8620   6.819   3.207   0.202
 2574SOL    HW1 8621   6.806   3.162   0.290
 2574SOL    HW2 8622   6.854   3.300   0.217
 2575SOL     OW 8623   4.874   3.974   1.435
 2575SOL    HW1 8624   4.910   3.898   1.381
 2575SOL    HW2 8625   4.774   3.973   1.430
 2576SOL     OW 8626   3.648   6.856   3.839
 2576SOL    HW1 8627   3.744   6.880   3.830
 2576SOL    HW2 8628   3.631   6.819   3.931
 2577SOL     OW 8629   4.400   0.501   2.785
 2577SOL    HW1 8630   4.485   0.540   2.749
 2577SOL    HW2 8631   4.414   0.406   2.810
 2578SOL     OW 8632   4.297   3.099   5.694
 2578SOL    HW1 8633   4.397   3.105   5.693
 2578SOL    HW2 8634   4.269   3.012   5.652
 2579SOL     OW 8635   0.964   1.305   4.470
 2579SOL    HW1 8636   1.059   1.275   4.475
 2579SOL    HW2 8637   0.904   1.235   4.510
 2580SOL     OW 8638   1.433   3.047   6.347
 2580SOL    HW1 8639   1.490   3.125   6.372
 2580SOL    HW2 8640   1.477   2.963   6.377
 2581SOL     OW 8641   6.210   4.979   1.702
 2581SOL    HW1 8642   6.299   4.979   1.657
 2581SOL    HW2 8643   6.184   4.885   1.723
 2582SOL     OW 8644   1.567   4.410   2.781
 2582SOL    HW1 8645   1.514   4.411   2.697
 2582SOL    HW2 8646   1.523   4.350   2.848
 2583SOL     OW 8647   1.351   1.269   1.387
 2583SOL    HW1 8648   1.432   1.267   1.444
 2583SOL    HW2 8649   1.301   1.183   1.394
 2584SOL     OW 8650   3.470   5.416   0.117
 2584SOL    HW1 8651   3.554   5.417   0.062
 2584SOL    HW2 8652   3.441   5.510   0.136
 2585SOL     OW 8653   3.179   0.733   0.054
 2585SOL    HW1 8654   3.253   0.799   0.042
 2585SOL    HW2 8655   3.155   0.693   6.991
 2586SOL     OW 8656   4.843   2.008   4.165
 2586SOL    HW1 8657   4.919   2.065   4.197
 2586SOL    HW2 8658   4.879   1.937   4.105
 2587SOL     OW 8659   6.822   1.235   4.377
 2587SOL    HW1 8660   6.830   1.137   4.362
 2587SOL    HW2 8661   6.811   1.281   4.289
 2588SOL     OW 8662   4.639   0.104   0.657
 2588SOL    HW1 8663   4.634   0.141   0.564
 2588SOL    HW2 8664   4.720   0.046   0.666
 2589SOL     OW 8665   0.270   6.532   5.664
 2589SOL    HW1 8666   0.325   6.553   5.744
 2589SOL    HW2 8667   0.181   6.577   5.671
 2590SOL     OW 8668   3.419   6.694   2.090
 2590SOL    HW1 8669   3.340   6.744   2.126
 2590SOL    HW2 8670   3.424   6.604   2.132
 2591SOL     OW 8671   6.291   6.024   2.644
 2591SOL    HW1 8672   6.343   6.074   2.714
 2591SOL    HW2 8673   6.319   6.056   2.553
 2592SOL     OW 8674   2.344   0.039   1.100
 2592SOL    HW1 8675   2.359   0.107   1.029
 2592SOL    HW2 8676   2.318   0.084   1.186
 2593SOL     OW 8677   3.247   6.643   1.864
 2593SOL    HW1 8678   3.311   6.629   1.940
 2593SOL    HW2 8679   3.299   6.649   1.779
 2594SOL     OW 8680   0.225   6.464   5.977
 2594SOL    HW1 8681   0.299   6.522   5.943
 2594SOL    HW2 8682   0.203   6.488   6.071
 2595SOL     OW 8683   6.214   1.925   5.440
 2595SOL    HW1 8684   6.143   1.895   5.504
 2595SOL    HW2 8685   6.208   2.024   5.429
 2596SOL     OW 8686   3.938   2.200   1.849
 2596SOL    HW1 8687   3.964   2.181   1.944
 2596SOL    HW2 8688   3.845   2.236   1.846
 2597SOL     OW 8689   1.925   3.853   0.292
 2597SOL    HW1 8690   1.893   3.766   0.330
 2597SOL    HW2 8691   1.938   3.919   0.366
 2598SOL     OW 8692   6.601   1.587   4.554
 2598SOL    HW1 8693   6.624   1.496   4.589
 2598SOL    HW2 8694   6.518   1.582   4.499
 2599SOL     OW 8695   2.764   0.388   0.773
 2599SOL    HW1 8696   2.794   0.293   0.784
 2599SOL    HW2 8697   2.690   0.392   0.706
 2600SOL     OW 8698   4.962   3.593   4.823
 2600SOL    HW1 8699   5.014   3.678   4.813
 2600SOL    HW2 8700   4.898   3.603   4.899
 2601SOL     OW 8701   3.260   1.475   6.954
 2601SOL    HW1 8702   3.212   1.513   6.875
 2601SOL    HW2 8703   3.358   1.495   6.947
 2602SOL     OW 8704   6.559   5.181   3.685
 2602SOL    HW1 8705   6.659   5.179   3.690
 2602SOL    HW2 8706   6.521   5.129   3.760
 2603SOL     OW 8707   2.328   2.611   1.527
 2603SOL    HW1 8708   2.399   2.680   1.538
 2603SOL    HW2 8709   2.363   2.523   1.559
 2604SOL     OW 8710   5.122   1.194   2.811
 2604SOL    HW1 8711   5.032   1.209   2.772
 2604SOL    HW2 8712   5.117   1.126   2.884
 2605SOL     OW 8713   3.153   5.231   3.287
 2605SOL    HW1 8714   3.219   5.199   3.356
 2605SOL    HW2 8715   3.155   5.331   3.285
 2606SOL     OW 8716   0.032   4.711   0.697
 2606SOL    HW1 8717   0.029   4.630   0.756
 2606SOL    HW2 8718   0.074   4.787   0.748
 2607SOL     OW 8719   0.521   1.493   5.736
 2607SOL    HW1 8720   0.553   1.512   5.829
 2607SOL    HW2 8721   0.553   1.402   5.708
 2608SOL     OW 8722   3.799   5.539   2.514
 2608SOL    HW1 8723   3.703   5.544   2.539
 2608SOL    HW2 8724   3.848   5.480   2.579
 2609SOL     OW 8725   0.705   2.338   1.388
 2609SOL    HW1 8726   0.632   2.280   1.424
 2609SOL    HW2 8727   0.732   2.404   1.457
 2610SOL     OW 8728   6.724   4.738   4.721
 2610SOL    HW1 8729   6.748   4.701   4.811
 2610SOL    HW2 8730   6.808   4.769   4.675
 2611SOL     OW 8731   5.482   6.677   1.463
 2611SOL    HW1 8732   5.438   6.745   1.405
 2611SOL    HW2 8733   5.573   6.657   1.427
 2612SOL     OW 8734   6.853   6.935   5.692
 2612SOL    HW1 8735   6.896   6.973   5.610
 2612SOL    HW2 8736   6.895   6.976   5.773
 2613SOL     OW 8737   2.970   6.712   1.175
 2613SOL    HW1 8738   2.965   6.773   1.254
 2613SOL    HW2 8739   2.879   6.682   1.149
 2614SOL     OW 8740   6.899   0.106   6.155
 2614SOL    HW1 8741   6.847   0.031   6.196
 2614SOL    HW2 8742   6.974   0.131   6.215
 2615SOL     OW 8743   6.195   3.729   2.700
 2615SOL    HW1 8744   6.106   3.737   2.654
 2615SOL    HW2 8745   6.182   3.736   2.799
 2616SOL     OW 8746   3.901   3.461   3.596
 2616SOL    HW1 8747   3.970   3.512   3.647
 2616SOL    HW2 8748   3.814   3.465   3.645
 2617SOL     OW 8749   3.953   6.200   0.950
 2617SOL    HW1 8750   4.010   6.127   0.911
 2617SOL    HW2 8751   3.938   6.271   0.882
 2618SOL     OW 8752   0.243   6.685   4.122
 2618SOL    HW1 8753   0.339   6.709   4.136
 2618SOL    HW2 8754   0.192   6.766   4.093
 2619SOL     OW 8755   2.954   1.567   3.351
 2619SOL    HW1 8756   2.924   1.524   3.436
 2619SOL    HW2 8757   2.876   1.614   3.308
 2620SOL     OW 8758   0.521   6.535   3.028
 2620SOL    HW1 8759   0.542   6.629   3.053
 2620SOL    HW2 8760   0.541   6.521   2.930
 2621SOL     OW 8761   2.144   5.564   2.641
 2621SOL    HW1 8762   2.098   5.556   2.553
 2621SOL    HW2 8763   2.078   5.551   2.715
 2622SOL     OW 8764   2.822   1.804   6.768
 2622SOL    HW1 8765   2.774   1.810   6.680
 2622SOL    HW2 8766   2.758   1.772   6.838
 2623SOL     OW 8767   3.385   2.039   4.670
 2623SOL    HW1 8768   3.408   1.978   4.594
 2623SOL    HW2 8769   3.286   2.054   4.672
 2624SOL     OW 8770   6.751   2.929   5.228
 2624SOL    HW1 8771   6.733   2.904   5.132
 2624SOL    HW2 8772   6.797   2.853   5.274
 2625SOL     OW 8773   3.133   2.392   6.100
 2625SOL    HW1 8774   3.139   2.294   6.120
 2625SOL    HW2 8775   3.095   2.439   6.179
 2626SOL     OW 8776   0.406   0.489   5.173
 2626SOL    HW1 8777   0.370   0.525   5.088
 2626SOL    HW2 8778   0.348   0.415   5.206
 2627SOL     OW 8779   0.737   0.304   4.999
 2627SOL    HW1 8780   0.662   0.241   4.979
 2627SOL    HW2 8781   0.817   0.253   5.029
 2628SOL     OW 8782   2.318   4.702   6.497
 2628SOL    HW1 8783   2.345   4.793   6.466
 2628SOL    HW2 8784   2.295   4.705   6.595
 2629SOL     OW 8785   3.523   4.164   1.700
 2629SOL    HW1 8786   3.458   4.191   1.629
 2629SOL    HW2 8787   3.474   4.148   1.785
 2630SOL     OW 8788   3.089   1.704   3.572
 2630SOL    HW1 8789   3.163   1.740   3.628
 2630SOL    HW2 8790   3.126   1.670   3.485
 2631SOL     OW 8791   4.795   0.275   4.234
 2631SOL    HW1 8792   4.891   0.273   4.204
 2631SOL    HW2 8793   4.784   0.343   4.306
 2632SOL     OW 8794   3.036   1.613   6.761
 2632SOL    HW1 8795   2.964   1.682   6.764
 2632SOL    HW2 8796   3.125   1.658   6.762
 2633SOL     OW 8797   6.305   1.894   5.822
 2633SOL    HW1 8798   6.331   1.821   5.759
 2633SOL    HW2 8799   6.383   1.956   5.835
 2634SOL     OW 8800   1.810   4.164   3.048
 2634SOL    HW1 8801   1.808   4.222   2.966
 2634SOL    HW2 8802   1.717   4.142   3.076
 2635SOL     OW 8803   5.732   6.011   5.315
 2635SOL    HW1 8804   5.649   6.030   5.368
 2635SOL    HW2 8805   5.765   6.097   5.274
 2636SOL     OW 8806   4.878   0.353   5.213
 2636SOL    HW1 8807   4.824   0.428   5.250
 2636SOL    HW2 8808   4.972   0.359   5.247
 2637SOL     OW 8809   5.610   1.903   3.805
 2637SOL    HW1 8810   5.562   1.845   3.872
 2637SOL    HW2 8811   5.649   1.845   3.733
 2638SOL     OW 8812   0.011   0.128   2.736
 2638SOL    HW1 8813   0.101   0.089   2.758
 2638SOL    HW2 8814   0.021   0.227   2.722
 2639SOL     OW 8815   1.077   0.207   1.832
 2639SOL    HW1 8816   1.093   0.204   1.733
 2639SOL    HW2 8817   1.045   0.118   1.864
 2640SOL     OW 8818   0.204   6.356   4.780
 2640SOL    HW1 8819   0.260   6.435   4.808
 2640SOL    HW2 8820   0.107   6.382   4.781
 2641SOL     OW 8821   4.952   3.209   1.970
 2641SOL    HW1 8822   4.894   3.130   1.991
 2641SOL    HW2 8823   4.895   3.285   1.940
 2642SOL     OW 8824   4.535   6.841   4.147
 2642SOL    HW1 8825   4.530   6.741   4.147
 2642SOL    HW2 8826   4.454   6.879   4.192
 2643SOL     OW 8827   1.046   4.248   2.672
 2643SOL    HW1 8828   0.960   4.289   2.641
 2643SOL    HW2 8829   1.028   4.164   2.723
 2644SOL     OW 8830   6.229   5.526   5.799
 2644SOL    HW1 8831   6.271   5.551   5.886
 2644SOL    HW2 8832   6.245   5.598   5.732
 2645SOL     OW 8833   4.622   5.331   3.803
 2645SOL    HW1 8834   4.548   5.367   3.746
 2645SOL    HW2 8835   4.595   5.242   3.840
 2646SOL     OW 8836   5.825   0.374   6.375
 2646SOL    HW1 8837   5.851   0.393   6.470
 2646SOL    HW2 8838   5.727   0.356   6.371
 2647SOL     OW 8839   6.004   0.388   1.965
 2647SOL    HW1 8840   6.026   0.420   1.873
 2647SOL    HW2 8841   6.044   0.450   2.032
 2648SOL     OW 8842   0.114   0.182   3.559
 2648SOL    HW1 8843   0.066   0.135   3.633
 2648SOL    HW2 8844   0.062   0.264   3.534
 2649SOL     OW 8845   5.764   3.586   6.201
 2649SOL    HW1 8846   5.670   3.617   6.219
 2649SOL    HW2 8847   5.824   3.620   6.273
 2650SOL     OW 8848   0.678   3.787   4.163
 2650SOL    HW1 8849   0.669   3.694   4.200
 2650SOL    HW2 8850   0.615   3.799   4.087
 2651SOL     OW 8851   0.432   2.511   6.736
 2651SOL    HW1 8852   0.426   2.608   6.762
 2651SOL    HW2 8853   0.441   2.455   6.818
 2652SOL     OW 8854   3.266   3.807   3.754
 2652SOL    HW1 8855   3.189   3.799   3.817
 2652SOL    HW2 8856   3.321   3.723   3.758
 2653SOL     OW 8857   5.040   0.198   5.923
 2653SOL    HW1 8858   5.061   0.156   5.835
 2653SOL    HW2 8859   5.090   0.284   5.932
 2654SOL     OW 8860   5.276   5.182   0.900
 2654SOL    HW1 8861   5.211   5.203   0.973
 2654SOL    HW2 8862   5.287   5.083   0.892
 2655SOL     OW 8863   4.988   4.772   4.076
 2655SOL    HW1 8864   5.023   4.713   4.005
 2655SOL    HW2 8865   5.016   4.738   4.166
 2656SOL     OW 8866   3.647   4.929   4.104
 2656SOL    HW1 8867   3.576   4.960   4.167
 2656SOL    HW2 8868   3.719   4.883   4.155
 2657SOL     OW 8869   1.985   4.608   6.378
 2657SOL    HW1 8870   2.015   4.582   6.470
 2657SOL    HW2 8871   2.051   4.671   6.338
 2658SOL     OW 8872   5.108   4.410   0.636
 2658SOL    HW1 8873   5.013   4.384   0.654
 2658SOL    HW2 8874   5.118   4.509   0.652
 2659SOL     OW 8875   6.158   2.907   4.807
 2659SOL    HW1 8876   6.234   2.921   4.745
 2659SOL    HW2 8877   6.135   2.809   4.810
 2660SOL     OW 8878   0.554   1.534   1.065
 2660SOL    HW1 8879   0.557   1.630   1.095
 2660SOL    HW2 8880   0.473   1.490   1.103
 2661SOL     OW 8881   2.241   6.337   0.891
 2661SOL    HW1 8882   2.241   6.415   0.954
 2661SOL    HW2 8883   2.269   6.368   0.800
 2662SOL     OW 8884   4.246   7.010   5.313
 2662SOL    HW1 8885   4.175   0.046   5.280
 2662SOL    HW2 8886   4.297   6.973   5.235
 2663SOL     OW 8887   2.539   4.148   1.021
 2663SOL    HW1 8888   2.632   4.135   1.057
 2663SOL    HW2 8889   2.502   4.060   0.994
 2664SOL     OW 8890   4.158   3.629   4.966
 2664SOL    HW1 8891   4.091   3.681   4.913
 2664SOL    HW2 8892   4.197   3.688   5.037
 2665SOL     OW 8893   2.653   2.622   5.290
 2665SOL    HW1 8894   2.602   2.707   5.304
 2665SOL    HW2 8895   2.749   2.637   5.315
 2666SOL     OW 8896   5.044   3.994   1.831
 2666SOL    HW1 8897   5.126   3.990   1.888
 2666SOL    HW2 8898   5.061   3.945   1.745
 2667SOL     OW 8899   1.684   6.139   4.432
 2667SOL    HW1 8900   1.589   6.158   4.458
 2667SOL    HW2 8901   1.695   6.041   4.418
 2668SOL     OW 8902   5.941   3.188   4.011
 2668SOL    HW1 8903   5.890   3.207   4.095
 2668SOL    HW2 8904   5.926   3.262   3.946
 2669SOL     OW 8905   2.947   4.949   5.213
 2669SOL    HW1 8906   2.882   4.877   5.192
 2669SOL    HW2 8907   3.031   4.936   5.161
 2670SOL     OW 8908   5.446   2.185   6.720
 2670SOL    HW1 8909   5.442   2.121   6.643
 2670SOL    HW2 8910   5.398   2.145   6.798
 2671SOL     OW 8911   3.624   5.150   6.659
 2671SOL    HW1 8912   3.657   5.117   6.570
 2671SOL    HW2 8913   3.584   5.073   6.710
 2672SOL     OW 8914   0.042   4.765   0.443
 2672SOL    HW1 8915   0.023   4.747   0.539
 2672SOL    HW2 8916   0.132   4.809   0.434
 2673SOL     OW 8917   6.368   1.785   3.953
 2673SOL    HW1 8918   6.332   1.871   3.990
 2673SOL    HW2 8919   6.441   1.805   3.887
 2674SOL     OW 8920   1.651   3.833   3.700
 2674SOL    HW1 8921   1.625   3.854   3.606
 2674SOL    HW2 8922   1.749   3.812   3.703
 2675SOL     OW 8923   6.452   4.973   4.681
 2675SOL    HW1 8924   6.471   4.942   4.775
 2675SOL    HW2 8925   6.359   5.010   4.677
 2676SOL     OW 8926   4.718   1.517   1.865
 2676SOL    HW1 8927   4.679   1.603   1.832
 2676SOL    HW2 8928   4.645   1.454   1.891
 2677SOL     OW 8929   3.116   4.033   0.107
 2677SOL    HW1 8930   3.091   4.054   0.202
 2677SOL    HW2 8931   3.215   4.019   0.101
 2678SOL     OW 8932   6.625   3.990   1.335
 2678SOL    HW1 8933   6.641   3.944   1.422
 2678SOL    HW2 8934   6.671   4.079   1.335
 2679SOL     OW 8935   3.182   5.269   0.903
 2679SOL    HW1 8936   3.281   5.283   0.903
 2679SOL    HW2 8937   3.136   5.355   0.926
 2680SOL     OW 8938   0.866   1.824   0.289
 2680SOL    HW1 8939   0.773   1.800   0.315
 2680SOL    HW2 8940   0.901   1.895   0.350
 2681SOL     OW 8941   1.794   2.376   4.353
 2681SOL    HW1 8942   1.770   2.321   4.433
 2681SOL    HW2 8943   1.848   2.321   4.290
 2682SOL     OW 8944   5.530   3.964   2.809
 2682SOL    HW1 8945   5.588   3.889   2.840
 2682SOL    HW2 8946   5.477   4.000   2.886
 2683SOL     OW 8947   2.375   3.369   0.294
 2683SOL    HW1 8948   2.397   3.352   0.390
 2683SOL    HW2 8949   2.296   3.429   0.289
 2684SOL     OW 8950   4.532   6.020   1.342
 2684SOL    HW1 8951   4.511   6.011   1.440
 2684SOL    HW2 8952   4.454   5.987   1.289
 2685SOL     OW 8953   6.267   6.215   6.674
 2685SOL    HW1 8954   6.223   6.125   6.680
 2685SOL    HW2 8955   6.363   6.206   6.700
 2686SOL     OW 8956   1.407   1.872   5.524
 2686SOL    HW1 8957   1.434   1.917   5.439
 2686SOL    HW2 8958   1.485   1.820   5.560
 2687SOL     OW 8959   4.469   4.652   2.239
 2687SOL    HW1 8960   4.513   4.564   2.223
 2687SOL    HW2 8961   4.514   4.698   2.316
 2688SOL     OW 8962   5.031   5.299   0.042
 2688SOL    HW1 8963   4.976   5.378   0.071
 2688SOL    HW2 8964   4.980   5.215   0.061
 2689SOL     OW 8965   1.771   2.975   3.528
 2689SOL    HW1 8966   1.812   3.023   3.451
 2689SOL    HW2 8967   1.717   3.039   3.583
 2690SOL     OW 8968   3.374   3.515   4.056
 2690SOL    HW1 8969   3.320   3.559   4.128
 2690SOL    HW2 8970   3.434   3.583   4.013
 2691SOL     OW 8971   1.030   5.348   2.257
 2691SOL    HW1 8972   1.054   5.373   2.163
 2691SOL    HW2 8973   0.934   5.319   2.261
 2692SOL     OW 8974   3.688   4.963   3.088
 2692SOL    HW1 8975   3.761   4.905   3.050
 2692SOL    HW2 8976   3.638   5.006   3.013
 2693SOL     OW 8977   1.520   4.104   3.107
 2693SOL    HW1 8978   1.560   4.169   3.171
 2693SOL    HW2 8979   1.514   4.014   3.150
 2694SOL     OW 8980   4.524   6.523   2.764
 2694SOL    HW1 8981   4.495   6.431   2.737
 2694SOL    HW2 8982   4.565   6.520   2.855
 2695SOL     OW 8983   4.871   0.763   2.913
 2695SOL    HW1 8984   4.813   0.714   2.848
 2695SOL    HW2 8985   4.959   0.716   2.922
 2696SOL     OW 8986   3.867   3.504   5.169
 2696SOL    HW1 8987   3.876   3.603   5.177
 2696SOL    HW2 8988   3.848   3.464   5.258
 2697SOL     OW 8989   3.238   1.431   2.696
 2697SOL    HW1 8990   3.318   1.478   2.734
 2697SOL    HW2 8991   3.163   1.497   2.685
 2698SOL     OW 8992   1.683   6.161   0.534
 2698SOL    HW1 8993   1.629   6.140   0.453
 2698SOL    HW2 8994   1.687   6.260   0.546
 2699SOL     OW 8995   3.327   6.399   0.366
 2699SOL    HW1 8996   3.277   6.485   0.360
 2699SOL    HW2 8997   3.410   6.411   0.421
 2700SOL     OW 8998   1.965   3.901   0.837
 2700SOL    HW1 8999   1.977   3.902   0.937
 2700SOL    HW2 9000   1.875   3.937   0.814
 2701SOL     OW 9001   3.764   0.572   6.806
 2701SOL    HW1 9002   3.759   0.642   6.735
 2701SOL    HW2 9003   3.847   0.584   6.860
 2702SOL     OW 9004   0.701   2.855   3.697
 2702SOL    HW1 9005   0.738   2.887   3.784
 2702SOL    HW2 9006   0.601   2.851   3.703
 2703SOL     OW 9007   1.971   0.758   2.452
 2703SOL    HW1 9008   1.954   0.661   2.434
 2703SOL    HW2 9009   2.054   0.786   2.404
 2704SOL     OW 9010   0.169   6.255   1.057
 2704SOL    HW1 9011   0.125   6.225   0.973
 2704SOL    HW2 9012   0.243   6.191   1.081
 2705SOL     OW 9013   1.198   4.961   4.017
 2705SOL    HW1 9014   1.278   4.997   3.970
 2705SOL    HW2 9015   1.219   4.952   4.115
 2706SOL     OW 9016   0.308   0.622   1.463
 2706SOL    HW1 9017   0.393   0.620   1.516
 2706SOL    HW2 9018   0.271   0.715   1.464
 2707SOL     OW 9019   2.360   1.024   5.003
 2707SOL    HW1 9020   2.278   1.062   5.047
 2707SOL    HW2 9021   2.348   0.925   4.991
 2708SOL     OW 9022   0.915   2.059   0.452
 2708SOL    HW1 9023   0.834   2.062   0.394
 2708SOL    HW2 9024   0.889   2.067   0.548
 2709SOL     OW 9025   5.566   6.429   0.533
 2709SOL    HW1 9026   5.483   6.484   0.526
 2709SOL    HW2 9027   5.606   6.418   0.442
 2710SOL     OW 9028   0.511   3.211   3.352
 2710SOL    HW1 9029   0.591   3.157   3.379
 2710SOL    HW2 9030   0.538   3.307   3.344
 2711SOL     OW 9031   2.281   0.953   3.474
 2711SOL    HW1 9032   2.249   0.887   3.542
 2711SOL    HW2 9033   2.352   1.010   3.514
 2712SOL     OW 9034   3.193   4.785   0.718
 2712SOL    HW1 9035   3.251   4.843   0.776
 2712SOL    HW2 9036   3.162   4.706   0.771
 2713SOL     OW 9037   2.243   2.092   5.171
 2713SOL    HW1 9038   2.150   2.055   5.175
 2713SOL    HW2 9039   2.286   2.064   5.085
 2714SOL     OW 9040   4.735   2.180   0.693
 2714SOL    HW1 9041   4.793   2.261   0.688
 2714SOL    HW2 9042   4.736   2.144   0.786
 2715SOL     OW 9043   4.997   1.285   0.671
 2715SOL    HW1 9044   4.933   1.291   0.595
 2715SOL    HW2 9045   5.071   1.223   0.648
 2716SOL     OW 9046   5.228   4.704   2.874
 2716SOL    HW1 9047   5.180   4.774   2.822
 2716SOL    HW2 9048   5.294   4.658   2.815
 2717SOL     OW 9049   2.519   4.851   1.928
 2717SOL    HW1 9050   2.569   4.770   1.958
 2717SOL    HW2 9051   2.429   4.853   1.971
 2718SOL     OW 9052   1.522   3.218   6.050
 2718SOL    HW1 9053   1.477   3.218   5.961
 2718SOL    HW2 9054   1.573   3.303   6.063
 2719SOL     OW 9055   6.501   5.783   1.331
 2719SOL    HW1 9056   6.488   5.799   1.233
 2719SOL    HW2 9057   6.592   5.746   1.347
 2720SOL     OW 9058   2.208   6.079   2.277
 2720SOL    HW1 9059   2.263   6.132   2.341
 2720SOL    HW2 9060   2.151   6.141   2.223
 2721SOL     OW 9061   2.859   0.713   4.280
 2721SOL    HW1 9062   2.790   0.725   4.352
 2721SOL    HW2 9063   2.948   0.694   4.322
 2722SOL     OW 9064   6.876   5.563   1.645
 2722SOL    HW1 9065   6.926   5.484   1.681
 2722SOL    HW2 9066   6.938   5.623   1.596
 2723SOL     OW 9067   0.693   6.569   5.496
 2723SOL    HW1 9068   0.691   6.470   5.505
 2723SOL    HW2 9069   0.681   6.611   5.586
 2724SOL     OW 9070   2.320   6.795   6.495
 2724SOL    HW1 9071   2.356   6.760   6.409
 2724SOL    HW2 9072   2.372   6.756   6.571
 2725SOL     OW 9073   6.190   4.844   4.174
 2725SOL    HW1 9074   6.105   4.876   4.215
 2725SOL    HW2 9075   6.246   4.799   4.244
 2726SOL     OW 9076   0.061   3.594   1.097
 2726SOL    HW1 9077   0.054   3.660   1.022
 2726SOL    HW2 9078   0.086   3.641   1.181
 2727SOL     OW 9079   0.508   5.350   3.858
 2727SOL    HW1 9080   0.564   5.432   3.845
 2727SOL    HW2 9081   0.464   5.325   3.772
 2728SOL     OW 9082   3.787   6.812   5.807
 2728SOL    HW1 9083   3.875   6.784   5.846
 2728SOL    HW2 9084   3.761   6.747   5.735
 2729SOL     OW 9085   6.622   5.310   1.373
 2729SOL    HW1 9086   6.652   5.325   1.467
 2729SOL    HW2 9087   6.683   5.359   1.310
 2730SOL     OW 9088   1.908   5.309   1.524
 2730SOL    HW1 9089   1.938   5.214   1.527
 2730SOL    HW2 9090   1.813   5.313   1.493
 2731SOL     OW 9091   4.129   3.422   2.056
 2731SOL    HW1 9092   4.040   3.389   2.024
 2731SOL    HW2 9093   4.119   3.460   2.148
 2732SOL     OW 9094   5.101   2.844   2.453
 2732SOL    HW1 9095   5.013   2.891   2.445
 2732SOL    HW2 9096   5.135   2.822   2.362
 2733SOL     OW 9097   0.263   0.074   5.164
 2733SOL    HW1 9098   0.359   0.088   5.189
 2733SOL    HW2 9099   0.244   7.001   5.159
 2734SOL     OW 9100   2.339   5.669   1.834
 2734SOL    HW1 9101   2.305   5.740   1.896
 2734SOL    HW2 9102   2.394   5.711   1.762
 2735SOL     OW 9103   1.099   3.023   2.570
 2735SOL    HW1 9104   1.127   2.931   2.598
 2735SOL    HW2 9105   1.016   3.016   2.514
 2736SOL     OW 9106   4.188   0.023   4.464
 2736SOL    HW1 9107   4.269   7.006   4.423
 2736SOL    HW2 9108   4.106   6.998   4.437
 2737SOL     OW 9109   3.815   3.632   5.982
 2737SOL    HW1 9110   3.787   3.624   6.078
 2737SOL    HW2 9111   3.775   3.714   5.942
 2738SOL     OW 9112   5.596   4.999   4.177
 2738SOL    HW1 9113   5.571   5.027   4.270
 2738SOL    HW2 9114   5.538   4.923   4.148
 2739SOL     OW 9115   6.798   4.972   0.827
 2739SOL    HW1 9116   6.792   4.872   0.821
 2739SOL    HW2 9117   6.875   5.004   0.772
 2740SOL     OW 9118   6.167   3.597   2.423
 2740SOL    HW1 9119   6.155   3.678   2.481
 2740SOL    HW2 9120   6.139   3.515   2.474
 2741SOL     OW 9121   6.265   1.128   5.421
 2741SOL    HW1 9122   6.217   1.206   5.462
 2741SOL    HW2 9123   6.198   1.066   5.380
 2742SOL     OW 9124   2.150   4.973   6.841
 2742SOL    HW1 9125   2.184   5.020   6.923
 2742SOL    HW2 9126   2.177   5.024   6.760
 2743SOL     OW 9127   6.799   5.366   2.544
 2743SOL    HW1 9128   6.858   5.325   2.613
 2743SOL    HW2 9129   6.734   5.427   2.587
 2744SOL     OW 9130   4.856   1.577   0.178
 2744SOL    HW1 9131   4.924   1.582   0.251
 2744SOL    HW2 9132   4.781   1.639   0.198
 2745SOL     OW 9133   0.794   6.810   6.559
 2745SOL    HW1 9134   0.863   6.759   6.610
 2745SOL    HW2 9135   0.703   6.787   6.593
 2746SOL     OW 9136   2.069   1.944   3.750
 2746SOL    HW1 9137   2.066   2.034   3.706
 2746SOL    HW2 9138   2.155   1.898   3.726
 2747SOL     OW 9139   5.798   3.528   5.849
 2747SOL    HW1 9140   5.734   3.488   5.783
 2747SOL    HW2 9141   5.749   3.546   5.935
 2748SOL     OW 9142   4.496   2.287   0.928
 2748SOL    HW1 9143   4.570   2.219   0.926
 2748SOL    HW2 9144   4.440   2.273   1.009
 2749SOL     OW 9145   6.068   4.705   3.581
 2749SOL    HW1 9146   6.106   4.770   3.647
 2749SOL    HW2 9147   5.989   4.746   3.536
 2750SOL     OW 9148   1.119   4.823   1.090
 2750SOL    HW1 9149   1.026   4.853   1.069
 2750SOL    HW2 9150   1.126   4.724   1.074
 2751SOL     OW 9151   0.403   6.142   0.763
 2751SOL    HW1 9152   0.308   6.140   0.795
 2751SOL    HW2 9153   0.463   6.167   0.839
 2752SOL     OW 9154   5.038   4.787   5.104
 2752SOL    HW1 9155   5.064   4.701   5.061
 2752SOL    HW2 9156   5.082   4.863   5.055
 2753SOL     OW 9157   0.945   6.626   5.767
 2753SOL    HW1 9158   0.852   6.630   5.803
 2753SOL    HW2 9159   0.941   6.606   5.669
 2754SOL     OW 9160   6.358   0.684   3.724
 2754SOL    HW1 9161   6.339   0.773   3.684
 2754SOL    HW2 9162   6.455   0.675   3.742
 2755SOL     OW 9163   2.668   6.819   3.723
 2755SOL    HW1 9164   2.596   6.880   3.690
 2755SOL    HW2 9165   2.627   6.733   3.755
 2756SOL     OW 9166   5.774   4.323   5.753
 2756SOL    HW1 9167   5.861   4.274   5.751
 2756SOL    HW2 9168   5.698   4.258   5.755
 2757SOL     OW 9169   2.120   1.620   6.182
 2757SOL    HW1 9170   2.021   1.623   6.191
 2757SOL    HW2 9171   2.162   1.622   6.274
 2758SOL     OW 9172   5.234   6.202   3.360
 2758SOL    HW1 9173   5.280   6.278   3.314
 2758SOL    HW2 9174   5.152   6.235   3.406
 2759SOL     OW 9175   4.285   5.699   5.824
 2759SOL    HW1 9176   4.345   5.629   5.862
 2759SOL    HW2 9177   4.339   5.764   5.771
 2760SOL     OW 9178   0.325   5.471   2.758
 2760SOL    HW1 9179   0.227   5.465   2.780
 2760SOL    HW2 9180   0.351   5.566   2.746
 2761SOL     OW 9181   2.132   4.100   4.580
 2761SOL    HW1 9182   2.174   4.157   4.510
 2761SOL    HW2 9183   2.155   4.135   4.671
 2762SOL     OW 9184   2.057   1.938   6.521
 2762SOL    HW1 9185   1.979   1.885   6.556
 2762SOL    HW2 9186   2.076   2.014   6.582
 2763SOL     OW 9187   4.947   2.053   4.977
 2763SOL    HW1 9188   4.860   2.093   5.005
 2763SOL    HW2 9189   4.937   2.012   4.886
 2764SOL     OW 9190   0.015   0.069   1.997
 2764SOL    HW1 9191   7.015   0.159   1.960
 2764SOL    HW2 9192   0.087   0.081   2.066
 2765SOL     OW 9193   6.544   6.875   0.959
 2765SOL    HW1 9194   6.483   6.796   0.952
 2765SOL    HW2 9195   6.638   6.846   0.944
 2766SOL     OW 9196   4.371   2.421   6.913
 2766SOL    HW1 9197   4.330   2.496   6.862
 2766SOL    HW2 9198   4.351   2.335   6.867
 2767SOL     OW 9199   6.536   5.534   6.724
 2767SOL    HW1 9200   6.438   5.556   6.717
 2767SOL    HW2 9201   6.571   5.565   6.813
 2768SOL     OW 9202   4.487   0.512   1.177
 2768SOL    HW1 9203   4.532   0.445   1.235
 2768SOL    HW2 9204   4.485   0.601   1.223
 2769SOL     OW 9205   2.430   3.959   6.450
 2769SOL    HW1 9206   2.473   3.869   6.451
 2769SOL    HW2 9207   2.440   3.999   6.359
 2770SOL     OW 9208   4.615   5.674   5.152
 2770SOL    HW1 9209   4.694   5.726   5.186
 2770SOL    HW2 9210   4.644   5.612   5.080
 2771SOL     OW 9211   5.565   1.055   4.312
 2771SOL    HW1 9212   5.510   1.137   4.295
 2771SOL    HW2 9213   5.661   1.075   4.294
 2772SOL     OW 9214   3.254   0.869   1.248
 2772SOL    HW1 9215   3.166   0.825   1.231
 2772SOL    HW2 9216   3.252   0.963   1.212
 2773SOL     OW 9217   6.539   2.871   3.945
 2773SOL    HW1 9218   6.588   2.930   3.881
 2773SOL    HW2 9219   6.539   2.777   3.910
 2774SOL     OW 9220   5.105   3.362   3.012
 2774SOL    HW1 9221   5.020   3.374   3.063
 2774SOL    HW2 9222   5.092   3.292   2.941
 2775SOL     OW 9223   6.580   3.385   4.872
 2775SOL    HW1 9224   6.516   3.459   4.853
 2775SOL    HW2 9225   6.535   3.297   4.853
 2776SOL     OW 9226   5.159   4.193   5.981
 2776SOL    HW1 9227   5.092   4.266   5.991
 2776SOL    HW2 9228   5.194   4.192   5.888
 2777SOL     OW 9229   2.795   2.208   1.069
 2777SOL    HW1 9230   2.820   2.251   1.155
 2777SOL    HW2 9231   2.857   2.131   1.050
 2778SOL     OW 9232   0.709   6.170   6.546
 2778SOL    HW1 9233   0.793   6.154   6.494
 2778SOL    HW2 9234   0.723   6.142   6.641
 2779SOL     OW 9235   5.591   6.548   2.185
 2779SOL    HW1 9236   5.582   6.580   2.091
 2779SOL    HW2 9237   5.501   6.524   2.221
 2780SOL     OW 9238   0.140   0.241   5.677
 2780SOL    HW1 9239   0.101   0.301   5.746
 2780SOL    HW2 9240   0.066   0.194   5.629
 2781SOL     OW 9241   5.963   0.813   3.092
 2781SOL    HW1 9242   5.971   0.733   3.151
 2781SOL    HW2 9243   5.901   0.879   3.136
 2782SOL     OW 9244   4.528   1.288   4.794
 2782SOL    HW1 9245   4.530   1.383   4.825
 2782SOL    HW2 9246   4.474   1.233   4.857
 2783SOL     OW 9247   6.808   4.164   2.026
 2783SOL    HW1 9248   6.710   4.179   2.016
 2783SOL    HW2 9249   6.848   4.233   2.086
 2784SOL     OW 9250   3.135   1.580   2.357
 2784SOL    HW1 9251   3.162   1.614   2.267
 2784SOL    HW2 9252   3.215   1.547   2.406
 2785SOL     OW 9253   5.158   2.426   0.607
 2785SOL    HW1 9254   5.208   2.397   0.525
 2785SOL    HW2 9255   5.224   2.441   0.681
 2786SOL     OW 9256   6.521   6.852   1.972
 2786SOL    HW1 9257   6.563   6.882   1.886
 2786SOL    HW2 9258   6.587   6.796   2.023
 2787SOL     OW 9259   6.146   6.908   5.639
 2787SOL    HW1 9260   6.184   6.846   5.570
 2787SOL    HW2 9261   6.062   6.868   5.676
 2788SOL     OW 9262   2.497   6.472   5.845
 2788SOL    HW1 9263   2.551   6.460   5.928
 2788SOL    HW2 9264   2.407   6.510   5.869
 2789SOL     OW 9265   1.706   1.712   3.609
 2789SOL    HW1 9266   1.711   1.812   3.609
 2789SOL    HW2 9267   1.630   1.682   3.666
 2790SOL     OW 9268   3.547   5.282   1.454
 2790SOL    HW1 9269   3.646   5.295   1.446
 2790SOL    HW2 9270   3.527   5.223   1.532
 2791SOL     OW 9271   0.760   3.639   2.077
 2791SOL    HW1 9272   0.767   3.689   2.163
 2791SOL    HW2 9273   0.828   3.674   2.012
 2792SOL     OW 9274   2.671   0.779   4.484
 2792SOL    HW1 9275   2.659   0.859   4.543
 2792SOL    HW2 9276   2.582   0.750   4.448
 2793SOL     OW 9277   5.163   3.571   1.733
 2793SOL    HW1 9278   5.079   3.588   1.680
 2793SOL    HW2 9279   5.216   3.655   1.739
 2794SOL     OW 9280   6.884   2.228   5.703
 2794SOL    HW1 9281   6.938   2.205   5.784
 2794SOL    HW2 9282   6.866   2.144   5.651
 2795SOL     OW 9283   0.777   3.764   0.921
 2795SOL    HW1 9284   0.756   3.826   0.996
 2795SOL    HW2 9285   0.874   3.741   0.923
 2796SOL     OW 9286   6.786   5.981   3.405
 2796SOL    HW1 9287   6.777   5.980   3.505
 2796SOL    HW2 9288   6.695   5.993   3.364
 2797SOL     OW 9289   5.146   4.890   5.842
 2797SOL    HW1 9290   5.175   4.975   5.799
 2797SOL    HW2 9291   5.180   4.812   5.789
 2798SOL     OW 9292   6.460   5.714   2.683
 2798SOL    HW1 9293   6.483   5.685   2.590
 2798SOL    HW2 9294   6.388   5.783   2.679
 2799SOL     OW 9295   5.539   6.138   5.857
 2799SOL    HW1 9296   5.595   6.173   5.932
 2799SOL    HW2 9297   5.443   6.135   5.885
 2800SOL     OW 9298   5.852   6.200   5.603
 2800SOL    HW1 9299   5.785   6.135   5.567
 2800SOL    HW2 9300   5.805   6.270   5.657
 2801SOL     OW 9301   0.552   5.487   6.098
 2801SOL    HW1 9302   0.575   5.535   6.183
 2801SOL    HW2 9303   0.454   5.498   6.079
 2802SOL     OW 9304   5.624   6.895   5.583
 2802SOL    HW1 9305   5.535   6.850   5.587
 2802SOL    HW2 9306   5.648   6.913   5.487
 2803SOL     OW 9307   4.098   5.284   5.890
 2803SOL    HW1 9308   4.144   5.326   5.812
 2803SOL    HW2 9309   4.043   5.206   5.859
 2804SOL     OW 9310   0.603   3.837   5.110
 2804SOL    HW1 9311   0.642   3.781   5.037
 2804SOL    HW2 9312   0.676   3.888   5.155
 2805SOL     OW 9313   5.811   3.396   3.158
 2805SOL    HW1 9314   5.766   3.332   3.095
 2805SOL    HW2 9315   5.897   3.356   3.190
 2806SOL     OW 9316   2.303   4.075   6.004
 2806SOL    HW1 9317   2.262   4.006   5.944
 2806SOL    HW2 9318   2.328   4.033   6.091
 2807SOL     OW 9319   4.402   6.944   3.167
 2807SOL    HW1 9320   4.381   6.864   3.225
 2807SOL    HW2 9321   4.317   6.989   3.142
 2808SOL     OW 9322   6.546   5.167   1.142
 2808SOL    HW1 9323   6.554   5.188   1.240
 2808SOL    HW2 9324   6.479   5.095   1.129
 2809SOL     OW 9325   4.904   2.381   1.735
 2809SOL    HW1 9326   4.903   2.448   1.661
 2809SOL    HW2 9327   4.918   2.428   1.822
 2810SOL     OW 9328   2.675   6.067   2.752
 2810SOL    HW1 9329   2.646   6.126   2.828
 2810SOL    HW2 9330   2.677   5.972   2.783
 2811SOL     OW 9331   0.841   1.833   2.856
 2811SOL    HW1 9332   0.940   1.827   2.846
 2811SOL    HW2 9333   0.797   1.795   2.774
 2812SOL     OW 9334   6.152   3.458   0.576
 2812SOL    HW1 9335   6.145   3.550   0.615
 2812SOL    HW2 9336   6.082   3.447   0.506
 2813SOL     OW 9337   0.456   1.596   6.823
 2813SOL    HW1 9338   0.545   1.642   6.823
 2813SOL    HW2 9339   0.392   1.647   6.880
 2814SOL     OW 9340   3.287   4.181   5.669
 2814SOL    HW1 9341   3.365   4.167   5.609
 2814SOL    HW2 9342   3.255   4.092   5.703
 2815SOL     OW 9343   6.480   5.153   6.344
 2815SOL    HW1 9344   6.503   5.246   6.315
 2815SOL    HW2 9345   6.523   5.134   6.433
 2816SOL     OW 9346   6.295   6.352   4.131
 2816SOL    HW1 9347   6.304   6.448   4.158
 2816SOL    HW2 9348   6.301   6.293   4.212
 2817SOL     OW 9349   3.140   0.653   3.126
 2817SOL    HW1 9350   3.076   0.616   3.059
 2817SOL    HW2 9351   3.167   0.745   3.100
 2818SOL     OW 9352   0.145   1.213   2.335
 2818SOL    HW1 9353   0.107   1.306   2.335
 2818SOL    HW2 9354   0.080   1.151   2.379
 2819SOL     OW 9355   1.493   0.352   1.979
 2819SOL    HW1 9356   1.586   0.370   1.949
 2819SOL    HW2 9357   1.459   0.430   2.031
 2820SOL     OW 9358   1.489   1.922   2.436
 2820SOL    HW1 9359   1.425   1.979   2.385
 2820SOL    HW2 9360   1.582   1.946   2.410
 2821SOL     OW 9361   3.004   5.131   6.181
 2821SOL    HW1 9362   3.011   5.031   6.172
 2821SOL    HW2 9363   2.947   5.167   6.108
 2822SOL     OW 9364   4.685   1.832   0.222
 2822SOL    HW1 9365   4.695   1.893   0.143
 2822SOL    HW2 9366   4.588   1.822   0.245
 2823SOL     OW 9367   6.199   0.859   0.258
 2823SOL    HW1 9368   6.213   0.952   0.291
 2823SOL    HW2 9369   6.176   0.799   0.334
 2824SOL     OW 9370   2.302   1.856   5.457
 2824SOL    HW1 9371   2.379   1.880   5.515
 2824SOL    HW2 9372   2.335   1.808   5.376
 2825SOL     OW 9373   5.497   0.162   5.559
 2825SOL    HW1 9374   5.460   0.092   5.620
 2825SOL    HW2 9375   5.593   0.180   5.581
 2826SOL     OW 9376   3.863   2.479   6.395
 2826SOL    HW1 9377   3.811   2.437   6.470
 2826SOL    HW2 9378   3.935   2.537   6.434
 2827SOL     OW 9379   0.294   0.594   6.624
 2827SOL    HW1 9380   0.351   0.552   6.695
 2827SOL    HW2 9381   0.198   0.589   6.651
 2828SOL     OW 9382   2.132   2.910   0.435
 2828SOL    HW1 9383   2.047   2.933   0.387
 2828SOL    HW2 9384   2.172   2.828   0.394
 2829SOL     OW 9385   3.330   2.913   3.641
 2829SOL    HW1 9386   3.400   2.885   3.575
 2829SOL    HW2 9387   3.255   2.959   3.593
 2830SOL     OW 9388   3.295   4.142   5.356
 2830SOL    HW1 9389   3.226   4.177   5.420
 2830SOL    HW2 9390   3.377   4.115   5.406
 2831SOL     OW 9391   1.219   3.161   2.758
 2831SOL    HW1 9392   1.238   3.256   2.735
 2831SOL    HW2 9393   1.167   3.119   2.683
 2832SOL     OW 9394   0.739   2.735   1.440
 2832SOL    HW1 9395   0.734   2.644   1.480
 2832SOL    HW2 9396   0.834   2.765   1.434
 2833SOL     OW 9397   2.862   1.563   2.256
 2833SOL    HW1 9398   2.814   1.640   2.213
 2833SOL    HW2 9399   2.953   1.592   2.286
 2834SOL     OW 9400   4.181   6.371   4.266
 2834SOL    HW1 9401   4.174   6.460   4.312
 2834SOL    HW2 9402   4.091   6.327   4.266
 2835SOL     OW 9403   0.548   6.719   0.646
 2835SOL    HW1 9404   0.494   6.799   0.620
 2835SOL    HW2 9405   0.494   6.636   0.633
 2836SOL     OW 9406   1.304   6.471   1.450
 2836SOL    HW1 9407   1.239   6.471   1.526
 2836SOL    HW2 9408   1.265   6.524   1.374
 2837SOL     OW 9409   5.475   4.667   2.379
 2837SOL    HW1 9410   5.428   4.733   2.321
 2837SOL    HW2 9411   5.517   4.714   2.457
 2838SOL     OW 9412   4.864   3.400   1.145
 2838SOL    HW1 9413   4.853   3.409   1.244
 2838SOL    HW2 9414   4.960   3.416   1.121
 2839SOL     OW 9415   0.222   2.758   2.483
 2839SOL    HW1 9416   0.233   2.659   2.476
 2839SOL    HW2 9417   0.155   2.790   2.416
 2840SOL     OW 9418   1.602   6.043   2.149
 2840SOL    HW1 9419   1.600   5.980   2.227
 2840SOL    HW2 9420   1.577   6.134   2.180
 2841SOL     OW 9421   6.506   2.521   6.689
 2841SOL    HW1 9422   6.409   2.530   6.669
 2841SOL    HW2 9423   6.521   2.534   6.787
 2842SOL     OW 9424   0.637   5.512   4.711
 2842SOL    HW1 9425   0.717   5.479   4.761
 2842SOL    HW2 9426   0.574   5.557   4.775
 2843SOL     OW 9427   2.489   1.754   2.495
 2843SOL    HW1 9428   2.487   1.655   2.480
 2843SOL    HW2 9429   2.434   1.799   2.425
 2844SOL     OW 9430   6.114   5.306   0.807
 2844SOL    HW1 9431   6.212   5.305   0.789
 2844SOL    HW2 9432   6.074   5.390   0.772
 2845SOL     OW 9433   5.078   3.141   2.827
 2845SOL    HW1 9434   5.013   3.193   2.771
 2845SOL    HW2 9435   5.144   3.095   2.767
 2846SOL     OW 9436   3.581   0.340   0.666
 2846SOL    HW1 9437   3.597   0.258   0.721
 2846SOL    HW2 9438   3.572   0.314   0.570
 2847SOL     OW 9439   5.150   4.077   3.185
 2847SOL    HW1 9440   5.235   4.077   3.133
 2847SOL    HW2 9441   5.114   4.170   3.192
 2848SOL     OW 9442   2.621   2.860   5.812
 2848SOL    HW1 9443   2.588   2.775   5.852
 2848SOL    HW2 9444   2.559   2.935   5.838
 2849SOL     OW 9445   3.190   0.762   1.579
 2849SOL    HW1 9446   3.278   0.809   1.569
 2849SOL    HW2 9447   3.160   0.728   1.489
 2850SOL     OW 9448   2.098   6.988   3.237
 2850SOL    HW1 9449   2.113   6.890   3.226
 2850SOL    HW2 9450   2.026   7.018   3.175
 2851SOL     OW 9451   4.677   3.050   6.777
 2851SOL    HW1 9452   4.682   3.111   6.856
 2851SOL    HW2 9453   4.719   3.094   6.698
 2852SOL     OW 9454   6.170   4.499   6.515
 2852SOL    HW1 9455   6.241   4.519   6.583
 2852SOL    HW2 9456   6.156   4.400   6.510
 2853SOL     OW 9457   1.175   2.507   6.790
 2853SOL    HW1 9458   1.080   2.534   6.806
 2853SOL    HW2 9459   1.221   2.491   6.877
 2854SOL     OW 9460   3.819   0.333   5.703
 2854SOL    HW1 9461   3.782   0.273   5.774
 2854SOL    HW2 9462   3.910   0.365   5.730
 2855SOL     OW 9463   1.518   2.382   5.564
 2855SOL    HW1 9464   1.487   2.334   5.646
 2855SOL    HW2 9465   1.616   2.369   5.553
 2856SOL     OW 9466   1.371   2.962   4.199
 2856SOL    HW1 9467   1.442   3.016   4.154
 2856SOL    HW2 9468   1.343   2.886   4.139
 2857SOL     OW 9469   0.400   2.713   1.644
 2857SOL    HW1 9470   0.452   2.697   1.560
 2857SOL    HW2 9471   0.369   2.626   1.681
 2858SOL     OW 9472   5.125   5.245   2.073
 2858SOL    HW1 9473   5.131   5.331   2.022
 2858SOL    HW2 9474   5.212   5.196   2.066
 2859SOL     OW 9475   6.351   6.670   0.254
 2859SOL    HW1 9476   6.336   6.708   0.345
 2859SOL    HW2 9477   6.303   6.725   0.186
 2860SOL     OW 9478   2.406   0.770   2.741
 2860SOL    HW1 9479   2.413   0.821   2.655
 2860SOL    HW2 9480   2.323   0.714   2.740
 2861SOL     OW 9481   3.729   5.636   5.518
 2861SOL    HW1 9482   3.763   5.667   5.606
 2861SOL    HW2 9483   3.668   5.706   5.479
 2862SOL     OW 9484   4.280   2.314   1.989
 2862SOL    HW1 9485   4.294   2.410   2.016
 2862SOL    HW2 9486   4.247   2.311   1.895
 2863SOL     OW 9487   4.795   1.496   6.421
 2863SOL    HW1 9488   4.831   1.414   6.465
 2863SOL    HW2 9489   4.816   1.494   6.324
 2864SOL     OW 9490   4.611   2.613   0.882
 2864SOL    HW1 9491   4.587   2.531   0.933
 2864SOL    HW2 9492   4.550   2.623   0.804
 2865SOL     OW 9493   4.284   6.690   3.548
 2865SOL    HW1 9494   4.206   6.751   3.557
 2865SOL    HW2 9495   4.253   6.595   3.556
 2866SOL     OW 9496   5.649   4.087   0.293
 2866SOL    HW1 9497   5.619   4.018   0.227
 2866SOL    HW2 9498   5.667   4.043   0.382
 2867SOL     OW 9499   5.979   6.304   3.113
 2867SOL    HW1 9500   5.900   6.243   3.117
 2867SOL    HW2 9501   5.967   6.369   3.037
 2868SOL     OW 9502   1.150   1.280   5.287
 2868SOL    HW1 9503   1.177   1.195   5.242
 2868SOL    HW2 9504   1.096   1.259   5.368
 2869SOL     OW 9505   6.364   0.882   3.561
 2869SOL    HW1 9506   6.449   0.897   3.510
 2869SOL    HW2 9507   6.287   0.921   3.511
 2870SOL     OW 9508   0.672   1.412   6.252
 2870SOL    HW1 9509   0.732   1.491   6.266
 2870SOL    HW2 9510   0.609   1.404   6.329
 2871SOL     OW 9511   6.177   0.653   0.437
 2871SOL    HW1 9512   6.191   0.554   0.442
 2871SOL    HW2 9513   6.124   0.684   0.516
 2872SOL     OW 9514   2.597   2.039   0.999
 2872SOL    HW1 9515   2.649   1.997   0.925
 2872SOL    HW2 9516   2.646   2.119   1.033
 2873SOL     OW 9517   6.909   7.001   2.533
 2873SOL    HW1 9518   6.939   0.043   2.601
 2873SOL    HW2 9519   6.989   6.968   2.482
 2874SOL     OW 9520   3.826   6.406   2.613
 2874SOL    HW1 9521   3.773   6.439   2.534
 2874SOL    HW2 9522   3.875   6.482   2.654
 2875SOL     OW 9523   4.462   0.238   2.236
 2875SOL    HW1 9524   4.405   0.235   2.154
 2875SOL    HW2 9525   4.421   0.182   2.308
 2876SOL     OW 9526   1.652   0.212   2.896
 2876SOL    HW1 9527   1.721   0.284   2.897
 2876SOL    HW2 9528   1.562   0.251   2.915
 2877SOL     OW 9529   2.537   1.000   6.212
 2877SOL    HW1 9530   2.633   1.010   6.184
 2877SOL    HW2 9531   2.525   1.038   6.303
 2878SOL     OW 9532   2.959   3.708   5.116
 2878SOL    HW1 9533   2.958   3.779   5.046
 2878SOL    HW2 9534   3.052   3.697   5.152
 2879SOL     OW 9535   5.444   5.487   5.526
 2879SOL    HW1 9536   5.439   5.492   5.427
 2879SOL    HW2 9537   5.469   5.577   5.563
 2880SOL     OW 9538   0.465   1.202   3.483
 2880SOL    HW1 9539   0.368   1.189   3.459
 2880SOL    HW2 9540   0.475   1.195   3.583
 2881SOL     OW 9541   3.458   5.705   0.145
 2881SOL    HW1 9542   3.499   5.700   0.054
 2881SOL    HW2 9543   3.364   5.736   0.138
 2882SOL     OW 9544   6.884   5.492   1.305
 2882SOL    HW1 9545   6.976   5.531   1.306
 2882SOL    HW2 9546   6.816   5.565   1.308
 2883SOL     OW 9547   5.565   0.102   3.575
 2883SOL    HW1 9548   5.607   0.013   3.589
 2883SOL    HW2 9549   5.613   0.151   3.502
 2884SOL     OW 9550   0.414   6.035   2.652
 2884SOL    HW1 9551   0.352   6.112   2.672
 2884SOL    HW2 9552   0.490   6.037   2.717
 2885SOL     OW 9553   1.766   2.239   4.585
 2885SOL    HW1 9554   1.795   2.211   4.677
 2885SOL    HW2 9555   1.680   2.195   4.562
 2886SOL     OW 9556   1.800   3.721   6.392
 2886SOL    HW1 9557   1.892   3.693   6.364
 2886SOL    HW2 9558   1.777   3.677   6.478
 2887SOL     OW 9559   0.543   6.279   4.909
 2887SOL    HW1 9560   0.460   6.244   4.951
 2887SOL    HW2 9561   0.622   6.230   4.946
 2888SOL     OW 9562   0.061   4.498   0.035
 2888SOL    HW1 9563   0.066   4.505   6.961
 2888SOL    HW2 9564   0.004   4.572   0.071
 2889SOL     OW 9565   3.198   6.019   2.757
 2889SOL    HW1 9566   3.141   6.098   2.735
 2889SOL    HW2 9567   3.252   6.039   2.840
 2890SOL     OW 9568   1.454   6.161   0.856
 2890SOL    HW1 9569   1.419   6.235   0.798
 2890SOL    HW2 9570   1.553   6.167   0.863
 2891SOL     OW 9571   0.971   3.611   3.387
 2891SOL    HW1 9572   0.908   3.537   3.360
 2891SOL    HW2 9573   0.955   3.636   3.482
 2892SOL     OW 9574   6.172   2.850   1.536
 2892SOL    HW1 9575   6.108   2.801   1.475
 2892SOL    HW2 9576   6.251   2.879   1.483
 2893SOL     OW 9577   0.911   4.879   4.069
 2893SOL    HW1 9578   1.005   4.905   4.049
 2893SOL    HW2 9579   0.868   4.948   4.127
 2894SOL     OW 9580   1.460   3.599   1.318
 2894SOL    HW1 9581   1.516   3.593   1.401
 2894SOL    HW2 9582   1.460   3.510   1.271
 2895SOL     OW 9583   5.101   0.602   6.002
 2895SOL    HW1 9584   5.173   0.671   5.995
 2895SOL    HW2 9585   5.139   0.511   5.982
 2896SOL     OW 9586   4.050   0.131   5.159
 2896SOL    HW1 9587   4.100   0.103   5.077
 2896SOL    HW2 9588   4.013   0.223   5.146
 2897SOL     OW 9589   4.066   4.791   2.349
 2897SOL    HW1 9590   3.971   4.814   2.329
 2897SOL    HW2 9591   4.075   4.766   2.446
 2898SOL     OW 9592   4.404   4.652   4.173
 2898SOL    HW1 9593   4.459   4.713   4.231
 2898SOL    HW2 9594   4.320   4.698   4.147
 2899SOL     OW 9595   0.008   1.700   0.291
 2899SOL    HW1 9596   6.977   1.706   0.373
 2899SOL    HW2 9597   0.075   1.626   0.302
 2900SOL     OW 9598   3.579   4.616   6.840
 2900SOL    HW1 9599   3.493   4.597   6.794
 2900SOL    HW2 9600   3.569   4.597   6.938
 2901SOL     OW 9601   1.951   4.713   3.474
 2901SOL    HW1 9602   1.888   4.733   3.400
 2901SOL    HW2 9603   1.900   4.679   3.553
 2902SOL     OW 9604   6.419   5.107   3.269
 2902SOL    HW1 9605   6.378   5.115   3.178
 2902SOL    HW2 9606   6.381   5.027   3.315
 2903SOL     OW 9607   4.114   6.448   0.615
 2903SOL    HW1 9608   4.033   6.396   0.641
 2903SOL    HW2 9609   4.086   6.531   0.567
 2904SOL     OW 9610   2.810   5.215   5.202
 2904SOL    HW1 9611   2.784   5.235   5.296
 2904SOL    HW2 9612   2.867   5.132   5.200
 2905SOL     OW 9613   1.167   3.680   4.073
 2905SOL    HW1 9614   1.111   3.653   4.151
 2905SOL    HW2 9615   1.111   3.731   4.007
 2906SOL     OW 9616   5.058   5.714   2.763
 2906SOL    HW1 9617   5.101   5.805   2.766
 2906SOL    HW2 9618   4.995   5.711   2.685
 2907SOL     OW 9619   0.595   1.803   3.756
 2907SOL    HW1 9620   0.576   1.705   3.751
 2907SOL    HW2 9621   0.587   1.843   3.664
 2908SOL     OW 9622   5.331   6.457   3.229
 2908SOL    HW1 9623   5.415   6.453   3.175
 2908SOL    HW2 9624   5.296   6.550   3.229
 2909SOL     OW 9625   2.347   5.747   3.940
 2909SOL    HW1 9626   2.353   5.817   4.012
 2909SOL    HW2 9627   2.262   5.696   3.951
 2910SOL     OW 9628   6.064   0.265   3.951
 2910SOL    HW1 9629   5.985   0.206   3.936
 2910SOL    HW2 9630   6.048   0.323   4.031
 2911SOL     OW 9631   1.756   4.981   3.710
 2911SOL    HW1 9632   1.834   5.022   3.661
 2911SOL    HW2 9633   1.672   5.029   3.684
 2912SOL     OW 9634   6.524   6.504   0.126
 2912SOL    HW1 9635   6.598   6.495   0.192
 2912SOL    HW2 9636   6.466   6.582   0.150
 2913SOL     OW 9637   3.567   5.122   1.966
 2913SOL    HW1 9638   3.540   5.135   1.870
 2913SOL    HW2 9639   3.640   5.054   1.971
 2914SOL     OW 9640   5.837   6.071   0.464
 2914SOL    HW1 9641   5.936   6.085   0.459
 2914SOL    HW2 9642   5.797   6.081   0.373
 2915SOL     OW 9643   2.941   1.903   3.440
 2915SOL    HW1 9644   2.999   1.836   3.485
 2915SOL    HW2 9645   2.956   1.899   3.341
 2916SOL     OW 9646   0.857   5.365   0.300
 2916SOL    HW1 9647   0.908   5.445   0.268
 2916SOL    HW2 9648   0.896   5.282   0.260
 2917SOL     OW 9649   2.781   0.256   4.641
 2917SOL    HW1 9650   2.687   0.286   4.659
 2917SOL    HW2 9651   2.818   0.309   4.564
 2918SOL     OW 9652   6.180   4.102   5.532
 2918SOL    HW1 9653   6.141   4.131   5.620
 2918SOL    HW2 9654   6.277   4.083   5.544
 2919SOL     OW 9655   6.304   0.745   3.190
 2919SOL    HW1 9656   6.346   0.669   3.140
 2919SOL    HW2 9657   6.234   0.710   3.252
 2920SOL     OW 9658   3.395   0.245   1.546
 2920SOL    HW1 9659   3.452   0.226   1.466
 2920SOL    HW2 9660   3.439   0.207   1.627
 2921SOL     OW 9661   0.491   0.267   5.444
 2921SOL    HW1 9662   0.566   0.309   5.495
 2921SOL    HW2 9663   0.527   0.223   5.362
 2922SOL     OW 9664   4.559   6.524   1.553
 2922SOL    HW1 9665   4.583   6.606   1.605
 2922SOL    HW2 9666   4.526   6.550   1.462
 2923SOL     OW 9667   6.896   5.584   4.308
 2923SOL    HW1 9668   6.954   5.606   4.229
 2923SOL    HW2 9669   6.863   5.668   4.351
 2924SOL     OW 9670   7.010   2.433   5.262
 2924SOL    HW1 9671   0.026   2.465   5.177
 2924SOL    HW2 9672   6.916   2.403   5.244
 2925SOL     OW 9673   6.014   2.382   0.778
 2925SOL    HW1 9674   5.982   2.293   0.811
 2925SOL    HW2 9675   5.938   2.433   0.738
 2926SOL     OW 9676   5.483   1.988   6.421
 2926SOL    HW1 9677   5.464   2.034   6.334
 2926SOL    HW2 9678   5.499   1.891   6.404
 2927SOL     OW 9679   1.947   3.787   1.151
 2927SOL    HW1 9680   1.930   3.694   1.185
 2927SOL    HW2 9681   1.862   3.840   1.157
 2928SOL     OW 9682   0.184   0.559   0.148
 2928SOL    HW1 9683   0.091   0.587   0.127
 2928SOL    HW2 9684   0.247   0.633   0.125
 2929SOL     OW 9685   1.573   2.859   5.631
 2929SOL    HW1 9686   1.489   2.914   5.627
 2929SOL    HW2 9687   1.583   2.807   5.547
 2930SOL     OW 9688   5.423   6.648   5.243
 2930SOL    HW1 9689   5.480   6.568   5.263
 2930SOL    HW2 9690   5.423   6.710   5.322
 2931SOL     OW 9691   5.066   5.310   6.798
 2931SOL    HW1 9692   5.158   5.288   6.764
 2931SOL    HW2 9693   5.053   5.268   6.888
 2932SOL     OW 9694   0.789   5.720   1.803
 2932SOL    HW1 9695   0.821   5.636   1.759
 2932SOL    HW2 9696   0.774   5.703   1.901
 2933SOL     OW 9697   1.855   6.628   2.154
 2933SOL    HW1 9698   1.783   6.559   2.143
 2933SOL    HW2 9699   1.834   6.707   2.097
 2934SOL     OW 9700   5.698   2.474   0.329
 2934SOL    HW1 9701   5.675   2.570   0.347
 2934SOL    HW2 9702   5.794   2.457   0.352
 2935SOL     OW 9703   6.696   2.373   5.845
 2935SOL    HW1 9704   6.745   2.321   5.775
 2935SOL    HW2 9705   6.761   2.411   5.910
 2936SOL     OW 9706   4.543   6.086   0.510
 2936SOL    HW1 9707   4.619   6.100   0.446
 2936SOL    HW2 9708   4.538   6.163   0.573
 2937SOL     OW 9709   5.492   4.870   1.206
 2937SOL    HW1 9710   5.574   4.897   1.256
 2937SOL    HW2 9711   5.466   4.944   1.144
 2938SOL     OW 9712   5.967   4.560   0.267
 2938SOL    HW1 9713   5.917   4.526   0.187
 2938SOL    HW2 9714   6.061   4.525   0.265
 2939SOL     OW 9715   1.912   0.753   1.328
 2939SOL    HW1 9716   1.913   0.852   1.316
 2939SOL    HW2 9717   1.975   0.727   1.401
 2940SOL     OW 9718   5.355   5.207   5.438
 2940SOL    HW1 9719   5.293   5.234   5.365
 2940SOL    HW2 9720   5.374   5.286   5.497
 2941SOL     OW 9721   1.612   2.068   3.875
 2941SOL    HW1 9722   1.582   1.989   3.928
 2941SOL    HW2 9723   1.635   2.143   3.937
 2942SOL     OW 9724   4.028   1.602   1.109
 2942SOL    HW1 9725   4.097   1.614   1.180
 2942SOL    HW2 9726   4.041   1.671   1.038
 2943SOL     OW 9727   5.594   3.961   3.780
 2943SOL    HW1 9728   5.545   4.002   3.856
 2943SOL    HW2 9729   5.530   3.936   3.708
 2944SOL     OW 9730   2.810   6.320   3.974
 2944SOL    HW1 9731   2.711   6.320   3.962
 2944SOL    HW2 9732   2.838   6.236   4.020
 2945SOL     OW 9733   4.491   2.626   1.633
 2945SOL    HW1 9734   4.533   2.699   1.688
 2945SOL    HW2 9735   4.557   2.592   1.567
 2946SOL     OW 9736   1.920   4.881   6.027
 2946SOL    HW1 9737   1.832   4.841   6.052
 2946SOL    HW2 9738   1.936   4.868   5.929
 2947SOL     OW 9739   1.195   5.756   1.379
 2947SOL    HW1 9740   1.100   5.729   1.392
 2947SOL    HW2 9741   1.242   5.754   1.467
 2948SOL     OW 9742   6.947   4.374   4.759
 2948SOL    HW1 9743   7.012   4.383   4.835
 2948SOL    HW2 9744   6.967   4.290   4.708
 2949SOL     OW 9745   0.839   5.553   0.914
 2949SOL    HW1 9746   0.825   5.456   0.892
 2949SOL    HW2 9747   0.789   5.610   0.850
 2950SOL     OW 9748   5.955   5.977   4.577
 2950SOL    HW1 9749   5.860   5.997   4.553
 2950SOL    HW2 9750   5.999   5.930   4.502
 2951SOL     OW 9751   5.659   2.041   1.842
 2951SOL    HW1 9752   5.752   2.076   1.836
 2951SOL    HW2 9753   5.657   1.962   1.904
 2952SOL     OW 9754   0.044   6.318   5.842
 2952SOL    HW1 9755   0.060   6.220   5.858
 2952SOL    HW2 9756   0.112   6.371   5.891
 2953SOL     OW 9757   6.558   4.369   3.089
 2953SOL    HW1 9758   6.525   4.428   3.016
 2953SOL    HW2 9759   6.512   4.392   3.175
 2954SOL     OW 9760   0.964   4.833   1.480
 2954SOL    HW1 9761   0.940   4.867   1.571
 2954SOL    HW2 9762   0.889   4.780   1.443
 2955SOL     OW 9763   0.867   4.197   0.785
 2955SOL    HW1 9764   0.778   4.211   0.827
 2955SOL    HW2 9765   0.930   4.158   0.852
 2956SOL     OW 9766   6.100   5.557   3.033
 2956SOL    HW1 9767   6.079   5.655   3.030
 2956SOL    HW2 9768   6.180   5.539   2.975
 2957SOL     OW 9769   4.990   4.526   1.581
 2957SOL    HW1 9770   5.074   4.566   1.616
 2957SOL    HW2 9771   4.999   4.426   1.578
 2958SOL     OW 9772   2.055   4.399   3.308
 2958SOL    HW1 9773   2.150   4.403   3.339
 2958SOL    HW2 9774   2.025   4.304   3.302
 2959SOL     OW 9775   5.316   3.388   2.053
 2959SOL    HW1 9776   5.379   3.370   2.128
 2959SOL    HW2 9777   5.275   3.302   2.023
 2960SOL     OW 9778   3.290   0.186   6.695
 2960SOL    HW1 9779   3.205   0.145   6.728
 2960SOL    HW2 9780   3.333   0.125   6.628
 2961SOL     OW 9781   5.707   4.724   3.205
 2961SOL    HW1 9782   5.621   4.755   3.164
 2961SOL    HW2 9783   5.735   4.787   3.277
 2962SOL     OW 9784   4.498   5.962   3.478
 2962SOL    HW1 9785   4.557   6.038   3.504
 2962SOL    HW2 9786   4.537   5.876   3.511
 2963SOL     OW 9787   0.794   0.886   0.128
 2963SOL    HW1 9788   0.780   0.951   0.054
 2963SOL    HW2 9789   0.809   0.936   0.214
 2964SOL     OW 9790   0.482   1.715   5.584
 2964SOL    HW1 9791   0.523   1.638   5.634
 2964SOL    HW2 9792   0.399   1.683   5.537
 2965SOL     OW 9793   0.360   1.031   4.888
 2965SOL    HW1 9794   0.455   1.040   4.919
 2965SOL    HW2 9795   0.359   0.988   4.798
 2966SOL     OW 9796   4.949   5.195   2.842
 2966SOL    HW1 9797   5.039   5.166   2.874
 2966SOL    HW2 9798   4.901   5.242   2.916
 2967SOL     OW 9799   6.060   1.142   5.855
 2967SOL    HW1 9800   6.129   1.125   5.926
 2967SOL    HW2 9801   5.970   1.153   5.897
 2968SOL     OW 9802   0.579   2.458   0.522
 2968SOL    HW1 9803   0.631   2.441   0.606
 2968SOL    HW2 9804   0.640   2.449   0.443
 2969SOL     OW 9805   4.682   2.700   4.196
 2969SOL    HW1 9806   4.616   2.634   4.160
 2969SOL    HW2 9807   4.775   2.665   4.183
 2970SOL     OW 9808   2.654   3.118   5.379
 2970SOL    HW1 9809   2.608   3.066   5.307
 2970SOL    HW2 9810   2.655   3.064   5.464
 2971SOL     OW 9811   5.057   3.541   0.935
 2971SOL    HW1 9812   5.126   3.595   0.887
 2971SOL    HW2 9813   4.971   3.544   0.884
 2972SOL     OW 9814   6.350   5.128   6.703
 2972SOL    HW1 9815   6.378   5.210   6.754
 2972SOL    HW2 9816   6.269   5.088   6.745
 2973SOL     OW 9817   5.278   6.235   2.164
 2973SOL    HW1 9818   5.305   6.180   2.243
 2973SOL    HW2 9819   5.312   6.328   2.175
 2974SOL     OW 9820   0.072   4.475   3.819
 2974SOL    HW1 9821   0.163   4.433   3.827
 2974SOL    HW2 9822   0.048   4.483   3.723
 2975SOL     OW 9823   4.726   4.617   4.138
 2975SOL    HW1 9824   4.678   4.534   4.110
 2975SOL    HW2 9825   4.751   4.610   4.234
 2976SOL     OW 9826   4.836   2.151   2.401
 2976SOL    HW1 9827   4.884   2.110   2.324
 2976SOL    HW2 9828   4.808   2.244   2.378
 2977SOL     OW 9829   0.928   0.635   2.585
 2977SOL    HW1 9830   0.971   0.715   2.625
 2977SOL    HW2 9831   0.999   0.577   2.543
 2978SOL     OW 9832   3.784   4.524   0.114
 2978SOL    HW1 9833   3.706   4.585   0.099
 2978SOL    HW2 9834   3.868   4.568   0.081
 2979SOL     OW 9835   3.276   1.447   4.022
 2979SOL    HW1 9836   3.266   1.473   4.118
 2979SOL    HW2 9837   3.301   1.527   3.968
 2980SOL     OW 9838   2.034   5.468   5.559
 2980SOL    HW1 9839   2.018   5.401   5.632
 2980SOL    HW2 9840   2.034   5.560   5.598
 2981SOL     OW 9841   2.433   0.711   6.927
 2981SOL    HW1 9842   2.404   0.723   7.023
 2981SOL    HW2 9843   2.439   0.613   6.907
 2982SOL     OW 9844   2.768   6.348   1.274
 2982SOL    HW1 9845   2.722   6.348   1.363
 2982SOL    HW2 9846   2.742   6.265   1.224
 2983SOL     OW 9847   6.564   2.281   1.950
 2983SOL    HW1 9848   6.485   2.330   1.987
 2983SOL    HW2 9849   6.648   2.329   1.973
 2984SOL     OW 9850   6.073   5.015   0.057
 2984SOL    HW1 9851   6.099   5.110   0.076
 2984SOL    HW2 9852   5.987   4.994   0.103
 2985SOL     OW 9853   2.080   1.684   4.491
 2985SOL    HW1 9854   2.065   1.615   4.562
 2985SOL    HW2 9855   2.168   1.729   4.506
 2986SOL     OW 9856   3.667   4.130   2.440
 2986SOL    HW1 9857   3.637   4.054   2.498
 2986SOL    HW2 9858   3.667   4.215   2.494
 2987SOL     OW 9859   1.436   1.083   4.679
 2987SOL    HW1 9860   1.355   1.087   4.621
 2987SOL    HW2 9861   1.444   1.167   4.732
 2988SOL     OW 9862   1.734   0.116   2.558
 2988SOL    HW1 9863   1.662   0.135   2.625
 2988SOL    HW2 9864   1.738   0.017   2.543
 2989SOL     OW 9865   4.964   4.926   5.505
 2989SOL    HW1 9866   4.989   5.016   5.541
 2989SOL    HW2 9867   5.042   4.864   5.514
 2990SOL     OW 9868   4.405   2.066   4.147
 2990SOL    HW1 9869   4.387   1.982   4.198
 2990SOL    HW2 9870   4.323   2.123   4.147
 2991SOL     OW 9871   6.376   3.033   6.174
 2991SOL    HW1 9872   6.336   3.031   6.083
 2991SOL    HW2 9873   6.450   3.100   6.177
 2992SOL     OW 9874   1.169   4.990   4.306
 2992SOL    HW1 9875   1.194   5.021   4.398
 2992SOL    HW2 9876   1.111   5.059   4.262
 2993SOL     OW 9877   1.107   5.028   1.299
 2993SOL    HW1 9878   1.047   4.986   1.367
 2993SOL    HW2 9879   1.086   4.991   1.208
 2994SOL     OW 9880   4.456   6.386   0.191
 2994SOL    HW1 9881   4.396   6.385   0.271
 2994SOL    HW2 9882   4.415   6.331   0.118
 2995SOL     OW 9883   4.034   0.792   6.726
 2995SOL    HW1 9884   4.085   0.743   6.797
 2995SOL    HW2 9885   4.016   0.885   6.755
 2996SOL     OW 9886   0.587   1.441   5.320
 2996SOL    HW1 9887   0.579   1.540   5.318
 2996SOL    HW2 9888   0.684   1.415   5.328
 2997SOL     OW 9889   4.751   0.311   2.987
 2997SOL    HW1 9890   4.786   0.278   3.075
 2997SOL    HW2 9891   4.827   0.348   2.933
 2998SOL     OW 9892   4.718   6.643   3.296
 2998SOL    HW1 9893   4.727   6.741   3.316
 2998SOL    HW2 9894   4.804   6.609   3.259
 2999SOL     OW 9895   2.389   5.008   5.399
 2999SOL    HW1 9896   2.442   5.031   5.317
 2999SOL    HW2 9897   2.437   5.040   5.480
 3000SOL     OW 9898   3.307   4.043   6.170
 3000SOL    HW1 9899   3.328   4.045   6.073
 3000SOL    HW2 9900   3.208   4.049   6.183
 3001SOL     OW 9901   6.398   1.810   6.586
 3001SOL    HW1 9902   6.359   1.892   6.547
 3001SOL    HW2 9903   6.348   1.784   6.669
 3002SOL     OW 9904   3.661   2.743   0.312
 3002SOL    HW1 9905   3.641   2.678   0.385
 3002SOL    HW2 9906   3.697   2.694   0.233
 3003SOL     OW 9907   0.811   6.636   0.572
 3003SOL    HW1 9908   0.818   6.585   0.487
 3003SOL    HW2 9909   0.715   6.655   0.592
 3004SOL     OW 9910   1.312   4.196   2.590
 3004SOL    HW1 9911   1.361   4.282   2.571
 3004SOL    HW2 9912   1.222   4.217   2.628
 3005SOL     OW 9913   1.652   2.265   0.355
 3005SOL    HW1 9914   1.594   2.228   0.428
 3005SOL    HW2 9915   1.721   2.326   0.395
 3006SOL     OW 9916   5.473   2.265   4.991
 3006SOL    HW1 9917   5.485   2.195   4.920
 3006SOL    HW2 9918   5.448   2.352   4.948
 3007SOL     OW 9919   5.303   4.486   1.075
 3007SOL    HW1 9920   5.300   4.586   1.082
 3007SOL    HW2 9921   5.319   4.446   1.165
 3008SOL     OW 9922   3.249   2.512   6.641
 3008SOL    HW1 9923   3.235   2.610   6.633
 3008SOL    HW2 9924   3.161   2.465   6.631
 3009SOL     OW 9925   6.516   2.713   2.590
 3009SOL    HW1 9926   6.551   2.632   2.638
 3009SOL    HW2 9927   6.486   2.781   2.658
 3010SOL     OW 9928   2.924   5.753   4.028
 3010SOL    HW1 9929   3.007   5.712   4.065
 3010SOL    HW2 9930   2.923   5.851   4.047
 3011SOL     OW 9931   5.843   0.872   2.214
 3011SOL    HW1 9932   5.803   0.784   2.190
 3011SOL    HW2 9933   5.889   0.866   2.302
 3012SOL     OW 9934   2.253   2.926   0.077
 3012SOL    HW1 9935   2.185   2.879   0.021
 3012SOL    HW2 9936   2.344   2.887   0.059
 3013SOL     OW 9937   5.649   5.425   3.928
 3013SOL    HW1 9938   5.690   5.335   3.946
 3013SOL    HW2 9939   5.559   5.429   3.971
 3014SOL     OW 9940   4.660   2.143   5.473
 3014SOL    HW1 9941   4.610   2.148   5.386
 3014SOL    HW2 9942   4.683   2.048   5.492
 3015SOL     OW 9943   1.606   1.831   0.148
 3015SOL    HW1 9944   1.589   1.745   0.101
 3015SOL    HW2 9945   1.688   1.821   0.205
 3016SOL     OW 9946   3.460   6.602   4.430
 3016SOL    HW1 9947   3.460   6.509   4.394
 3016SOL    HW2 9948   3.464   6.600   4.530
 3017SOL     OW 9949   6.256   5.846   2.315
 3017SOL    HW1 9950   6.321   5.817   2.244
 3017SOL    HW2 9951   6.222   5.766   2.363
 3018SOL     OW 9952   2.959   0.174   6.488
 3018SOL    HW1 9953   2.896   0.140   6.418
 3018SOL    HW2 9954   2.965   0.108   6.563
 3019SOL     OW 9955   0.428   0.136   6.724
 3019SOL    HW1 9956   0.480   0.206   6.772
 3019SOL    HW2 9957   0.334   0.168   6.711
 3020SOL     OW 9958   4.074   3.073   0.818
 3020SOL    HW1 9959   4.123   3.138   0.760
 3020SOL    HW2 9960   4.140   3.013   0.863
 3021SOL     OW 9961   2.844   0.498   5.050
 3021SOL    HW1 9962   2.816   0.439   5.125
 3021SOL    HW2 9963   2.764   0.545   5.013
 3022SOL     OW 9964   4.277   4.970   4.408
 3022SOL    HW1 9965   4.341   4.966   4.485
 3022SOL    HW2 9966   4.184   4.951   4.441
 3023SOL     OW 9967   4.316   6.441   3.103
 3023SOL    HW1 9968   4.414   6.460   3.102
 3023SOL    HW2 9969   4.299   6.356   3.154
 3024SOL     OW 9970   5.942   6.275   4.699
 3024SOL    HW1 9971   5.896   6.269   4.788
 3024SOL    HW2 9972   5.889   6.224   4.631
 3025SOL     OW 9973   4.428   6.085   1.901
 3025SOL    HW1 9974   4.504   6.149   1.914
 3025SOL    HW2 9975   4.345   6.136   1.878
 3026SOL     OW 9976   0.163   1.251   6.054
 3026SOL    HW1 9977   0.236   1.293   6.001
 3026SOL    HW2 9978   0.152   1.155   6.028
 3027SOL     OW 9979   3.837   1.951   2.770
 3027SOL    HW1 9980   3.893   1.907   2.700
 3027SOL    HW2 9981   3.804   1.882   2.835
 3028SOL     OW 9982   1.723   3.725   5.379
 3028SOL    HW1 9983   1.674   3.663   5.318
 3028SOL    HW2 9984   1.690   3.712   5.473
 3029SOL     OW 9985   1.319   3.147   4.522
 3029SOL    HW1 9986   1.301   3.067   4.579
 3029SOL    HW2 9987   1.411   3.142   4.485
 3030SOL     OW 9988   1.169   3.191   0.913
 3030SOL    HW1 9989   1.193   3.278   0.871
 3030SOL    HW2 9990   1.247   3.156   0.964
 3031SOL     OW 9991   0.442   4.861   0.993
 3031SOL    HW1 9992   0.513   4.827   0.931
 3031SOL    HW2 9993   0.463   4.832   1.086
 3032SOL     OW 9994   2.119   6.954   1.375
 3032SOL    HW1 9995   2.148   0.024   1.387
 3032SOL    HW2 9996   2.039   6.951   1.315
 3033SOL     OW 9997   5.534   0.856   2.358
 3033SOL    HW1 9998   5.487   0.846   2.271
 3033SOL    HW2 9999   5.572   0.948   2.366
 3034SOL     OW10000   0.690   6.893   3.347
 3034SOL    HW110001   0.728   6.978   3.311
 3034SOL    HW210002   0.605   6.913   3.396
 3035SOL     OW10003   0.733   3.052   5.996
 3035SOL    HW110004   0.659   3.117   6.013
 3035SOL    HW210005   0.820   3.100   5.995
 3036SOL     OW10006   1.509   2.002   5.261
 3036SOL    HW110007   1.579   1.949   5.213
 3036SOL    HW210008   1.544   2.032   5.349
 3037SOL     OW10009   6.087   5.126   5.736
 3037SOL    HW110010   6.126   5.036   5.717
 3037SOL    HW210011   6.160   5.190   5.758
 3038SOL     OW10012   4.834   4.918   5.263
 3038SOL    HW110013   4.860   4.927   5.359
 3038SOL    HW210014   4.908   4.873   5.213
 3039SOL     OW10015   0.723   3.012   0.685
 3039SOL    HW110016   0.631   3.004   0.722
 3039SOL    HW210017   0.747   2.929   0.635
 3040SOL     OW10018   3.554   4.605   5.632
 3040SOL    HW110019   3.467   4.574   5.670
 3040SOL    HW210020   3.550   4.603   5.532
 3041SOL     OW10021   2.237   4.563   5.281
 3041SOL    HW110022   2.250   4.526   5.189
 3041SOL    HW210023   2.284   4.650   5.288
 3042SOL     OW10024   5.911   6.519   2.946
 3042SOL    HW110025   5.914   6.609   2.991
 3042SOL    HW210026   5.817   6.499   2.919
 3043SOL     OW10027   3.140   4.059   1.804
 3043SOL    HW110028   3.179   4.037   1.894
 3043SOL    HW210029   3.165   4.152   1.778
 3044SOL     OW10030   3.257   5.874   5.537
 3044SOL    HW110031   3.183   5.862   5.470
 3044SOL    HW210032   3.338   5.911   5.491
 3045SOL     OW10033   4.953   6.607   3.166
 3045SOL    HW110034   5.031   6.622   3.227
 3045SOL    HW210035   4.980   6.628   3.072
 3046SOL     OW10036   3.684   0.384   6.643
 3046SOL    HW110037   3.756   0.384   6.574
 3046SOL    HW210038   3.702   0.456   6.710
 3047SOL     OW10039   6.022   0.484   1.664
 3047SOL    HW110040   6.056   0.558   1.607
 3047SOL    HW210041   5.923   0.475   1.652
 3048SOL     OW10042   4.384   2.283   0.667
 3048SOL    HW110043   4.419   2.264   0.758
 3048SOL    HW210044   4.453   2.260   0.598
 3049SOL     OW10045   1.388   0.206   3.232
 3049SOL    HW110046   1.461   0.138   3.244
 3049SOL    HW210047   1.299   0.163   3.248
 3050SOL     OW10048   3.328   1.838   1.665
 3050SOL    HW110049   3.247   1.779   1.662
 3050SOL    HW210050   3.309   1.917   1.724
 3051SOL     OW10051   1.961   6.835   0.017
 3051SOL    HW110052   1.922   6.838   6.951
 3051SOL    HW210053   2.003   6.746   0.032
 3052SOL     OW10054   5.203   5.651   2.206
 3052SOL    HW110055   5.126   5.637   2.144
 3052SOL    HW210056   5.243   5.741   2.190
 3053SOL     OW10057   6.838   3.653   1.276
 3053SOL    HW110058   6.923   3.644   1.327
 3053SOL    HW210059   6.761   3.651   1.339
 3054SOL     OW10060   5.900   2.227   1.853
 3054SOL    HW110061   5.966   2.157   1.827
 3054SOL    HW210062   5.948   2.307   1.890
 3055SOL     OW10063   5.059   0.066   5.264
 3055SOL    HW110064   5.063   0.030   5.171
 3055SOL    HW210065   4.964   0.082   5.290
 3056SOL     OW10066   6.408   1.112   5.736
 3056SOL    HW110067   6.338   1.143   5.671
 3056SOL    HW210068   6.407   1.012   5.740
 3057SOL     OW10069   4.330   4.906   4.041
 3057SOL    HW110070   4.421   4.910   4.000
 3057SOL    HW210071   4.327   4.963   4.123
 3058SOL     OW10072   6.705   4.265   0.959
 3058SOL    HW110073   6.701   4.358   0.997
 3058SOL    HW210074   6.683   4.268   0.862
 3059SOL     OW10075   2.779   1.223   4.002
 3059SOL    HW110076   2.879   1.214   4.001
 3059SOL    HW210077   2.738   1.139   4.037
 3060SOL     OW10078   1.785   5.426   0.487
 3060SOL    HW110079   1.812   5.513   0.446
 3060SOL    HW210080   1.856   5.395   0.550
 3061SOL     OW10081   6.152   5.914   5.438
 3061SOL    HW110082   6.147   5.993   5.500
 3061SOL    HW210083   6.247   5.882   5.433
 3062SOL     OW10084   1.851   6.893   1.203
 3062SOL    HW110085   1.786   6.956   1.161
 3062SOL    HW210086   1.861   6.812   1.145
 3063SOL     OW10087   2.332   4.583   1.117
 3063SOL    HW110088   2.336   4.554   1.212
 3063SOL    HW210089   2.385   4.519   1.060
 3064SOL     OW10090   5.239   3.452   0.634
 3064SOL    HW110091   5.196   3.399   0.561
 3064SOL    HW210092   5.329   3.414   0.655
 3065SOL     OW10093   1.631   2.459   6.301
 3065SOL    HW110094   1.590   2.498   6.383
 3065SOL    HW210095   1.559   2.430   6.238
 3066SOL     OW10096   5.356   5.270   0.655
 3066SOL    HW110097   5.436   5.326   0.674
 3066SOL    HW210098   5.328   5.222   0.739
 3067SOL     OW10099   3.783   0.749   6.625
 3067SOL    HW110100   3.879   0.767   6.650
 3067SOL    HW210101   3.769   0.773   6.529
 3068SOL     OW10102   6.945   6.192   1.556
 3068SOL    HW110103   6.935   6.257   1.481
 3068SOL    HW210104   6.933   6.240   1.643
 3069SOL     OW10105   6.858   6.733   2.406
 3069SOL    HW110106   6.785   6.772   2.462
 3069SOL    HW210107   6.942   6.786   2.418
 3070SOL     OW10108   2.780   0.508   6.532
 3070SOL    HW110109   2.848   0.580   6.519
 3070SOL    HW210110   2.735   0.488   6.445
 3071SOL     OW10111   6.842   6.368   4.242
 3071SOL    HW110112   6.743   6.379   4.252
 3071SOL    HW210113   6.866   6.271   4.245
 3072SOL     OW10114   1.923   5.426   5.811
 3072SOL    HW110115   1.854   5.459   5.875
 3072SOL    HW210116   2.009   5.474   5.827
 3073SOL     OW10117   6.918   3.608   3.091
 3073SOL    HW110118   6.982   3.666   3.142
 3073SOL    HW210119   6.964   3.524   3.063
 3074SOL     OW10120   0.210   4.158   1.038
 3074SOL    HW110121   0.111   4.156   1.028
 3074SOL    HW210122   0.235   4.130   1.131
 3075SOL     OW10123   2.807   5.650   2.787
 3075SOL    HW110124   2.711   5.679   2.786
 3075SOL    HW210125   2.852   5.679   2.702
 3076SOL     OW10126   6.662   1.487   3.722
 3076SOL    HW110127   6.655   1.490   3.822
 3076SOL    HW210128   6.574   1.461   3.683
 3077SOL     OW10129   5.932   4.608   1.956
 3077SOL    HW110130   5.837   4.577   1.953
 3077SOL    HW210131   5.975   4.577   2.041
 3078SOL     OW10132   0.169   3.382   2.374
 3078SOL    HW110133   0.204   3.307   2.318
 3078SOL    HW210134   0.216   3.467   2.351
 3079SOL     OW10135   2.676   2.407   2.928
 3079SOL    HW110136   2.622   2.478   2.883
 3079SOL    HW210137   2.675   2.423   3.027
 3080SOL     OW10138   6.131   5.248   2.340
 3080SOL    HW110139   6.143   5.343   2.312
 3080SOL    HW210140   6.219   5.211   2.372
 3081SOL     OW10141   1.222   4.096   5.881
 3081SOL    HW110142   1.247   4.129   5.790
 3081SOL    HW210143   1.223   3.996   5.882
 3082SOL     OW10144   1.828   5.868   4.011
 3082SOL    HW110145   1.893   5.906   3.945
 3082SOL    HW210146   1.877   5.809   4.076
 3083SOL     OW10147   3.113   6.335   3.843
 3083SOL    HW110148   3.167   6.254   3.819
 3083SOL    HW210149   3.173   6.415   3.847
 3084SOL     OW10150   6.278   4.577   3.240
 3084SOL    HW110151   6.354   4.532   3.286
 3084SOL    HW210152   6.254   4.527   3.157
 3085SOL     OW10153   6.374   4.436   0.520
 3085SOL    HW110154   6.472   4.438   0.542
 3085SOL    HW210155   6.324   4.395   0.596
 3086SOL     OW10156   4.991   1.544   0.757
 3086SOL    HW110157   5.001   1.450   0.725
 3086SOL    HW210158   4.895   1.561   0.781
 3087SOL     OW10159   2.172   6.800   3.697
 3087SOL    HW110160   2.131   6.718   3.735
 3087SOL    HW210161   2.105   6.849   3.642
 3088SOL     OW10162   1.960   3.581   5.099
 3088SOL    HW110163   1.990   3.504   5.042
 3088SOL    HW210164   1.897   3.638   5.047
 3089SOL     OW10165   4.146   2.132   4.598
 3089SOL    HW110166   4.160   2.046   4.647
 3089SOL    HW210167   4.169   2.209   4.658
 3090SOL     OW10168   2.354   1.460   1.487
 3090SOL    HW110169   2.313   1.392   1.548
 3090SOL    HW210170   2.310   1.456   1.397
 3091SOL     OW10171   1.309   1.319   0.416
 3091SOL    HW110172   1.254   1.273   0.486
 3091SOL    HW210173   1.387   1.262   0.392
 3092SOL     OW10174   5.371   6.835   0.410
 3092SOL    HW110175   5.326   6.917   0.444
 3092SOL    HW210176   5.380   6.841   0.310
 3093SOL     OW10177   5.495   5.750   6.437
 3093SOL    HW110178   5.477   5.844   6.466
 3093SOL    HW210179   5.409   5.698   6.437
 3094SOL     OW10180   2.511   6.939   4.128
 3094SOL    HW110181   2.477   6.959   4.036
 3094SOL    HW210182   2.448   6.877   4.175
 3095SOL     OW10183   2.328   4.345   5.053
 3095SOL    HW110184   2.318   4.379   4.959
 3095SOL    HW210185   2.342   4.246   5.050
 3096SOL     OW10186   0.819   5.150   5.371
 3096SOL    HW110187   0.891   5.193   5.426
 3096SOL    HW210188   0.815   5.053   5.394
 3097SOL     OW10189   5.982   3.508   6.845
 3097SOL    HW110190   5.958   3.491   6.941
 3097SOL    HW210191   6.001   3.420   6.800
 3098SOL     OW10192   1.716   3.124   1.617
 3098SOL    HW110193   1.654   3.047   1.637
 3098SOL    HW210194   1.773   3.101   1.538
 3099SOL     OW10195   1.150   6.160   3.915
 3099SOL    HW110196   1.113   6.082   3.966
 3099SOL    HW210197   1.075   6.222   3.892
 3100SOL     OW10198   6.589   6.050   3.781
 3100SOL    HW110199   6.666   6.104   3.815
 3100SOL    HW210200   6.514   6.052   3.848
 3101SOL     OW10201   5.011   5.620   5.912
 3101SOL    HW110202   4.990   5.556   5.839
 3101SOL    HW210203   5.006   5.573   6.000
 3102SOL     OW10204   6.248   6.924   1.372
 3102SOL    HW110205   6.225   6.896   1.279
 3102SOL    HW210206   6.164   6.935   1.426
 3103SOL     OW10207   4.441   1.391   1.797
 3103SOL    HW110208   4.421   1.412   1.701
 3103SOL    HW210209   4.387   1.452   1.856
 3104SOL     OW10210   4.364   0.577   6.031
 3104SOL    HW110211   4.401   0.647   6.092
 3104SOL    HW210212   4.401   0.487   6.056
 3105SOL     OW10213   5.614   3.850   1.184
 3105SOL    HW110214   5.661   3.789   1.247
 3105SOL    HW210215   5.678   3.916   1.147
 3106SOL     OW10216   4.737   6.795   4.805
 3106SOL    HW110217   4.770   6.731   4.874
 3106SOL    HW210218   4.813   6.826   4.748
 3107SOL     OW10219   3.469   1.048   4.833
 3107SOL    HW110220   3.472   1.115   4.759
 3107SOL    HW210221   3.562   1.021   4.859
 3108SOL     OW10222   2.082   5.460   4.624
 3108SOL    HW110223   2.153   5.433   4.559
 3108SOL    HW210224   1.993   5.424   4.593
 3109SOL     OW10225   5.639   0.247   3.782
 3109SOL    HW110226   5.686   0.330   3.752
 3109SOL    HW210227   5.611   0.193   3.702
 3110SOL     OW10228   1.655   3.521   2.882
 3110SOL    HW110229   1.678   3.610   2.841
 3110SOL    HW210230   1.558   3.520   2.906
 3111SOL     OW10231   0.003   5.247   3.520
 3111SOL    HW110232   0.035   5.240   3.614
 3111SOL    HW210233   6.972   5.168   3.497
 3112SOL     OW10234   3.358   3.344   0.409
 3112SOL    HW110235   3.397   3.270   0.463
 3112SOL    HW210236   3.400   3.431   0.435
 3113SOL     OW10237   3.548   5.518   2.639
 3113SOL    HW110238   3.485   5.548   2.711
 3113SOL    HW210239   3.520   5.428   2.606
 3114SOL     OW10240   3.532   1.813   0.530
 3114SOL    HW110241   3.436   1.838   0.544
 3114SOL    HW210242   3.538   1.743   0.459
 3115SOL     OW10243   3.932   4.786   6.266
 3115SOL    HW110244   3.915   4.694   6.302
 3115SOL    HW210245   4.027   4.794   6.238
 3116SOL     OW10246   6.611   2.082   6.644
 3116SOL    HW110247   6.514   2.075   6.619
 3116SOL    HW210248   6.651   1.990   6.648
 3117SOL     OW10249   4.604   3.852   5.540
 3117SOL    HW110250   4.624   3.868   5.444
 3117SOL    HW210251   4.678   3.798   5.581
 3118SOL     OW10252   1.022   4.924   2.573
 3118SOL    HW110253   1.006   4.969   2.485
 3118SOL    HW210254   1.074   4.985   2.633
 3119SOL     OW10255   2.153   2.303   7.008
 3119SOL    HW110256   2.252   2.310   6.992
 3119SOL    HW210257   2.137   2.255   0.069
 3120SOL     OW10258   2.669   0.380   5.599
 3120SOL    HW110259   2.591   0.429   5.559
 3120SOL    HW210260   2.725   0.341   5.525
 3121SOL     OW10261   6.366   1.274   4.854
 3121SOL    HW110262   6.328   1.289   4.763
 3121SOL    HW210263   6.400   1.181   4.862
 3122SOL     OW10264   4.720   5.829   5.411
 3122SOL    HW110265   4.736   5.842   5.509
 3122SOL    HW210266   4.625   5.800   5.397
 3123SOL     OW10267   2.252   1.464   2.616
 3123SOL    HW110268   2.172   1.433   2.566
 3123SOL    HW210269   2.223   1.510   2.700
 3124SOL     OW10270   4.796   6.874   4.232
 3124SOL    HW110271   4.703   6.852   4.203
 3124SOL    HW210272   4.842   6.924   4.159
 3125SOL     OW10273   1.236   3.024   5.131
 3125SOL    HW110274   1.147   3.063   5.110
 3125SOL    HW210275   1.292   3.092   5.179
 3126SOL     OW10276   5.271   4.339   5.442
 3126SOL    HW110277   5.330   4.277   5.391
 3126SOL    HW210278   5.196   4.369   5.384
 3127SOL     OW10279   2.301   2.292   6.532
 3127SOL    HW110280   2.292   2.383   6.573
 3127SOL    HW210281   2.251   2.225   6.587
 3128SOL     OW10282   3.586   1.215   6.655
 3128SOL    HW110283   3.595   1.116   6.668
 3128SOL    HW210284   3.489   1.240   6.658
 3129SOL     OW10285   6.199   3.773   0.235
 3129SOL    HW110286   6.255   3.693   0.258
 3129SOL    HW210287   6.155   3.759   0.147
 3130SOL     OW10288   2.006   4.333   2.198
 3130SOL    HW110289   1.960   4.321   2.110
 3130SOL    HW210290   1.952   4.396   2.255
 3131SOL     OW10291   0.969   3.384   1.875
 3131SOL    HW110292   1.032   3.317   1.835
 3131SOL    HW210293   0.922   3.343   1.953
 3132SOL     OW10294   5.091   5.102   6.584
 3132SOL    HW110295   5.037   5.121   6.667
 3132SOL    HW210296   5.061   5.163   6.511
 3133SOL     OW10297   2.909   0.925   3.196
 3133SOL    HW110298   2.863   0.991   3.255
 3133SOL    HW210299   2.845   0.892   3.126
 3134SOL     OW10300   4.058   4.443   1.088
 3134SOL    HW110301   4.072   4.498   1.005
 3134SOL    HW210302   3.967   4.401   1.084
 3135SOL     OW10303   4.352   0.192   5.495
 3135SOL    HW110304   4.375   0.158   5.404
 3135SOL    HW210305   4.292   0.127   5.541
 3136SOL     OW10306   5.295   0.001   2.657
 3136SOL    HW110307   5.203   0.007   2.618
 3136SOL    HW210308   5.362   0.035   2.591
 3137SOL     OW10309   6.716   6.585   3.088
 3137SOL    HW110310   6.766   6.499   3.098
 3137SOL    HW210311   6.719   6.635   3.175
 3138SOL     OW10312   6.604   5.824   3.623
 3138SOL    HW110313   6.595   5.902   3.684
 3138SOL    HW210314   6.665   5.756   3.664
 3139SOL     OW10315   3.535   5.056   0.613
 3139SOL    HW110316   3.508   5.150   0.597
 3139SOL    HW210317   3.615   5.034   0.557
 3140SOL     OW10318   6.483   6.585   6.069
 3140SOL    HW110319   6.384   6.601   6.070
 3140SOL    HW210320   6.520   6.608   5.979
 3141SOL     OW10321   0.891   0.336   6.715
 3141SOL    HW110322   0.828   0.402   6.755
 3141SOL    HW210323   0.853   0.300   6.630
 3142SOL     OW10324   2.893   0.060   2.556
 3142SOL    HW110325   2.842   0.101   2.632
 3142SOL    HW210326   2.876   0.112   2.473
 3143SOL     OW10327   6.428   1.619   7.024
 3143SOL    HW110328   6.518   1.606   6.983
 3143SOL    HW210329   6.385   1.530   0.012
 3144SOL     OW10330   4.723   3.800   0.867
 3144SOL    HW110331   4.767   3.736   0.803
 3144SOL    HW210332   4.733   3.893   0.833
 3145SOL     OW10333   2.027   6.275   2.205
 3145SOL    HW110334   2.011   6.295   2.109
 3145SOL    HW210335   1.953   6.315   2.260
 3146SOL     OW10336   0.767   1.464   4.350
 3146SOL    HW110337   0.839   1.467   4.419
 3146SOL    HW210338   0.742   1.369   4.333
 3147SOL     OW10339   3.224   5.107   0.203
 3147SOL    HW110340   3.198   5.190   0.153
 3147SOL    HW210341   3.206   5.120   0.300
 3148SOL     OW10342   0.051   6.591   3.817
 3148SOL    HW110343   0.098   6.679   3.811
 3148SOL    HW210344   0.054   6.558   3.912
 3149SOL     OW10345   3.325   0.819   6.211
 3149SOL    HW110346   3.384   0.747   6.175
 3149SOL    HW210347   3.247   0.778   6.259
 3150SOL     OW10348   7.008   5.963   5.601
 3150SOL    HW110349   0.003   5.878   5.553
 3150SOL    HW210350   0.010   6.041   5.544
 3151SOL     OW10351   0.649   1.267   5.093
 3151SOL    HW110352   0.585   1.301   5.161
 3151SOL    HW210353   0.696   1.344   5.050
 3152SOL     OW10354   0.849   5.024   0.496
 3152SOL    HW110355   0.828   4.968   0.416
 3152SOL    HW210356   0.945   5.051   0.495
 3153SOL     OW10357   6.251   5.439   0.300
 3153SOL    HW110358   6.193   5.375   0.250
 3153SOL    HW210359   6.337   5.395   0.325
 3154SOL     OW10360   0.110   2.452   6.666
 3154SOL    HW110361   0.126   2.513   6.744
 3154SOL    HW210362   0.090   2.507   6.585
 3155SOL     OW10363   6.621   5.093   0.555
 3155SOL    HW110364   6.693   5.024   0.547
 3155SOL    HW210365   6.575   5.083   0.644
 3156SOL     OW10366   2.887   3.401   1.878
 3156SOL    HW110367   2.798   3.428   1.841
 3156SOL    HW210368   2.960   3.445   1.824
 3157SOL     OW10369   2.309   1.795   6.077
 3157SOL    HW110370   2.218   1.759   6.096
 3157SOL    HW210371   2.357   1.813   6.163
 3158SOL     OW10372   2.986   1.408   4.183
 3158SOL    HW110373   3.060   1.376   4.123
 3158SOL    HW210374   2.992   1.361   4.271
 3159SOL     OW10375   5.514   0.387   6.495
 3159SOL    HW110376   5.484   0.313   6.435
 3159SOL    HW210377   5.441   0.455   6.504
 3160SOL     OW10378   1.189   5.999   5.549
 3160SOL    HW110379   1.097   6.014   5.586
 3160SOL    HW210380   1.200   6.055   5.466
 3161SOL     OW10381   2.281   2.800   3.119
 3161SOL    HW110382   2.227   2.872   3.162
 3161SOL    HW210383   2.338   2.756   3.189
 3162SOL     OW10384   1.824   5.483   1.713
 3162SOL    HW110385   1.728   5.457   1.721
 3162SOL    HW210386   1.872   5.419   1.653
 3163SOL     OW10387   4.379   4.229   6.525
 3163SOL    HW110388   4.291   4.248   6.483
 3163SOL    HW210389   4.392   4.130   6.533
 3164SOL     OW10390   3.822   5.680   1.020
 3164SOL    HW110391   3.788   5.650   1.109
 3164SOL    HW210392   3.745   5.703   0.961
 3165SOL     OW10393   1.276   6.966   1.600
 3165SOL    HW110394   1.309   6.966   1.694
 3165SOL    HW210395   1.345   6.926   1.540
 3166SOL     OW10396   4.135   1.869   3.279
 3166SOL    HW110397   4.154   1.954   3.231
 3166SOL    HW210398   4.162   1.878   3.375
 3167SOL     OW10399   5.575   4.331   1.264
 3167SOL    HW110400   5.527   4.257   1.217
 3167SOL    HW210401   5.593   4.405   1.199
 3168SOL     OW10402   5.245   2.481   0.127
 3168SOL    HW110403   5.240   2.580   0.141
 3168SOL    HW210404   5.290   2.461   0.040
 3169SOL     OW10405   2.325   4.291   4.033
 3169SOL    HW110406   2.355   4.352   4.107
 3169SOL    HW210407   2.367   4.319   3.947
 3170SOL     OW10408   4.163   5.880   1.838
 3170SOL    HW110409   4.193   5.974   1.822
 3170SOL    HW210410   4.152   5.864   1.937
 3171SOL     OW10411   0.031   1.435   2.221
 3171SOL    HW110412   7.018   1.514   2.267
 3171SOL    HW210413   7.003   1.414   2.139
 3172SOL     OW10414   6.879   5.742   6.857
 3172SOL    HW110415   6.861   5.840   6.868
 3172SOL    HW210416   6.838   5.710   6.772
 3173SOL     OW10417   3.531   2.963   0.259
 3173SOL    HW110418   3.581   2.882   0.289
 3173SOL    HW210419   3.480   2.943   0.176
 3174SOL     OW10420   3.287   2.696   0.371
 3174SOL    HW110421   3.248   2.781   0.407
 3174SOL    HW210422   3.313   2.710   0.275
 3175SOL     OW10423   5.987   1.149   1.649
 3175SOL    HW110424   5.994   1.129   1.747
 3175SOL    HW210425   5.914   1.093   1.609
 3176SOL     OW10426   1.105   3.883   5.655
 3176SOL    HW110427   1.201   3.908   5.645
 3176SOL    HW210428   1.063   3.877   5.564
 3177SOL     OW10429   4.662   4.760   3.726
 3177SOL    HW110430   4.689   4.760   3.823
 3177SOL    HW210431   4.600   4.684   3.709
 3178SOL     OW10432   6.676   2.363   0.910
 3178SOL    HW110433   6.629   2.278   0.884
 3178SOL    HW210434   6.613   2.440   0.902
 3179SOL     OW10435   0.975   2.325   1.972
 3179SOL    HW110436   1.060   2.290   1.933
 3179SOL    HW210437   0.981   2.325   2.071
 3180SOL     OW10438   5.812   0.578   0.586
 3180SOL    HW110439   5.867   0.500   0.556
 3180SOL    HW210440   5.716   0.561   0.566
 3181SOL     OW10441   6.519   1.921   2.945
 3181SOL    HW110442   6.481   1.994   2.888
 3181SOL    HW210443   6.461   1.840   2.938
 3182SOL     OW10444   2.431   0.328   6.732
 3182SOL    HW110445   2.357   0.322   6.799
 3182SOL    HW210446   2.395   0.304   6.642
 3183SOL     OW10447   4.814   4.115   2.166
 3183SOL    HW110448   4.796   4.115   2.067
 3183SOL    HW210449   4.807   4.022   2.201
 3184SOL     OW10450   0.834   2.829   2.705
 3184SOL    HW110451   0.924   2.841   2.747
 3184SOL    HW210452   0.830   2.882   2.620
 3185SOL     OW10453   4.812   5.776   6.607
 3185SOL    HW110454   4.864   5.796   6.524
 3185SOL    HW210455   4.865   5.715   6.666
 3186SOL     OW10456   3.154   1.828   0.835
 3186SOL    HW110457   3.235   1.872   0.872
 3186SOL    HW210458   3.180   1.747   0.782
 3187SOL     OW10459   4.782   5.460   0.643
 3187SOL    HW110460   4.742   5.501   0.725
 3187SOL    HW210461   4.878   5.487   0.635
 3188SOL     OW10462   1.281   0.018   4.545
 3188SOL    HW110463   1.345   0.017   4.622
 3188SOL    HW210464   1.215   6.968   4.556
 3189SOL     OW10465   1.215   1.899   1.074
 3189SOL    HW110466   1.279   1.973   1.095
 3189SOL    HW210467   1.247   1.849   0.993
 3190SOL     OW10468   0.583   5.411   0.422
 3190SOL    HW110469   0.587   5.409   0.323
 3190SOL    HW210470   0.665   5.370   0.460
 3191SOL     OW10471   5.029   5.674   1.190
 3191SOL    HW110472   5.034   5.666   1.091
 3191SOL    HW210473   5.087   5.605   1.233
 3192SOL     OW10474   0.607   3.493   1.275
 3192SOL    HW110475   0.701   3.489   1.308
 3192SOL    HW210476   0.606   3.511   1.177
 3193SOL     OW10477   4.416   0.904   6.317
 3193SOL    HW110478   4.368   0.899   6.229
 3193SOL    HW210479   4.371   0.971   6.376
 3194SOL     OW10480   1.199   1.783   6.663
 3194SOL    HW110481   1.217   1.697   6.615
 3194SOL    HW210482   1.141   1.842   6.606
 3195SOL     OW10483   1.982   1.071   3.381
 3195SOL    HW110484   2.080   1.056   3.391
 3195SOL    HW210485   1.932   0.997   3.427
 3196SOL     OW10486   0.668   0.774   6.776
 3196SOL    HW110487   0.746   0.767   6.838
 3196SOL    HW210488   0.597   0.830   6.818
 3197SOL     OW10489   2.993   6.449   4.244
 3197SOL    HW110490   2.953   6.433   4.154
 3197SOL    HW210491   3.006   6.547   4.259
 3198SOL     OW10492   6.214   3.055   3.762
 3198SOL    HW110493   6.116   3.043   3.748
 3198SOL    HW210494   6.243   3.000   3.841
 3199SOL     OW10495   5.182   4.019   2.819
 3199SOL    HW110496   5.254   4.054   2.878
 3199SOL    HW210497   5.145   3.934   2.857
 3200SOL     OW10498   5.732   3.206   2.976
 3200SOL    HW110499   5.636   3.204   2.950
 3200SOL    HW210500   5.789   3.180   2.898
 3201SOL     OW10501   6.556   4.358   3.922
 3201SOL    HW110502   6.537   4.455   3.906
 3201SOL    HW210503   6.654   4.341   3.914
 3202SOL     OW10504   1.514   4.706   1.187
 3202SOL    HW110505   1.494   4.728   1.282
 3202SOL    HW210506   1.458   4.628   1.158
 3203SOL     OW10507   5.946   2.409   0.418
 3203SOL    HW110508   5.937   2.317   0.380
 3203SOL    HW210509   6.043   2.435   0.419
 3204SOL     OW10510   4.811   6.163   2.855
 3204SOL    HW110511   4.872   6.205   2.787
 3204SOL    HW210512   4.730   6.127   2.809
 3205SOL     OW10513   5.275   2.914   5.786
 3205SOL    HW110514   5.345   2.958   5.728
 3205SOL    HW210515   5.319   2.850   5.848
 3206SOL     OW10516   2.177   4.790   0.419
 3206SOL    HW110517   2.237   4.746   0.352
 3206SOL    HW210518   2.193   4.889   0.418
 3207SOL     OW10519   1.324   1.119   6.514
 3207SOL    HW110520   1.420   1.092   6.525
 3207SOL    HW210521   1.307   1.204   6.565
 3208SOL     OW10522   4.648   6.602   5.957
 3208SOL    HW110523   4.549   6.594   5.968
 3208SOL    HW210524   4.669   6.640   5.867
 3209SOL     OW10525   3.910   5.321   3.617
 3209SOL    HW110526   3.938   5.241   3.565
 3209SOL    HW210527   3.815   5.309   3.648
 3210SOL     OW10528   1.156   3.929   0.484
 3210SOL    HW110529   1.129   3.834   0.467
 3210SOL    HW210530   1.076   3.980   0.515
 3211SOL     OW10531   1.735   3.649   0.648
 3211SOL    HW110532   1.771   3.605   0.731
 3211SOL    HW210533   1.642   3.616   0.631
 3212SOL     OW10534   3.221   6.982   1.576
 3212SOL    HW110535   3.178   7.014   1.660
 3212SOL    HW210536   3.310   6.942   1.598
 3213SOL     OW10537   1.342   0.309   0.545
 3213SOL    HW110538   1.278   0.239   0.513
 3213SOL    HW210539   1.301   0.400   0.533
 3214SOL     OW10540   4.287   5.717   0.721
 3214SOL    HW110541   4.213   5.754   0.665
 3214SOL    HW210542   4.325   5.636   0.678
 3215SOL     OW10543   0.598   3.491   0.989
 3215SOL    HW110544   0.678   3.552   0.990
 3215SOL    HW210545   0.540   3.513   0.911
 3216SOL     OW10546   6.054   5.782   0.213
 3216SOL    HW110547   6.066   5.735   0.301
 3216SOL    HW210548   5.998   5.725   0.153
 3217SOL     OW10549   0.355   5.279   2.225
 3217SOL    HW110550   0.364   5.330   2.140
 3217SOL    HW210551   0.385   5.185   2.211
 3218SOL     OW10552   4.677   2.705   3.669
 3218SOL    HW110553   4.738   2.671   3.740
 3218SOL    HW210554   4.709   2.795   3.639
 3219SOL     OW10555   0.560   1.872   3.486
 3219SOL    HW110556   0.584   1.793   3.429
 3219SOL    HW210557   0.641   1.929   3.499
 3220SOL     OW10558   0.027   5.507   5.992
 3220SOL    HW110559   7.007   5.577   5.937
 3220SOL    HW210560   6.995   5.483   6.070
 3221SOL     OW10561   4.217   0.201   2.065
 3221SOL    HW110562   4.148   0.260   2.022
 3221SOL    HW210563   4.212   0.110   2.026
 3222SOL     OW10564   3.250   0.899   3.085
 3222SOL    HW110565   3.340   0.929   3.114
 3222SOL    HW210566   3.194   0.979   3.062
 3223SOL     OW10567   2.280   6.685   6.240
 3223SOL    HW110568   2.312   6.672   6.146
 3223SOL    HW210569   2.189   6.645   6.250
 3224SOL     OW10570   4.918   3.474   5.755
 3224SOL    HW110571   4.871   3.413   5.820
 3224SOL    HW210572   5.007   3.435   5.732
 3225SOL     OW10573   5.162   2.688   5.531
 3225SOL    HW110574   5.092   2.752   5.500
 3225SOL    HW210575   5.147   2.665   5.627
 3226SOL     OW10576   2.516   1.367   2.848
 3226SOL    HW110577   2.616   1.368   2.838
 3226SOL    HW210578   2.474   1.350   2.758
 3227SOL     OW10579   3.454   3.016   0.001
 3227SOL    HW110580   3.357   2.993   7.021
 3227SOL    HW210581   3.482   3.062   6.942
 3228SOL     OW10582   0.203   3.884   1.402
 3228SOL    HW110583   0.239   3.975   1.418
 3228SOL    HW210584   0.269   3.829   1.351
 3229SOL     OW10585   3.906   0.250   4.786
 3229SOL    HW110586   3.918   0.247   4.687
 3229SOL    HW210587   3.886   0.159   4.821
 3230SOL     OW10588   2.708   4.354   5.404
 3230SOL    HW110589   2.805   4.372   5.394
 3230SOL    HW210590   2.657   4.401   5.332
 3231SOL     OW10591   2.735   6.767   1.559
 3231SOL    HW110592   2.740   6.816   1.472
 3231SOL    HW210593   2.818   6.713   1.572
 3232SOL     OW10594   4.937   6.402   4.374
 3232SOL    HW110595   5.014   6.346   4.406
 3232SOL    HW210596   4.893   6.445   4.453
 3233SOL     OW10597   0.356   2.771   1.080
 3233SOL    HW110598   0.441   2.798   1.124
 3233SOL    HW210599   0.279   2.798   1.138
 3234SOL     OW10600   0.620   2.320   6.643
 3234SOL    HW110601   0.670   2.286   6.722
 3234SOL    HW210602   0.554   2.389   6.672
 3235SOL     OW10603   6.286   0.507   2.213
 3235SOL    HW110604   6.257   0.414   2.234
 3235SOL    HW210605   6.205   0.564   2.196
 3236SOL     OW10606   1.609   3.338   0.745
 3236SOL    HW110607   1.704   3.347   0.774
 3236SOL    HW210608   1.592   3.245   0.714
 3237SOL     OW10609   5.589   1.469   3.646
 3237SOL    HW110610   5.568   1.452   3.550
 3237SOL    HW210611   5.629   1.560   3.657
 3238SOL     OW10612   0.396   5.269   0.615
 3238SOL    HW110613   0.324   5.219   0.569
 3238SOL    HW210614   0.462   5.304   0.548
 3239SOL     OW10615   6.338   1.469   2.319
 3239SOL    HW110616   6.427   1.436   2.351
 3239SOL    HW210617   6.296   1.400   2.260
 3240SOL     OW10618   0.102   6.735   5.910
 3240SOL    HW110619   0.020   6.762   5.961
 3240SOL    HW210620   0.119   6.637   5.923
 3241SOL     OW10621   4.888   0.868   4.701
 3241SOL    HW110622   4.948   0.922   4.759
 3241SOL    HW210623   4.792   0.891   4.720
 3242SOL     OW10624   4.592   4.164   0.145
 3242SOL    HW110625   4.646   4.111   0.081
 3242SOL    HW210626   4.511   4.113   0.172
 3243SOL     OW10627   4.625   4.645   0.383
 3243SOL    HW110628   4.645   4.684   0.293
 3243SOL    HW210629   4.582   4.556   0.371
 3244SOL     OW10630   4.569   5.812   0.457
 3244SOL    HW110631   4.570   5.906   0.491
 3244SOL    HW210632   4.488   5.798   0.401
 3245SOL     OW10633   5.342   3.616   4.675
 3245SOL    HW110634   5.290   3.695   4.641
 3245SOL    HW210635   5.339   3.614   4.775
 3246SOL     OW10636   5.741   0.462   3.046
 3246SOL    HW110637   5.775   0.528   2.979
 3246SOL    HW210638   5.747   0.369   3.009
 3247SOL     OW10639   6.209   4.325   2.763
 3247SOL    HW110640   6.200   4.350   2.667
 3247SOL    HW210641   6.118   4.304   2.801
 3248SOL     OW10642   5.734   3.748   1.428
 3248SOL    HW110643   5.829   3.777   1.418
 3248SOL    HW210644   5.697   3.785   1.513
 3249SOL     OW10645   3.929   3.917   4.263
 3249SOL    HW110646   3.854   3.972   4.225
 3249SOL    HW210647   3.941   3.939   4.360
 3250SOL     OW10648   5.814   0.109   2.525
 3250SOL    HW110649   5.780   0.198   2.494
 3250SOL    HW210650   5.737   0.053   2.556
 3251SOL     OW10651   3.052   0.834   4.062
 3251SOL    HW110652   2.958   0.803   4.075
 3251SOL    HW210653   3.085   0.803   3.973
 3252SOL     OW10654   2.308   1.282   2.984
 3252SOL    HW110655   2.395   1.304   2.940
 3252SOL    HW210656   2.267   1.203   2.938
 3253SOL     OW10657   4.688   4.060   1.710
 3253SOL    HW110658   4.611   4.097   1.762
 3253SOL    HW210659   4.772   4.105   1.739
 3254SOL     OW10660   5.510   6.090   5.494
 3254SOL    HW110661   5.538   6.183   5.521
 3254SOL    HW210662   5.466   6.045   5.572
 3255SOL     OW10663   5.083   6.476   0.571
 3255SOL    HW110664   5.104   6.426   0.655
 3255SOL    HW210665   5.067   6.410   0.497
 3256SOL     OW10666   3.565   1.033   0.761
 3256SOL    HW110667   3.469   1.005   0.767
 3256SOL    HW210668   3.585   1.060   0.667
 3257SOL     OW10669   1.561   1.864   1.940
 3257SOL    HW110670   1.617   1.797   1.988
 3257SOL    HW210671   1.472   1.824   1.918
 3258SOL     OW10672   4.905   5.428   2.683
 3258SOL    HW110673   4.989   5.482   2.673
 3258SOL    HW210674   4.928   5.339   2.724
 3259SOL     OW10675   4.741   5.143   4.854
 3259SOL    HW110676   4.658   5.148   4.799
 3259SOL    HW210677   4.814   5.100   4.801
 3260SOL     OW10678   1.157   2.148   0.710
 3260SOL    HW110679   1.060   2.127   0.723
 3260SOL    HW210680   1.196   2.085   0.643
 3261SOL     OW10681   5.525   0.754   1.668
 3261SOL    HW110682   5.567   0.806   1.743
 3261SOL    HW210683   5.430   0.732   1.691
 3262SOL     OW10684   3.219   2.148   2.631
 3262SOL    HW110685   3.223   2.154   2.730
 3262SOL    HW210686   3.127   2.173   2.600
 3263SOL     OW10687   2.503   1.149   3.200
 3263SOL    HW110688   2.516   1.132   3.102
 3263SOL    HW210689   2.413   1.116   3.229
 3264SOL     OW10690   1.176   4.566   1.013
 3264SOL    HW110691   1.161   4.475   1.050
 3264SOL    HW210692   1.251   4.564   0.947
 3265SOL     OW10693   5.303   0.881   6.414
 3265SOL    HW110694   5.348   0.969   6.398
 3265SOL    HW210695   5.207   0.888   6.389
 3266SOL     OW10696   1.705   4.208   6.955
 3266SOL    HW110697   1.688   4.297   6.912
 3266SOL    HW210698   1.664   4.136   6.899
 3267SOL     OW10699   3.374   6.682   1.373
 3267SOL    HW110700   3.361   6.740   1.454
 3267SOL    HW210701   3.351   6.587   1.396
 3268SOL     OW10702   1.619   3.613   1.516
 3268SOL    HW110703   1.648   3.554   1.591
 3268SOL    HW210704   1.689   3.683   1.500
 3269SOL     OW10705   4.954   5.542   1.996
 3269SOL    HW110706   4.892   5.488   1.939
 3269SOL    HW210707   4.987   5.621   1.943
 3270SOL     OW10708   1.502   4.242   6.109
 3270SOL    HW110709   1.422   4.298   6.131
 3270SOL    HW210710   1.545   4.277   6.025
 3271SOL     OW10711   5.749   3.760   2.577
 3271SOL    HW110712   5.698   3.683   2.617
 3271SOL    HW210713   5.716   3.776   2.484
 3272SOL     OW10714   3.138   4.462   5.926
 3272SOL    HW110715   3.144   4.405   6.008
 3272SOL    HW210716   3.120   4.405   5.847
 3273SOL     OW10717   6.780   6.022   0.834
 3273SOL    HW110718   6.704   6.084   0.814
 3273SOL    HW210719   6.846   6.067   0.893
 3274SOL     OW10720   5.543   1.041   0.875
 3274SOL    HW110721   5.546   1.134   0.910
 3274SOL    HW210722   5.600   1.033   0.794
 3275SOL     OW10723   5.392   1.389   6.939
 3275SOL    HW110724   5.456   1.328   6.985
 3275SOL    HW210725   5.385   1.475   6.990
 3276SOL     OW10726   3.016   5.893   6.704
 3276SOL    HW110727   3.009   5.992   6.702
 3276SOL    HW210728   3.027   5.862   6.798
 3277SOL     OW10729   3.965   6.721   6.996
 3277SOL    HW110730   4.028   6.785   0.013
 3277SOL    HW210731   3.952   6.745   6.900
 3278SOL     OW10732   0.724   0.737   5.706
 3278SOL    HW110733   0.792   0.663   5.699
 3278SOL    HW210734   0.632   0.697   5.710
 3279SOL     OW10735   5.113   0.446   0.600
 3279SOL    HW110736   5.109   0.429   0.698
 3279SOL    HW210737   5.204   0.478   0.575
 3280SOL     OW10738   4.152   4.761   4.286
 3280SOL    HW110739   4.157   4.664   4.308
 3280SOL    HW210740   4.231   4.808   4.325
 3281SOL     OW10741   1.977   5.261   2.178
 3281SOL    HW110742   2.064   5.290   2.218
 3281SOL    HW210743   1.995   5.200   2.101
 3282SOL     OW10744   6.765   5.671   5.472
 3282SOL    HW110745   6.711   5.754   5.461
 3282SOL    HW210746   6.860   5.695   5.495
 3283SOL     OW10747   3.468   0.077   0.842
 3283SOL    HW110748   3.544   0.022   0.876
 3283SOL    HW210749   3.458   0.158   0.899
 3284SOL     OW10750   0.325   4.795   6.793
 3284SOL    HW110751   0.245   4.775   6.738
 3284SOL    HW210752   0.349   4.715   6.849
 3285SOL     OW10753   4.241   2.355   3.249
 3285SOL    HW110754   4.282   2.302   3.174
 3285SOL    HW210755   4.240   2.452   3.224
 3286SOL     OW10756   3.346   2.888   2.538
 3286SOL    HW110757   3.423   2.899   2.601
 3286SOL    HW210758   3.357   2.803   2.486
 3287SOL     OW10759   1.143   0.553   6.982
 3287SOL    HW110760   1.116   0.481   0.020
 3287SOL    HW210761   1.149   0.514   6.889
 3288SOL     OW10762   0.841   5.726   6.427
 3288SOL    HW110763   0.843   5.670   6.344
 3288SOL    HW210764   0.892   5.811   6.411
 3289SOL     OW10765   2.609   0.441   5.260
 3289SOL    HW110766   2.625   0.540   5.257
 3289SOL    HW210767   2.538   0.421   5.327
 3290SOL     OW10768   6.922   6.410   1.385
 3290SOL    HW110769   6.967   6.438   1.300
 3290SOL    HW210770   6.892   6.491   1.435
 3291SOL     OW10771   1.676   0.024   0.137
 3291SOL    HW110772   1.763   0.034   0.089
 3291SOL    HW210773   1.692   0.025   0.236
 3292SOL     OW10774   6.900   0.706   0.573
 3292SOL    HW110775   6.968   0.732   0.641
 3292SOL    HW210776   6.809   0.704   0.615
 3293SOL     OW10777   0.271   4.117   1.478
 3293SOL    HW110778   0.341   4.093   1.545
 3293SOL    HW210779   0.252   4.215   1.483
 3294SOL     OW10780   5.891   1.817   6.281
 3294SOL    HW110781   5.916   1.912   6.262
 3294SOL    HW210782   5.793   1.805   6.269
 3295SOL     OW10783   1.324   2.310   2.158
 3295SOL    HW110784   1.250   2.299   2.091
 3295SOL    HW210785   1.408   2.335   2.111
 3296SOL     OW10786   1.343   6.950   2.756
 3296SOL    HW110787   1.248   6.917   2.754
 3296SOL    HW210788   1.370   6.964   2.851
 3297SOL     OW10789   3.189   1.025   5.629
 3297SOL    HW110790   3.227   1.104   5.678
 3297SOL    HW210791   3.209   1.034   5.531
 3298SOL     OW10792   6.164   2.206   5.437
 3298SOL    HW110793   6.214   2.221   5.522
 3298SOL    HW210794   6.079   2.257   5.438
 3299SOL     OW10795   3.413   5.666   3.161
 3299SOL    HW110796   3.383   5.759   3.141
 3299SOL    HW210797   3.333   5.608   3.179
 3300SOL     OW10798   6.950   1.151   5.139
 3300SOL    HW110799   0.002   1.090   5.153
 3300SOL    HW210800   6.904   1.167   5.227
 3301SOL     OW10801   1.847   3.204   3.199
 3301SOL    HW110802   1.774   3.145   3.232
 3301SOL    HW210803   1.808   3.286   3.157
 3302SOL     OW10804   0.853   4.892   5.428
 3302SOL    HW110805   0.941   4.848   5.409
 3302SOL    HW210806   0.789   4.824   5.464
 3303SOL     OW10807   3.894   3.770   1.036
 3303SOL    HW110808   3.905   3.867   1.059
 3303SOL    HW210809   3.802   3.740   1.061
 3304SOL     OW10810   1.008   5.507   4.434
 3304SOL    HW110811   0.957   5.559   4.366
 3304SOL    HW210812   0.953   5.429   4.464
 3305SOL     OW10813   1.944   1.042   2.394
 3305SOL    HW110814   1.957   0.954   2.439
 3305SOL    HW210815   2.003   1.048   2.313
 3306SOL     OW10816   2.311   5.500   4.894
 3306SOL    HW110817   2.213   5.477   4.903
 3306SOL    HW210818   2.340   5.552   4.974
 3307SOL     OW10819   6.858   5.595   0.078
 3307SOL    HW110820   6.946   5.561   0.112
 3307SOL    HW210821   6.874   5.663   0.007
 3308SOL     OW10822   2.885   6.417   0.857
 3308SOL    HW110823   2.864   6.431   0.761
 3308SOL    HW210824   2.800   6.402   0.909
 3309SOL     OW10825   0.112   5.863   3.439
 3309SOL    HW110826   0.068   5.887   3.353
 3309SOL    HW210827   0.077   5.776   3.472
 3310SOL     OW10828   0.104   3.670   6.100
 3310SOL    HW110829   0.125   3.669   6.003
 3310SOL    HW210830   0.050   3.590   6.125
 3311SOL     OW10831   2.753   3.686   1.195
 3311SOL    HW110832   2.794   3.746   1.263
 3311SOL    HW210833   2.678   3.635   1.236
 3312SOL     OW10834   4.380   4.751   6.072
 3312SOL    HW110835   4.371   4.766   5.974
 3312SOL    HW210836   4.476   4.734   6.095
 3313SOL     OW10837   0.681   6.430   3.687
 3313SOL    HW110838   0.613   6.504   3.689
 3313SOL    HW210839   0.703   6.408   3.593
 3314SOL     OW10840   2.721   1.338   2.605
 3314SOL    HW110841   2.774   1.360   2.524
 3314SOL    HW210842   2.720   1.418   2.666
 3315SOL     OW10843   6.370   4.268   4.170
 3315SOL    HW110844   6.338   4.190   4.223
 3315SOL    HW210845   6.456   4.245   4.125
 3316SOL     OW10846   4.869   1.128   5.745
 3316SOL    HW110847   4.960   1.099   5.776
 3316SOL    HW210848   4.805   1.123   5.821
 3317SOL     OW10849   4.356   3.074   1.711
 3317SOL    HW110850   4.299   3.122   1.778
 3317SOL    HW210851   4.450   3.070   1.744
 3318SOL     OW10852   2.162   1.414   0.830
 3318SOL    HW110853   2.218   1.368   0.761
 3318SOL    HW210854   2.221   1.458   0.897
 3319SOL     OW10855   6.554   1.509   4.211
 3319SOL    HW110856   6.546   1.608   4.219
 3319SOL    HW210857   6.474   1.473   4.162
 3320SOL     OW10858   6.621   0.842   4.939
 3320SOL    HW110859   6.574   0.754   4.950
 3320SOL    HW210860   6.657   0.873   5.027
 3321SOL     OW10861   5.052   1.663   0.354
 3321SOL    HW110862   5.108   1.641   0.434
 3321SOL    HW210863   4.983   1.731   0.381
 3322SOL     OW10864   6.582   2.855   1.221
 3322SOL    HW110865   6.586   2.945   1.176
 3322SOL    HW210866   6.652   2.795   1.181
 3323SOL     OW10867   3.124   2.926   0.433
 3323SOL    HW110868   3.078   2.980   0.362
 3323SOL    HW210869   3.065   2.851   0.462
 3324SOL     OW10870   4.063   5.007   0.018
 3324SOL    HW110871   4.004   5.086   0.037
 3324SOL    HW210872   4.074   4.996   6.945
 3325SOL     OW10873   0.699   3.105   6.766
 3325SOL    HW110874   0.703   3.047   6.847
 3325SOL    HW210875   0.729   3.197   6.789
 3326SOL     OW10876   5.173   1.812   1.800
 3326SOL    HW110877   5.197   1.742   1.732
 3326SOL    HW210878   5.073   1.823   1.802
 3327SOL     OW10879   3.106   5.727   1.359
 3327SOL    HW110880   3.098   5.820   1.325
 3327SOL    HW210881   3.017   5.697   1.394
 3328SOL     OW10882   4.504   1.839   0.452
 3328SOL    HW110883   4.478   1.898   0.528
 3328SOL    HW210884   4.471   1.879   0.366
 3329SOL     OW10885   4.991   0.430   4.702
 3329SOL    HW110886   5.084   0.393   4.701
 3329SOL    HW210887   4.927   0.357   4.677
 3330SOL     OW10888   6.460   4.924   1.595
 3330SOL    HW110889   6.460   4.918   1.495
 3330SOL    HW210890   6.552   4.907   1.630
 3331SOL     OW10891   2.350   2.813   1.277
 3331SOL    HW110892   2.308   2.857   1.356
 3331SOL    HW210893   2.448   2.829   1.278
 3332SOL     OW10894   5.897   5.130   6.839
 3332SOL    HW110895   5.813   5.077   6.848
 3332SOL    HW210896   5.975   5.070   6.857
 3333SOL     OW10897   4.107   4.603   6.468
 3333SOL    HW110898   4.140   4.602   6.374
 3333SOL    HW210899   4.062   4.516   6.489
 3334SOL     OW10900   2.991   3.765   1.973
 3334SOL    HW110901   3.076   3.722   1.944
 3334SOL    HW210902   2.916   3.699   1.965
 3335SOL     OW10903   5.043   0.205   5.579
 3335SOL    HW110904   5.106   0.143   5.625
 3335SOL    HW210905   5.057   0.200   5.480
 3336SOL     OW10906   2.605   5.760   4.770
 3336SOL    HW110907   2.618   5.737   4.866
 3336SOL    HW210908   2.539   5.697   4.729
 3337SOL     OW10909   3.070   3.837   2.896
 3337SOL    HW110910   3.090   3.750   2.849
 3337SOL    HW210911   3.073   3.912   2.830
 3338SOL     OW10912   5.592   2.778   1.730
 3338SOL    HW110913   5.556   2.707   1.790
 3338SOL    HW210914   5.598   2.743   1.637
 3339SOL     OW10915   6.737   0.493   6.569
 3339SOL    HW110916   6.793   0.410   6.571
 3339SOL    HW210917   6.641   0.468   6.557
 3340SOL     OW10918   3.574   1.133   2.202
 3340SOL    HW110919   3.540   1.219   2.240
 3340SOL    HW210920   3.669   1.144   2.174
 3341SOL     OW10921   1.575   5.216   3.290
 3341SOL    HW110922   1.541   5.222   3.196
 3341SOL    HW210923   1.523   5.280   3.348
 3342SOL     OW10924   2.182   0.422   4.289
 3342SOL    HW110925   2.274   0.385   4.277
 3342SOL    HW210926   2.114   0.356   4.259
 3343SOL     OW10927   5.577   3.174   0.590
 3343SOL    HW110928   5.546   3.139   0.679
 3343SOL    HW210929   5.548   3.269   0.580
 3344SOL     OW10930   5.650   3.201   4.494
 3344SOL    HW110931   5.615   3.177   4.403
 3344SOL    HW210932   5.742   3.162   4.505
 3345SOL     OW10933   1.561   3.883   5.862
 3345SOL    HW110934   1.660   3.891   5.861
 3345SOL    HW210935   1.525   3.915   5.950
 3346SOL     OW10936   1.777   0.712   0.987
 3346SOL    HW110937   1.801   0.764   1.069
 3346SOL    HW210938   1.757   0.776   0.912
 3347SOL     OW10939   0.714   3.677   4.921
 3347SOL    HW110940   0.723   3.577   4.917
 3347SOL    HW210941   0.684   3.711   4.832
 3348SOL     OW10942   3.187   3.347   3.919
 3348SOL    HW110943   3.261   3.413   3.934
 3348SOL    HW210944   3.117   3.360   3.989
 3349SOL     OW10945   1.267   6.096   3.028
 3349SOL    HW110946   1.316   6.027   2.975
 3349SOL    HW210947   1.203   6.051   3.090
 3350SOL     OW10948   1.178   2.592   5.824
 3350SOL    HW110949   1.193   2.498   5.856
 3350SOL    HW210950   1.244   2.613   5.752
 3351SOL     OW10951   4.898   0.812   2.484
 3351SOL    HW110952   4.937   0.720   2.482
 3351SOL    HW210953   4.811   0.810   2.535
 3352SOL     OW10954   6.765   2.334   0.598
 3352SOL    HW110955   6.715   2.384   0.668
 3352SOL    HW210956   6.801   2.249   0.637
 3353SOL     OW10957   1.502   5.771   1.948
 3353SOL    HW110958   1.560   5.712   2.005
 3353SOL    HW210959   1.534   5.866   1.954
 3354SOL     OW10960   4.899   2.425   5.112
 3354SOL    HW110961   4.982   2.430   5.167
 3354SOL    HW210962   4.894   2.505   5.052
 3355SOL     OW10963   2.146   1.458   0.144
 3355SOL    HW110964   2.151   1.554   0.171
 3355SOL    HW210965   2.179   1.448   0.050
 3356SOL     OW10966   1.104   4.411   5.907
 3356SOL    HW110967   1.025   4.462   5.875
 3356SOL    HW210968   1.156   4.376   5.828
 3357SOL     OW10969   2.573   4.447   1.778
 3357SOL    HW110970   2.616   4.385   1.712
 3357SOL    HW210971   2.643   4.501   1.824
 3358SOL     OW10972   4.589   1.425   1.018
 3358SOL    HW110973   4.604   1.409   1.116
 3358SOL    HW210974   4.491   1.430   1.000
 3359SOL     OW10975   6.845   0.123   3.463
 3359SOL    HW110976   6.886   0.213   3.479
 3359SOL    HW210977   6.805   0.088   3.548
 3360SOL     OW10978   0.499   0.922   6.943
 3360SOL    HW110979   0.551   0.983   7.003
 3360SOL    HW210980   0.454   0.976   6.871
 3361SOL     OW10981   1.126   4.555   3.882
 3361SOL    HW110982   1.046   4.495   3.886
 3361SOL    HW210983   1.097   4.649   3.866
 3362SOL     OW10984   3.571   1.442   3.296
 3362SOL    HW110985   3.645   1.492   3.340
 3362SOL    HW210986   3.483   1.472   3.334
 3363SOL     OW10987   6.106   6.488   1.632
 3363SOL    HW110988   6.058   6.408   1.667
 3363SOL    HW210989   6.118   6.479   1.533
 3364SOL     OW10990   1.520   4.417   4.210
 3364SOL    HW110991   1.543   4.513   4.198
 3364SOL    HW210992   1.508   4.374   4.120
 3365SOL     OW10993   6.826   1.829   5.192
 3365SOL    HW110994   6.923   1.822   5.216
 3365SOL    HW210995   6.776   1.871   5.268
 3366SOL     OW10996   5.818   6.456   5.034
 3366SOL    HW110997   5.729   6.497   5.016
 3366SOL    HW210998   5.876   6.521   5.083
 3367SOL     OW10999   3.489   2.738   1.398
 3367SOL    HW111000   3.586   2.715   1.385
 3367SOL    HW211001   3.465   2.729   1.494
 3368SOL     OW11002   0.274   5.074   5.529
 3368SOL    HW111003   0.356   5.081   5.471
 3368SOL    HW211004   0.222   5.159   5.524
 3369SOL     OW11005   3.853   2.651   5.984
 3369SOL    HW111006   3.761   2.630   5.949
 3369SOL    HW211007   3.846   2.717   6.059
 3370SOL     OW11008   6.861   5.914   6.418
 3370SOL    HW111009   6.800   5.836   6.434
 3370SOL    HW211010   6.949   5.880   6.385
 3371SOL     OW11011   1.802   2.926   2.098
 3371SOL    HW111012   1.702   2.916   2.093
 3371SOL    HW211013   1.843   2.888   2.015
 3372SOL     OW11014   0.634   1.687   0.716
 3372SOL    HW111015   0.560   1.751   0.698
 3372SOL    HW211016   0.601   1.594   0.706
 3373SOL     OW11017   6.673   1.623   2.946
 3373SOL    HW111018   6.746   1.591   3.006
 3373SOL    HW211019   6.596   1.560   2.951
 3374SOL     OW11020   1.403   6.134   4.499
 3374SOL    HW111021   1.423   6.121   4.596
 3374SOL    HW211022   1.397   6.044   4.455
 3375SOL     OW11023   6.257   6.022   6.154
 3375SOL    HW111024   6.346   6.026   6.198
 3375SOL    HW211025   6.256   6.082   6.074
 3376SOL     OW11026   3.961   3.028   3.400
 3376SOL    HW111027   4.012   3.073   3.326
 3376SOL    HW211028   3.987   3.068   3.488
 3377SOL     OW11029   6.838   6.353   5.632
 3377SOL    HW111030   6.771   6.294   5.678
 3377SOL    HW211031   6.911   6.376   5.696
 3378SOL     OW11032   6.898   0.974   0.712
 3378SOL    HW111033   6.847   0.980   0.798
 3378SOL    HW211034   6.982   0.922   0.726
 3379SOL     OW11035   6.967   6.837   6.309
 3379SOL    HW111036   6.935   6.895   6.385
 3379SOL    HW211037   6.903   6.761   6.296
 3380SOL     OW11038   5.993   6.672   5.136
 3380SOL    HW111039   5.997   6.720   5.049
 3380SOL    HW211040   5.974   6.737   5.209
 3381SOL     OW11041   0.766   2.664   1.003
 3381SOL    HW111042   0.806   2.610   1.078
 3381SOL    HW211043   0.751   2.758   1.033
 3382SOL     OW11044   0.492   2.098   0.780
 3382SOL    HW111045   0.427   2.033   0.739
 3382SOL    HW211046   0.576   2.050   0.805
 3383SOL     OW11047   4.509   5.999   1.626
 3383SOL    HW111048   4.582   5.950   1.674
 3383SOL    HW211049   4.459   6.057   1.690
 3384SOL     OW11050   3.050   3.223   6.278
 3384SOL    HW111051   3.107   3.305   6.277
 3384SOL    HW211052   3.078   3.162   6.203
 3385SOL     OW11053   6.645   2.930   4.527
 3385SOL    HW111054   6.603   2.905   4.440
 3385SOL    HW211055   6.732   2.881   4.537
 3386SOL     OW11056   5.930   4.378   6.644
 3386SOL    HW111057   5.917   4.470   6.606
 3386SOL    HW211058   5.892   4.310   6.581
 3387SOL     OW11059   3.048   0.827   3.552
 3387SOL    HW111060   3.047   0.730   3.529
 3387SOL    HW211061   2.959   0.868   3.528
 3388SOL     OW11062   5.282   3.183   1.685
 3388SOL    HW111063   5.238   3.214   1.600
 3388SOL    HW211064   5.381   3.192   1.676
 3389SOL     OW11065   5.275   5.093   5.740
 3389SOL    HW111066   5.313   5.164   5.799
 3389SOL    HW211067   5.342   5.066   5.672
 3390SOL     OW11068   4.940   5.856   6.056
 3390SOL    HW111069   4.985   5.767   6.049
 3390SOL    HW211070   5.006   5.925   6.085
 3391SOL     OW11071   5.245   3.004   5.028
 3391SOL    HW111072   5.146   2.989   5.021
 3391SOL    HW211073   5.293   2.923   4.994
 3392SOL     OW11074   3.018   6.747   3.859
 3392SOL    HW111075   3.025   6.834   3.908
 3392SOL    HW211076   2.934   6.700   3.887
 3393SOL     OW11077   0.372   6.321   6.770
 3393SOL    HW111078   0.413   6.233   6.797
 3393SOL    HW211079   0.276   6.307   6.746
 3394SOL     OW11080   5.743   3.623   2.078
 3394SOL    HW111081   5.800   3.655   2.003
 3394SOL    HW211082   5.774   3.533   2.108
 3395SOL     OW11083   5.355   3.404   3.155
 3395SOL    HW111084   5.263   3.426   3.122
 3395SOL    HW211085   5.392   3.326   3.103
 3396SOL     OW11086   4.540   1.949   3.811
 3396SOL    HW111087   4.606   2.021   3.793
 3396SOL    HW211088   4.587   1.862   3.822
 3397SOL     OW11089   2.330   0.713   5.581
 3397SOL    HW111090   2.343   0.674   5.672
 3397SOL    HW211091   2.336   0.812   5.586
 3398SOL     OW11092   0.727   6.622   4.607
 3398SOL    HW111093   0.641   6.586   4.644
 3398SOL    HW211094   0.774   6.676   4.677
 3399SOL     OW11095   5.255   4.495   4.033
 3399SOL    HW111096   5.174   4.532   3.987
 3399SOL    HW211097   5.236   4.402   4.065
 3400SOL     OW11098   4.776   3.021   5.525
 3400SOL    HW111099   4.782   3.088   5.451
 3400SOL    HW211100   4.868   3.001   5.559
 3401SOL     OW11101   0.083   3.334   1.170
 3401SOL    HW111102   0.137   3.340   1.254
 3401SOL    HW211103   0.072   3.426   1.132
 3402SOL     OW11104   4.010   5.981   6.881
 3402SOL    HW111105   3.938   5.912   6.882
 3402SOL    HW211106   3.969   6.072   6.877
 3403SOL     OW11107   3.820   5.757   4.917
 3403SOL    HW111108   3.838   5.703   5.000
 3403SOL    HW211109   3.740   5.720   4.870
 3404SOL     OW11110   4.972   1.548   6.927
 3404SOL    HW111111   4.936   1.565   7.018
 3404SOL    HW211112   5.022   1.462   6.926
 3405SOL     OW11113   6.982   3.690   4.367
 3405SOL    HW111114   0.003   3.740   4.439
 3405SOL    HW211115   6.892   3.661   4.399
 3406SOL     OW11116   0.709   4.119   1.678
 3406SOL    HW111117   0.737   4.161   1.764
 3406SOL    HW211118   0.788   4.112   1.616
 3407SOL     OW11119   0.992   5.240   5.865
 3407SOL    HW111120   0.965   5.203   5.954
 3407SOL    HW211121   1.082   5.283   5.873
 3408SOL     OW11122   4.707   3.855   5.284
 3408SOL    HW111123   4.712   3.762   5.247
 3408SOL    HW211124   4.750   3.919   5.220
 3409SOL     OW11125   3.347   6.039   6.767
 3409SOL    HW111126   3.304   6.063   6.854
 3409SOL    HW211127   3.315   5.948   6.739
 3410SOL     OW11128   7.011   6.125   0.543
 3410SOL    HW111129   6.928   6.181   0.545
 3410SOL    HW211130   0.055   6.171   0.488
 3411SOL     OW11131   0.627   3.342   1.883
 3411SOL    HW111132   0.560   3.368   1.814
 3411SOL    HW211133   0.717   3.333   1.841
 3412SOL     OW11134   4.117   2.812   0.055
 3412SOL    HW111135   4.116   2.748   0.132
 3412SOL    HW211136   4.212   2.832   0.030
 3413SOL     OW11137   5.852   1.149   1.004
 3413SOL    HW111138   5.906   1.206   1.065
 3413SOL    HW211139   5.800   1.208   0.941
 3414SOL     OW11140   2.581   0.298   5.848
 3414SOL    HW111141   2.593   0.346   5.761
 3414SOL    HW211142   2.668   0.259   5.877
 3415SOL     OW11143   1.743   3.747   5.027
 3415SOL    HW111144   1.691   3.670   4.989
 3415SOL    HW211145   1.688   3.792   5.097
 3416SOL     OW11146   0.310   5.739   0.698
 3416SOL    HW111147   0.227   5.794   0.687
 3416SOL    HW211148   0.357   5.731   0.610
 3417SOL     OW11149   0.775   6.245   2.819
 3417SOL    HW111150   0.856   6.187   2.824
 3417SOL    HW211151   0.694   6.189   2.837
 3418SOL     OW11152   3.673   0.797   4.431
 3418SOL    HW111153   3.643   0.792   4.336
 3418SOL    HW211154   3.717   0.711   4.457
 3419SOL     OW11155   2.798   5.689   5.051
 3419SOL    HW111156   2.862   5.659   5.123
 3419SOL    HW211157   2.841   5.761   4.996
 3420SOL     OW11158   5.168   2.924   4.596
 3420SOL    HW111159   5.204   2.980   4.671
 3420SOL    HW211160   5.122   2.983   4.530
 3421SOL     OW11161   5.176   0.885   5.256
 3421SOL    HW111162   5.166   0.800   5.203
 3421SOL    HW211163   5.273   0.904   5.269
 3422SOL     OW11164   1.890   0.313   0.492
 3422SOL    HW111165   1.849   0.284   0.578
 3422SOL    HW211166   1.818   0.337   0.427
 3423SOL     OW11167   0.920   4.623   6.420
 3423SOL    HW111168   0.932   4.525   6.410
 3423SOL    HW211169   0.966   4.654   6.503
 3424SOL     OW11170   3.155   6.436   1.576
 3424SOL    HW111171   3.214   6.414   1.499
 3424SOL    HW211172   3.095   6.512   1.552
 3425SOL     OW11173   5.470   5.026   2.566
 3425SOL    HW111174   5.391   4.967   2.582
 3425SOL    HW211175   5.498   5.069   2.652
 3426SOL     OW11176   4.268   2.854   0.400
 3426SOL    HW111177   4.197   2.790   0.428
 3426SOL    HW211178   4.226   2.942   0.377
 3427SOL     OW11179   6.159   0.116   0.079
 3427SOL    HW111180   6.216   0.036   0.100
 3427SOL    HW211181   6.194   0.159   7.021
 3428SOL     OW11182   2.528   5.111   0.682
 3428SOL    HW111183   2.492   5.163   0.605
 3428SOL    HW211184   2.569   5.173   0.749
 3429SOL     OW11185   0.481   2.183   0.054
 3429SOL    HW111186   0.382   2.184   0.062
 3429SOL    HW211187   0.517   2.097   0.091
 3430SOL     OW11188   0.591   6.433   5.174
 3430SOL    HW111189   0.595   6.358   5.108
 3430SOL    HW211190   0.608   6.396   5.266
 3431SOL     OW11191   0.731   6.876   1.317
 3431SOL    HW111192   0.680   6.811   1.261
 3431SOL    HW211193   0.696   6.969   1.300
 3432SOL     OW11194   1.642   2.388   6.902
 3432SOL    HW111195   1.657   2.467   6.961
 3432SOL    HW211196   1.613   2.310   6.957
 3433SOL     OW11197   1.169   0.638   6.226
 3433SOL    HW111198   1.231   0.590   6.288
 3433SOL    HW211199   1.080   0.592   6.226
 3434SOL     OW11200   4.425   1.619   1.354
 3434SOL    HW111201   4.335   1.662   1.355
 3434SOL    HW211202   4.426   1.547   1.285
 3435SOL     OW11203   0.343   1.724   0.409
 3435SOL    HW111204   0.295   1.644   0.371
 3435SOL    HW211205   0.439   1.721   0.382
 3436SOL     OW11206   4.109   5.440   6.802
 3436SOL    HW111207   4.102   5.485   6.713
 3436SOL    HW211208   4.032   5.467   6.859
 3437SOL     OW11209   1.992   1.037   5.729
 3437SOL    HW111210   1.947   0.980   5.798
 3437SOL    HW211211   1.924   1.081   5.672
 3438SOL     OW11212   1.098   2.733   6.993
 3438SOL    HW111213   1.134   2.782   6.913
 3438SOL    HW211214   1.007   2.697   6.972
 3439SOL     OW11215   2.193   6.107   4.828
 3439SOL    HW111216   2.250   6.026   4.843
 3439SOL    HW211217   2.249   6.181   4.792
 3440SOL     OW11218   3.547   3.531   1.328
 3440SOL    HW111219   3.556   3.561   1.423
 3440SOL    HW211220   3.539   3.431   1.326
 3441SOL     OW11221   5.366   7.001   4.546
 3441SOL    HW111222   5.313   7.011   4.462
 3441SOL    HW211223   5.419   0.058   4.562
 3442SOL     OW11224   2.724   5.029   1.965
 3442SOL    HW111225   2.647   4.988   1.916
 3442SOL    HW211226   2.802   4.968   1.960
 3443SOL     OW11227   5.287   6.033   1.507
 3443SOL    HW111228   5.260   6.085   1.589
 3443SOL    HW211229   5.383   6.051   1.486
 3444SOL     OW11230   5.081   5.455   0.380
 3444SOL    HW111231   5.068   5.510   0.462
 3444SOL    HW211232   5.034   5.498   0.303
 3445SOL     OW11233   6.817   5.382   4.468
 3445SOL    HW111234   6.824   5.289   4.431
 3445SOL    HW211235   6.855   5.447   4.401
 3446SOL     OW11236   6.024   0.508   2.734
 3446SOL    HW111237   6.011   0.457   2.649
 3446SOL    HW211238   6.119   0.498   2.765
 3447SOL     OW11239   5.776   5.816   0.809
 3447SOL    HW111240   5.777   5.795   0.711
 3447SOL    HW211241   5.830   5.899   0.826
 3448SOL     OW11242   3.415   0.317   0.981
 3448SOL    HW111243   3.480   0.386   0.950
 3448SOL    HW211244   3.337   0.362   1.024
 3449SOL     OW11245   6.068   6.313   3.988
 3449SOL    HW111246   6.055   6.216   4.008
 3449SOL    HW211247   6.147   6.347   4.039
 3450SOL     OW11248   0.120   2.503   6.386
 3450SOL    HW111249   0.113   2.598   6.356
 3450SOL    HW211250   0.049   2.449   6.342
 3451SOL     OW11251   1.786   6.327   1.740
 3451SOL    HW111252   1.693   6.358   1.721
 3451SOL    HW211253   1.842   6.335   1.657
 3452SOL     OW11254   6.000   0.703   6.050
 3452SOL    HW111255   6.023   0.739   5.960
 3452SOL    HW211256   6.031   0.608   6.057
 3453SOL     OW11257   6.335   6.244   6.007
 3453SOL    HW111258   6.339   6.276   6.102
 3453SOL    HW211259   6.395   6.300   5.951
 3454SOL     OW11260   1.209   2.349   5.953
 3454SOL    HW111261   1.167   2.332   6.042
 3454SOL    HW211262   1.170   2.286   5.885
 3455SOL     OW11263   2.472   2.074   4.337
 3455SOL    HW111264   2.528   2.065   4.419
 3455SOL    HW211265   2.460   2.171   4.315
 3456SOL     OW11266   6.099   5.830   2.692
 3456SOL    HW111267   6.103   5.768   2.614
 3456SOL    HW211268   6.137   5.919   2.667
 3457SOL     OW11269   2.770   5.197   3.310
 3457SOL    HW111270   2.842   5.128   3.315
 3457SOL    HW211271   2.809   5.287   3.328
 3458SOL     OW11272   4.746   0.529   1.636
 3458SOL    HW111273   4.787   0.475   1.709
 3458SOL    HW211274   4.750   0.626   1.660
 3459SOL     OW11275   5.910   3.701   3.245
 3459SOL    HW111276   5.958   3.647   3.314
 3459SOL    HW211277   5.874   3.641   3.173
 3460SOL     OW11278   2.312   3.173   6.894
 3460SOL    HW111279   2.310   3.172   6.994
 3460SOL    HW211280   2.288   3.082   6.860
 3461SOL     OW11281   4.420   6.054   4.962
 3461SOL    HW111282   4.514   6.071   4.935
 3461SOL    HW211283   4.416   5.977   5.025
 3462SOL     OW11284   0.326   3.632   2.315
 3462SOL    HW111285   0.411   3.589   2.345
 3462SOL    HW211286   0.337   3.663   2.220
 3463SOL     OW11287   0.997   4.041   2.842
 3463SOL    HW111288   0.921   3.985   2.874
 3463SOL    HW211289   1.030   4.098   2.917
 3464SOL     OW11290   6.571   4.004   6.459
 3464SOL    HW111291   6.588   3.970   6.367
 3464SOL    HW211292   6.653   3.988   6.516
 3465SOL     OW11293   1.751   2.234   2.523
 3465SOL    HW111294   1.663   2.282   2.523
 3465SOL    HW211295   1.825   2.301   2.512
 3466SOL     OW11296   6.942   4.667   0.207
 3466SOL    HW111297   6.915   4.743   0.148
 3466SOL    HW211298   6.999   4.701   0.282
 3467SOL     OW11299   1.819   2.326   0.857
 3467SOL    HW111300   1.785   2.254   0.797
 3467SOL    HW211301   1.892   2.290   0.916
 3468SOL     OW11302   5.326   6.535   2.778
 3468SOL    HW111303   5.367   6.573   2.861
 3468SOL    HW211304   5.313   6.436   2.790
 3469SOL     OW11305   4.762   0.046   2.840
 3469SOL    HW111306   4.832   0.059   2.909
 3469SOL    HW211307   4.691   7.011   2.876
 3470SOL     OW11308   6.155   3.527   1.575
 3470SOL    HW111309   6.113   3.472   1.503
 3470SOL    HW211310   6.252   3.537   1.557
 3471SOL     OW11311   4.241   5.189   4.221
 3471SOL    HW111312   4.246   5.119   4.292
 3471SOL    HW211313   4.159   5.244   4.235
 3472SOL     OW11314   2.678   0.856   3.051
 3472SOL    HW111315   2.598   0.916   3.041
 3472SOL    HW211316   2.673   0.809   3.140
 3473SOL     OW11317   7.011   2.047   1.487
 3473SOL    HW111318   0.037   1.964   1.467
 3473SOL    HW211319   6.931   2.052   1.426
 3474SOL     OW11320   1.214   4.814   1.879
 3474SOL    HW111321   1.126   4.843   1.842
 3474SOL    HW211322   1.207   4.806   1.979
 3475SOL     OW11323   1.231   4.552   4.146
 3475SOL    HW111324   1.160   4.533   4.077
 3475SOL    HW211325   1.317   4.510   4.117
 3476SOL     OW11326   2.425   1.388   3.310
 3476SOL    HW111327   2.458   1.297   3.281
 3476SOL    HW211328   2.348   1.415   3.252
 3477SOL     OW11329   1.891   5.411   1.040
 3477SOL    HW111330   1.861   5.323   1.078
 3477SOL    HW211331   1.811   5.464   1.012
 3478SOL     OW11332   2.482   5.613   5.424
 3478SOL    HW111333   2.497   5.624   5.326
 3478SOL    HW211334   2.569   5.594   5.469
 3479SOL     OW11335   1.291   0.454   3.269
 3479SOL    HW111336   1.336   0.365   3.258
 3479SOL    HW211337   1.256   0.485   3.181
 3480SOL     OW11338   0.547   6.543   4.797
 3480SOL    HW111339   0.543   6.449   4.832
 3480SOL    HW211340   0.546   6.607   4.874
 3481SOL     OW11341   4.737   0.421   0.529
 3481SOL    HW111342   4.737   0.396   0.433
 3481SOL    HW211343   4.794   0.502   0.543
 3482SOL     OW11344   5.657   1.355   1.871
 3482SOL    HW111345   5.722   1.353   1.947
 3482SOL    HW211346   5.579   1.412   1.895
 3483SOL     OW11347   4.646   2.210   2.020
 3483SOL    HW111348   4.608   2.303   2.026
 3483SOL    HW211349   4.572   2.144   2.028
 3484SOL     OW11350   1.160   3.178   6.790
 3484SOL    HW111351   1.169   3.217   6.699
 3484SOL    HW211352   1.093   3.104   6.789
 3485SOL     OW11353   2.090   1.537   4.740
 3485SOL    HW111354   2.048   1.575   4.822
 3485SOL    HW211355   2.126   1.446   4.762
 3486SOL     OW11356   2.704   0.448   3.589
 3486SOL    HW111357   2.670   0.433   3.682
 3486SOL    HW211358   2.788   0.396   3.575
 3487SOL     OW11359   5.527   2.519   5.720
 3487SOL    HW111360   5.506   2.522   5.622
 3487SOL    HW211361   5.535   2.423   5.748
 3488SOL     OW11362   6.148   1.359   4.365
 3488SOL    HW111363   6.148   1.310   4.278
 3488SOL    HW211364   6.054   1.375   4.394
 3489SOL     OW11365   3.737   0.273   1.191
 3489SOL    HW111366   3.814   0.225   1.232
 3489SOL    HW211367   3.763   0.309   1.101
 3490SOL     OW11368   4.435   4.437   0.411
 3490SOL    HW111369   4.522   4.429   0.459
 3490SOL    HW211370   4.360   4.430   0.477
 3491SOL     OW11371   4.655   2.529   5.251
 3491SOL    HW111372   4.630   2.622   5.224
 3491SOL    HW211373   4.700   2.483   5.175
 3492SOL     OW11374   0.240   5.274   1.213
 3492SOL    HW111375   0.230   5.260   1.312
 3492SOL    HW211376   0.336   5.274   1.188
 3493SOL     OW11377   5.512   4.413   6.021
 3493SOL    HW111378   5.562   4.354   5.958
 3493SOL    HW211379   5.473   4.358   6.095
 3494SOL     OW11380   3.660   0.599   1.301
 3494SOL    HW111381   3.649   0.500   1.298
 3494SOL    HW211382   3.744   0.622   1.351
 3495SOL     OW11383   5.582   4.986   2.166
 3495SOL    HW111384   5.641   5.058   2.131
 3495SOL    HW211385   5.638   4.917   2.213
 3496SOL     OW11386   6.158   4.555   0.869
 3496SOL    HW111387   6.070   4.602   0.882
 3496SOL    HW211388   6.221   4.615   0.820
 3497SOL     OW11389   3.441   1.279   3.902
 3497SOL    HW111390   3.380   1.349   3.937
 3497SOL    HW211391   3.535   1.312   3.904
 3498SOL     OW11392   2.805   2.405   0.671
 3498SOL    HW111393   2.859   2.372   0.749
 3498SOL    HW211394   2.856   2.387   0.586
 3499SOL     OW11395   4.874   3.382   4.124
 3499SOL    HW111396   4.865   3.287   4.096
 3499SOL    HW211397   4.786   3.428   4.118
 3500SOL     OW11398   1.612   3.502   5.243
 3500SOL    HW111399   1.671   3.452   5.306
 3500SOL    HW211400   1.655   3.503   5.152
 3501SOL     OW11401   1.877   5.827   4.800
 3501SOL    HW111402   1.845   5.814   4.706
 3501SOL    HW211403   1.853   5.919   4.831
 3502SOL     OW11404   6.246   2.977   2.604
 3502SOL    HW111405   6.249   2.895   2.546
 3502SOL    HW211406   6.215   2.951   2.696
 3503SOL     OW11407   6.129   6.697   4.547
 3503SOL    HW111408   6.054   6.686   4.482
 3503SOL    HW211409   6.178   6.782   4.528
 3504SOL     OW11410   1.996   2.042   1.442
 3504SOL    HW111411   1.990   1.963   1.381
 3504SOL    HW211412   2.045   2.016   1.525
 3505SOL     OW11413   5.610   4.826   5.211
 3505SOL    HW111414   5.590   4.748   5.271
 3505SOL    HW211415   5.584   4.911   5.258
 3506SOL     OW11416   5.031   5.168   5.620
 3506SOL    HW111417   5.000   5.249   5.670
 3506SOL    HW211418   5.119   5.138   5.656
 3507SOL     OW11419   1.643   0.875   0.784
 3507SOL    HW111420   1.569   0.924   0.830
 3507SOL    HW211421   1.618   0.857   0.689
 3508SOL     OW11422   2.869   2.511   5.781
 3508SOL    HW111423   2.842   2.488   5.687
 3508SOL    HW211424   2.930   2.591   5.779
 3509SOL     OW11425   5.642   0.494   5.628
 3509SOL    HW111426   5.687   0.543   5.703
 3509SOL    HW211427   5.676   0.400   5.624
 3510SOL     OW11428   1.415   2.469   1.917
 3510SOL    HW111429   1.494   2.429   1.871
 3510SOL    HW211430   1.427   2.568   1.922
 3511SOL     OW11431   3.520   5.220   0.321
 3511SOL    HW111432   3.440   5.234   0.380
 3511SOL    HW211433   3.506   5.269   0.235
 3512SOL     OW11434   0.418   4.806   0.647
 3512SOL    HW111435   0.344   4.833   0.709
 3512SOL    HW211436   0.481   4.882   0.635
 3513SOL     OW11437   6.249   2.916   0.644
 3513SOL    HW111438   6.235   3.009   0.679
 3513SOL    HW211439   6.321   2.871   0.697
 3514SOL     OW11440   0.647   1.618   2.004
 3514SOL    HW111441   0.741   1.612   1.971
 3514SOL    HW211442   0.611   1.526   2.022
 3515SOL     OW11443   5.084   5.870   3.224
 3515SOL    HW111444   5.062   5.875   3.322
 3515SOL    HW211445   5.004   5.836   3.174
 3516SOL     OW11446   4.555   0.263   0.861
 3516SOL    HW111447   4.593   0.214   0.783
 3516SOL    HW211448   4.589   0.223   0.946
 3517SOL     OW11449   1.271   1.989   0.546
 3517SOL    HW111450   1.261   2.054   0.470
 3517SOL    HW211451   1.318   1.907   0.514
 3518SOL     OW11452   5.851   2.755   4.528
 3518SOL    HW111453   5.823   2.778   4.621
 3518SOL    HW211454   5.806   2.670   4.500
 3519SOL     OW11455   1.507   0.952   6.388
 3519SOL    HW111456   1.597   0.909   6.386
 3519SOL    HW211457   1.451   0.915   6.314
 3520SOL     OW11458   2.945   4.874   6.102
 3520SOL    HW111459   2.855   4.843   6.135
 3520SOL    HW211460   2.949   4.862   6.003
 3521SOL     OW11461   5.020   2.279   0.146
 3521SOL    HW111462   5.114   2.307   0.128
 3521SOL    HW211463   5.014   2.179   0.146
 3522SOL     OW11464   6.745   4.570   1.975
 3522SOL    HW111465   6.662   4.548   1.925
 3522SOL    HW211466   6.763   4.500   2.043
 3523SOL     OW11467   2.399   5.339   6.314
 3523SOL    HW111468   2.459   5.318   6.391
 3523SOL    HW211469   2.449   5.326   6.228
 3524SOL     OW11470   3.810   1.594   1.412
 3524SOL    HW111471   3.728   1.587   1.356
 3524SOL    HW211472   3.817   1.513   1.471
 3525SOL     OW11473   1.369   3.892   2.680
 3525SOL    HW111474   1.338   3.820   2.617
 3525SOL    HW211475   1.339   3.981   2.646
 3526SOL     OW11476   2.370   6.197   4.178
 3526SOL    HW111477   2.454   6.244   4.203
 3526SOL    HW211478   2.313   6.186   4.260
 3527SOL     OW11479   5.963   2.619   6.406
 3527SOL    HW111480   5.968   2.681   6.327
 3527SOL    HW211481   6.054   2.607   6.444
 3528SOL     OW11482   0.621   5.463   4.399
 3528SOL    HW111483   0.667   5.423   4.479
 3528SOL    HW211484   0.675   5.443   4.317
 3529SOL     OW11485   3.909   0.048   0.293
 3529SOL    HW111486   3.964   0.121   0.252
 3529SOL    HW211487   3.815   0.053   0.260
 3530SOL     OW11488   0.704   5.167   2.894
 3530SOL    HW111489   0.733   5.261   2.909
 3530SOL    HW211490   0.777   5.104   2.920
 3531SOL     OW11491   5.171   2.868   0.775
 3531SOL    HW111492   5.079   2.830   0.772
 3531SOL    HW211493   5.200   2.890   0.682
 3532SOL     OW11494   2.832   0.827   1.700
 3532SOL    HW111495   2.910   0.861   1.752
 3532SOL    HW211496   2.864   0.775   1.621
 3533SOL     OW11497   2.068   1.846   2.528
 3533SOL    HW111498   1.969   1.858   2.531
 3533SOL    HW211499   2.092   1.795   2.445
 3534SOL     OW11500   5.733   0.994   5.950
 3534SOL    HW111501   5.734   0.919   5.884
 3534SOL    HW211502   5.705   1.079   5.905
 3535SOL     OW11503   1.240   5.664   0.252
 3535SOL    HW111504   1.238   5.687   0.154
 3535SOL    HW211505   1.333   5.639   0.278
 3536SOL     OW11506   2.214   2.193   3.590
 3536SOL    HW111507   2.195   2.234   3.501
 3536SOL    HW211508   2.298   2.139   3.585
 3537SOL     OW11509   3.066   5.888   1.137
 3537SOL    HW111510   3.088   5.846   1.049
 3537SOL    HW211511   2.968   5.877   1.155
 3538SOL     OW11512   1.267   0.417   6.014
 3538SOL    HW111513   1.177   0.373   6.016
 3538SOL    HW211514   1.256   0.516   6.024
 3539SOL     OW11515   6.053   3.465   5.897
 3539SOL    HW111516   6.088   3.519   5.974
 3539SOL    HW211517   5.954   3.476   5.891
 3540SOL     OW11518   2.118   2.617   6.418
 3540SOL    HW111519   2.098   2.644   6.324
 3540SOL    HW211520   2.045   2.558   6.453
 3541SOL     OW11521   1.902   2.477   6.544
 3541SOL    HW111522   1.925   2.515   6.633
 3541SOL    HW211523   1.888   2.378   6.553
 3542SOL     OW11524   1.315   4.555   1.856
 3542SOL    HW111525   1.403   4.563   1.903
 3542SOL    HW211526   1.264   4.640   1.867
 3543SOL     OW11527   0.951   2.568   4.940
 3543SOL    HW111528   0.956   2.651   4.995
 3543SOL    HW211529   0.915   2.590   4.849
 3544SOL     OW11530   2.724   4.509   6.117
 3544SOL    HW111531   2.661   4.501   6.194
 3544SOL    HW211532   2.814   4.537   6.150
 3545SOL     OW11533   4.336   4.951   0.025
 3545SOL    HW111534   4.242   4.983   0.034
 3545SOL    HW211535   4.342   4.886   6.975
 3546SOL     OW11536   0.141   4.348   3.441
 3546SOL    HW111537   0.134   4.345   3.341
 3546SOL    HW211538   0.149   4.442   3.472
 3547SOL     OW11539   6.434   5.366   5.290
 3547SOL    HW111540   6.340   5.376   5.321
 3547SOL    HW211541   6.437   5.301   5.214
 3548SOL     OW11542   5.536   0.636   5.413
 3548SOL    HW111543   5.587   0.588   5.483
 3548SOL    HW211544   5.561   0.733   5.413
 3549SOL     OW11545   6.705   5.047   6.107
 3549SOL    HW111546   6.666   5.071   6.019
 3549SOL    HW211547   6.643   4.986   6.156
 3550SOL     OW11548   6.018   3.003   3.196
 3550SOL    HW111549   5.952   2.983   3.124
 3550SOL    HW211550   6.110   2.986   3.161
 3551SOL     OW11551   3.488   2.091   2.919
 3551SOL    HW111552   3.488   1.992   2.925
 3551SOL    HW211553   3.532   2.120   2.834
 3552SOL     OW11554   6.383   6.532   1.782
 3552SOL    HW111555   6.300   6.584   1.763
 3552SOL    HW211556   6.380   6.498   1.876
 3553SOL     OW11557   4.622   5.426   0.970
 3553SOL    HW111558   4.562   5.497   0.932
 3553SOL    HW211559   4.714   5.463   0.981
 3554SOL     OW11560   4.302   1.971   0.945
 3554SOL    HW111561   4.341   2.006   1.030
 3554SOL    HW211562   4.375   1.941   0.884
 3555SOL     OW11563   0.571   4.467   3.777
 3555SOL    HW111564   0.551   4.507   3.866
 3555SOL    HW211565   0.664   4.491   3.749
 3556SOL     OW11566   3.854   1.430   4.498
 3556SOL    HW111567   3.817   1.511   4.452
 3556SOL    HW211568   3.840   1.350   4.439
 3557SOL     OW11569   0.825   1.053   4.551
 3557SOL    HW111570   0.747   1.034   4.611
 3557SOL    HW211571   0.881   0.972   4.542
 3558SOL     OW11572   1.616   5.953   2.403
 3558SOL    HW111573   1.713   5.969   2.416
 3558SOL    HW211574   1.564   6.032   2.435
 3559SOL     OW11575   0.276   6.028   5.245
 3559SOL    HW111576   0.184   6.047   5.209
 3559SOL    HW211577   0.297   5.931   5.231
 3560SOL     OW11578   1.354   5.412   2.900
 3560SOL    HW111579   1.401   5.335   2.945
 3560SOL    HW211580   1.336   5.483   2.968
 3561SOL     OW11581   4.622   4.386   4.894
 3561SOL    HW111582   4.536   4.412   4.937
 3561SOL    HW211583   4.679   4.468   4.881
 3562SOL     OW11584   3.699   1.310   3.058
 3562SOL    HW111585   3.679   1.368   2.980
 3562SOL    HW211586   3.666   1.354   3.142
 3563SOL     OW11587   6.258   2.118   0.363
 3563SOL    HW111588   6.336   2.107   0.302
 3563SOL    HW211589   6.269   2.057   0.441
 3564SOL     OW11590   0.900   4.546   3.280
 3564SOL    HW111591   0.816   4.596   3.299
 3564SOL    HW211592   0.882   4.448   3.285
 3565SOL     OW11593   3.123   5.400   5.110
 3565SOL    HW111594   3.067   5.326   5.072
 3565SOL    HW211595   3.121   5.396   5.210
 3566SOL     OW11596   6.749   3.433   6.009
 3566SOL    HW111597   6.805   3.429   5.927
 3566SOL    HW211598   6.750   3.527   6.045
 3567SOL     OW11599   0.327   2.948   6.595
 3567SOL    HW111600   0.229   2.927   6.600
 3567SOL    HW211601   0.373   2.904   6.673
 3568SOL     OW11602   4.204   4.943   3.610
 3568SOL    HW111603   4.300   4.972   3.609
 3568SOL    HW211604   4.147   5.014   3.568
 3569SOL     OW11605   2.505   1.667   5.901
 3569SOL    HW111606   2.516   1.728   5.823
 3569SOL    HW211607   2.446   1.710   5.969
 3570SOL     OW11608   5.449   0.928   5.246
 3570SOL    HW111609   5.518   0.952   5.315
 3570SOL    HW211610   5.457   0.831   5.223
 3571SOL     OW11611   0.516   5.091   4.968
 3571SOL    HW111612   0.428   5.081   4.921
 3571SOL    HW211613   0.555   5.000   4.984
 3572SOL     OW11614   6.175   3.700   3.022
 3572SOL    HW111615   6.251   3.750   3.064
 3572SOL    HW211616   6.170   3.608   3.063
 3573SOL     OW11617   0.810   5.897   3.150
 3573SOL    HW111618   0.725   5.943   3.124
 3573SOL    HW211619   0.810   5.803   3.115
 3574SOL     OW11620   0.609   3.531   0.281
 3574SOL    HW111621   0.608   3.511   0.379
 3574SOL    HW211622   0.548   3.468   0.234
 3575SOL     OW11623   5.321   5.027   2.129
 3575SOL    HW111624   5.270   5.044   2.213
 3575SOL    HW211625   5.416   5.005   2.151
 3576SOL     OW11626   0.347   2.367   6.189
 3576SOL    HW111627   0.382   2.437   6.128
 3576SOL    HW211628   0.355   2.398   6.284
 3577SOL     OW11629   1.368   1.754   6.352
 3577SOL    HW111630   1.295   1.715   6.408
 3577SOL    HW211631   1.437   1.684   6.333
 3578SOL     OW11632   4.060   2.002   0.610
 3578SOL    HW111633   4.138   2.007   0.548
 3578SOL    HW211634   3.978   2.034   0.563
 3579SOL     OW11635   0.263   2.267   3.555
 3579SOL    HW111636   0.300   2.358   3.532
 3579SOL    HW211637   0.181   2.278   3.611
 3580SOL     OW11638   5.668   3.040   1.422
 3580SOL    HW111639   5.764   3.012   1.419
 3580SOL    HW211640   5.636   3.041   1.517
 3581SOL     OW11641   1.391   5.772   3.780
 3581SOL    HW111642   1.363   5.761   3.875
 3581SOL    HW211643   1.489   5.793   3.776
 3582SOL     OW11644   0.834   3.720   6.303
 3582SOL    HW111645   0.755   3.721   6.242
 3582SOL    HW211646   0.910   3.770   6.261
 3583SOL     OW11647   0.971   4.089   6.031
 3583SOL    HW111648   1.060   4.094   5.987
 3583SOL    HW211649   0.935   4.181   6.044
 3584SOL     OW11650   5.773   5.576   6.564
 3584SOL    HW111651   5.731   5.489   6.538
 3584SOL    HW211652   5.796   5.628   6.481
 3585SOL     OW11653   2.907   1.091   4.799
 3585SOL    HW111654   2.836   1.151   4.763
 3585SOL    HW211655   2.996   1.123   4.768
 3586SOL     OW11656   6.392   2.074   4.671
 3586SOL    HW111657   6.331   2.147   4.701
 3586SOL    HW211658   6.358   2.037   4.584
 3587SOL     OW11659   2.205   4.540   5.719
 3587SOL    HW111660   2.270   4.568   5.648
 3587SOL    HW211661   2.181   4.444   5.705
 3588SOL     OW11662   1.611   2.710   5.398
 3588SOL    HW111663   1.571   2.795   5.363
 3588SOL    HW211664   1.603   2.638   5.329
 3589SOL     OW11665   4.892   1.535   4.782
 3589SOL    HW111666   4.839   1.607   4.824
 3589SOL    HW211667   4.859   1.445   4.812
 3590SOL     OW11668   0.770   3.171   0.450
 3590SOL    HW111669   0.733   3.158   0.543
 3590SOL    HW211670   0.869   3.163   0.452
 3591SOL     OW11671   5.273   4.258   6.710
 3591SOL    HW111672   5.344   4.250   6.640
 3591SOL    HW211673   5.300   4.206   6.791
 3592SOL     OW11674   0.997   4.950   1.764
 3592SOL    HW111675   1.046   5.026   1.808
 3592SOL    HW211676   0.900   4.971   1.759
 3593SOL     OW11677   0.604   5.530   5.270
 3593SOL    HW111678   0.613   5.449   5.212
 3593SOL    HW211679   0.692   5.575   5.279
 3594SOL     OW11680   4.720   6.762   2.967
 3594SOL    HW111681   4.777   6.775   3.047
 3594SOL    HW211682   4.650   6.833   2.963
 3595SOL     OW11683   4.039   5.681   6.046
 3595SOL    HW111684   4.107   5.687   5.973
 3595SOL    HW211685   3.974   5.756   6.038
 3596SOL     OW11686   6.388   3.376   3.222
 3596SOL    HW111687   6.332   3.422   3.290
 3596SOL    HW211688   6.466   3.434   3.198
 3597SOL     OW11689   2.243   2.237   5.817
 3597SOL    HW111690   2.195   2.307   5.870
 3597SOL    HW211691   2.180   2.163   5.795
 3598SOL     OW11692   1.205   5.439   6.566
 3598SOL    HW111693   1.189   5.447   6.468
 3598SOL    HW211694   1.231   5.345   6.588
 3599SOL     OW11695   5.985   2.536   6.807
 3599SOL    HW111696   6.023   2.443   6.800
 3599SOL    HW211697   5.899   2.540   6.756
 3600SOL     OW11698   0.664   3.005   1.505
 3600SOL    HW111699   0.630   3.016   1.412
 3600SOL    HW211700   0.685   2.909   1.522
 3601SOL     OW11701   5.470   3.591   6.690
 3601SOL    HW111702   5.440   3.661   6.755
 3601SOL    HW211703   5.403   3.585   6.615
 3602SOL     OW11704   1.531   3.028   0.736
 3602SOL    HW111705   1.499   2.946   0.689
 3602SOL    HW211706   1.629   3.040   0.719
 3603SOL     OW11707   3.322   0.962   4.139
 3603SOL    HW111708   3.312   1.057   4.168
 3603SOL    HW211709   3.233   0.917   4.141
 3604SOL     OW11710   6.677   6.202   2.901
 3604SOL    HW111711   6.633   6.210   2.990
 3604SOL    HW211712   6.720   6.290   2.877
 3605SOL     OW11713   6.643   3.877   4.625
 3605SOL    HW111714   6.560   3.823   4.615
 3605SOL    HW211715   6.674   3.872   4.720
 3606SOL     OW11716   0.162   0.371   4.455
 3606SOL    HW111717   0.239   0.398   4.513
 3606SOL    HW211718   0.192   0.365   4.360
 3607SOL     OW11719   5.949   5.124   1.721
 3607SOL    HW111720   6.039   5.080   1.728
 3607SOL    HW211721   5.959   5.217   1.686
 3608SOL     OW11722   4.963   2.678   4.633
 3608SOL    HW111723   4.894   2.609   4.610
 3608SOL    HW211724   4.981   2.734   4.552
 3609SOL     OW11725   1.353   0.257   4.453
 3609SOL    HW111726   1.322   0.342   4.497
 3609SOL    HW211727   1.303   0.180   4.491
 3610SOL     OW11728   1.864   6.842   5.661
 3610SOL    HW111729   1.834   6.867   5.569
 3610SOL    HW211730   1.952   6.886   5.682
 3611SOL     OW11731   4.470   5.138   4.679
 3611SOL    HW111732   4.546   5.166   4.620
 3611SOL    HW211733   4.496   5.055   4.729
 3612SOL     OW11734   6.811   6.643   0.645
 3612SOL    HW111735   6.814   6.713   0.717
 3612SOL    HW211736   6.902   6.603   0.635
 3613SOL     OW11737   4.674   4.394   1.819
 3613SOL    HW111738   4.586   4.367   1.858
 3613SOL    HW211739   4.731   4.312   1.805
 3614SOL     OW11740   4.147   3.556   1.272
 3614SOL    HW111741   4.187   3.503   1.347
 3614SOL    HW211742   4.194   3.533   1.187
 3615SOL     OW11743   5.398   4.564   6.407
 3615SOL    HW111744   5.367   4.548   6.500
 3615SOL    HW211745   5.488   4.523   6.394
 3616SOL     OW11746   0.330   1.483   6.237
 3616SOL    HW111747   0.321   1.536   6.152
 3616SOL    HW211748   0.249   1.498   6.294
 3617SOL     OW11749   4.333   0.602   6.648
 3617SOL    HW111750   4.253   0.591   6.589
 3617SOL    HW211751   4.304   0.597   6.744
 3618SOL     OW11752   2.796   3.092   6.017
 3618SOL    HW111753   2.831   3.149   5.943
 3618SOL    HW211754   2.726   3.031   5.982
 3619SOL     OW11755   5.277   3.080   4.774
 3619SOL    HW111756   5.288   3.174   4.742
 3619SOL    HW211757   5.283   3.078   4.874
 3620SOL     OW11758   6.133   6.328   5.835
 3620SOL    HW111759   6.183   6.261   5.890
 3620SOL    HW211760   6.190   6.408   5.819
 3621SOL     OW11761   3.069   2.820   5.289
 3621SOL    HW111762   2.996   2.751   5.293
 3621SOL    HW211763   3.028   2.911   5.298
 3622SOL     OW11764   1.174   1.382   6.252
 3622SOL    HW111765   1.114   1.310   6.285
 3622SOL    HW211766   1.120   1.454   6.209
 3623SOL     OW11767   0.126   6.426   4.473
 3623SOL    HW111768   0.091   6.365   4.544
 3623SOL    HW211769   0.056   6.494   4.450
 3624SOL     OW11770   1.991   0.076   2.595
 3624SOL    HW111771   2.024   7.024   2.541
 3624SOL    HW211772   1.896   0.095   2.572
 3625SOL     OW11773   6.843   3.105   6.727
 3625SOL    HW111774   6.835   3.080   6.823
 3625SOL    HW211775   6.845   3.023   6.670
 3626SOL     OW11776   1.701   2.165   6.054
 3626SOL    HW111777   1.789   2.176   6.099
 3626SOL    HW211778   1.652   2.087   6.094
 3627SOL     OW11779   3.089   3.123   1.923
 3627SOL    HW111780   3.051   3.058   1.857
 3627SOL    HW211781   3.014   3.165   1.975
 3628SOL     OW11782   1.574   0.929   2.229
 3628SOL    HW111783   1.615   0.994   2.293
 3628SOL    HW211784   1.625   0.843   2.232
 3629SOL     OW11785   6.756   1.130   5.669
 3629SOL    HW111786   6.722   1.224   5.671
 3629SOL    HW211787   6.712   1.077   5.741
 3630SOL     OW11788   5.095   2.343   4.244
 3630SOL    HW111789   5.164   2.328   4.172
 3630SOL    HW211790   5.142   2.363   4.330
 3631SOL     OW11791   2.259   0.977   3.209
 3631SOL    HW111792   2.294   0.895   3.164
 3631SOL    HW211793   2.273   0.970   3.308
 3632SOL     OW11794   5.487   5.176   1.103
 3632SOL    HW111795   5.568   5.225   1.135
 3632SOL    HW211796   5.423   5.241   1.062
 3633SOL     OW11797   4.323   2.011   5.673
 3633SOL    HW111798   4.288   2.068   5.598
 3633SOL    HW211799   4.255   1.942   5.696
 3634SOL     OW11800   1.594   5.233   5.386
 3634SOL    HW111801   1.606   5.197   5.479
 3634SOL    HW211802   1.525   5.178   5.338
 3635SOL     OW11803   2.997   0.137   1.099
 3635SOL    HW111804   2.915   0.181   1.134
 3635SOL    HW211805   3.074   0.159   1.160
 3636SOL     OW11806   6.992   5.432   0.874
 3636SOL    HW111807   6.987   5.418   0.776
 3636SOL    HW211808   6.950   5.355   0.922
 3637SOL     OW11809   6.959   2.448   1.918
 3637SOL    HW111810   6.928   2.493   1.835
 3637SOL    HW211811   6.948   2.510   1.996
 3638SOL     OW11812   0.752   4.286   3.267
 3638SOL    HW111813   0.744   4.247   3.175
 3638SOL    HW211814   0.662   4.312   3.301
 3639SOL     OW11815   3.438   5.294   0.905
 3639SOL    HW111816   3.502   5.348   0.850
 3639SOL    HW211817   3.482   5.266   0.990
 3640SOL     OW11818   4.346   0.517   0.436
 3640SOL    HW111819   4.395   0.495   0.353
 3640SOL    HW211820   4.374   0.454   0.509
 3641SOL     OW11821   6.016   3.811   2.519
 3641SOL    HW111822   6.065   3.898   2.524
 3641SOL    HW211823   5.919   3.827   2.536
 3642SOL     OW11824   5.291   2.036   0.416
 3642SOL    HW111825   5.207   2.054   0.466
 3642SOL    HW211826   5.370   2.055   0.475
 3643SOL     OW11827   3.044   5.445   4.421
 3643SOL    HW111828   3.098   5.361   4.428
 3643SOL    HW211829   2.948   5.421   4.409
 3644SOL     OW11830   0.697   1.160   1.720
 3644SOL    HW111831   0.716   1.064   1.702
 3644SOL    HW211832   0.681   1.208   1.634
 3645SOL     OW11833   1.700   2.287   3.979
 3645SOL    HW111834   1.726   2.309   3.885
 3645SOL    HW211835   1.637   2.356   4.013
 3646SOL     OW11836   1.687   4.571   6.171
 3646SOL    HW111837   1.694   4.478   6.134
 3646SOL    HW211838   1.744   4.580   6.252
 3647SOL     OW11839   2.267   6.304   6.698
 3647SOL    HW111840   2.271   6.243   6.777
 3647SOL    HW211841   2.359   6.319   6.662
 3648SOL     OW11842   4.518   5.931   2.145
 3648SOL    HW111843   4.469   5.971   2.067
 3648SOL    HW211844   4.493   5.834   2.153
 3649SOL     OW11845   6.323   2.856   1.304
 3649SOL    HW111846   6.273   2.787   1.252
 3649SOL    HW211847   6.419   2.856   1.275
 3650SOL     OW11848   6.695   5.639   2.227
 3650SOL    HW111849   6.794   5.638   2.237
 3650SOL    HW211850   6.661   5.545   2.221
 3651SOL     OW11851   0.442   0.412   4.557
 3651SOL    HW111852   0.538   0.436   4.573
 3651SOL    HW211853   0.433   0.314   4.545
 3652SOL     OW11854   6.308   0.341   3.342
 3652SOL    HW111855   6.250   0.399   3.284
 3652SOL    HW211856   6.250   0.287   3.403
 3653SOL     OW11857   1.219   1.164   3.324
 3653SOL    HW111858   1.237   1.166   3.226
 3653SOL    HW211859   1.123   1.142   3.339
 3654SOL     OW11860   4.086   4.449   0.326
 3654SOL    HW111861   4.148   4.377   0.295
 3654SOL    HW211862   3.992   4.419   0.313
 3655SOL     OW11863   3.221   6.974   4.156
 3655SOL    HW111864   3.125   6.977   4.127
 3655SOL    HW211865   3.239   6.889   4.205
 3656SOL     OW11866   0.548   5.373   1.635
 3656SOL    HW111867   0.490   5.293   1.625
 3656SOL    HW211868   0.496   5.456   1.615
 3657SOL     OW11869   5.406   5.560   5.157
 3657SOL    HW111870   5.384   5.467   5.130
 3657SOL    HW211871   5.505   5.575   5.150
 3658SOL     OW11872   2.392   4.437   6.893
 3658SOL    HW111873   2.406   4.406   6.987
 3658SOL    HW211874   2.312   4.391   6.855
 3659SOL     OW11875   2.169   3.132   5.964
 3659SOL    HW111876   2.153   3.072   6.042
 3659SOL    HW211877   2.087   3.186   5.945
 3660SOL     OW11878   5.435   6.109   4.505
 3660SOL    HW111879   5.428   6.142   4.600
 3660SOL    HW211880   5.406   6.014   4.501
 3661SOL     OW11881   6.202   1.007   5.094
 3661SOL    HW111882   6.256   1.087   5.118
 3661SOL    HW211883   6.163   1.020   5.003
 3662SOL     OW11884   4.136   0.911   4.178
 3662SOL    HW111885   4.135   0.919   4.079
 3662SOL    HW211886   4.124   1.002   4.219
 3663SOL     OW11887   1.753   1.837   0.392
 3663SOL    HW111888   1.775   1.928   0.428
 3663SOL    HW211889   1.830   1.776   0.407
 3664SOL     OW11890   4.651   2.279   1.723
 3664SOL    HW111891   4.651   2.254   1.820
 3664SOL    HW211892   4.739   2.320   1.699
 3665SOL     OW11893   0.736   6.189   5.048
 3665SOL    HW111894   0.735   6.091   5.071
 3665SOL    HW211895   0.830   6.220   5.039
 3666SOL     OW11896   1.284   3.468   2.685
 3666SOL    HW111897   1.346   3.533   2.642
 3666SOL    HW211898   1.199   3.463   2.633
 3667SOL     OW11899   0.382   1.325   3.895
 3667SOL    HW111900   0.369   1.317   3.994
 3667SOL    HW211901   0.416   1.239   3.859
 3668SOL     OW11902   1.125   1.227   0.619
 3668SOL    HW111903   1.173   1.243   0.706
 3668SOL    HW211904   1.029   1.251   0.629
 3669SOL     OW11905   5.301   1.746   4.021
 3669SOL    HW111906   5.346   1.664   4.056
 3669SOL    HW211907   5.257   1.725   3.934
 3670SOL     OW11908   1.806   5.676   6.798
 3670SOL    HW111909   1.822   5.769   6.768
 3670SOL    HW211910   1.806   5.614   6.720
 3671SOL     OW11911   0.259   1.910   3.747
 3671SOL    HW111912   0.335   1.925   3.810
 3671SOL    HW211913   0.275   1.961   3.662
 3672SOL     OW11914   4.559   2.144   2.482
 3672SOL    HW111915   4.589   2.212   2.549
 3672SOL    HW211916   4.638   2.095   2.446
 3673SOL     OW11917   4.216   6.156   0.091
 3673SOL    HW111918   4.312   6.165   0.063
 3673SOL    HW211919   4.177   6.073   0.051
 3674SOL     OW11920   1.289   5.716   5.477
 3674SOL    HW111921   1.350   5.718   5.397
 3674SOL    HW211922   1.254   5.808   5.493
 3675SOL     OW11923   1.839   2.971   4.120
 3675SOL    HW111924   1.861   2.885   4.074
 3675SOL    HW211925   1.815   2.954   4.215
 3676SOL     OW11926   6.480   4.492   2.842
 3676SOL    HW111927   6.426   4.411   2.819
 3676SOL    HW211928   6.533   4.521   2.763
 3677SOL     OW11929   2.873   6.186   4.321
 3677SOL    HW111930   2.909   6.278   4.304
 3677SOL    HW211931   2.930   6.118   4.274
 3678SOL     OW11932   1.314   1.282   4.332
 3678SOL    HW111933   1.247   1.305   4.262
 3678SOL    HW211934   1.344   1.188   4.321
 3679SOL     OW11935   6.730   0.320   3.326
 3679SOL    HW111936   6.732   0.223   3.349
 3679SOL    HW211937   6.824   0.353   3.314
 3680SOL     OW11938   5.132   2.931   4.071
 3680SOL    HW111939   5.079   2.970   3.996
 3680SOL    HW211940   5.152   2.835   4.052
 3681SOL     OW11941   0.122   1.295   6.500
 3681SOL    HW111942   0.096   1.354   6.424
 3681SOL    HW211943   0.212   1.255   6.483
 3682SOL     OW11944   5.830   3.153   6.995
 3682SOL    HW111945   5.834   3.243   0.012
 3682SOL    HW211946   5.901   3.094   0.008
 3683SOL     OW11947   0.121   1.608   4.263
 3683SOL    HW111948   0.221   1.605   4.270
 3683SOL    HW211949   0.083   1.519   4.290
 3684SOL     OW11950   1.205   5.246   6.898
 3684SOL    HW111951   1.180   5.157   6.937
 3684SOL    HW211952   1.121   5.297   6.878
 3685SOL     OW11953   1.837   6.029   6.517
 3685SOL    HW111954   1.832   5.979   6.430
 3685SOL    HW211955   1.779   6.111   6.511
 3686SOL     OW11956   6.015   5.024   4.723
 3686SOL    HW111957   6.042   4.929   4.738
 3686SOL    HW211958   5.918   5.028   4.699
 3687SOL     OW11959   3.944   6.152   3.912
 3687SOL    HW111960   3.845   6.168   3.911
 3687SOL    HW211961   3.972   6.127   4.005
 3688SOL     OW11962   0.062   3.053   0.014
 3688SOL    HW111963   6.991   3.030   0.016
 3688SOL    HW211964   0.074   3.143   6.997
 3689SOL     OW11965   2.000   0.129   5.532
 3689SOL    HW111966   1.978   0.106   5.627
 3689SOL    HW211967   2.058   0.057   5.493
 3690SOL     OW11968   4.106   5.896   0.225
 3690SOL    HW111969   4.017   5.934   0.252
 3690SOL    HW211970   4.178   5.964   0.243
 3691SOL     OW11971   2.619   1.760   6.996
 3691SOL    HW111972   2.602   1.700   6.918
 3691SOL    HW211973   2.601   1.710   0.055
 3692SOL     OW11974   6.618   5.448   5.484
 3692SOL    HW111975   6.553   5.432   5.410
 3692SOL    HW211976   6.669   5.532   5.466
 3693SOL     OW11977   2.164   3.372   3.021
 3693SOL    HW111978   2.145   3.283   2.980
 3693SOL    HW211979   2.203   3.433   2.952
 3694SOL     OW11980   0.692   6.317   2.111
 3694SOL    HW111981   0.599   6.304   2.077
 3694SOL    HW211982   0.746   6.235   2.092
 3695SOL     OW11983   5.009   3.161   1.482
 3695SOL    HW111984   4.920   3.161   1.528
 3695SOL    HW211985   4.997   3.137   1.386
 3696SOL     OW11986   3.665   0.292   4.005
 3696SOL    HW111987   3.614   0.330   4.082
 3696SOL    HW211988   3.626   0.204   3.978
 3697SOL     OW11989   0.459   6.492   2.744
 3697SOL    HW111990   0.536   6.470   2.684
 3697SOL    HW211991   0.389   6.420   2.736
 3698SOL     OW11992   2.647   0.780   3.874
 3698SOL    HW111993   2.712   0.852   3.846
 3698SOL    HW211994   2.697   0.696   3.893
 3699SOL     OW11995   1.742   1.327   3.795
 3699SOL    HW111996   1.708   1.338   3.702
 3699SOL    HW211997   1.837   1.358   3.799
 3700SOL     OW11998   1.579   5.450   4.691
 3700SOL    HW111999   1.608   5.463   4.596
 3700SOL    HW212000   1.658   5.458   4.751
 3701SOL     OW12001   1.378   0.577   3.812
 3701SOL    HW112002   1.335   0.661   3.779
 3701SOL    HW212003   1.391   0.514   3.735
 3702SOL     OW12004   5.661   6.408   3.528
 3702SOL    HW112005   5.711   6.336   3.577
 3702SOL    HW212006   5.565   6.407   3.556
 3703SOL     OW12007   6.848   0.768   6.483
 3703SOL    HW112008   6.782   0.843   6.484
 3703SOL    HW212009   6.800   0.681   6.496
 3704SOL     OW12010   3.669   2.168   1.010
 3704SOL    HW112011   3.620   2.229   0.947
 3704SOL    HW212012   3.657   2.201   1.104
 3705SOL     OW12013   5.119   4.411   4.943
 3705SOL    HW112014   5.103   4.318   4.976
 3705SOL    HW212015   5.121   4.410   4.843
 3706SOL     OW12016   0.935   3.665   6.989
 3706SOL    HW112017   0.992   3.703   6.917
 3706SOL    HW212018   0.839   3.666   6.960
 3707SOL     OW12019   5.300   4.961   4.588
 3707SOL    HW112020   5.280   4.910   4.672
 3707SOL    HW212021   5.276   5.057   4.600
 3708SOL     OW12022   6.168   0.386   0.350
 3708SOL    HW112023   6.089   0.325   0.348
 3708SOL    HW212024   6.246   0.338   0.390
 3709SOL     OW12025   3.783   0.474   1.726
 3709SOL    HW112026   3.710   0.538   1.705
 3709SOL    HW212027   3.756   0.417   1.804
 3710SOL     OW12028   6.646   5.600   5.156
 3710SOL    HW112029   6.726   5.545   5.180
 3710SOL    HW212030   6.585   5.546   5.099
 3711SOL     OW12031   1.318   5.449   4.808
 3711SOL    HW112032   1.306   5.475   4.904
 3711SOL    HW212033   1.412   5.420   4.794
 3712SOL     OW12034   1.162   5.166   6.247
 3712SOL    HW112035   1.170   5.086   6.306
 3712SOL    HW212036   1.075   5.163   6.199
 3713SOL     OW12037   0.387   6.613   5.208
 3713SOL    HW112038   0.479   6.579   5.191
 3713SOL    HW212039   0.372   6.621   5.307
 3714SOL     OW12040   5.939   6.039   6.429
 3714SOL    HW112041   5.859   6.006   6.478
 3714SOL    HW212042   5.910   6.109   6.363
 3715SOL     OW12043   0.916   3.945   2.557
 3715SOL    HW112044   0.841   3.907   2.611
 3715SOL    HW212045   0.986   3.983   2.618
 3716SOL     OW12046   5.882   6.476   4.102
 3716SOL    HW112047   5.921   6.409   4.038
 3716SOL    HW212048   5.799   6.514   4.063
 3717SOL     OW12049   5.861   0.222   6.875
 3717SOL    HW112050   5.851   0.263   6.784
 3717SOL    HW212051   5.929   0.149   6.872
 3718SOL     OW12052   6.678   0.652   0.712
 3718SOL    HW112053   6.609   0.711   0.755
 3718SOL    HW212054   6.697   0.575   0.772
 3719SOL     OW12055   5.025   3.428   1.385
 3719SOL    HW112056   5.099   3.471   1.333
 3719SOL    HW212057   5.058   3.343   1.426
 3720SOL     OW12058   5.980   3.348   0.372
 3720SOL    HW112059   6.035   3.295   0.307
 3720SOL    HW212060   5.976   3.300   0.460
 3721SOL     OW12061   0.099   5.062   1.937
 3721SOL    HW112062   0.186   5.018   1.915
 3721SOL    HW212063   0.089   5.070   2.036
 3722SOL     OW12064   5.512   6.126   0.907
 3722SOL    HW112065   5.424   6.080   0.898
 3722SOL    HW212066   5.555   6.133   0.817
 3723SOL     OW12067   5.688   4.517   1.085
 3723SOL    HW112068   5.681   4.616   1.072
 3723SOL    HW212069   5.777   4.485   1.052
 3724SOL     OW12070   1.732   4.692   4.792
 3724SOL    HW112071   1.780   4.735   4.868
 3724SOL    HW212072   1.787   4.618   4.754
 3725SOL     OW12073   0.282   5.042   6.872
 3725SOL    HW112074   0.246   5.026   6.964
 3725SOL    HW212075   0.300   4.955   6.828
 3726SOL     OW12076   5.738   3.084   6.212
 3726SOL    HW112077   5.746   2.996   6.163
 3726SOL    HW212078   5.740   3.159   6.145
 3727SOL     OW12079   6.459   2.006   5.544
 3727SOL    HW112080   6.386   1.942   5.525
 3727SOL    HW212081   6.421   2.088   5.587
 3728SOL     OW12082   0.812   3.714   6.588
 3728SOL    HW112083   0.900   3.688   6.627
 3728SOL    HW212084   0.826   3.745   6.494
 3729SOL     OW12085   1.906   1.847   4.015
 3729SOL    HW112086   1.960   1.763   4.020
 3729SOL    HW212087   1.940   1.905   3.941
 3730SOL     OW12088   3.073   5.873   5.301
 3730SOL    HW112089   3.086   5.804   5.230
 3730SOL    HW212090   3.084   5.964   5.260
 3731SOL     OW12091   0.178   1.321   0.512
 3731SOL    HW112092   0.103   1.256   0.520
 3731SOL    HW212093   0.235   1.317   0.595
 3732SOL     OW12094   2.755   2.038   0.129
 3732SOL    HW112095   2.786   2.033   0.034
 3732SOL    HW212096   2.804   1.970   0.184
 3733SOL     OW12097   2.160   3.433   2.703
 3733SOL    HW112098   2.172   3.525   2.742
 3733SOL    HW212099   2.157   3.438   2.604
 3734SOL     OW12100   5.254   0.230   1.189
 3734SOL    HW112101   5.235   0.328   1.183
 3734SOL    HW212102   5.306   0.210   1.273
 3735SOL     OW12103   2.788   0.818   2.764
 3735SOL    HW112104   2.746   0.908   2.776
 3735SOL    HW212105   2.844   0.797   2.845
 3736SOL     OW12106   0.143   1.439   0.996
 3736SOL    HW112107   0.165   1.522   0.945
 3736SOL    HW212108   0.099   1.373   0.935
 3737SOL     OW12109   5.104   0.888   4.181
 3737SOL    HW112110   5.060   0.910   4.268
 3737SOL    HW212111   5.067   0.946   4.109
 3738SOL     OW12112   6.464   0.320   1.528
 3738SOL    HW112113   6.416   0.313   1.441
 3738SOL    HW212114   6.431   0.248   1.590
 3739SOL     OW12115   2.630   5.301   0.843
 3739SOL    HW112116   2.590   5.392   0.851
 3739SOL    HW212117   2.701   5.289   0.912
 3740SOL     OW12118   6.297   6.799   0.517
 3740SOL    HW112119   6.397   6.804   0.524
 3740SOL    HW212120   6.258   6.778   0.607
 3741SOL     OW12121   4.983   2.831   5.907
 3741SOL    HW112122   5.057   2.857   5.970
 3741SOL    HW212123   4.910   2.900   5.912
 3742SOL     OW12124   3.498   1.630   6.931
 3742SOL    HW112125   3.549   1.546   6.912
 3742SOL    HW212126   3.559   1.697   6.973
 3743SOL     OW12127   5.916   3.189   0.589
 3743SOL    HW112128   5.902   3.132   0.507
 3743SOL    HW212129   5.834   3.186   0.646
 3744SOL     OW12130   1.412   6.502   1.824
 3744SOL    HW112131   1.403   6.431   1.893
 3744SOL    HW212132   1.330   6.505   1.768
 3745SOL     OW12133   4.677   4.486   2.576
 3745SOL    HW112134   4.708   4.420   2.508
 3745SOL    HW212135   4.729   4.571   2.567
 3746SOL     OW12136   6.563   0.470   3.944
 3746SOL    HW112137   6.552   0.547   4.006
 3746SOL    HW212138   6.473   0.438   3.914
 3747SOL     OW12139   3.589   5.863   5.215
 3747SOL    HW112140   3.591   5.792   5.144
 3747SOL    HW212141   3.503   5.913   5.209
 3748SOL     OW12142   5.638   1.246   1.615
 3748SOL    HW112143   5.710   1.267   1.682
 3748SOL    HW212144   5.579   1.174   1.651
 3749SOL     OW12145   1.978   4.980   3.125
 3749SOL    HW112146   1.908   5.046   3.101
 3749SOL    HW212147   1.958   4.892   3.080
 3750SOL     OW12148   6.822   5.050   1.330
 3750SOL    HW112149   6.812   5.039   1.231
 3750SOL    HW212150   6.875   5.133   1.349
 3751SOL     OW12151   6.403   3.488   1.490
 3751SOL    HW112152   6.481   3.549   1.490
 3751SOL    HW212153   6.419   3.412   1.426
 3752SOL     OW12154   0.093   6.470   0.506
 3752SOL    HW112155   0.093   6.461   0.606
 3752SOL    HW212156   7.025   6.460   0.472
 3753SOL     OW12157   0.154   0.819   4.031
 3753SOL    HW112158   0.077   0.872   4.066
 3753SOL    HW212159   0.150   0.726   4.068
 3754SOL     OW12160   3.992   6.920   1.259
 3754SOL    HW112161   3.928   6.854   1.297
 3754SOL    HW212162   3.963   6.947   1.167
 3755SOL     OW12163   5.078   5.586   4.608
 3755SOL    HW112164   5.047   5.679   4.627
 3755SOL    HW212165   5.163   5.568   4.657
 3756SOL     OW12166   2.108   6.034   6.415
 3756SOL    HW112167   2.023   6.033   6.466
 3756SOL    HW212168   2.098   5.979   6.332
 3757SOL     OW12169   3.834   6.388   6.524
 3757SOL    HW112170   3.856   6.291   6.538
 3757SOL    HW212171   3.774   6.419   6.597
 3758SOL     OW12172   2.100   1.383   5.185
 3758SOL    HW112173   2.195   1.366   5.160
 3758SOL    HW212174   2.045   1.392   5.103
 3759SOL     OW12175   4.582   5.616   6.116
 3759SOL    HW112176   4.605   5.603   6.213
 3759SOL    HW212177   4.646   5.682   6.075
 3760SOL     OW12178   2.018   1.966   5.194
 3760SOL    HW112179   1.999   1.969   5.292
 3760SOL    HW212180   1.933   1.970   5.142
 3761SOL     OW12181   1.059   0.807   4.908
 3761SOL    HW112182   0.963   0.821   4.934
 3761SOL    HW212183   1.086   0.876   4.841
 3762SOL     OW12184   1.241   4.102   0.256
 3762SOL    HW112185   1.213   4.027   0.316
 3762SOL    HW212186   1.340   4.104   0.250
 3763SOL     OW12187   0.275   4.425   1.057
 3763SOL    HW112188   0.253   4.454   0.964
 3763SOL    HW212189   0.239   4.333   1.073
 3764SOL     OW12190   2.093   6.857   4.153
 3764SOL    HW112191   2.099   6.945   4.105
 3764SOL    HW212192   2.014   6.806   4.119
 3765SOL     OW12193   4.404   1.103   0.973
 3765SOL    HW112194   4.362   1.031   0.918
 3765SOL    HW212195   4.492   1.130   0.932
 3766SOL     OW12196   1.057   1.071   3.915
 3766SOL    HW112197   1.028   0.976   3.932
 3766SOL    HW212198   0.978   1.131   3.926
 3767SOL     OW12199   2.332   4.384   0.490
 3767SOL    HW112200   2.374   4.388   0.400
 3767SOL    HW212201   2.332   4.290   0.524
 3768SOL     OW12202   1.798   6.066   4.920
 3768SOL    HW112203   1.727   6.016   4.971
 3768SOL    HW212204   1.849   6.125   4.983
 3769SOL     OW12205   5.950   6.371   5.389
 3769SOL    HW112206   6.045   6.399   5.376
 3769SOL    HW212207   5.941   6.326   5.478
 3770SOL     OW12208   1.987   0.502   6.843
 3770SOL    HW112209   1.955   0.432   6.778
 3770SOL    HW212210   1.912   0.525   6.906
 3771SOL     OW12211   6.168   3.208   0.231
 3771SOL    HW112212   6.260   3.174   0.253
 3771SOL    HW212213   6.144   3.181   0.138
 3772SOL     OW12214   6.958   0.666   0.315
 3772SOL    HW112215   6.922   0.748   0.271
 3772SOL    HW212216   6.962   0.680   0.414
 3773SOL     OW12217   6.242   2.916   6.354
 3773SOL    HW112218   6.311   2.859   6.399
 3773SOL    HW212219   6.274   2.941   6.262
 3774SOL     OW12220   6.971   5.711   0.347
 3774SOL    HW112221   0.041   5.727   0.323
 3774SOL    HW212222   6.913   5.728   0.268
 3775SOL     OW12223   5.103   5.281   2.522
 3775SOL    HW112224   5.078   5.368   2.479
 3775SOL    HW212225   5.047   5.207   2.483
 3776SOL     OW12226   4.125   1.157   0.970
 3776SOL    HW112227   4.117   1.174   0.871
 3776SOL    HW212228   4.222   1.153   0.995
 3777SOL     OW12229   3.471   4.988   4.315
 3777SOL    HW112230   3.461   4.889   4.317
 3777SOL    HW212231   3.402   5.030   4.373
 3778SOL     OW12232   3.776   4.867   2.282
 3778SOL    HW112233   3.683   4.845   2.252
 3778SOL    HW212234   3.809   4.947   2.231
 3779SOL     OW12235   1.550   4.858   0.781
 3779SOL    HW112236   1.635   4.806   0.768
 3779SOL    HW212237   1.557   4.911   0.866
 3780SOL     OW12238   5.301   6.079   5.225
 3780SOL    HW112239   5.318   6.178   5.232
 3780SOL    HW212240   5.237   6.061   5.150
 3781SOL     OW12241   0.984   6.998   4.806
 3781SOL    HW112242   1.078   6.965   4.820
 3781SOL    HW212243   0.922   6.921   4.797
 3782SOL     OW12244   2.426   0.923   4.274
 3782SOL    HW112245   2.384   0.921   4.365
 3782SOL    HW212246   2.442   0.830   4.242
 3783SOL     OW12247   5.879   5.571   4.245
 3783SOL    HW112248   5.806   5.554   4.179
 3783SOL    HW212249   5.839   5.605   4.331
 3784SOL     OW12250   4.816   2.849   2.188
 3784SOL    HW112251   4.774   2.915   2.126
 3784SOL    HW212252   4.745   2.795   2.233
 3785SOL     OW12253   1.601   1.535   6.366
 3785SOL    HW112254   1.609   1.542   6.466
 3785SOL    HW212255   1.639   1.448   6.336
 3786SOL     OW12256   2.415   6.146   3.039
 3786SOL    HW112257   2.492   6.199   3.004
 3786SOL    HW212258   2.330   6.184   3.004
 3787SOL     OW12259   5.899   0.612   2.453
 3787SOL    HW112260   5.961   0.577   2.382
 3787SOL    HW212261   5.812   0.564   2.447
 3788SOL     OW12262   0.777   4.011   4.543
 3788SOL    HW112263   0.728   4.072   4.606
 3788SOL    HW212264   0.862   3.980   4.585
 3789SOL     OW12265   0.324   3.155   5.630
 3789SOL    HW112266   0.367   3.202   5.706
 3789SOL    HW212267   0.389   3.145   5.554
 3790SOL     OW12268   1.464   4.767   5.163
 3790SOL    HW112269   1.485   4.725   5.075
 3790SOL    HW212270   1.505   4.713   5.237
 3791SOL     OW12271   5.538   0.502   0.484
 3791SOL    HW112272   5.519   0.579   0.545
 3791SOL    HW212273   5.487   0.422   0.515
 3792SOL     OW12274   0.960   1.964   4.838
 3792SOL    HW112275   0.871   1.918   4.842
 3792SOL    HW212276   1.007   1.954   4.926
 3793SOL     OW12277   4.257   6.911   2.825
 3793SOL    HW112278   4.248   6.876   2.919
 3793SOL    HW212279   4.220   7.003   2.820
 3794SOL     OW12280   2.361   4.140   0.618
 3794SOL    HW112281   2.323   4.068   0.677
 3794SOL    HW212282   2.459   4.149   0.634
 3795SOL     OW12283   4.736   6.395   6.582
 3795SOL    HW112284   4.668   6.349   6.639
 3795SOL    HW212285   4.693   6.468   6.529
 3796SOL     OW12286   2.968   1.821   1.973
 3796SOL    HW112287   2.976   1.921   1.973
 3796SOL    HW212288   2.876   1.795   1.944
 3797SOL     OW12289   0.257   4.225   2.389
 3797SOL    HW112290   0.253   4.242   2.488
 3797SOL    HW212291   0.231   4.130   2.371
 3798SOL     OW12292   2.999   5.752   2.630
 3798SOL    HW112293   2.952   5.780   2.547
 3798SOL    HW212294   3.047   5.666   2.614
 3799SOL     OW12295   0.890   2.591   4.654
 3799SOL    HW112296   0.829   2.514   4.635
 3799SOL    HW212297   0.957   2.599   4.581
 3800SOL     OW12298   5.290   3.139   4.213
 3800SOL    HW112299   5.230   3.145   4.293
 3800SOL    HW212300   5.264   3.059   4.159
 3801SOL     OW12301   6.136   6.751   2.943
 3801SOL    HW112302   6.184   6.697   3.012
 3801SOL    HW212303   6.200   6.814   2.899
 3802SOL     OW12304   1.288   2.114   2.350
 3802SOL    HW112305   1.205   2.106   2.405
 3802SOL    HW212306   1.282   2.196   2.293
 3803SOL     OW12307   3.248   2.273   0.815
 3803SOL    HW112308   3.286   2.252   0.904
 3803SOL    HW212309   3.313   2.249   0.743
 3804SOL     OW12310   5.297   1.182   4.051
 3804SOL    HW112311   5.203   1.156   4.073
 3804SOL    HW212312   5.339   1.110   3.995
 3805SOL     OW12313   2.518   3.077   1.523
 3805SOL    HW112314   2.580   3.141   1.570
 3805SOL    HW212315   2.559   3.050   1.436
 3806SOL     OW12316   3.726   4.023   6.492
 3806SOL    HW112317   3.726   3.952   6.562
 3806SOL    HW212318   3.714   4.112   6.535
 3807SOL     OW12319   1.766   5.901   3.353
 3807SOL    HW112320   1.699   5.974   3.357
 3807SOL    HW212321   1.778   5.872   3.258
 3808SOL     OW12322   4.273   0.294   0.942
 3808SOL    HW112323   4.266   0.207   0.990
 3808SOL    HW212324   4.369   0.315   0.925
 3809SOL     OW12325   6.093   3.157   0.843
 3809SOL    HW112326   6.186   3.144   0.809
 3809SOL    HW212327   6.032   3.178   0.766
 3810SOL     OW12328   4.826   2.287   4.350
 3810SOL    HW112329   4.737   2.305   4.307
 3810SOL    HW212330   4.898   2.298   4.282
 3811SOL     OW12331   1.055   4.138   4.343
 3811SOL    HW112332   1.100   4.149   4.255
 3811SOL    HW212333   0.960   4.108   4.329
 3812SOL     OW12334   5.504   0.804   4.756
 3812SOL    HW112335   5.551   0.790   4.843
 3812SOL    HW212336   5.554   0.871   4.701
 3813SOL     OW12337   4.851   4.861   0.543
 3813SOL    HW112338   4.922   4.931   0.533
 3813SOL    HW212339   4.842   4.811   0.457
 3814SOL     OW12340   0.075   6.764   0.487
 3814SOL    HW112341   0.108   6.719   0.404
 3814SOL    HW212342   0.119   6.724   0.567
 3815SOL     OW12343   4.647   3.239   6.980
 3815SOL    HW112344   4.689   3.241   0.045
 3815SOL    HW212345   4.548   3.247   6.989
 3816SOL     OW12346   0.554   5.545   7.002
 3816SOL    HW112347   0.457   5.529   6.981
 3816SOL    HW212348   0.603   5.565   6.918
 3817SOL     OW12349   4.834   3.881   2.278
 3817SOL    HW112350   4.911   3.843   2.330
 3817SOL    HW212351   4.749   3.840   2.312
 3818SOL     OW12352   5.669   0.613   0.256
 3818SOL    HW112353   5.666   0.548   0.332
 3818SOL    HW212354   5.606   0.689   0.275
 3819SOL     OW12355   5.490   5.756   1.397
 3819SOL    HW112356   5.583   5.756   1.360
 3819SOL    HW212357   5.493   5.730   1.493
 3820SOL     OW12358   5.678   0.128   3.207
 3820SOL    HW112359   5.669   0.187   3.126
 3820SOL    HW212360   5.702   0.183   3.286
 3821SOL     OW12361   2.791   1.218   0.701
 3821SOL    HW112362   2.800   1.279   0.622
 3821SOL    HW212363   2.697   1.184   0.705
 3822SOL     OW12364   1.274   6.917   2.461
 3822SOL    HW112365   1.322   7.003   2.445
 3822SOL    HW212366   1.222   6.922   2.546
 3823SOL     OW12367   3.235   2.765   6.174
 3823SOL    HW112368   3.199   2.672   6.177
 3823SOL    HW212369   3.162   2.828   6.149
 3824SOL     OW12370   5.847   2.533   0.667
 3824SOL    HW112371   5.751   2.507   0.682
 3824SOL    HW212372   5.873   2.511   0.573
 3825SOL     OW12373   0.905   6.324   0.593
 3825SOL    HW112374   0.816   6.308   0.635
 3825SOL    HW212375   0.944   6.237   0.562
 3826SOL     OW12376   0.783   2.683   6.988
 3826SOL    HW112377   0.773   2.773   0.006
 3826SOL    HW212378   0.703   2.627   7.011
 3827SOL     OW12379   2.706   2.442   1.251
 3827SOL    HW112380   2.651   2.458   1.169
 3827SOL    HW212381   2.798   2.478   1.237
 3828SOL     OW12382   3.770   2.498   1.711
 3828SOL    HW112383   3.725   2.425   1.762
 3828SOL    HW212384   3.868   2.481   1.709
 3829SOL     OW12385   1.946   4.717   4.560
 3829SOL    HW112386   2.012   4.746   4.629
 3829SOL    HW212387   1.891   4.642   4.596
 3830SOL     OW12388   0.791   0.397   4.364
 3830SOL    HW112389   0.847   0.396   4.448
 3830SOL    HW212390   0.749   0.487   4.354
 3831SOL     OW12391   4.170   2.199   2.350
 3831SOL    HW112392   4.106   2.225   2.423
 3831SOL    HW212393   4.120   2.189   2.264
 3832SOL     OW12394   5.503   0.993   2.942
 3832SOL    HW112395   5.458   1.073   2.902
 3832SOL    HW212396   5.544   0.939   2.869
 3833SOL     OW12397   0.563   5.680   6.318
 3833SOL    HW112398   0.500   5.725   6.255
 3833SOL    HW212399   0.634   5.745   6.345
 3834SOL     OW12400   4.448   3.554   1.668
 3834SOL    HW112401   4.528   3.515   1.713
 3834SOL    HW212402   4.466   3.565   1.570
 3835SOL     OW12403   3.098   5.451   5.389
 3835SOL    HW112404   3.187   5.488   5.417
 3835SOL    HW212405   3.037   5.526   5.363
 3836SOL     OW12406   1.765   4.104   5.605
 3836SOL    HW112407   1.862   4.123   5.593
 3836SOL    HW212408   1.749   4.059   5.692
 3837SOL     OW12409   5.016   4.097   6.890
 3837SOL    HW112410   4.932   4.123   6.844
 3837SOL    HW212411   4.999   4.019   6.950
 3838SOL     OW12412   0.252   3.176   4.975
 3838SOL    HW112413   0.289   3.117   5.047
 3838SOL    HW212414   0.199   3.250   5.016
 3839SOL     OW12415   4.124   0.922   3.877
 3839SOL    HW112416   4.140   0.905   3.780
 3839SOL    HW212417   4.050   0.987   3.888
 3840SOL     OW12418   1.961   1.490   5.562
 3840SOL    HW112419   2.050   1.536   5.562
 3840SOL    HW212420   1.920   1.497   5.471
 3841SOL     OW12421   0.050   3.162   5.521
 3841SOL    HW112422   0.013   3.072   5.543
 3841SOL    HW212423   0.140   3.172   5.564
 3842SOL     OW12424   0.973   4.079   6.605
 3842SOL    HW112425   0.993   4.174   6.631
 3842SOL    HW212426   0.875   4.069   6.588
 3843SOL     OW12427   6.929   4.283   2.396
 3843SOL    HW112428   6.884   4.276   2.485
 3843SOL    HW212429   6.938   4.192   2.355
 3844SOL     OW12430   0.129   3.064   6.268
 3844SOL    HW112431   0.227   3.085   6.278
 3844SOL    HW212432   0.075   3.134   6.316
 3845SOL     OW12433   3.860   2.979   3.022
 3845SOL    HW112434   3.914   3.050   3.067
 3845SOL    HW212435   3.799   2.937   3.089
 3846SOL     OW12436   1.476   4.927   3.911
 3846SOL    HW112437   1.460   4.828   3.903
 3846SOL    HW212438   1.479   4.968   3.820
 3847SOL     OW12439   6.364   0.606   4.677
 3847SOL    HW112440   6.383   0.703   4.691
 3847SOL    HW212441   6.272   0.585   4.711
 3848SOL     OW12442   3.141   5.507   2.627
 3848SOL    HW112443   3.161   5.545   2.718
 3848SOL    HW212444   3.194   5.557   2.558
 3849SOL     OW12445   0.769   1.502   4.986
 3849SOL    HW112446   0.703   1.576   4.988
 3849SOL    HW212447   0.823   1.507   4.902
 3850SOL     OW12448   2.509   3.674   1.455
 3850SOL    HW112449   2.454   3.643   1.377
 3850SOL    HW212450   2.491   3.770   1.472
 3851SOL     OW12451   1.596   4.718   2.877
 3851SOL    HW112452   1.573   4.719   2.975
 3851SOL    HW212453   1.592   4.624   2.843
 3852SOL     OW12454   4.590   6.518   3.832
 3852SOL    HW112455   4.681   6.535   3.871
 3852SOL    HW212456   4.528   6.487   3.905
 3853SOL     OW12457   1.466   2.752   2.981
 3853SOL    HW112458   1.456   2.849   2.959
 3853SOL    HW212459   1.563   2.727   2.978
 3854SOL     OW12460   1.365   3.291   2.487
 3854SOL    HW112461   1.316   3.338   2.413
 3854SOL    HW212462   1.354   3.343   2.572
 3855SOL     OW12463   5.029   6.084   6.487
 3855SOL    HW112464   5.077   6.163   6.451
 3855SOL    HW212465   5.070   6.056   6.574
 3856SOL     OW12466   6.339   6.292   5.585
 3856SOL    HW112467   6.393   6.219   5.628
 3856SOL    HW212468   6.319   6.266   5.491
 3857SOL     OW12469   1.062   5.882   6.330
 3857SOL    HW112470   1.161   5.870   6.333
 3857SOL    HW212471   1.027   5.850   6.242
 3858SOL     OW12472   1.241   6.165   5.313
 3858SOL    HW112473   1.292   6.091   5.269
 3858SOL    HW212474   1.214   6.233   5.245
 3859SOL     OW12475   6.910   2.044   3.141
 3859SOL    HW112476   7.007   2.023   3.149
 3859SOL    HW212477   6.885   2.049   3.045
 3860SOL     OW12478   1.691   0.539   5.404
 3860SOL    HW112479   1.592   0.541   5.388
 3860SOL    HW212480   1.713   0.466   5.468
 3861SOL     OW12481   5.222   4.639   1.660
 3861SOL    HW112482   5.298   4.621   1.722
 3861SOL    HW212483   5.255   4.691   1.582
 3862SOL     OW12484   0.234   6.813   5.085
 3862SOL    HW112485   0.273   6.751   5.153
 3862SOL    HW212486   0.221   6.763   4.999
 3863SOL     OW12487   4.470   2.892   6.399
 3863SOL    HW112488   4.393   2.955   6.388
 3863SOL    HW212489   4.553   2.943   6.419
 3864SOL     OW12490   3.270   1.438   5.224
 3864SOL    HW112491   3.275   1.515   5.288
 3864SOL    HW212492   3.198   1.375   5.253
 3865SOL     OW12493   3.678   6.887   0.683
 3865SOL    HW112494   3.657   6.906   0.779
 3865SOL    HW212495   3.594   6.893   0.629
 3866SOL     OW12496   3.995   0.918   1.051
 3866SOL    HW112497   4.048   0.997   1.021
 3866SOL    HW212498   3.909   0.913   1.002
 3867SOL     OW12499   1.973   3.530   3.619
 3867SOL    HW112500   1.936   3.453   3.670
 3867SOL    HW212501   2.017   3.497   3.536
 3868SOL     OW12502   3.087   6.535   0.971
 3868SOL    HW112503   3.085   6.611   1.036
 3868SOL    HW212504   2.994   6.504   0.953
 3869SOL     OW12505   7.001   3.103   4.503
 3869SOL    HW112506   6.983   3.164   4.426
 3869SOL    HW212507   6.972   3.010   4.480
 3870SOL     OW12508   4.898   5.457   0.995
 3870SOL    HW112509   4.926   5.456   1.091
 3870SOL    HW212510   4.889   5.363   0.962
 3871SOL     OW12511   3.937   0.484   2.827
 3871SOL    HW112512   3.920   0.548   2.753
 3871SOL    HW212513   4.021   0.509   2.875
 3872SOL     OW12514   3.296   3.010   2.126
 3872SOL    HW112515   3.236   3.000   2.205
 3872SOL    HW212516   3.250   3.062   2.054
 3873SOL     OW12517   6.757   5.729   1.304
 3873SOL    HW112518   6.764   5.682   1.216
 3873SOL    HW212519   6.812   5.813   1.303
 3874SOL     OW12520   4.155   5.681   0.046
 3874SOL    HW112521   4.068   5.636   0.027
 3874SOL    HW212522   4.138   5.773   0.083
 3875SOL     OW12523   1.012   2.757   2.328
 3875SOL    HW112524   1.043   2.728   2.418
 3875SOL    HW212525   1.089   2.754   2.264
 3876SOL     OW12526   6.280   5.310   6.942
 3876SOL    HW112527   6.378   5.321   6.963
 3876SOL    HW212528   6.226   5.327   7.024
 3877SOL     OW12529   0.144   2.428   0.260
 3877SOL    HW112530   0.067   2.409   0.321
 3877SOL    HW212531   0.180   2.342   0.224
 3878SOL     OW12532   2.200   6.319   5.328
 3878SOL    HW112533   2.291   6.306   5.367
 3878SOL    HW212534   2.209   6.362   5.238
 3879SOL     OW12535   4.483   6.994   1.189
 3879SOL    HW112536   4.414   0.031   1.226
 3879SOL    HW212537   4.512   7.025   1.099
 3880SOL     OW12538   5.759   4.182   3.736
 3880SOL    HW112539   5.818   4.198   3.816
 3880SOL    HW212540   5.700   4.104   3.754
 3881SOL     OW12541   1.161   5.115   0.426
 3881SOL    HW112542   1.164   5.158   0.516
 3881SOL    HW212543   1.249   5.070   0.408
 3882SOL     OW12544   6.082   1.361   4.918
 3882SOL    HW112545   6.136   1.440   4.946
 3882SOL    HW212546   6.143   1.282   4.905
 3883SOL     OW12547   4.291   1.261   3.347
 3883SOL    HW112548   4.389   1.240   3.349
 3883SOL    HW212549   4.242   1.187   3.302
 3884SOL     OW12550   1.426   5.515   4.107
 3884SOL    HW112551   1.509   5.510   4.051
 3884SOL    HW212552   1.373   5.596   4.081
 3885SOL     OW12553   6.336   1.486   4.510
 3885SOL    HW112554   6.306   1.527   4.596
 3885SOL    HW212555   6.257   1.457   4.457
 3886SOL     OW12556   6.303   0.050   4.803
 3886SOL    HW112557   6.305   6.982   4.838
 3886SOL    HW212558   6.396   0.080   4.782
 3887SOL     OW12559   5.259   1.750   5.709
 3887SOL    HW112560   5.221   1.796   5.789
 3887SOL    HW212561   5.184   1.716   5.651
 3888SOL     OW12562   0.889   0.579   6.474
 3888SOL    HW112563   0.902   0.558   6.377
 3888SOL    HW212564   0.799   0.547   6.504
 3889SOL     OW12565   0.213   3.384   6.228
 3889SOL    HW112566   0.230   3.289   6.201
 3889SOL    HW212567   0.131   3.418   6.181
 3890SOL     OW12568   5.799   6.779   3.057
 3890SOL    HW112569   5.815   6.791   2.958
 3890SOL    HW212570   5.721   6.836   3.084
 3891SOL     OW12571   4.988   4.319   4.588
 3891SOL    HW112572   5.078   4.351   4.618
 3891SOL    HW212573   4.946   4.389   4.529
 3892SOL     OW12574   0.638   0.412   2.190
 3892SOL    HW112575   0.677   0.399   2.099
 3892SOL    HW212576   0.629   0.510   2.209
 3893SOL     OW12577   3.154   5.427   2.275
 3893SOL    HW112578   3.093   5.463   2.205
 3893SOL    HW212579   3.107   5.426   2.363
 3894SOL     OW12580   3.554   2.364   0.859
 3894SOL    HW112581   3.527   2.321   0.772
 3894SOL    HW212582   3.489   2.437   0.881
 3895SOL     OW12583   1.049   1.084   5.471
 3895SOL    HW112584   1.061   0.986   5.463
 3895SOL    HW212585   0.951   1.106   5.470
 3896SOL     OW12586   0.700   2.538   6.039
 3896SOL    HW112587   0.606   2.551   6.007
 3896SOL    HW212588   0.763   2.582   5.975
 3897SOL     OW12589   3.019   6.822   1.814
 3897SOL    HW112590   3.053   6.774   1.895
 3897SOL    HW212591   3.051   6.917   1.815
 3898SOL     OW12592   3.710   2.947   3.363
 3898SOL    HW112593   3.682   2.912   3.452
 3898SOL    HW212594   3.810   2.945   3.355
 3899SOL     OW12595   4.864   1.483   4.489
 3899SOL    HW112596   4.841   1.386   4.483
 3899SOL    HW212597   4.897   1.503   4.581
 3900SOL     OW12598   5.637   3.442   3.816
 3900SOL    HW112599   5.635   3.343   3.800
 3900SOL    HW212600   5.678   3.460   3.905
 3901SOL     OW12601   2.134   6.514   5.975
 3901SOL    HW112602   2.184   6.463   5.905
 3901SOL    HW212603   2.043   6.538   5.941
 3902SOL     OW12604   4.580   4.428   2.177
 3902SOL    HW112605   4.594   4.367   2.255
 3902SOL    HW212606   4.543   4.376   2.100
 3903SOL     OW12607   3.772   3.756   6.621
 3903SOL    HW112608   3.717   3.700   6.560
 3903SOL    HW212609   3.813   3.698   6.692
 3904SOL     OW12610   1.103   0.634   6.611
 3904SOL    HW112611   1.017   0.617   6.563
 3904SOL    HW212612   1.102   0.727   6.648
 3905SOL     OW12613   6.362   6.844   6.532
 3905SOL    HW112614   6.417   6.798   6.462
 3905SOL    HW212615   6.412   6.842   6.619
 3906SOL     OW12616   1.949   5.189   5.071
 3906SOL    HW112617   1.959   5.135   5.155
 3906SOL    HW212618   1.871   5.250   5.080
 3907SOL     OW12619   0.394   1.462   4.653
 3907SOL    HW112620   0.473   1.423   4.701
 3907SOL    HW212621   0.325   1.391   4.639
 3908SOL     OW12622   0.369   1.077   6.733
 3908SOL    HW112623   0.396   1.000   6.675
 3908SOL    HW212624   0.361   1.159   6.676
 3909SOL     OW12625   5.849   4.342   6.179
 3909SOL    HW112626   5.784   4.269   6.158
 3909SOL    HW212627   5.941   4.304   6.184
 3910SOL     OW12628   3.781   4.015   2.038
 3910SOL    HW112629   3.792   4.018   1.938
 3910SOL    HW212630   3.697   4.061   2.064
 3911SOL     OW12631   5.469   1.400   0.640
 3911SOL    HW112632   5.380   1.386   0.597
 3911SOL    HW212633   5.542   1.373   0.577
 3912SOL     OW12634   3.813   0.494   6.302
 3912SOL    HW112635   3.815   0.533   6.210
 3912SOL    HW212636   3.907   0.486   6.336
 3913SOL     OW12637   3.925   5.597   6.974
 3913SOL    HW112638   3.875   5.655   6.910
 3913SOL    HW212639   3.861   5.537   7.021
 3914SOL     OW12640   5.069   1.159   1.848
 3914SOL    HW112641   4.996   1.219   1.817
 3914SOL    HW212642   5.068   1.153   1.948
 3915SOL     OW12643   3.932   6.436   6.914
 3915SOL    HW112644   3.889   6.524   6.936
 3915SOL    HW212645   3.955   6.389   6.999
 3916SOL     OW12646   2.468   6.877   2.916
 3916SOL    HW112647   2.556   6.877   2.868
 3916SOL    HW212648   2.395   6.856   2.852
 3917SOL     OW12649   2.972   4.804   6.975
 3917SOL    HW112650   2.930   4.881   6.927
 3917SOL    HW212651   3.057   4.834   7.019
 3918SOL     OW12652   4.429   0.769   0.541
 3918SOL    HW112653   4.336   0.800   0.562
 3918SOL    HW212654   4.427   0.671   0.521
 3919SOL     OW12655   4.117   0.631   0.510
 3919SOL    HW112656   4.193   0.591   0.459
 3919SOL    HW212657   4.125   0.605   0.606
 3920SOL     OW12658   2.300   0.861   6.586
 3920SOL    HW112659   2.302   0.883   6.684
 3920SOL    HW212660   2.393   0.848   6.553
 3921SOL     OW12661   0.075   2.621   6.893
 3921SOL    HW112662   0.075   2.718   6.869
 3921SOL    HW212663   7.006   2.591   6.909
 3922SOL     OW12664   4.914   5.366   1.251
 3922SOL    HW112665   4.815   5.353   1.250
 3922SOL    HW212666   4.951   5.338   1.340
 3923SOL     OW12667   5.678   1.538   1.466
 3923SOL    HW112668   5.603   1.560   1.404
 3923SOL    HW212669   5.661   1.450   1.509
 3924SOL     OW12670   0.702   4.344   2.944
 3924SOL    HW112671   0.629   4.290   2.902
 3924SOL    HW212672   0.669   4.437   2.963
 3925SOL     OW12673   4.553   4.524   1.492
 3925SOL    HW112674   4.489   4.489   1.561
 3925SOL    HW212675   4.515   4.509   1.401
 3926SOL     OW12676   0.778   0.151   5.636
 3926SOL    HW112677   0.685   0.133   5.667
 3926SOL    HW212678   0.815   0.069   5.592
 3927SOL     OW12679   0.777   2.964   3.931
 3927SOL    HW112680   0.876   2.973   3.917
 3927SOL    HW212681   0.738   3.052   3.956
 3928SOL     OW12682   2.529   6.598   2.295
 3928SOL    HW112683   2.536   6.624   2.199
 3928SOL    HW212684   2.608   6.543   2.321
 3929SOL     OW12685   0.138   1.026   0.064
 3929SOL    HW112686   0.056   1.073   0.097
 3929SOL    HW212687   0.213   1.039   0.130
 3930SOL     OW12688   1.284   2.025   4.216
 3930SOL    HW112689   1.382   2.015   4.233
 3930SOL    HW212690   1.247   1.937   4.187
 3931SOL     OW12691   1.994   2.050   2.189
 3931SOL    HW112692   2.053   2.002   2.123
 3931SOL    HW212693   1.996   2.149   2.170
 3932SOL     OW12694   2.516   5.333   3.706
 3932SOL    HW112695   2.417   5.346   3.716
 3932SOL    HW212696   2.533   5.261   3.640
 3933SOL     OW12697   0.920   6.380   0.175
 3933SOL    HW112698   1.019   6.392   0.179
 3933SOL    HW212699   0.897   6.286   0.199
 3934SOL     OW12700   0.417   1.635   2.853
 3934SOL    HW112701   0.365   1.627   2.768
 3934SOL    HW212702   0.367   1.590   2.927
 3935SOL     OW12703   6.572   2.444   6.132
 3935SOL    HW112704   6.598   2.424   6.037
 3935SOL    HW212705   6.634   2.395   6.194
 3936SOL     OW12706   6.452   6.037   5.639
 3936SOL    HW112707   6.522   5.970   5.613
 3936SOL    HW212708   6.371   5.989   5.673
 3937SOL     OW12709   0.768   5.867   2.727
 3937SOL    HW112710   0.826   5.939   2.689
 3937SOL    HW212711   0.826   5.793   2.762
 3938SOL     OW12712   6.990   3.249   4.274
 3938SOL    HW112713   0.010   3.338   4.268
 3938SOL    HW212714   6.996   3.203   4.185
 3939SOL     OW12715   2.025   1.456   3.853
 3939SOL    HW112716   2.001   1.527   3.787
 3939SOL    HW212717   2.046   1.371   3.805
 3940SOL     OW12718   2.988   4.885   1.926
 3940SOL    HW112719   3.050   4.943   1.873
 3940SOL    HW212720   2.926   4.836   1.863
 3941SOL     OW12721   5.780   6.902   4.083
 3941SOL    HW112722   5.806   6.986   4.037
 3941SOL    HW212723   5.840   6.828   4.054
 3942SOL     OW12724   0.957   6.013   5.697
 3942SOL    HW112725   1.003   6.032   5.784
 3942SOL    HW212726   0.886   5.944   5.712
 3943SOL     OW12727   1.087   3.580   1.719
 3943SOL    HW112728   1.086   3.679   1.735
 3943SOL    HW212729   1.011   3.538   1.769
 3944SOL     OW12730   5.553   3.342   5.965
 3944SOL    HW112731   5.551   3.335   6.065
 3944SOL    HW212732   5.637   3.299   5.931
 3945SOL     OW12733   0.922   2.613   3.095
 3945SOL    HW112734   0.941   2.672   3.174
 3945SOL    HW212735   0.960   2.522   3.112
 3946SOL     OW12736   0.033   3.653   6.915
 3946SOL    HW112737   0.004   3.748   6.911
 3946SOL    HW212738   7.009   3.606   6.988
 3947SOL     OW12739   6.064   5.275   0.189
 3947SOL    HW112740   5.966   5.296   0.184
 3947SOL    HW212741   6.080   5.204   0.258
 3948SOL     OW12742   1.723   3.378   6.846
 3948SOL    HW112743   1.785   3.389   6.768
 3948SOL    HW212744   1.693   3.283   6.851
 3949SOL     OW12745   6.389   0.152   3.160
 3949SOL    HW112746   6.413   0.058   3.181
 3949SOL    HW212747   6.372   0.203   3.244
 3950SOL     OW12748   4.240   4.086   1.731
 3950SOL    HW112749   4.217   3.989   1.720
 3950SOL    HW212750   4.330   4.095   1.774
 3951SOL     OW12751   0.537   2.111   6.491
 3951SOL    HW112752   0.444   2.130   6.461
 3951SOL    HW212753   0.572   2.189   6.544
 3952SOL     OW12754   6.007   2.703   3.645
 3952SOL    HW112755   5.970   2.611   3.658
 3952SOL    HW212756   5.963   2.745   3.565
 3953SOL     OW12757   3.174   4.706   5.847
 3953SOL    HW112758   3.080   4.736   5.837
 3953SOL    HW212759   3.177   4.608   5.866
 3954SOL     OW12760   6.373   4.331   5.724
 3954SOL    HW112761   6.438   4.391   5.770
 3954SOL    HW212762   6.308   4.386   5.671
 3955SOL     OW12763   4.848   6.517   0.362
 3955SOL    HW112764   4.765   6.572   0.357
 3955SOL    HW212765   4.928   6.575   0.349
 3956SOL     OW12766   1.056   2.805   5.699
 3956SOL    HW112767   1.059   2.723   5.756
 3956SOL    HW212768   1.142   2.814   5.650
 3957SOL     OW12769   3.276   6.251   4.277
 3957SOL    HW112770   3.309   6.170   4.230
 3957SOL    HW212771   3.294   6.332   4.222
 3958SOL     OW12772   5.505   6.570   0.164
 3958SOL    HW112773   5.605   6.570   0.160
 3958SOL    HW212774   5.473   6.490   0.216
 3959SOL     OW12775   3.484   6.192   1.153
 3959SOL    HW112776   3.501   6.276   1.102
 3959SOL    HW212777   3.544   6.188   1.233
 3960SOL     OW12778   4.908   2.784   6.630
 3960SOL    HW112779   4.880   2.694   6.596
 3960SOL    HW212780   4.852   2.810   6.709
 3961SOL     OW12781   4.941   1.985   2.191
 3961SOL    HW112782   4.956   1.992   2.092
 3961SOL    HW212783   4.876   1.912   2.209
 3962SOL     OW12784   0.774   6.070   6.803
 3962SOL    HW112785   0.785   5.996   6.869
 3962SOL    HW212786   0.862   6.090   6.760
 3963SOL     OW12787   5.829   5.575   3.104
 3963SOL    HW112788   5.793   5.530   3.185
 3963SOL    HW212789   5.922   5.543   3.086
 3964SOL     OW12790   4.388   5.851   5.152
 3964SOL    HW112791   4.480   5.812   5.148
 3964SOL    HW212792   4.321   5.778   5.139
 3965SOL     OW12793   3.618   4.668   6.275
 3965SOL    HW112794   3.612   4.721   6.191
 3965SOL    HW212795   3.697   4.607   6.271
 3966SOL     OW12796   6.389   4.797   6.552
 3966SOL    HW112797   6.383   4.794   6.652
 3966SOL    HW212798   6.406   4.891   6.522
 3967SOL     OW12799   0.616   5.041   3.936
 3967SOL    HW112800   0.521   5.050   3.904
 3967SOL    HW212801   0.677   5.041   3.857
 3968SOL     OW12802   5.393   0.378   2.729
 3968SOL    HW112803   5.437   0.459   2.769
 3968SOL    HW212804   5.346   0.327   2.801
 3969SOL     OW12805   1.224   4.484   2.763
 3969SOL    HW112806   1.151   4.544   2.729
 3969SOL    HW212807   1.190   4.390   2.769
 3970SOL     OW12808   4.715   4.998   3.639
 3970SOL    HW112809   4.677   4.909   3.664
 3970SOL    HW212810   4.797   4.985   3.584
 3971SOL     OW12811   3.049   5.627   2.974
 3971SOL    HW112812   3.065   5.657   3.068
 3971SOL    HW212813   2.966   5.672   2.939
 3972SOL     OW12814   0.094   6.082   0.844
 3972SOL    HW112815   0.031   6.090   0.766
 3972SOL    HW212816   0.070   6.002   0.898
 3973SOL     OW12817   3.108   3.187   5.493
 3973SOL    HW112818   3.085   3.264   5.553
 3973SOL    HW212819   3.099   3.215   5.398
 3974SOL     OW12820   0.631   0.994   6.334
 3974SOL    HW112821   0.671   0.992   6.426
 3974SOL    HW212822   0.692   1.044   6.272
 3975SOL     OW12823   6.590   0.519   5.691
 3975SOL    HW112824   6.626   0.600   5.739
 3975SOL    HW212825   6.655   0.492   5.620
 3976SOL     OW12826   1.250   4.817   1.489
 3976SOL    HW112827   1.247   4.878   1.410
 3976SOL    HW212828   1.156   4.797   1.518
 3977SOL     OW12829   2.825   5.333   6.365
 3977SOL    HW112830   2.874   5.420   6.365
 3977SOL    HW212831   2.874   5.267   6.308
 3978SOL     OW12832   5.647   1.211   5.202
 3978SOL    HW112833   5.605   1.152   5.133
 3978SOL    HW212834   5.746   1.213   5.188
 3979SOL     OW12835   1.754   0.041   1.734
 3979SOL    HW112836   1.679   0.075   1.790
 3979SOL    HW212837   1.717   7.019   1.655
 3980SOL     OW12838   6.319   3.593   5.155
 3980SOL    HW112839   6.310   3.625   5.249
 3980SOL    HW212840   6.291   3.497   5.149
 3981SOL     OW12841   0.167   1.628   6.025
 3981SOL    HW112842   0.181   1.709   5.968
 3981SOL    HW212843   0.069   1.611   6.036
 3982SOL     OW12844   2.604   0.924   4.926
 3982SOL    HW112845   2.675   0.920   4.997
 3982SOL    HW212846   2.522   0.967   4.963
 3983SOL     OW12847   3.383   6.059   4.509
 3983SOL    HW112848   3.458   6.066   4.575
 3983SOL    HW212849   3.308   6.118   4.538
 3984SOL     OW12850   1.760   0.345   1.673
 3984SOL    HW112851   1.717   0.328   1.585
 3984SOL    HW212852   1.782   0.258   1.717
 3985SOL     OW12853   2.285   3.905   6.930
 3985SOL    HW112854   2.305   3.860   7.017
 3985SOL    HW212855   2.341   3.987   6.921
 3986SOL     OW12856   0.020   1.861   2.751
 3986SOL    HW112857   6.967   1.829   2.699
 3986SOL    HW212858   0.029   1.960   2.741
 3987SOL     OW12859   1.785   5.591   4.957
 3987SOL    HW112860   1.844   5.515   4.982
 3987SOL    HW212861   1.827   5.642   4.881
 3988SOL     OW12862   3.606   1.686   5.731
 3988SOL    HW112863   3.525   1.628   5.723
 3988SOL    HW212864   3.616   1.741   5.648
 3989SOL     OW12865   6.132   0.495   5.967
 3989SOL    HW112866   6.074   0.478   5.888
 3989SOL    HW212867   6.168   0.409   6.002
 3990SOL     OW12868   5.695   2.646   4.976
 3990SOL    HW112869   5.753   2.610   5.049
 3990SOL    HW212870   5.753   2.687   4.905
 3991SOL     OW12871   6.822   2.573   3.164
 3991SOL    HW112872   6.893   2.643   3.165
 3991SOL    HW212873   6.830   2.519   3.081
 3992SOL     OW12874   4.313   2.959   6.963
 3992SOL    HW112875   4.352   3.034   7.017
 3992SOL    HW212876   4.297   2.991   6.870
 3993SOL     OW12877   2.627   2.052   3.239
 3993SOL    HW112878   2.563   1.988   3.196
 3993SOL    HW212879   2.601   2.066   3.334
 3994SOL     OW12880   2.135   2.736   4.997
 3994SOL    HW112881   2.099   2.647   5.025
 3994SOL    HW212882   2.059   2.795   4.969
 3995SOL     OW12883   2.490   4.514   3.588
 3995SOL    HW112884   2.416   4.454   3.561
 3995SOL    HW212885   2.562   4.513   3.518
 3996SOL     OW12886   1.949   1.306   4.971
 3996SOL    HW112887   1.925   1.226   4.917
 3996SOL    HW212888   1.913   1.389   4.927
 3997SOL     OW12889   4.833   3.742   3.338
 3997SOL    HW112890   4.879   3.807   3.278
 3997SOL    HW212891   4.763   3.789   3.391
 3998SOL     OW12892   5.692   2.234   2.100
 3998SOL    HW112893   5.761   2.243   2.172
 3998SOL    HW212894   5.737   2.215   2.013
 3999SOL     OW12895   6.374   3.921   3.469
 3999SOL    HW112896   6.376   3.950   3.565
 3999SOL    HW212897   6.284   3.942   3.430
 4000SOL     OW12898   3.353   5.520   2.849
 4000SOL    HW112899   3.278   5.460   2.876
 4000SOL    HW212900   3.322   5.614   2.846
 4001SOL     OW12901   2.588   3.810   5.449
 4001SOL    HW112902   2.655   3.745   5.413
 4001SOL    HW212903   2.573   3.882   5.381
 4002SOL     OW12904   3.354   3.419   4.685
 4002SOL    HW112905   3.319   3.336   4.642
 4002SOL    HW212906   3.441   3.443   4.643
 4003SOL     OW12907   2.216   1.272   6.436
 4003SOL    HW112908   2.278   1.276   6.358
 4003SOL    HW212909   2.121   1.264   6.404
 4004SOL     OW12910   6.519   3.144   4.370
 4004SOL    HW112911   6.466   3.062   4.388
 4004SOL    HW212912   6.613   3.131   4.402
 4005SOL     OW12913   4.876   4.857   1.340
 4005SOL    HW112914   4.795   4.890   1.291
 4005SOL    HW212915   4.852   4.774   1.391
 4006SOL     OW12916   5.761   4.826   2.294
 4006SOL    HW112917   5.803   4.833   2.385
 4006SOL    HW212918   5.750   4.729   2.270
 4007SOL     OW12919   0.520   2.538   2.855
 4007SOL    HW112920   0.498   2.567   2.948
 4007SOL    HW212921   0.459   2.464   2.827
 4008SOL     OW12922   3.233   0.838   5.934
 4008SOL    HW112923   3.137   0.844   5.908
 4008SOL    HW212924   3.240   0.826   6.033
 4009SOL     OW12925   4.290   2.017   1.391
 4009SOL    HW112926   4.343   2.021   1.476
 4009SOL    HW212927   4.253   2.107   1.369
 4010SOL     OW12928   3.213   3.601   1.838
 4010SOL    HW112929   3.156   3.610   1.756
 4010SOL    HW212930   3.245   3.506   1.847
 4011SOL     OW12931   0.086   6.456   2.042
 4011SOL    HW112932   0.024   6.477   1.966
 4011SOL    HW212933   0.055   6.506   2.124
 4012SOL     OW12934   4.235   6.583   2.539
 4012SOL    HW112935   4.292   6.665   2.550
 4012SOL    HW212936   4.292   6.502   2.547
 4013SOL     OW12937   2.349   0.671   1.192
 4013SOL    HW112938   2.436   0.667   1.242
 4013SOL    HW212939   2.365   0.650   1.096
 4014SOL     OW12940   3.636   5.608   3.836
 4014SOL    HW112941   3.627   5.705   3.817
 4014SOL    HW212942   3.613   5.555   3.755
 4015SOL     OW12943   4.976   4.965   6.863
 4015SOL    HW112944   4.907   4.982   6.793
 4015SOL    HW212945   5.044   4.901   6.828
 4016SOL     OW12946   2.679   6.028   6.946
 4016SOL    HW112947   2.701   5.997   6.854
 4016SOL    HW212948   2.634   5.954   6.996
 4017SOL     OW12949   0.686   5.832   5.968
 4017SOL    HW112950   0.769   5.824   6.025
 4017SOL    HW212951   0.712   5.844   5.873
 4018SOL     OW12952   4.832   6.420   1.573
 4018SOL    HW112953   4.889   6.438   1.493
 4018SOL    HW212954   4.746   6.470   1.564
 4019SOL     OW12955   5.981   4.375   2.982
 4019SOL    HW112956   5.947   4.389   3.075
 4019SOL    HW212957   5.952   4.286   2.948
 4020SOL     OW12958   6.668   3.121   5.714
 4020SOL    HW112959   6.737   3.090   5.649
 4020SOL    HW212960   6.577   3.105   5.676
 4021SOL     OW12961   3.769   4.093   5.201
 4021SOL    HW112962   3.749   4.134   5.112
 4021SOL    HW212963   3.701   4.124   5.267
 4022SOL     OW12964   3.925   6.906   6.774
 4022SOL    HW112965   3.900   6.860   6.689
 4022SOL    HW212966   4.023   6.926   6.774
 4023SOL     OW12967   0.195   0.312   5.070
 4023SOL    HW112968   0.213   0.224   5.113
 4023SOL    HW212969   0.144   0.298   4.985
 4024SOL     OW12970   2.486   4.970   4.154
 4024SOL    HW112971   2.398   4.992   4.112
 4024SOL    HW212972   2.542   4.919   4.088
 4025SOL     OW12973   0.765   6.053   4.148
 4025SOL    HW112974   0.723   6.121   4.208
 4025SOL    HW212975   0.696   5.988   4.118
 4026SOL     OW12976   6.026   6.951   3.749
 4026SOL    HW112977   6.031   6.942   3.650
 4026SOL    HW212978   5.976   6.873   3.787
 4027SOL     OW12979   3.013   2.330   0.381
 4027SOL    HW112980   2.976   2.405   0.326
 4027SOL    HW212981   3.111   2.344   0.395
 4028SOL     OW12982   3.948   1.723   3.605
 4028SOL    HW112983   3.940   1.720   3.505
 4028SOL    HW212984   3.949   1.630   3.641
 4029SOL     OW12985   2.859   4.777   5.840
 4029SOL    HW112986   2.784   4.711   5.849
 4029SOL    HW212987   2.845   4.834   5.760
 4030SOL     OW12988   6.654   1.440   2.027
 4030SOL    HW112989   6.596   1.397   1.959
 4030SOL    HW212990   6.696   1.522   1.989
 4031SOL     OW12991   5.443   5.361   3.569
 4031SOL    HW112992   5.462   5.454   3.600
 4031SOL    HW212993   5.384   5.365   3.488
 4032SOL     OW12994   6.966   0.069   1.582
 4032SOL    HW112995   6.906   0.017   1.642
 4032SOL    HW212996   6.912   0.111   1.509
 4033SOL     OW12997   2.264   3.006   1.462
 4033SOL    HW112998   2.237   3.094   1.422
 4033SOL    HW212999   2.352   3.016   1.507
 4034SOL     OW13000   6.190   1.632   4.931
 4034SOL    HW113001   6.247   1.711   4.908
 4034SOL    HW213002   6.151   1.645   5.022
 4035SOL     OW13003   6.351   1.720   1.067
 4035SOL    HW113004   6.274   1.777   1.094
 4035SOL    HW213005   6.330   1.672   0.982
 4036SOL     OW13006   4.168   5.271   2.115
 4036SOL    HW113007   4.077   5.311   2.111
 4036SOL    HW213008   4.163   5.174   2.090
 4037SOL     OW13009   2.128   1.698   6.890
 4037SOL    HW113010   2.194   1.741   6.829
 4037SOL    HW213011   2.110   1.759   6.968
 4038SOL     OW13012   4.689   2.561   1.459
 4038SOL    HW113013   4.730   2.650   1.482
 4038SOL    HW213014   4.632   2.571   1.377
 4039SOL     OW13015   5.888   5.839   1.065
 4039SOL    HW113016   5.988   5.850   1.064
 4039SOL    HW213017   5.845   5.929   1.060
 4040SOL     OW13018   3.426   7.003   5.375
 4040SOL    HW113019   3.469   6.913   5.381
 4040SOL    HW213020   3.471   0.031   5.304
 4041SOL     OW13021   1.051   5.475   1.425
 4041SOL    HW113022   1.099   5.387   1.431
 4041SOL    HW213023   0.952   5.459   1.432
 4042SOL     OW13024   6.203   5.621   3.658
 4042SOL    HW113025   6.183   5.570   3.574
 4042SOL    HW213026   6.259   5.564   3.718
 4043SOL     OW13027   6.701   2.702   5.060
 4043SOL    HW113028   6.644   2.634   5.107
 4043SOL    HW213029   6.737   2.662   4.976
 4044SOL     OW13030   4.384   0.029   3.564
 4044SOL    HW113031   4.410   0.031   3.661
 4044SOL    HW213032   4.322   6.978   3.548
 4045SOL     OW13033   3.907   6.401   5.212
 4045SOL    HW113034   3.845   6.324   5.200
 4045SOL    HW213035   3.973   6.381   5.283
 4046SOL     OW13036   1.551   2.000   4.235
 4046SOL    HW113037   1.625   2.002   4.303
 4046SOL    HW213038   1.577   1.942   4.159
 4047SOL     OW13039   2.137   2.430   0.831
 4047SOL    HW113040   2.086   2.513   0.807
 4047SOL    HW213041   2.119   2.406   0.926
 4048SOL     OW13042   5.213   1.551   1.920
 4048SOL    HW113043   5.182   1.563   2.015
 4048SOL    HW213044   5.195   1.635   1.869
 4049SOL     OW13045   5.467   5.065   6.696
 4049SOL    HW113046   5.553   5.019   6.718
 4049SOL    HW213047   5.444   5.047   6.600
 4050SOL     OW13048   1.034   6.959   1.901
 4050SOL    HW113049   0.994   6.885   1.847
 4050SOL    HW213050   1.098   6.921   1.968
 4051SOL     OW13051   4.321   1.842   6.318
 4051SOL    HW113052   4.417   1.863   6.340
 4051SOL    HW213053   4.272   1.927   6.301
 4052SOL     OW13054   6.648   1.224   2.186
 4052SOL    HW113055   6.688   1.151   2.130
 4052SOL    HW213056   6.655   1.311   2.138
 4053SOL     OW13057   3.255   5.904   3.897
 4053SOL    HW113058   3.188   5.867   3.833
 4053SOL    HW213059   3.208   5.947   3.974
 4054SOL     OW13060   6.268   4.179   1.535
 4054SOL    HW113061   6.313   4.091   1.515
 4054SOL    HW213062   6.338   4.246   1.560
 4055SOL     OW13063   2.995   3.478   0.146
 4055SOL    HW113064   2.940   3.538   0.089
 4055SOL    HW213065   2.937   3.433   0.214
 4056SOL     OW13066   4.784   3.911   0.487
 4056SOL    HW113067   4.734   3.825   0.496
 4056SOL    HW213068   4.792   3.955   0.576
 4057SOL     OW13069   6.834   2.794   1.111
 4057SOL    HW113070   6.898   2.742   1.053
 4057SOL    HW213071   6.870   2.886   1.125
 4058SOL     OW13072   2.035   0.441   4.708
 4058SOL    HW113073   1.936   0.452   4.708
 4058SOL    HW213074   2.061   0.378   4.782
 4059SOL     OW13075   0.624   1.814   2.671
 4059SOL    HW113076   0.583   1.725   2.652
 4059SOL    HW213077   0.585   1.852   2.754
 4060SOL     OW13078   5.240   5.748   5.022
 4060SOL    HW113079   5.144   5.723   5.012
 4060SOL    HW213080   5.287   5.678   5.076
 4061SOL     OW13081   2.653   4.732   2.303
 4061SOL    HW113082   2.749   4.762   2.301
 4061SOL    HW213083   2.628   4.705   2.395
 4062SOL     OW13084   2.102   1.680   2.265
 4062SOL    HW113085   2.025   1.654   2.322
 4062SOL    HW213086   2.086   1.648   2.171
 4063SOL     OW13087   6.349   6.768   6.923
 4063SOL    HW113088   6.363   6.673   6.896
 4063SOL    HW213089   6.254   6.795   6.907
 4064SOL     OW13090   2.403   0.296   4.241
 4064SOL    HW113091   2.428   0.231   4.168
 4064SOL    HW213092   2.486   0.343   4.272
 4065SOL     OW13093   1.128   6.620   1.295
 4065SOL    HW113094   1.046   6.618   1.238
 4065SOL    HW213095   1.208   6.599   1.240
 4066SOL     OW13096   5.637   5.066   3.755
 4066SOL    HW113097   5.593   4.976   3.746
 4066SOL    HW213098   5.639   5.092   3.851
 4067SOL     OW13099   6.762   3.241   2.788
 4067SOL    HW113100   6.712   3.241   2.875
 4067SOL    HW213101   6.741   3.325   2.737
 4068SOL     OW13102   2.082   1.365   4.465
 4068SOL    HW113103   2.065   1.438   4.398
 4068SOL    HW213104   2.123   1.286   4.418
 4069SOL     OW13105   2.166   5.423   6.681
 4069SOL    HW113106   2.232   5.354   6.711
 4069SOL    HW213107   2.152   5.415   6.582
 4070SOL     OW13108   0.487   3.643   2.051
 4070SOL    HW113109   0.587   3.646   2.050
 4070SOL    HW213110   0.457   3.548   2.056
 4071SOL     OW13111   1.699   0.818   5.335
 4071SOL    HW113112   1.735   0.899   5.382
 4071SOL    HW213113   1.720   0.737   5.388
 4072SOL     OW13114   0.402   5.272   4.377
 4072SOL    HW113115   0.447   5.182   4.383
 4072SOL    HW213116   0.471   5.344   4.378
 4073SOL     OW13117   2.524   6.205   6.110
 4073SOL    HW113118   2.432   6.239   6.134
 4073SOL    HW213119   2.553   6.138   6.178
 4074SOL     OW13120   7.019   3.695   1.698
 4074SOL    HW113121   7.012   3.771   1.763
 4074SOL    HW213122   0.086   3.658   1.699
 4075SOL     OW13123   4.225   2.057   2.067
 4075SOL    HW113124   4.127   2.051   2.046
 4075SOL    HW213125   4.258   2.149   2.048
 4076SOL     OW13126   2.676   2.843   5.548
 4076SOL    HW113127   2.615   2.792   5.487
 4076SOL    HW213128   2.634   2.850   5.638
 4077SOL     OW13129   3.094   1.050   7.004
 4077SOL    HW113130   3.148   1.118   6.954
 4077SOL    HW213131   3.075   0.972   6.944
 4078SOL     OW13132   0.512   5.978   1.600
 4078SOL    HW113133   0.576   5.903   1.583
 4078SOL    HW213134   0.517   6.045   1.525
 4079SOL     OW13135   1.315   1.367   3.663
 4079SOL    HW113136   1.302   1.338   3.758
 4079SOL    HW213137   1.386   1.310   3.621
 4080SOL     OW13138   3.328   4.308   6.498
 4080SOL    HW113139   3.394   4.278   6.428
 4080SOL    HW213140   3.247   4.249   6.494
 4081SOL     OW13141   2.069   2.492   4.762
 4081SOL    HW113142   2.084   2.422   4.692
 4081SOL    HW213143   2.112   2.578   4.733
 4082SOL     OW13144   1.250   3.384   0.738
 4082SOL    HW113145   1.254   3.459   0.672
 4082SOL    HW213146   1.268   3.298   0.691
 4083SOL     OW13147   6.693   4.413   2.217
 4083SOL    HW113148   6.780   4.410   2.268
 4083SOL    HW213149   6.655   4.505   2.223
 4084SOL     OW13150   4.645   2.231   3.515
 4084SOL    HW113151   4.548   2.250   3.498
 4084SOL    HW213152   4.693   2.220   3.428
 4085SOL     OW13153   2.152   5.942   1.210
 4085SOL    HW113154   2.163   5.848   1.179
 4085SOL    HW213155   2.210   6.002   1.154
 4086SOL     OW13156   1.296   5.378   1.838
 4086SOL    HW113157   1.380   5.394   1.890
 4086SOL    HW213158   1.314   5.312   1.766
 4087SOL     OW13159   1.476   1.636   2.886
 4087SOL    HW113160   1.435   1.665   2.973
 4087SOL    HW213161   1.443   1.696   2.813
 4088SOL     OW13162   6.567   0.909   6.422
 4088SOL    HW113163   6.485   0.916   6.366
 4088SOL    HW213164   6.612   0.998   6.428
 4089SOL     OW13165   6.055   5.850   4.338
 4089SOL    HW113166   5.991   5.781   4.304
 4089SOL    HW213167   6.137   5.851   4.281
 4090SOL     OW13168   1.589   5.520   5.422
 4090SOL    HW113169   1.582   5.420   5.428
 4090SOL    HW213170   1.681   5.549   5.447
 4091SOL     OW13171   6.541   6.517   6.588
 4091SOL    HW113172   6.631   6.485   6.615
 4091SOL    HW213173   6.546   6.614   6.563
 4092SOL     OW13174   6.189   2.629   5.462
 4092SOL    HW113175   6.106   2.681   5.484
 4092SOL    HW213176   6.249   2.686   5.405
 4093SOL     OW13177   4.733   6.019   2.265
 4093SOL    HW113178   4.784   6.104   2.251
 4093SOL    HW213179   4.654   6.017   2.203
 4094SOL     OW13180   1.847   5.679   5.475
 4094SOL    HW113181   1.926   5.625   5.505
 4094SOL    HW213182   1.846   5.684   5.375
 4095SOL     OW13183   1.178   3.386   0.236
 4095SOL    HW113184   1.121   3.304   0.235
 4095SOL    HW213185   1.182   3.425   0.144
 4096SOL     OW13186   4.802   6.606   6.184
 4096SOL    HW113187   4.724   6.612   6.123
 4096SOL    HW213188   4.770   6.594   6.278
 4097SOL     OW13189   4.034   4.662   5.223
 4097SOL    HW113190   4.063   4.567   5.214
 4097SOL    HW213191   4.068   4.715   5.145
 4098SOL     OW13192   6.689   2.523   1.476
 4098SOL    HW113193   6.648   2.459   1.540
 4098SOL    HW213194   6.789   2.518   1.483
 4099SOL     OW13195   2.969   5.307   1.369
 4099SOL    HW113196   2.937   5.212   1.372
 4099SOL    HW213197   3.056   5.314   1.418
 4100SOL     OW13198   6.694   6.942   4.675
 4100SOL    HW113199   6.755   6.964   4.599
 4100SOL    HW213200   6.743   6.888   4.743
 4101SOL     OW13201   6.325   1.350   0.096
 4101SOL    HW113202   6.250   1.335   0.160
 4101SOL    HW213203   6.307   1.302   0.011
 4102SOL     OW13204   0.122   0.839   0.713
 4102SOL    HW113205   0.185   0.767   0.740
 4102SOL    HW213206   0.148   0.874   0.623
 4103SOL     OW13207   6.922   0.122   0.288
 4103SOL    HW113208   6.941   0.184   0.364
 4103SOL    HW213209   6.828   0.132   0.258
 4104SOL     OW13210   0.344   4.722   3.072
 4104SOL    HW113211   0.415   4.672   3.023
 4104SOL    HW213212   0.323   4.675   3.158
 4105SOL     OW13213   5.186   6.878   1.504
 4105SOL    HW113214   5.278   6.900   1.473
 4105SOL    HW213215   5.140   6.821   1.435
 4106SOL     OW13216   6.327   3.307   2.937
 4106SOL    HW113217   6.289   3.365   3.009
 4106SOL    HW213218   6.330   3.358   2.851
 4107SOL     OW13219   1.337   5.260   1.162
 4107SOL    HW113220   1.340   5.347   1.211
 4107SOL    HW213221   1.422   5.248   1.110
 4108SOL     OW13222   6.125   4.419   5.636
 4108SOL    HW113223   6.121   4.337   5.692
 4108SOL    HW213224   6.095   4.498   5.690
 4109SOL     OW13225   5.837   0.121   4.964
 4109SOL    HW113226   5.843   0.218   4.987
 4109SOL    HW213227   5.758   0.105   4.906
 4110SOL     OW13228   4.194   3.542   5.959
 4110SOL    HW113229   4.187   3.537   6.059
 4110SOL    HW213230   4.111   3.506   5.918
 4111SOL     OW13231   5.169   3.394   6.992
 4111SOL    HW113232   5.174   3.443   6.905
 4111SOL    HW213233   5.156   3.297   6.975
 4112SOL     OW13234   5.113   5.950   4.351
 4112SOL    HW113235   5.199   5.899   4.357
 4112SOL    HW213236   5.043   5.905   4.406
 4113SOL     OW13237   4.962   6.124   4.560
 4113SOL    HW113238   5.035   6.105   4.495
 4113SOL    HW213239   4.881   6.072   4.535
 4114SOL     OW13240   3.241   2.127   4.296
 4114SOL    HW113241   3.186   2.182   4.360
 4114SOL    HW213242   3.338   2.141   4.315
 4115SOL     OW13243   3.405   5.163   1.735
 4115SOL    HW113244   3.405   5.072   1.692
 4115SOL    HW213245   3.335   5.167   1.806
 4116SOL     OW13246   3.009   1.008   2.563
 4116SOL    HW113247   3.057   1.096   2.565
 4116SOL    HW213248   2.996   0.975   2.657
 4117SOL     OW13249   1.549   4.056   2.522
 4117SOL    HW113250   1.455   4.088   2.530
 4117SOL    HW213251   1.550   3.965   2.481
 4118SOL     OW13252   3.532   6.574   0.020
 4118SOL    HW113253   3.435   6.591   0.000
 4118SOL    HW213254   3.546   6.477   0.040
 4119SOL     OW13255   2.857   1.840   3.899
 4119SOL    HW113256   2.808   1.871   3.817
 4119SOL    HW213257   2.818   1.884   3.980
 4120SOL     OW13258   3.591   0.956   6.779
 4120SOL    HW113259   3.614   0.879   6.720
 4120SOL    HW213260   3.495   0.982   6.764
 4121SOL     OW13261   5.877   1.344   4.350
 4121SOL    HW113262   5.813   1.334   4.274
 4121SOL    HW213263   5.826   1.366   4.433
 4122SOL     OW13264   1.414   5.373   4.429
 4122SOL    HW113265   1.393   5.341   4.337
 4122SOL    HW213266   1.365   5.317   4.496
 4123SOL     OW13267   4.442   4.631   5.500
 4123SOL    HW113268   4.468   4.536   5.515
 4123SOL    HW213269   4.391   4.665   5.579
 4124SOL     OW13270   6.681   5.936   6.940
 4124SOL    HW113271   6.702   5.945   6.843
 4124SOL    HW213272   6.596   5.885   6.951
 4125SOL     OW13273   5.147   1.501   2.180
 4125SOL    HW113274   5.187   1.454   2.259
 4125SOL    HW213275   5.050   1.478   2.174
 4126SOL     OW13276   1.244   3.686   4.397
 4126SOL    HW113277   1.166   3.646   4.349
 4126SOL    HW213278   1.243   3.785   4.386
 4127SOL     OW13279   4.795   4.696   4.900
 4127SOL    HW113280   4.834   4.627   4.961
 4127SOL    HW213281   4.754   4.769   4.954
 4128SOL     OW13282   1.094   2.948   1.600
 4128SOL    HW113283   1.019   2.998   1.644
 4128SOL    HW213284   1.160   2.920   1.669
 4129SOL     OW13285   3.711   1.404   6.478
 4129SOL    HW113286   3.646   1.408   6.402
 4129SOL    HW213287   3.666   1.366   6.558
 4130SOL     OW13288   6.580   3.351   6.808
 4130SOL    HW113289   6.675   3.362   6.778
 4130SOL    HW213290   6.519   3.376   6.733
 4131SOL     OW13291   0.747   0.825   4.107
 4131SOL    HW113292   0.838   0.857   4.081
 4131SOL    HW213293   0.702   0.784   4.028
 4132SOL     OW13294   4.895   4.367   3.409
 4132SOL    HW113295   4.927   4.274   3.427
 4132SOL    HW213296   4.823   4.391   3.475
 4133SOL     OW13297   2.529   5.971   0.657
 4133SOL    HW113298   2.539   5.928   0.746
 4133SOL    HW213299   2.432   5.987   0.638
 4134SOL     OW13300   2.524   3.577   0.746
 4134SOL    HW113301   2.516   3.646   0.675
 4134SOL    HW213302   2.621   3.562   0.767
 4135SOL     OW13303   0.576   1.537   2.538
 4135SOL    HW113304   0.629   1.456   2.565
 4135SOL    HW213305   0.484   1.509   2.510
 4136SOL     OW13306   1.286   2.145   3.293
 4136SOL    HW113307   1.244   2.077   3.353
 4136SOL    HW213308   1.236   2.231   3.299
 4137SOL     OW13309   1.280   4.432   0.711
 4137SOL    HW113310   1.340   4.442   0.791
 4137SOL    HW213311   1.285   4.338   0.679
 4138SOL     OW13312   4.925   5.416   3.058
 4138SOL    HW113313   4.959   5.352   3.127
 4138SOL    HW213314   4.999   5.441   2.996
 4139SOL     OW13315   1.724   1.682   5.978
 4139SOL    HW113316   1.770   1.768   6.002
 4139SOL    HW213317   1.773   1.639   5.902
 4140SOL     OW13318   3.047   0.263   5.181
 4140SOL    HW113319   2.979   0.253   5.109
 4140SOL    HW213320   3.139   0.255   5.141
 4141SOL     OW13321   6.366   6.183   0.872
 4141SOL    HW113322   6.316   6.102   0.842
 4141SOL    HW213323   6.302   6.259   0.883
 4142SOL     OW13324   0.032   5.157   1.089
 4142SOL    HW113325   0.110   5.210   1.124
 4142SOL    HW213326   0.039   5.063   1.122
 4143SOL     OW13327   5.908   1.244   0.567
 4143SOL    HW113328   5.937   1.200   0.652
 4143SOL    HW213329   5.961   1.328   0.554
 4144SOL     OW13330   5.014   3.386   6.633
 4144SOL    HW113331   5.074   3.307   6.643
 4144SOL    HW213332   5.045   3.460   6.694
 4145SOL     OW13333   6.608   6.068   1.725
 4145SOL    HW113334   6.689   6.016   1.699
 4145SOL    HW213335   6.632   6.166   1.729
 4146SOL     OW13336   6.368   0.803   4.337
 4146SOL    HW113337   6.316   0.718   4.325
 4146SOL    HW213338   6.360   0.858   4.253
 4147SOL     OW13339   5.132   4.056   6.430
 4147SOL    HW113340   5.120   4.019   6.338
 4147SOL    HW213341   5.146   4.155   6.424
 4148SOL     OW13342   1.437   0.553   5.313
 4148SOL    HW113343   1.385   0.635   5.336
 4148SOL    HW213344   1.448   0.547   5.214
 4149SOL     OW13345   6.935   2.983   0.351
 4149SOL    HW113346   6.940   3.031   0.439
 4149SOL    HW213347   0.001   2.956   0.322
 4150SOL     OW13348   1.283   0.688   5.661
 4150SOL    HW113349   1.237   0.704   5.574
 4150SOL    HW213350   1.223   0.716   5.736
 4151SOL     OW13351   2.178   5.848   6.007
 4151SOL    HW113352   2.254   5.867   6.068
 4151SOL    HW213353   2.211   5.842   5.912
 4152SOL     OW13354   4.639   5.644   1.269
 4152SOL    HW113355   4.724   5.657   1.218
 4152SOL    HW213356   4.660   5.640   1.367
 4153SOL     OW13357   4.757   5.353   6.910
 4153SOL    HW113358   4.718   5.435   6.868
 4153SOL    HW213359   4.855   5.350   6.890
 4154SOL     OW13360   0.083   5.348   4.120
 4154SOL    HW113361   0.177   5.316   4.107
 4154SOL    HW213362   0.073   5.439   4.082
 4155SOL     OW13363   0.982   0.956   2.479
 4155SOL    HW113364   0.897   0.905   2.486
 4155SOL    HW213365   0.964   1.047   2.443
 4156SOL     OW13366   5.159   6.026   4.973
 4156SOL    HW113367   5.085   6.042   4.909
 4156SOL    HW213368   5.163   5.928   4.996
 4157SOL     OW13369   4.689   5.150   4.223
 4157SOL    HW113370   4.740   5.116   4.144
 4157SOL    HW213371   4.627   5.223   4.195
 4158SOL     OW13372   0.908   4.347   2.116
 4158SOL    HW113373   0.879   4.308   2.029
 4158SOL    HW213374   1.003   4.321   2.134
 4159SOL     OW13375   2.163   3.643   3.814
 4159SOL    HW113376   2.097   3.591   3.760
 4159SOL    HW213377   2.188   3.591   3.895
 4160SOL     OW13378   6.350   1.237   1.440
 4160SOL    HW113379   6.259   1.250   1.478
 4160SOL    HW213380   6.394   1.326   1.426
 4161SOL     OW13381   0.804   1.114   0.789
 4161SOL    HW113382   0.834   1.206   0.764
 4161SOL    HW213383   0.879   1.065   0.833
 4162SOL     OW13384   6.759   6.625   6.357
 4162SOL    HW113385   6.775   6.566   6.278
 4162SOL    HW213386   6.757   6.568   6.440
 4163SOL     OW13387   5.698   6.592   3.333
 4163SOL    HW113388   5.681   6.528   3.408
 4163SOL    HW213389   5.640   6.673   3.345
 4164SOL     OW13390   1.620   6.505   6.317
 4164SOL    HW113391   1.654   6.537   6.406
 4164SOL    HW213392   1.526   6.537   6.305
 4165SOL     OW13393   4.046   6.485   6.661
 4165SOL    HW113394   3.976   6.466   6.593
 4165SOL    HW213395   4.009   6.471   6.752
 4166SOL     OW13396   6.324   3.382   0.925
 4166SOL    HW113397   6.305   3.287   0.949
 4166SOL    HW213398   6.241   3.426   0.891
 4167SOL     OW13399   1.417   4.110   1.035
 4167SOL    HW113400   1.512   4.114   1.067
 4167SOL    HW213401   1.414   4.068   0.944
 4168SOL     OW13402   6.999   4.565   1.078
 4168SOL    HW113403   0.014   4.569   1.169
 4168SOL    HW213404   6.899   4.564   1.086
 4169SOL     OW13405   5.845   4.124   4.042
 4169SOL    HW113406   5.902   4.090   3.967
 4169SOL    HW213407   5.835   4.223   4.033
 4170SOL     OW13408   4.650   4.360   5.743
 4170SOL    HW113409   4.598   4.282   5.778
 4170SOL    HW213410   4.627   4.442   5.794
 4171SOL     OW13411   6.464   5.302   0.435
 4171SOL    HW113412   6.527   5.235   0.475
 4171SOL    HW213413   6.490   5.393   0.465
 4172SOL     OW13414   0.486   2.149   6.079
 4172SOL    HW113415   0.448   2.237   6.105
 4172SOL    HW213416   0.419   2.076   6.096
 4173SOL     OW13417   5.620   3.427   5.647
 4173SOL    HW113418   5.673   3.342   5.646
 4173SOL    HW213419   5.588   3.448   5.555
 4174SOL     OW13420   5.222   0.797   3.196
 4174SOL    HW113421   5.160   0.728   3.158
 4174SOL    HW213422   5.251   0.769   3.287
 4175SOL     OW13423   2.554   5.955   4.020
 4175SOL    HW113424   2.497   6.029   3.985
 4175SOL    HW213425   2.505   5.905   4.091
 4176SOL     OW13426   3.051   6.450   1.860
 4176SOL    HW113427   3.098   6.537   1.871
 4176SOL    HW213428   3.087   6.402   1.780
 4177SOL     OW13429   5.870   4.528   4.665
 4177SOL    HW113430   5.954   4.482   4.637
 4177SOL    HW213431   5.820   4.471   4.730
 4178SOL     OW13432   4.716   0.672   4.258
 4178SOL    HW113433   4.807   0.641   4.285
 4178SOL    HW213434   4.692   0.631   4.170
 4179SOL     OW13435   5.110   2.650   3.737
 4179SOL    HW113436   5.010   2.642   3.727
 4179SOL    HW213437   5.149   2.560   3.756
 4180SOL     OW13438   5.141   4.106   1.356
 4180SOL    HW113439   5.067   4.039   1.367
 4180SOL    HW213440   5.226   4.059   1.336
 4181SOL     OW13441   2.544   1.591   0.862
 4181SOL    HW113442   2.551   1.565   0.766
 4181SOL    HW213443   2.634   1.618   0.895
 4182SOL     OW13444   0.403   6.850   3.137
 4182SOL    HW113445   0.407   6.816   3.043
 4182SOL    HW213446   0.464   6.928   3.148
 4183SOL     OW13447   4.437   0.731   7.024
 4183SOL    HW113448   4.438   0.770   0.090
 4183SOL    HW213449   4.475   0.639   0.001
 4184SOL     OW13450   4.691   5.098   1.063
 4184SOL    HW113451   4.706   5.137   0.972
 4184SOL    HW213452   4.687   5.172   1.131
 4185SOL     OW13453   0.733   5.539   2.563
 4185SOL    HW113454   0.705   5.467   2.626
 4185SOL    HW213455   0.708   5.628   2.600
 4186SOL     OW13456   2.400   5.544   0.759
 4186SOL    HW113457   2.354   5.589   0.836
 4186SOL    HW213458   2.370   5.449   0.753
 4187SOL     OW13459   3.668   3.908   5.939
 4187SOL    HW113460   3.654   3.995   5.891
 4187SOL    HW213461   3.601   3.898   6.012
 4188SOL     OW13462   4.419   6.907   4.408
 4188SOL    HW113463   4.481   6.847   4.458
 4188SOL    HW213464   4.471   6.983   4.368
 4189SOL     OW13465   3.705   0.250   5.245
 4189SOL    HW113466   3.719   0.151   5.243
 4189SOL    HW213467   3.790   0.295   5.271
 4190SOL     OW13468   0.622   0.476   0.284
 4190SOL    HW113469   0.629   0.463   0.383
 4190SOL    HW213470   0.542   0.532   0.263
 4191SOL     OW13471   5.292   3.832   3.259
 4191SOL    HW113472   5.363   3.794   3.318
 4191SOL    HW213473   5.256   3.916   3.300
 4192SOL     OW13474   0.679   1.200   4.333
 4192SOL    HW113475   0.708   1.143   4.411
 4192SOL    HW213476   0.631   1.143   4.267
 4193SOL     OW13477   1.643   0.593   2.354
 4193SOL    HW113478   1.704   0.519   2.383
 4193SOL    HW213479   1.658   0.673   2.411
 4194SOL     OW13480   5.804   0.411   5.042
 4194SOL    HW113481   5.753   0.374   5.120
 4194SOL    HW213482   5.900   0.420   5.066
 4195SOL     OW13483   3.983   6.620   2.636
 4195SOL    HW113484   3.952   6.708   2.598
 4195SOL    HW213485   4.069   6.594   2.593
 4196SOL     OW13486   5.504   2.268   3.410
 4196SOL    HW113487   5.428   2.298   3.468
 4196SOL    HW213488   5.469   2.214   3.333
 4197SOL     OW13489   5.017   6.343   5.468
 4197SOL    HW113490   5.040   6.245   5.463
 4197SOL    HW213491   4.981   6.373   5.380
 4198SOL     OW13492   5.650   3.566   6.985
 4198SOL    HW113493   5.604   3.486   6.946
 4198SOL    HW213494   5.600   3.598   0.040
 4199SOL     OW13495   2.195   3.163   6.616
 4199SOL    HW113496   2.196   3.226   6.694
 4199SOL    HW213497   2.174   3.070   6.648
 4200SOL     OW13498   2.933   6.410   5.947
 4200SOL    HW113499   2.947   6.314   5.921
 4200SOL    HW213500   3.013   6.464   5.923
 4201SOL     OW13501   6.414   6.562   3.774
 4201SOL    HW113502   6.324   6.545   3.815
 4201SOL    HW213503   6.445   6.480   3.726
 4202SOL     OW13504   4.285   5.300   5.578
 4202SOL    HW113505   4.370   5.344   5.548
 4202SOL    HW213506   4.252   5.240   5.505
 4203SOL     OW13507   5.133   5.215   0.484
 4203SOL    HW113508   5.114   5.297   0.430
 4203SOL    HW213509   5.206   5.234   0.550
 4204SOL     OW13510   4.038   3.427   2.540
 4204SOL    HW113511   4.039   3.514   2.590
 4204SOL    HW213512   4.083   3.356   2.594
 4205SOL     OW13513   3.635   5.303   3.641
 4205SOL    HW113514   3.656   5.270   3.549
 4205SOL    HW213515   3.536   5.307   3.653
 4206SOL     OW13516   5.948   0.851   5.532
 4206SOL    HW113517   6.019   0.882   5.468
 4206SOL    HW213518   5.920   0.758   5.509
 4207SOL     OW13519   1.572   1.245   1.546
 4207SOL    HW113520   1.606   1.152   1.557
 4207SOL    HW213521   1.590   1.297   1.630
 4208SOL     OW13522   0.693   4.036   6.538
 4208SOL    HW113523   0.685   3.937   6.537
 4208SOL    HW213524   0.645   4.073   6.617
 4209SOL     OW13525   0.391   0.879   5.812
 4209SOL    HW113526   0.370   0.914   5.721
 4209SOL    HW213527   0.452   0.800   5.804
 4210SOL     OW13528   3.119   3.260   2.297
 4210SOL    HW113529   3.139   3.166   2.322
 4210SOL    HW213530   3.034   3.263   2.243
 4211SOL     OW13531   3.828   5.116   5.476
 4211SOL    HW113532   3.793   5.025   5.456
 4211SOL    HW213533   3.829   5.130   5.575
 4212SOL     OW13534   6.143   2.744   2.402
 4212SOL    HW113535   6.091   2.735   2.488
 4212SOL    HW213536   6.079   2.764   2.327
 4213SOL     OW13537   2.485   0.930   2.481
 4213SOL    HW113538   2.495   0.894   2.388
 4213SOL    HW213539   2.416   1.001   2.482
 4214SOL     OW13540   1.869   4.226   4.774
 4214SOL    HW113541   1.875   4.133   4.812
 4214SOL    HW213542   1.774   4.257   4.776
 4215SOL     OW13543   6.968   6.393   4.814
 4215SOL    HW113544   6.915   6.320   4.858
 4215SOL    HW213545   6.913   6.476   4.810
 4216SOL     OW13546   0.989   1.424   3.087
 4216SOL    HW113547   1.068   1.364   3.075
 4216SOL    HW213548   1.020   1.518   3.101
 4217SOL     OW13549   6.690   0.259   2.575
 4217SOL    HW113550   6.686   0.240   2.673
 4217SOL    HW213551   6.631   0.195   2.526
 4218SOL     OW13552   4.826   0.929   1.758
 4218SOL    HW113553   4.807   1.023   1.728
 4218SOL    HW213554   4.753   0.899   1.819
 4219SOL     OW13555   2.604   5.015   3.460
 4219SOL    HW113556   2.657   5.077   3.403
 4219SOL    HW213557   2.512   5.052   3.472
 4220SOL     OW13558   5.401   2.861   3.479
 4220SOL    HW113559   5.389   2.851   3.380
 4220SOL    HW213560   5.383   2.773   3.524
 4221SOL     OW13561   5.931   5.648   6.337
 4221SOL    HW113562   5.843   5.643   6.290
 4221SOL    HW213563   5.979   5.731   6.310
 4222SOL     OW13564   5.961   2.317   2.850
 4222SOL    HW113565   5.899   2.298   2.775
 4222SOL    HW213566   5.911   2.365   2.923
 4223SOL     OW13567   3.196   3.510   5.586
 4223SOL    HW113568   3.097   3.514   5.572
 4223SOL    HW213569   3.242   3.519   5.498
 4224SOL     OW13570   4.806   2.938   3.576
 4224SOL    HW113571   4.866   2.991   3.636
 4224SOL    HW213572   4.819   2.967   3.481
 4225SOL     OW13573   3.877   0.469   5.304
 4225SOL    HW113574   3.897   0.513   5.216
 4225SOL    HW213575   3.910   0.527   5.379
 4226SOL     OW13576   0.672   0.573   2.731
 4226SOL    HW113577   0.656   0.637   2.806
 4226SOL    HW213578   0.749   0.605   2.676
 4227SOL     OW13579   3.578   4.870   6.491
 4227SOL    HW113580   3.557   4.784   6.446
 4227SOL    HW213581   3.611   4.936   6.423
 4228SOL     OW13582   0.786   3.814   3.791
 4228SOL    HW113583   0.837   3.818   3.877
 4228SOL    HW213584   0.724   3.736   3.792
 4229SOL     OW13585   4.770   5.183   5.111
 4229SOL    HW113586   4.760   5.180   5.012
 4229SOL    HW213587   4.818   5.101   5.143
 4230SOL     OW13588   2.117   0.670   4.162
 4230SOL    HW113589   2.104   0.572   4.176
 4230SOL    HW213590   2.177   0.686   4.084
 4231SOL     OW13591   5.680   5.988   5.036
 4231SOL    HW113592   5.752   5.977   4.967
 4231SOL    HW213593   5.722   5.991   5.127
 4232SOL     OW13594   6.985   4.501   2.237
 4232SOL    HW113595   6.971   4.412   2.281
 4232SOL    HW213596   6.943   4.573   2.292
 4233SOL     OW13597   6.862   0.717   0.005
 4233SOL    HW113598   6.788   0.732   6.965
 4233SOL    HW213599   6.939   0.673   6.984
 4234SOL     OW13600   1.463   0.012   5.775
 4234SOL    HW113601   1.385   0.008   5.837
 4234SOL    HW213602   1.548   7.024   5.826
 4235SOL     OW13603   4.854   3.710   5.591
 4235SOL    HW113604   4.862   3.706   5.492
 4235SOL    HW213605   4.871   3.618   5.629
 4236SOL     OW13606   0.505   3.615   2.688
 4236SOL    HW113607   0.473   3.526   2.656
 4236SOL    HW213608   0.476   3.686   2.623
 4237SOL     OW13609   6.543   5.462   3.640
 4237SOL    HW113610   6.533   5.370   3.677
 4237SOL    HW213611   6.528   5.459   3.541
 4238SOL     OW13612   3.317   4.981   2.747
 4238SOL    HW113613   3.260   5.063   2.749
 4238SOL    HW213614   3.293   4.925   2.668
 4239SOL     OW13615   5.889   1.190   3.628
 4239SOL    HW113616   5.967   1.131   3.607
 4239SOL    HW213617   5.910   1.284   3.602
 4240SOL     OW13618   2.278   0.018   0.286
 4240SOL    HW113619   2.330   0.041   0.204
 4240SOL    HW213620   2.330   6.979   0.342
 4241SOL     OW13621   5.987   1.024   1.215
 4241SOL    HW113622   6.051   1.101   1.224
 4241SOL    HW213623   5.931   1.037   1.134
 4242SOL     OW13624   2.064   0.706   3.561
 4242SOL    HW113625   2.063   0.688   3.659
 4242SOL    HW213626   2.094   0.625   3.511
 4243SOL     OW13627   0.143   3.712   3.768
 4243SOL    HW113628   0.155   3.806   3.736
 4243SOL    HW213629   0.061   3.673   3.726
 4244SOL     OW13630   5.350   5.523   0.942
 4244SOL    HW113631   5.328   5.565   1.031
 4244SOL    HW213632   5.286   5.449   0.924
 4245SOL     OW13633   6.276   1.075   6.494
 4245SOL    HW113634   6.216   1.129   6.435
 4245SOL    HW213635   6.270   0.979   6.468
 4246SOL     OW13636   5.858   2.896   3.490
 4246SOL    HW113637   5.798   2.968   3.526
 4246SOL    HW213638   5.892   2.923   3.400
 4247SOL     OW13639   2.291   5.254   3.305
 4247SOL    HW113640   2.315   5.216   3.394
 4247SOL    HW213641   2.279   5.353   3.313
 4248SOL     OW13642   1.413   1.149   3.513
 4248SOL    HW113643   1.339   1.136   3.447
 4248SOL    HW213644   1.501   1.152   3.466
 4249SOL     OW13645   5.048   1.513   4.004
 4249SOL    HW113646   4.968   1.454   4.015
 4249SOL    HW213647   5.064   1.564   4.088
 4250SOL     OW13648   6.195   6.072   4.732
 4250SOL    HW113649   6.252   6.007   4.681
 4250SOL    HW213650   6.123   6.107   4.672
 4251SOL     OW13651   6.231   3.200   1.200
 4251SOL    HW113652   6.329   3.180   1.206
 4251SOL    HW213653   6.184   3.127   1.151
 4252SOL     OW13654   5.291   6.125   5.927
 4252SOL    HW113655   5.250   6.066   5.997
 4252SOL    HW213656   5.303   6.217   5.964
 4253SOL     OW13657   3.486   6.863   1.617
 4253SOL    HW113658   3.541   6.890   1.539
 4253SOL    HW213659   3.535   6.794   1.670
 4254SOL     OW13660   1.861   3.974   2.008
 4254SOL    HW113661   1.890   3.884   1.973
 4254SOL    HW213662   1.770   3.996   1.972
 4255SOL     OW13663   6.845   4.350   3.902
 4255SOL    HW113664   6.888   4.268   3.941
 4255SOL    HW213665   6.914   4.404   3.853
 4256SOL     OW13666   0.813   5.983   0.990
 4256SOL    HW113667   0.854   5.990   0.899
 4256SOL    HW213668   0.729   5.929   0.984
 4257SOL     OW13669   3.738   1.630   4.359
 4257SOL    HW113670   3.666   1.623   4.291
 4257SOL    HW213671   3.772   1.724   4.362
 4258SOL     OW13672   2.986   6.075   0.911
 4258SOL    HW113673   2.932   6.089   0.828
 4258SOL    HW213674   3.051   6.151   0.921
 4259SOL     OW13675   1.484   6.701   1.056
 4259SOL    HW113676   1.489   6.647   1.141
 4259SOL    HW213677   1.573   6.699   1.010
 4260SOL     OW13678   5.804   0.987   3.267
 4260SOL    HW113679   5.706   0.991   3.288
 4260SOL    HW213680   5.826   1.055   3.197
 4261SOL     OW13681   1.734   0.532   3.087
 4261SOL    HW113682   1.739   0.502   2.992
 4261SOL    HW213683   1.665   0.604   3.095
 4262SOL     OW13684   1.025   3.825   6.120
 4262SOL    HW113685   0.987   3.917   6.105
 4262SOL    HW213686   1.102   3.811   6.058
 4263SOL     OW13687   2.340   0.268   3.383
 4263SOL    HW113688   2.371   0.197   3.447
 4263SOL    HW213689   2.246   0.246   3.354
 4264SOL     OW13690   6.917   2.423   4.579
 4264SOL    HW113691   6.884   2.360   4.508
 4264SOL    HW213692   6.900   2.383   4.669
 4265SOL     OW13693   3.959   0.988   0.693
 4265SOL    HW113694   3.932   0.932   0.614
 4265SOL    HW213695   3.919   0.949   0.776
 4266SOL     OW13696   2.191   6.304   6.430
 4266SOL    HW113697   2.226   6.280   6.521
 4266SOL    HW213698   2.165   6.221   6.381
 4267SOL     OW13699   2.238   4.228   4.382
 4267SOL    HW113700   2.229   4.166   4.304
 4267SOL    HW213701   2.286   4.311   4.354
 4268SOL     OW13702   1.316   5.558   6.959
 4268SOL    HW113703   1.364   5.515   0.011
 4268SOL    HW213704   1.319   5.657   6.970
 4269SOL     OW13705   2.847   0.275   3.299
 4269SOL    HW113706   2.910   0.225   3.359
 4269SOL    HW213707   2.776   0.212   3.266
 4270SOL     OW13708   3.496   2.837   2.071
 4270SOL    HW113709   3.461   2.758   2.121
 4270SOL    HW213710   3.437   2.916   2.087
 4271SOL     OW13711   0.227   0.554   0.838
 4271SOL    HW113712   0.267   0.609   0.910
 4271SOL    HW213713   0.198   0.466   0.876
 4272SOL     OW13714   6.354   2.681   4.630
 4272SOL    HW113715   6.269   2.670   4.578
 4272SOL    HW213716   6.421   2.613   4.598
 4273SOL     OW13717   4.791   6.417   4.609
 4273SOL    HW113718   4.830   6.478   4.678
 4273SOL    HW213719   4.827   6.324   4.623
 4274SOL     OW13720   1.613   6.977   2.301
 4274SOL    HW113721   1.533   6.943   2.251
 4274SOL    HW213722   1.587   0.032   2.355
 4275SOL     OW13723   6.965   1.896   3.957
 4275SOL    HW113724   7.010   1.807   3.946
 4275SOL    HW213725   6.983   1.953   3.877
 4276SOL     OW13726   2.751   5.164   3.911
 4276SOL    HW113727   2.827   5.228   3.923
 4276SOL    HW213728   2.679   5.208   3.858
 4277SOL     OW13729   6.703   4.625   2.971
 4277SOL    HW113730   6.627   4.606   2.909
 4277SOL    HW213731   6.713   4.724   2.982
 4278SOL     OW13732   6.789   6.891   4.964
 4278SOL    HW113733   6.872   6.945   4.958
 4278SOL    HW213734   6.781   6.852   5.056
 4279SOL     OW13735   1.881   1.226   3.046
 4279SOL    HW113736   1.837   1.288   2.981
 4279SOL    HW213737   1.939   1.279   3.109
 4280SOL     OW13738   5.867   0.038   5.484
 4280SOL    HW113739   5.818   0.016   5.399
 4280SOL    HW213740   5.951   7.009   5.488
 4281SOL     OW13741   5.616   5.053   3.242
 4281SOL    HW113742   5.664   5.115   3.304
 4281SOL    HW213743   5.584   4.973   3.294
 4282SOL     OW13744   3.201   4.369   0.507
 4282SOL    HW113745   3.273   4.356   0.438
 4282SOL    HW213746   3.151   4.453   0.486
 4283SOL     OW13747   2.477   1.134   3.553
 4283SOL    HW113748   2.539   1.159   3.479
 4283SOL    HW213749   2.529   1.110   3.635
 4284SOL     OW13750   4.028   4.603   0.842
 4284SOL    HW113751   4.003   4.531   0.778
 4284SOL    HW213752   4.103   4.658   0.804
 4285SOL     OW13753   2.549   1.307   6.032
 4285SOL    HW113754   2.626   1.342   5.979
 4285SOL    HW213755   2.503   1.235   5.979
 4286SOL     OW13756   5.960   6.675   6.108
 4286SOL    HW113757   5.876   6.715   6.073
 4286SOL    HW213758   6.014   6.745   6.154
 4287SOL     OW13759   4.560   0.943   5.917
 4287SOL    HW113760   4.601   0.873   5.860
 4287SOL    HW213761   4.523   1.016   5.859
 4288SOL     OW13762   0.665   5.570   3.838
 4288SOL    HW113763   0.748   5.578   3.894
 4288SOL    HW213764   0.631   5.661   3.817
 4289SOL     OW13765   0.863   2.048   5.914
 4289SOL    HW113766   0.843   2.109   5.991
 4289SOL    HW213767   0.796   2.064   5.841
 4290SOL     OW13768   1.118   6.154   4.846
 4290SOL    HW113769   1.143   6.199   4.760
 4290SOL    HW213770   1.054   6.079   4.828
 4291SOL     OW13771   5.117   3.594   6.786
 4291SOL    HW113772   5.166   3.665   6.836
 4291SOL    HW213773   5.022   3.622   6.772
 4292SOL     OW13774   6.419   3.098   0.279
 4292SOL    HW113775   6.458   3.129   0.365
 4292SOL    HW213776   6.387   3.003   0.290
 4293SOL     OW13777   3.522   4.638   0.127
 4293SOL    HW113778   3.491   4.722   0.082
 4293SOL    HW213779   3.509   4.646   0.225
 4294SOL     OW13780   2.054   0.942   6.454
 4294SOL    HW113781   2.067   0.982   6.364
 4294SOL    HW213782   2.139   0.897   6.483
 4295SOL     OW13783   5.578   5.785   4.229
 4295SOL    HW113784   5.574   5.702   4.284
 4295SOL    HW213785   5.674   5.810   4.212
 4296SOL     OW13786   3.267   6.618   0.000
 4296SOL    HW113787   3.187   6.594   6.970
 4296SOL    HW213788   3.243   6.694   0.061
 4297SOL     OW13789   5.760   0.314   2.048
 4297SOL    HW113790   5.720   0.401   2.079
 4297SOL    HW213791   5.854   0.330   2.017
 4298SOL     OW13792   3.467   5.914   1.027
 4298SOL    HW113793   3.494   6.006   1.055
 4298SOL    HW213794   3.452   5.857   1.108
 4299SOL     OW13795   1.480   2.657   6.864
 4299SOL    HW113796   1.402   2.708   6.829
 4299SOL    HW213797   1.447   2.581   6.921
 4300SOL     OW13798   2.658   6.945   0.272
 4300SOL    HW113799   2.756   6.962   0.266
 4300SOL    HW213800   2.608   0.005   0.261
 4301SOL     OW13801   4.418   0.224   1.357
 4301SOL    HW113802   4.514   0.218   1.385
 4301SOL    HW213803   4.365   0.266   1.431
 4302SOL     OW13804   6.895   0.520   6.206
 4302SOL    HW113805   6.943   0.490   6.123
 4302SOL    HW213806   6.816   0.461   6.221
 4303SOL     OW13807   0.214   4.341   4.189
 4303SOL    HW113808   0.276   4.418   4.199
 4303SOL    HW213809   0.120   4.371   4.207
 4304SOL     OW13810   3.430   3.250   2.618
 4304SOL    HW113811   3.463   3.171   2.567
 4304SOL    HW213812   3.508   3.300   2.656
 4305SOL     OW13813   0.801   6.943   5.872
 4305SOL    HW113814   0.851   6.974   5.791
 4305SOL    HW213815   0.865   6.931   5.948
 4306SOL     OW13816   4.563   4.870   4.285
 4306SOL    HW113817   4.641   4.815   4.313
 4306SOL    HW213818   4.584   4.967   4.300
 4307SOL     OW13819   5.857   3.557   5.358
 4307SOL    HW113820   5.809   3.470   5.375
 4307SOL    HW213821   5.836   3.589   5.266
 4308SOL     OW13822   6.149   5.935   1.153
 4308SOL    HW113823   6.133   5.876   1.232
 4308SOL    HW213824   6.244   5.966   1.153
 4309SOL     OW13825   0.872   1.361   0.682
 4309SOL    HW113826   0.895   1.443   0.735
 4309SOL    HW213827   0.877   1.382   0.585
 4310SOL     OW13828   1.333   2.763   1.535
 4310SOL    HW113829   1.292   2.743   1.447
 4310SOL    HW213830   1.270   2.738   1.608
 4311SOL     OW13831   0.225   5.874   2.883
 4311SOL    HW113832   0.176   5.927   2.814
 4311SOL    HW213833   0.217   5.919   2.972
 4312SOL     OW13834   1.592   5.540   2.801
 4312SOL    HW113835   1.526   5.466   2.790
 4312SOL    HW213836   1.593   5.596   2.718
 4313SOL     OW13837   4.691   2.114   0.968
 4313SOL    HW113838   4.637   2.091   1.050
 4313SOL    HW213839   4.786   2.088   0.982
 4314SOL     OW13840   5.798   2.042   5.163
 4314SOL    HW113841   5.804   2.061   5.261
 4314SOL    HW213842   5.704   2.021   5.138
 4315SOL     OW13843   1.959   0.331   3.649
 4315SOL    HW113844   1.863   0.345   3.673
 4315SOL    HW213845   1.973   0.349   3.552
 4316SOL     OW13846   4.472   0.405   1.939
 4316SOL    HW113847   4.406   0.465   1.984
 4316SOL    HW213848   4.466   0.417   1.840
 4317SOL     OW13849   5.435   1.534   5.531
 4317SOL    HW113850   5.373   1.579   5.467
 4317SOL    HW213851   5.400   1.544   5.624
 4318SOL     OW13852   1.396   1.909   4.826
 4318SOL    HW113853   1.349   1.894   4.912
 4318SOL    HW213854   1.348   1.862   4.752
 4319SOL     OW13855   2.099   1.857   1.013
 4319SOL    HW113856   2.143   1.946   1.008
 4319SOL    HW213857   2.168   1.785   1.005
 4320SOL     OW13858   3.740   5.329   0.904
 4320SOL    HW113859   3.712   5.302   0.812
 4320SOL    HW213860   3.719   5.255   0.968
 4321SOL     OW13861   6.953   4.556   4.542
 4321SOL    HW113862   6.951   4.509   4.631
 4321SOL    HW213863   6.961   4.654   4.557
 4322SOL     OW13864   6.126   3.163   6.998
 4322SOL    HW113865   6.203   3.099   6.993
 4322SOL    HW213866   6.122   3.216   6.914
 4323SOL     OW13867   4.967   4.735   0.242
 4323SOL    HW113868   4.991   4.830   0.222
 4323SOL    HW213869   4.950   4.686   0.156
 4324SOL     OW13870   6.173   4.618   6.242
 4324SOL    HW113871   6.208   4.602   6.335
 4324SOL    HW213872   6.132   4.709   6.237
 4325SOL     OW13873   3.000   1.376   2.070
 4325SOL    HW113874   2.952   1.408   2.151
 4325SOL    HW213875   3.016   1.453   2.008
 4326SOL     OW13876   4.786   4.604   1.936
 4326SOL    HW113877   4.768   4.568   2.027
 4326SOL    HW213878   4.748   4.543   1.867
 4327SOL     OW13879   5.137   5.803   1.896
 4327SOL    HW113880   5.133   5.857   1.812
 4327SOL    HW213881   5.089   5.852   1.969
 4328SOL     OW13882   5.704   4.820   5.593
 4328SOL    HW113883   5.773   4.880   5.554
 4328SOL    HW213884   5.733   4.790   5.684
 4329SOL     OW13885   4.599   2.802   5.490
 4329SOL    HW113886   4.644   2.889   5.510
 4329SOL    HW213887   4.515   2.819   5.438
 4330SOL     OW13888   2.130   6.233   4.372
 4330SOL    HW113889   2.055   6.181   4.330
 4330SOL    HW213890   2.141   6.204   4.467
 4331SOL     OW13891   5.663   0.897   1.863
 4331SOL    HW113892   5.647   0.989   1.827
 4331SOL    HW213893   5.744   0.858   1.819
 4332SOL     OW13894   5.651   3.258   2.619
 4332SOL    HW113895   5.638   3.204   2.702
 4332SOL    HW213896   5.632   3.201   2.539
 4333SOL     OW13897   4.475   1.670   5.259
 4333SOL    HW113898   4.517   1.682   5.350
 4333SOL    HW213899   4.389   1.620   5.268
 4334SOL     OW13900   2.096   2.555   2.296
 4334SOL    HW113901   2.087   2.551   2.197
 4334SOL    HW213902   2.190   2.581   2.320
 4335SOL     OW13903   3.946   3.088   1.386
 4335SOL    HW113904   3.874   3.023   1.360
 4335SOL    HW213905   3.948   3.098   1.485
 4336SOL     OW13906   2.653   6.423   6.072
 4336SOL    HW113907   2.749   6.415   6.049
 4336SOL    HW213908   2.618   6.334   6.102
 4337SOL     OW13909   2.329   4.599   1.731
 4337SOL    HW113910   2.327   4.586   1.632
 4337SOL    HW213911   2.406   4.547   1.770
 4338SOL     OW13912   6.446   6.850   5.746
 4338SOL    HW113913   6.406   6.898   5.668
 4338SOL    HW213914   6.399   6.876   5.830
 4339SOL     OW13915   4.069   2.645   6.428
 4339SOL    HW113916   4.167   2.639   6.447
 4339SOL    HW213917   4.034   2.732   6.463
 4340SOL     OW13918   6.399   3.854   1.708
 4340SOL    HW113919   6.426   3.944   1.743
 4340SOL    HW213920   6.350   3.804   1.779
 4341SOL     OW13921   1.545   5.290   0.956
 4341SOL    HW113922   1.613   5.235   1.003
 4341SOL    HW213923   1.570   5.386   0.961
 4342SOL     OW13924   5.621   4.004   3.110
 4342SOL    HW113925   5.638   3.908   3.086
 4342SOL    HW213926   5.644   4.018   3.206
 4343SOL     OW13927   3.182   5.921   4.654
 4343SOL    HW113928   3.115   5.873   4.597
 4343SOL    HW213929   3.254   5.959   4.596
 4344SOL     OW13930   1.369   3.557   2.925
 4344SOL    HW113931   1.345   3.511   2.840
 4344SOL    HW213932   1.356   3.656   2.915
 4345SOL     OW13933   3.428   4.087   4.710
 4345SOL    HW113934   3.389   4.092   4.618
 4345SOL    HW213935   3.365   4.127   4.776
 4346SOL     OW13936   2.084   3.106   2.932
 4346SOL    HW113937   1.989   3.078   2.948
 4346SOL    HW213938   2.108   3.093   2.836
 4347SOL     OW13939   5.639   6.377   3.136
 4347SOL    HW113940   5.663   6.280   3.144
 4347SOL    HW213941   5.653   6.423   3.223
 4348SOL     OW13942   0.067   5.872   4.493
 4348SOL    HW113943   0.075   5.777   4.463
 4348SOL    HW213944   0.086   5.933   4.416
 4349SOL     OW13945   6.459   1.931   3.248
 4349SOL    HW113946   6.492   1.933   3.154
 4349SOL    HW213947   6.525   1.882   3.305
 4350SOL     OW13948   4.155   1.813   3.844
 4350SOL    HW113949   4.099   1.761   3.780
 4350SOL    HW213950   4.099   1.884   3.887
 4351SOL     OW13951   1.081   6.098   1.297
 4351SOL    HW113952   1.165   6.063   1.257
 4351SOL    HW213953   1.100   6.137   1.387
 4352SOL     OW13954   6.301   4.405   2.268
 4352SOL    HW113955   6.365   4.479   2.283
 4352SOL    HW213956   6.208   4.442   2.262
 4353SOL     OW13957   3.530   3.117   6.797
 4353SOL    HW113958   3.506   3.212   6.778
 4353SOL    HW213959   3.501   3.059   6.721
 4354SOL     OW13960   2.073   1.062   6.203
 4354SOL    HW113961   2.048   1.157   6.183
 4354SOL    HW213962   2.153   1.036   6.150
 4355SOL     OW13963   1.845   6.814   2.807
 4355SOL    HW113964   1.923   6.775   2.758
 4355SOL    HW213965   1.770   6.830   2.742
 4356SOL     OW13966   4.657   3.601   6.361
 4356SOL    HW113967   4.729   3.568   6.300
 4356SOL    HW213968   4.589   3.651   6.307
 4357SOL     OW13969   0.112   0.834   1.417
 4357SOL    HW113970   0.070   0.919   1.387
 4357SOL    HW213971   0.047   0.783   1.473
 4358SOL     OW13972   6.476   0.867   0.649
 4358SOL    HW113973   6.383   0.894   0.677
 4358SOL    HW213974   6.471   0.809   0.568
 4359SOL     OW13975   1.470   1.375   6.900
 4359SOL    HW113976   1.498   1.467   6.929
 4359SOL    HW213977   1.490   1.309   6.972
 4360SOL     OW13978   0.521   3.198   3.811
 4360SOL    HW113979   0.583   3.215   3.888
 4360SOL    HW213980   0.431   3.236   3.832
 4361SOL     OW13981   2.277   4.163   1.492
 4361SOL    HW113982   2.306   4.239   1.434
 4361SOL    HW213983   2.180   4.171   1.512
 4362SOL     OW13984   6.816   5.766   4.495
 4362SOL    HW113985   6.768   5.848   4.463
 4362SOL    HW213986   6.750   5.704   4.537
 4363SOL     OW13987   4.447   1.742   1.596
 4363SOL    HW113988   4.368   1.775   1.647
 4363SOL    HW213989   4.421   1.719   1.503
 4364SOL     OW13990   3.211   4.074   3.657
 4364SOL    HW113991   3.228   3.981   3.691
 4364SOL    HW213992   3.150   4.069   3.578
 4365SOL     OW13993   2.513   0.832   2.211
 4365SOL    HW113994   2.516   0.905   2.142
 4365SOL    HW213995   2.481   0.747   2.169
 4366SOL     OW13996   6.256   0.017   6.368
 4366SOL    HW113997   6.302   6.994   6.443
 4366SOL    HW213998   6.256   0.115   6.387
 4367SOL     OW13999   2.538   4.797   3.664
 4367SOL    HW114000   2.518   4.703   3.637
 4367SOL    HW214001   2.555   4.852   3.583
 4368SOL     OW14002   3.684   5.589   1.957
 4368SOL    HW114003   3.618   5.516   1.942
 4368SOL    HW214004   3.677   5.623   2.051
 4369SOL     OW14005   4.813   4.809   2.858
 4369SOL    HW114006   4.844   4.837   2.949
 4369SOL    HW214007   4.714   4.796   2.859
 4370SOL     OW14008   3.809   4.701   1.231
 4370SOL    HW114009   3.768   4.788   1.258
 4370SOL    HW214010   3.793   4.633   1.303
 4371SOL     OW14011   2.040   2.042   2.885
 4371SOL    HW114012   2.094   1.962   2.858
 4371SOL    HW214013   1.962   2.052   2.824
 4372SOL     OW14014   2.413   2.744   4.317
 4372SOL    HW114015   2.464   2.830   4.312
 4372SOL    HW214016   2.334   2.755   4.377
 4373SOL     OW14017   4.283   1.192   0.020
 4373SOL    HW114018   4.278   1.155   6.953
 4373SOL    HW214019   4.294   1.117   0.085
 4374SOL     OW14020   1.275   1.690   1.558
 4374SOL    HW114021   1.248   1.727   1.469
 4374SOL    HW214022   1.215   1.613   1.582
 4375SOL     OW14023   4.240   5.941   2.766
 4375SOL    HW114024   4.216   6.026   2.812
 4375SOL    HW214025   4.276   5.962   2.675
 4376SOL     OW14026   6.068   0.366   2.488
 4376SOL    HW114027   6.079   0.330   2.395
 4376SOL    HW214028   6.140   0.331   2.547
 4377SOL     OW14029   5.760   5.415   6.915
 4377SOL    HW114030   5.763   5.429   6.816
 4377SOL    HW214031   5.800   5.325   6.937
 4378SOL     OW14032   1.776   2.913   2.675
 4378SOL    HW114033   1.695   2.858   2.695
 4378SOL    HW214034   1.778   2.934   2.577
 4379SOL     OW14035   2.119   1.595   1.673
 4379SOL    HW114036   2.037   1.652   1.671
 4379SOL    HW214037   2.144   1.575   1.768
 4380SOL     OW14038   1.949   6.342   4.107
 4380SOL    HW114039   2.003   6.412   4.154
 4380SOL    HW214040   1.865   6.326   4.159
 4381SOL     OW14041   2.252   4.133   4.822
 4381SOL    HW114042   2.296   4.221   4.805
 4381SOL    HW214043   2.271   4.104   4.916
 4382SOL     OW14044   5.950   3.146   6.371
 4382SOL    HW114045   5.889   3.134   6.293
 4382SOL    HW214046   5.999   3.060   6.388
 4383SOL     OW14047   0.870   2.974   5.548
 4383SOL    HW114048   0.787   3.014   5.587
 4383SOL    HW214049   0.905   2.904   5.610
 4384SOL     OW14050   5.408   1.263   6.659
 4384SOL    HW114051   5.383   1.309   6.744
 4384SOL    HW214052   5.502   1.228   6.666
 4385SOL     OW14053   6.942   2.770   4.552
 4385SOL    HW114054   0.012   2.749   4.532
 4385SOL    HW214055   6.930   2.780   4.651
 4386SOL     OW14056   1.774   3.613   6.633
 4386SOL    HW114057   1.683   3.592   6.670
 4386SOL    HW214058   1.807   3.699   6.671
 4387SOL     OW14059   0.699   1.262   1.473
 4387SOL    HW114060   0.638   1.206   1.417
 4387SOL    HW214061   0.794   1.234   1.458
 4388SOL     OW14062   4.603   1.013   6.169
 4388SOL    HW114063   4.545   0.969   6.237
 4388SOL    HW214064   4.570   0.991   6.077
 4389SOL     OW14065   5.934   1.953   0.574
 4389SOL    HW114066   5.875   1.981   0.499
 4389SOL    HW214067   5.997   2.027   0.597
 4390SOL     OW14068   3.972   1.590   2.160
 4390SOL    HW114069   4.047   1.525   2.143
 4390SOL    HW214070   3.885   1.543   2.152
 4391SOL     OW14071   1.661   5.860   5.616
 4391SOL    HW114072   1.720   5.822   5.544
 4391SOL    HW214073   1.682   5.817   5.703
 4392SOL     OW14074   6.619   3.461   5.394
 4392SOL    HW114075   6.675   3.525   5.342
 4392SOL    HW214076   6.663   3.441   5.481
 4393SOL     OW14077   5.458   6.664   3.020
 4393SOL    HW114078   5.536   6.604   3.002
 4393SOL    HW214079   5.479   6.756   2.987
 4394SOL     OW14080   6.302   5.508   2.806
 4394SOL    HW114081   6.310   5.426   2.749
 4394SOL    HW214082   6.374   5.573   2.782
 4395SOL     OW14083   3.841   1.015   2.022
 4395SOL    HW114084   3.762   1.032   1.963
 4395SOL    HW214085   3.912   0.968   1.969
 4396SOL     OW14086   2.453   2.314   4.236
 4396SOL    HW114087   2.429   2.356   4.323
 4396SOL    HW214088   2.373   2.315   4.176
 4397SOL     OW14089   0.335   1.422   4.968
 4397SOL    HW114090   0.279   1.365   4.909
 4397SOL    HW214091   0.429   1.423   4.933
 4398SOL     OW14092   1.107   4.437   4.803
 4398SOL    HW114093   1.096   4.420   4.705
 4398SOL    HW214094   1.067   4.361   4.855
 4399SOL     OW14095   1.182   0.957   1.806
 4399SOL    HW114096   1.102   0.927   1.859
 4399SOL    HW214097   1.265   0.926   1.851
 4400SOL     OW14098   2.552   0.199   4.859
 4400SOL    HW114099   2.547   0.115   4.804
 4400SOL    HW214100   2.468   0.208   4.913
 4401SOL     OW14101   5.030   0.046   6.687
 4401SOL    HW114102   4.994   6.982   6.662
 4401SOL    HW214103   5.120   0.035   6.729
 4402SOL     OW14104   2.005   6.600   1.813
 4402SOL    HW114105   2.040   6.525   1.756
 4402SOL    HW214106   1.963   6.562   1.895
 4403SOL     OW14107   0.458   6.896   4.215
 4403SOL    HW114108   0.390   6.968   4.218
 4403SOL    HW214109   0.544   6.932   4.179
 4404SOL     OW14110   0.763   4.177   5.654
 4404SOL    HW114111   0.757   4.273   5.682
 4404SOL    HW214112   0.822   4.127   5.717
 4405SOL     OW14113   3.031   4.334   0.970
 4405SOL    HW114114   3.065   4.265   0.906
 4405SOL    HW214115   2.933   4.345   0.959
 4406SOL     OW14116   6.617   4.321   1.315
 4406SOL    HW114117   6.563   4.390   1.266
 4406SOL    HW214118   6.710   4.356   1.329
 4407SOL     OW14119   0.471   4.168   0.316
 4407SOL    HW114120   0.373   4.174   0.337
 4407SOL    HW214121   0.484   4.119   0.230
 4408SOL     OW14122   4.156   1.162   1.535
 4408SOL    HW114123   4.169   1.100   1.457
 4408SOL    HW214124   4.147   1.108   1.619
 4409SOL     OW14125   4.294   6.950   2.004
 4409SOL    HW114126   4.387   6.972   2.033
 4409SOL    HW214127   4.295   6.920   1.908
 4410SOL     OW14128   1.508   5.616   0.279
 4410SOL    HW114129   1.511   5.605   0.379
 4410SOL    HW214130   1.518   5.526   0.236
 4411SOL     OW14131   3.083   3.110   3.958
 4411SOL    HW114132   3.127   3.192   3.920
 4411SOL    HW214133   3.043   3.056   3.884
 4412SOL     OW14134   3.260   0.941   4.999
 4412SOL    HW114135   3.331   0.994   4.953
 4412SOL    HW214136   3.293   0.849   5.018
 4413SOL     OW14137   4.826   5.535   4.729
 4413SOL    HW114138   4.764   5.499   4.660
 4413SOL    HW214139   4.903   5.581   4.684
 4414SOL     OW14140   3.925   4.952   1.625
 4414SOL    HW114141   4.004   4.927   1.680
 4414SOL    HW214142   3.954   4.969   1.531
 4415SOL     OW14143   4.182   3.629   6.265
 4415SOL    HW114144   4.270   3.660   6.300
 4415SOL    HW214145   4.117   3.704   6.268
 4416SOL     OW14146   2.627   0.467   4.298
 4416SOL    HW114147   2.693   0.433   4.230
 4416SOL    HW214148   2.677   0.496   4.380
 4417SOL     OW14149   5.893   4.373   3.237
 4417SOL    HW114150   5.917   4.438   3.310
 4417SOL    HW214151   5.940   4.286   3.253
 4418SOL     OW14152   5.085   1.097   3.440
 4418SOL    HW114153   5.163   1.035   3.433
 4418SOL    HW214154   5.118   1.190   3.457
 4419SOL     OW14155   5.333   5.898   0.270
 4419SOL    HW114156   5.252   5.851   0.234
 4419SOL    HW214157   5.414   5.866   0.222
 4420SOL     OW14158   5.233   1.652   1.605
 4420SOL    HW114159   5.142   1.622   1.576
 4420SOL    HW214160   5.298   1.576   1.595
 4421SOL     OW14161   1.903   1.496   4.129
 4421SOL    HW114162   1.935   1.493   4.035
 4421SOL    HW214163   1.914   1.589   4.165
 4422SOL     OW14164   2.530   4.262   5.872
 4422SOL    HW114165   2.575   4.329   5.931
 4422SOL    HW214166   2.431   4.264   5.888
 4423SOL     OW14167   1.264   2.800   5.435
 4423SOL    HW114168   1.327   2.848   5.374
 4423SOL    HW214169   1.185   2.768   5.383
 4424SOL     OW14170   5.330   6.862   4.093
 4424SOL    HW114171   5.288   6.862   4.184
 4424SOL    HW214172   5.416   6.812   4.097
 4425SOL     OW14173   3.818   5.714   6.395
 4425SOL    HW114174   3.744   5.754   6.341
 4425SOL    HW214175   3.905   5.753   6.365
 4426SOL     OW14176   0.235   2.218   4.496
 4426SOL    HW114177   0.263   2.153   4.425
 4426SOL    HW214178   0.166   2.176   4.555
 4427SOL     OW14179   6.657   6.643   2.717
 4427SOL    HW114180   6.603   6.689   2.647
 4427SOL    HW214181   6.740   6.697   2.736
 4428SOL     OW14182   3.389   5.561   2.177
 4428SOL    HW114183   3.377   5.659   2.158
 4428SOL    HW214184   3.313   5.528   2.233
 4429SOL     OW14185   2.650   0.129   3.160
 4429SOL    HW114186   2.573   0.069   3.135
 4429SOL    HW214187   2.628   0.223   3.133
 4430SOL     OW14188   4.989   3.386   5.045
 4430SOL    HW114189   5.043   3.433   5.115
 4430SOL    HW214190   4.908   3.439   5.024
 4431SOL     OW14191   1.419   0.743   1.962
 4431SOL    HW114192   1.496   0.716   2.019
 4431SOL    HW214193   1.374   0.823   2.002
 4432SOL     OW14194   3.358   4.025   4.211
 4432SOL    HW114195   3.430   4.071   4.160
 4432SOL    HW214196   3.285   3.996   4.149
 4433SOL     OW14197   5.812   0.394   4.494
 4433SOL    HW114198   5.765   0.307   4.507
 4433SOL    HW214199   5.760   0.467   4.536
 4434SOL     OW14200   3.517   1.688   3.480
 4434SOL    HW114201   3.444   1.734   3.430
 4434SOL    HW214202   3.581   1.756   3.516
 4435SOL     OW14203   4.211   3.826   1.202
 4435SOL    HW114204   4.176   3.733   1.198
 4435SOL    HW214205   4.142   3.889   1.166
 4436SOL     OW14206   4.143   1.367   1.368
 4436SOL    HW114207   4.119   1.296   1.434
 4436SOL    HW214208   4.092   1.451   1.389
 4437SOL     OW14209   5.574   1.599   4.161
 4437SOL    HW114210   5.674   1.597   4.163
 4437SOL    HW214211   5.538   1.509   4.186
 4438SOL     OW14212   4.912   0.932   0.561
 4438SOL    HW114213   4.915   0.832   0.560
 4438SOL    HW214214   4.819   0.963   0.580
 4439SOL     OW14215   0.601   6.326   1.724
 4439SOL    HW114216   0.532   6.358   1.659
 4439SOL    HW214217   0.556   6.280   1.800
 4440SOL     OW14218   1.796   4.760   0.745
 4440SOL    HW114219   1.873   4.825   0.737
 4440SOL    HW214220   1.792   4.703   0.663
 4441SOL     OW14221   6.832   1.817   2.602
 4441SOL    HW114222   6.805   1.855   2.514
 4441SOL    HW214223   6.751   1.799   2.657
 4442SOL     OW14224   2.571   5.845   5.045
 4442SOL    HW114225   2.664   5.876   5.062
 4442SOL    HW214226   2.507   5.896   5.103
 4443SOL     OW14227   6.512   3.140   1.179
 4443SOL    HW114228   6.598   3.158   1.132
 4443SOL    HW214229   6.519   3.169   1.274
 4444SOL     OW14230   4.092   5.421   6.131
 4444SOL    HW114231   4.098   5.373   6.043
 4444SOL    HW214232   4.070   5.517   6.114
 4445SOL     OW14233   6.435   0.105   0.988
 4445SOL    HW114234   6.469   0.012   0.971
 4445SOL    HW214235   6.341   0.100   1.021
 4446SOL     OW14236   6.072   1.487   2.174
 4446SOL    HW114237   6.083   1.437   2.260
 4446SOL    HW214238   6.045   1.581   2.194
 4447SOL     OW14239   6.071   3.624   6.119
 4447SOL    HW114240   6.141   3.665   6.178
 4447SOL    HW214241   5.998   3.587   6.175
 4448SOL     OW14242   3.191   4.330   1.179
 4448SOL    HW114243   3.131   4.317   1.100
 4448SOL    HW214244   3.284   4.301   1.155
 4449SOL     OW14245   4.601   0.685   6.231
 4449SOL    HW114246   4.541   0.761   6.257
 4449SOL    HW214247   4.686   0.690   6.283
 4450SOL     OW14248   3.917   3.544   4.082
 4450SOL    HW114249   4.002   3.551   4.134
 4450SOL    HW214250   3.849   3.496   4.137
 4451SOL     OW14251   6.023   4.069   3.857
 4451SOL    HW114252   6.035   3.976   3.820
 4451SOL    HW214253   6.112   4.114   3.860
 4452SOL     OW14254   5.662   6.593   4.027
 4452SOL    HW114255   5.603   6.665   4.064
 4452SOL    HW214256   5.612   6.541   3.958
 4453SOL     OW14257   0.153   2.878   1.252
 4453SOL    HW114258   0.140   2.967   1.207
 4453SOL    HW214259   0.190   2.892   1.343
 4454SOL     OW14260   6.598   2.268   6.983
 4454SOL    HW114261   6.528   2.222   6.928
 4454SOL    HW214262   6.685   2.218   6.974
 4455SOL     OW14263   3.972   0.117   6.589
 4455SOL    HW114264   3.975   0.179   6.667
 4455SOL    HW214265   4.054   0.060   6.588
 4456SOL     OW14266   2.780   5.228   2.135
 4456SOL    HW114267   2.755   5.297   2.066
 4456SOL    HW214268   2.747   5.138   2.106
 4457SOL     OW14269   4.382   2.572   0.758
 4457SOL    HW114270   4.359   2.619   0.672
 4457SOL    HW214271   4.369   2.474   0.747
 4458SOL     OW14272   1.034   3.883   6.816
 4458SOL    HW114273   1.011   3.929   6.730
 4458SOL    HW214274   1.090   3.802   6.796
 4459SOL     OW14275   4.538   0.650   3.677
 4459SOL    HW114276   4.535   0.745   3.707
 4459SOL    HW214277   4.514   0.590   3.753
 4460SOL     OW14278   2.916   3.035   5.323
 4460SOL    HW114279   2.819   3.054   5.336
 4460SOL    HW214280   2.961   3.114   5.283
 4461SOL     OW14281   1.408   0.512   2.445
 4461SOL    HW114282   1.422   0.436   2.508
 4461SOL    HW214283   1.493   0.532   2.396
 4462SOL     OW14284   6.697   3.886   1.566
 4462SOL    HW114285   6.781   3.934   1.590
 4462SOL    HW214286   6.631   3.895   1.640
 4463SOL     OW14287   4.499   2.760   0.071
 4463SOL    HW114288   4.435   2.829   0.036
 4463SOL    HW214289   4.450   2.676   0.091
 4464SOL     OW14290   6.879   4.950   0.060
 4464SOL    HW114291   6.832   4.952   6.997
 4464SOL    HW214292   6.838   5.017   0.122
 4465SOL     OW14293   2.648   5.639   2.242
 4465SOL    HW114294   2.663   5.684   2.154
 4465SOL    HW214295   2.689   5.548   2.241
 4466SOL     OW14296   1.460   1.357   2.939
 4466SOL    HW114297   1.522   1.317   2.872
 4466SOL    HW214298   1.460   1.456   2.930
 4467SOL     OW14299   1.528   0.139   3.533
 4467SOL    HW114300   1.505   0.084   3.453
 4467SOL    HW214301   1.624   0.168   3.526
 4468SOL     OW14302   1.853   2.848   0.979
 4468SOL    HW114303   1.904   2.775   1.024
 4468SOL    HW214304   1.837   2.922   1.045
 4469SOL     OW14305   3.946   0.406   1.523
 4469SOL    HW114306   3.936   0.311   1.495
 4469SOL    HW214307   3.890   0.422   1.604
 4470SOL     OW14308   5.984   3.078   1.925
 4470SOL    HW114309   5.898   3.094   1.974
 4470SOL    HW214310   5.996   2.980   1.909
 4471SOL     OW14311   0.259   2.229   6.686
 4471SOL    HW114312   0.223   2.155   6.744
 4471SOL    HW214313   0.208   2.313   6.705
 4472SOL     OW14314   1.657   3.193   3.667
 4472SOL    HW114315   1.619   3.270   3.616
 4472SOL    HW214316   1.706   3.227   3.747
 4473SOL     OW14317   6.854   2.699   3.761
 4473SOL    HW114318   6.884   2.759   3.687
 4473SOL    HW214319   6.930   2.685   3.824
 4474SOL     OW14320   3.951   0.491   2.131
 4474SOL    HW114321   3.982   0.440   2.050
 4474SOL    HW214322   4.001   0.578   2.136
 4475SOL     OW14323   1.854   3.569   2.338
 4475SOL    HW114324   1.882   3.474   2.327
 4475SOL    HW214325   1.886   3.603   2.427
 4476SOL     OW14326   4.843   6.578   3.898
 4476SOL    HW114327   4.815   6.665   3.856
 4476SOL    HW214328   4.845   6.588   3.997
 4477SOL     OW14329   1.435   0.362   5.812
 4477SOL    HW114330   1.449   0.265   5.794
 4477SOL    HW214331   1.377   0.372   5.893
 4478SOL     OW14332   3.386   6.526   2.772
 4478SOL    HW114333   3.419   6.447   2.823
 4478SOL    HW214334   3.452   6.601   2.780
 4479SOL     OW14335   0.786   0.921   1.196
 4479SOL    HW114336   0.826   0.883   1.113
 4479SOL    HW214337   0.697   0.961   1.175
 4480SOL     OW14338   2.194   3.523   5.499
 4480SOL    HW114339   2.107   3.524   5.450
 4480SOL    HW214340   2.268   3.550   5.438
 4481SOL     OW14341   2.625   6.658   5.169
 4481SOL    HW114342   2.605   6.675   5.266
 4481SOL    HW214343   2.705   6.599   5.161
 4482SOL     OW14344   0.717   4.268   4.154
 4482SOL    HW114345   0.764   4.183   4.179
 4482SOL    HW214346   0.645   4.287   4.221
 4483SOL     OW14347   4.944   3.513   2.188
 4483SOL    HW114348   4.892   3.503   2.103
 4483SOL    HW214349   5.030   3.559   2.169
 4484SOL     OW14350   3.269   2.773   5.582
 4484SOL    HW114351   3.366   2.768   5.605
 4484SOL    HW214352   3.258   2.774   5.482
 4485SOL     OW14353   5.342   1.430   4.939
 4485SOL    HW114354   5.323   1.523   4.908
 4485SOL    HW214355   5.373   1.431   5.034
 4486SOL     OW14356   4.835   4.103   4.471
 4486SOL    HW114357   4.791   4.140   4.389
 4486SOL    HW214358   4.878   4.178   4.522
 4487SOL     OW14359   2.963   2.894   6.439
 4487SOL    HW114360   3.004   2.896   6.348
 4487SOL    HW214361   2.887   2.959   6.442
 4488SOL     OW14362   6.302   3.558   5.666
 4488SOL    HW114363   6.343   3.506   5.741
 4488SOL    HW214364   6.204   3.568   5.681
 4489SOL     OW14365   6.135   5.344   4.407
 4489SOL    HW114366   6.162   5.426   4.357
 4489SOL    HW214367   6.053   5.305   4.365
 4490SOL     OW14368   6.249   2.534   3.256
 4490SOL    HW114369   6.268   2.458   3.194
 4490SOL    HW214370   6.335   2.577   3.284
 4491SOL     OW14371   0.152   3.011   4.711
 4491SOL    HW114372   0.182   3.093   4.760
 4491SOL    HW214373   0.075   3.033   4.652
 4492SOL     OW14374   5.390   4.214   1.723
 4492SOL    HW114375   5.338   4.259   1.795
 4492SOL    HW214376   5.379   4.264   1.637
 4493SOL     OW14377   4.416   6.545   5.398
 4493SOL    HW114378   4.415   6.522   5.495
 4493SOL    HW214379   4.323   6.539   5.362
 4494SOL     OW14380   6.620   1.620   5.726
 4494SOL    HW114381   6.577   1.682   5.792
 4494SOL    HW214382   6.598   1.526   5.749
 4495SOL     OW14383   4.510   5.993   4.387
 4495SOL    HW114384   4.428   5.945   4.357
 4495SOL    HW214385   4.544   6.052   4.313
 4496SOL     OW14386   5.313   5.622   1.175
 4496SOL    HW114387   5.394   5.604   1.231
 4496SOL    HW214388   5.279   5.714   1.196
 4497SOL     OW14389   4.658   0.953   6.592
 4497SOL    HW114390   4.590   0.897   6.638
 4497SOL    HW214391   4.617   1.041   6.566
 4498SOL     OW14392   6.607   3.214   6.228
 4498SOL    HW114393   6.560   3.301   6.244
 4498SOL    HW214394   6.623   3.202   6.130
 4499SOL     OW14395   6.986   3.359   3.888
 4499SOL    HW114396   7.005   3.364   3.790
 4499SOL    HW214397   6.965   3.264   3.913
 4500SOL     OW14398   3.214   3.280   3.517
 4500SOL    HW114399   3.142   3.313   3.577
 4500SOL    HW214400   3.294   3.254   3.571
 4501SOL     OW14401   6.937   2.916   5.553
 4501SOL    HW114402   6.959   2.865   5.470
 4501SOL    HW214403   6.847   2.888   5.587
 4502SOL     OW14404   0.988   1.879   6.488
 4502SOL    HW114405   0.935   1.795   6.495
 4502SOL    HW214406   0.927   1.957   6.480
 4503SOL     OW14407   3.285   0.161   2.525
 4503SOL    HW114408   3.299   0.149   2.623
 4503SOL    HW214409   3.359   0.216   2.487
 4504SOL     OW14410   6.665   1.786   4.716
 4504SOL    HW114411   6.697   1.745   4.801
 4504SOL    HW214412   6.629   1.715   4.656
 4505SOL     OW14413   6.358   5.984   3.021
 4505SOL    HW114414   6.335   6.080   3.038
 4505SOL    HW214415   6.402   5.975   2.932
 4506SOL     OW14416   4.365   2.324   3.515
 4506SOL    HW114417   4.358   2.305   3.417
 4506SOL    HW214418   4.273   2.332   3.554
 4507SOL     OW14419   5.671   5.180   2.374
 4507SOL    HW114420   5.720   5.135   2.449
 4507SOL    HW214421   5.596   5.121   2.344
 4508SOL     OW14422   1.040   4.779   5.920
 4508SOL    HW114423   1.053   4.867   5.874
 4508SOL    HW214424   1.124   4.725   5.913
 4509SOL     OW14425   5.239   3.014   2.623
 4509SOL    HW114426   5.338   3.000   2.626
 4509SOL    HW214427   5.197   2.944   2.564
 4510SOL     OW14428   4.817   0.395   4.925
 4510SOL    HW114429   4.899   0.419   4.872
 4510SOL    HW214430   4.840   0.393   5.022
 4511SOL     OW14431   6.496   3.140   6.546
 4511SOL    HW114432   6.531   3.138   6.452
 4511SOL    HW214433   6.569   3.168   6.607
 4512SOL     OW14434   2.592   6.950   5.653
 4512SOL    HW114435   2.594   6.950   5.554
 4512SOL    HW214436   2.526   7.018   5.686
 4513SOL     OW14437   5.198   6.318   0.813
 4513SOL    HW114438   5.244   6.236   0.781
 4513SOL    HW214439   5.128   6.293   0.881
 4514SOL     OW14440   4.536   1.042   5.435
 4514SOL    HW114441   4.460   0.981   5.460
 4514SOL    HW214442   4.620   1.009   5.479
 4515SOL     OW14443   0.446   2.970   5.994
 4515SOL    HW114444   0.545   2.967   5.981
 4515SOL    HW214445   0.419   2.901   6.061
 4516SOL     OW14446   1.474   0.020   6.656
 4516SOL    HW114447   1.559   7.008   6.693
 4516SOL    HW214448   1.438   0.089   6.718
 4517SOL     OW14449   3.114   0.916   6.434
 4517SOL    HW114450   3.046   0.969   6.484
 4517SOL    HW214451   3.179   0.978   6.390
 4518SOL     OW14452   6.545   0.943   3.388
 4518SOL    HW114453   6.542   1.039   3.415
 4518SOL    HW214454   6.548   0.937   3.288
 4519SOL     OW14455   5.525   0.511   2.160
 4519SOL    HW114456   5.527   0.507   2.060
 4519SOL    HW214457   5.482   0.428   2.196
 4520SOL     OW14458   5.010   5.968   3.495
 4520SOL    HW114459   5.072   6.041   3.526
 4520SOL    HW214460   4.930   6.009   3.451
 4521SOL     OW14461   5.913   2.104   3.515
 4521SOL    HW114462   5.921   2.017   3.563
 4521SOL    HW214463   5.990   2.163   3.539
 4522SOL     OW14464   5.731   6.930   3.503
 4522SOL    HW114465   5.648   6.910   3.451
 4522SOL    HW214466   5.809   6.935   3.441
 4523SOL     OW14467   1.447   4.395   7.011
 4523SOL    HW114468   1.448   4.436   0.076
 4523SOL    HW214469   1.515   4.440   6.953
 4524SOL     OW14470   5.614   2.601   3.808
 4524SOL    HW114471   5.559   2.568   3.885
 4524SOL    HW214472   5.555   2.613   3.728
 4525SOL     OW14473   5.095   1.369   3.459
 4525SOL    HW114474   5.120   1.414   3.373
 4525SOL    HW214475   5.000   1.391   3.482
 4526SOL     OW14476   5.311   0.804   1.157
 4526SOL    HW114477   5.320   0.839   1.064
 4526SOL    HW214478   5.366   0.860   1.219
 4527SOL     OW14479   4.084   1.474   3.710
 4527SOL    HW114480   4.128   1.490   3.621
 4527SOL    HW214481   4.048   1.381   3.712
 4528SOL     OW14482   4.492   6.850   0.256
 4528SOL    HW114483   4.468   6.848   0.159
 4528SOL    HW214484   4.550   6.771   0.277
 4529SOL     OW14485   3.711   1.770   5.027
 4529SOL    HW114486   3.708   1.689   4.967
 4529SOL    HW214487   3.664   1.846   4.982
 4530SOL     OW14488   0.497   3.493   6.264
 4530SOL    HW114489   0.401   3.464   6.257
 4530SOL    HW214490   0.500   3.589   6.294
 4531SOL     OW14491   0.621   3.593   3.813
 4531SOL    HW114492   0.580   3.566   3.900
 4531SOL    HW214493   0.620   3.516   3.750
 4532SOL     OW14494   6.190   2.224   3.492
 4532SOL    HW114495   6.261   2.195   3.428
 4532SOL    HW214496   6.167   2.319   3.474
 4533SOL     OW14497   1.636   0.660   2.092
 4533SOL    HW114498   1.639   0.621   2.184
 4533SOL    HW214499   1.714   0.627   2.039
 4534SOL     OW14500   4.927   4.489   5.113
 4534SOL    HW114501   4.999   4.464   5.047
 4534SOL    HW214502   4.842   4.443   5.088
 4535SOL     OW14503   4.872   1.529   2.480
 4535SOL    HW114504   4.832   1.489   2.562
 4535SOL    HW214505   4.965   1.558   2.499
 4536SOL     OW14506   3.816   1.757   3.942
 4536SOL    HW114507   3.885   1.684   3.943
 4536SOL    HW214508   3.857   1.842   3.974
 4537SOL     OW14509   3.811   3.211   5.703
 4537SOL    HW114510   3.862   3.243   5.783
 4537SOL    HW214511   3.714   3.229   5.716
 4538SOL     OW14512   2.693   0.609   4.683
 4538SOL    HW114513   2.622   0.545   4.656
 4538SOL    HW214514   2.699   0.683   4.615
 4539SOL     OW14515   2.209   1.125   4.391
 4539SOL    HW114516   2.227   1.109   4.294
 4539SOL    HW214517   2.293   1.152   4.437
 4540SOL     OW14518   2.953   3.384   4.772
 4540SOL    HW114519   2.983   3.292   4.747
 4540SOL    HW214520   3.033   3.438   4.799
 4541SOL     OW14521   5.951   1.673   0.709
 4541SOL    HW114522   5.939   1.771   0.688
 4541SOL    HW214523   5.869   1.638   0.754
 4542SOL     OW14524   6.195   0.972   2.991
 4542SOL    HW114525   6.161   1.046   3.050
 4542SOL    HW214526   6.159   0.884   3.023
 4543SOL     OW14527   5.020   1.781   1.411
 4543SOL    HW114528   5.041   1.693   1.455
 4543SOL    HW214529   5.079   1.792   1.331
 4544SOL     OW14530   3.180   6.323   6.599
 4544SOL    HW114531   3.185   6.422   6.582
 4544SOL    HW214532   3.148   6.276   6.517
 4545SOL     OW14533   5.487   3.353   4.912
 4545SOL    HW114534   5.421   3.362   4.837
 4545SOL    HW214535   5.439   3.326   4.995
 4546SOL     OW14536   2.186   1.555   6.452
 4546SOL    HW114537   2.211   1.458   6.455
 4546SOL    HW214538   2.098   1.568   6.498
 4547SOL     OW14539   6.112   2.578   2.914
 4547SOL    HW114540   6.189   2.514   2.916
 4547SOL    HW214541   6.027   2.528   2.930
 4548SOL     OW14542   1.210   4.130   4.780
 4548SOL    HW114543   1.127   4.158   4.828
 4548SOL    HW214544   1.208   4.165   4.686
 4549SOL     OW14545   5.855   4.080   2.570
 4549SOL    HW114546   5.814   4.033   2.648
 4549SOL    HW214547   5.955   4.076   2.577
 4550SOL     OW14548   1.496   6.339   3.176
 4550SOL    HW114549   1.593   6.341   3.150
 4550SOL    HW214550   1.439   6.344   3.094
 4551SOL     OW14551   6.082   1.433   6.072
 4551SOL    HW114552   6.126   1.387   5.995
 4551SOL    HW214553   6.050   1.366   6.138
 4552SOL     OW14554   6.390   2.560   1.334
 4552SOL    HW114555   6.331   2.570   1.254
 4552SOL    HW214556   6.422   2.650   1.363
 4553SOL     OW14557   3.925   4.384   6.825
 4553SOL    HW114558   3.944   4.473   6.867
 4553SOL    HW214559   3.863   4.332   6.884
 4554SOL     OW14560   4.491   0.445   1.678
 4554SOL    HW114561   4.580   0.473   1.641
 4554SOL    HW214562   4.426   0.435   1.604
 4555SOL     OW14563   3.556   1.411   5.922
 4555SOL    HW114564   3.645   1.380   5.889
 4555SOL    HW214565   3.559   1.510   5.937
 4556SOL     OW14566   4.514   2.495   4.016
 4556SOL    HW114567   4.421   2.458   4.023
 4556SOL    HW214568   4.564   2.449   3.943
 4557SOL     OW14569   4.569   6.744   4.589
 4557SOL    HW114570   4.630   6.748   4.667
 4557SOL    HW214571   4.516   6.659   4.591
 4558SOL     OW14572   0.191   3.617   5.549
 4558SOL    HW114573   0.170   3.713   5.529
 4558SOL    HW214574   0.140   3.558   5.487
 4559SOL     OW14575   1.190   4.198   1.423
 4559SOL    HW114576   1.217   4.127   1.358
 4559SOL    HW214577   1.184   4.286   1.376
 4560SOL     OW14578   5.002   4.935   2.720
 4560SOL    HW114579   4.936   4.883   2.774
 4560SOL    HW214580   5.030   5.016   2.771
 4561SOL     OW14581   2.578   0.678   1.342
 4561SOL    HW114582   2.645   0.608   1.367
 4561SOL    HW214583   2.568   0.743   1.418
 4562SOL     OW14584   3.205   6.529   5.119
 4562SOL    HW114585   3.217   6.456   5.052
 4562SOL    HW214586   3.290   6.580   5.129
 4563SOL     OW14587   0.941   4.055   0.558
 4563SOL    HW114588   0.921   4.093   0.648
 4563SOL    HW214589   0.860   4.010   0.522
 4564SOL     OW14590   0.165   6.938   0.826
 4564SOL    HW114591   0.100   6.945   0.751
 4564SOL    HW214592   0.255   6.914   0.791
 4565SOL     OW14593   6.998   0.983   5.728
 4565SOL    HW114594   6.909   1.028   5.720
 4565SOL    HW214595   7.000   0.930   5.813
 4566SOL     OW14596   6.577   1.674   0.250
 4566SOL    HW114597   6.630   1.756   0.274
 4566SOL    HW214598   6.481   1.699   0.235
 4567SOL     OW14599   7.024   0.393   0.405
 4567SOL    HW114600   6.992   0.485   0.382
 4567SOL    HW214601   0.098   0.394   0.415
 4568SOL     OW14602   1.414   4.199   5.395
 4568SOL    HW114603   1.471   4.236   5.321
 4568SOL    HW214604   1.338   4.148   5.356
 4569SOL     OW14605   1.675   1.173   3.357
 4569SOL    HW114606   1.745   1.101   3.362
 4569SOL    HW214607   1.683   1.222   3.270
 4570SOL     OW14608   1.081   6.612   2.982
 4570SOL    HW114609   1.025   6.640   3.060
 4570SOL    HW214610   1.157   6.676   2.971
 4571SOL     OW14611   3.299   2.986   6.356
 4571SOL    HW114612   3.375   3.036   6.315
 4571SOL    HW214613   3.291   2.896   6.313
 4572SOL     OW14614   1.224   6.593   6.959
 4572SOL    HW114615   1.188   6.534   6.887
 4572SOL    HW214616   1.158   6.664   6.980
 4573SOL     OW14617   6.313   6.199   0.096
 4573SOL    HW114618   6.408   6.184   0.072
 4573SOL    HW214619   6.274   6.268   0.035
 4574SOL     OW14620   6.669   3.631   1.470
 4574SOL    HW114621   6.683   3.708   1.532
 4574SOL    HW214622   6.705   3.548   1.512
 4575SOL     OW14623   5.958   2.077   6.227
 4575SOL    HW114624   6.031   2.143   6.245
 4575SOL    HW214625   5.910   2.102   6.143
 4576SOL     OW14626   2.337   5.877   6.775
 4576SOL    HW114627   2.291   5.941   6.836
 4576SOL    HW214628   2.269   5.816   6.733
 4577SOL     OW14629   1.046   2.081   4.073
 4577SOL    HW114630   1.116   2.083   4.144
 4577SOL    HW214631   1.088   2.065   3.984
 4578SOL     OW14632   1.194   3.263   4.226
 4578SOL    HW114633   1.192   3.188   4.292
 4578SOL    HW214634   1.258   3.333   4.257
 4579SOL     OW14635   4.630   2.231   2.740
 4579SOL    HW114636   4.552   2.168   2.747
 4579SOL    HW214637   4.627   2.296   2.815
 4580SOL     OW14638   4.779   5.036   6.689
 4580SOL    HW114639   4.740   5.114   6.640
 4580SOL    HW214640   4.707   4.991   6.742
 4581SOL     OW14641   3.197   4.927   3.127
 4581SOL    HW114642   3.189   4.835   3.166
 4581SOL    HW214643   3.120   4.982   3.158
 4582SOL     OW14644   5.551   6.513   5.010
 4582SOL    HW114645   5.524   6.418   4.994
 4582SOL    HW214646   5.478   6.561   5.059
 4583SOL     OW14647   3.093   1.826   5.554
 4583SOL    HW114648   3.125   1.803   5.645
 4583SOL    HW214649   3.049   1.916   5.556
 4584SOL     OW14650   0.110   5.169   5.938
 4584SOL    HW114651   0.196   5.178   5.989
 4584SOL    HW214652   0.043   5.234   5.973
 4585SOL     OW14653   2.764   6.539   3.494
 4585SOL    HW114654   2.843   6.577   3.542
 4585SOL    HW214655   2.792   6.457   3.444
 4586SOL     OW14656   3.750   4.781   0.341
 4586SOL    HW114657   3.705   4.693   0.359
 4586SOL    HW214658   3.816   4.770   0.267
 4587SOL     OW14659   4.043   3.889   2.000
 4587SOL    HW114660   4.073   3.960   2.064
 4587SOL    HW214661   3.991   3.819   2.049
 4588SOL     OW14662   4.228   4.191   5.680
 4588SOL    HW114663   4.306   4.141   5.643
 4588SOL    HW214664   4.241   4.289   5.663
 4589SOL     OW14665   5.421   1.218   2.770
 4589SOL    HW114666   5.322   1.212   2.756
 4589SOL    HW214667   5.468   1.203   2.682
 4590SOL     OW14668   4.717   5.564   0.387
 4590SOL    HW114669   4.671   5.652   0.381
 4590SOL    HW214670   4.740   5.545   0.482
 4591SOL     OW14671   0.776   6.046   4.652
 4591SOL    HW114672   0.707   6.117   4.638
 4591SOL    HW214673   0.759   5.971   4.588
 4592SOL     OW14674   3.415   1.725   2.035
 4592SOL    HW114675   3.432   1.635   1.995
 4592SOL    HW214676   3.464   1.794   1.981
 4593SOL     OW14677   4.339   5.695   3.580
 4593SOL    HW114678   4.290   5.724   3.497
 4593SOL    HW214679   4.436   5.687   3.559
 4594SOL     OW14680   3.189   0.635   1.830
 4594SOL    HW114681   3.203   0.684   1.744
 4594SOL    HW214682   3.201   0.698   1.907
 4595SOL     OW14683   3.382   2.023   6.104
 4595SOL    HW114684   3.445   1.986   6.173
 4595SOL    HW214685   3.398   2.121   6.095
 4596SOL     OW14686   5.503   6.813   3.392
 4596SOL    HW114687   5.491   6.858   3.303
 4596SOL    HW214688   5.414   6.785   3.427
 4597SOL     OW14689   4.729   4.405   6.655
 4597SOL    HW114690   4.816   4.369   6.688
 4597SOL    HW214691   4.698   4.352   6.576
 4598SOL     OW14692   2.238   5.441   0.329
 4598SOL    HW114693   2.249   5.483   0.239
 4598SOL    HW214694   2.321   5.456   0.382
 4599SOL     OW14695   1.535   5.204   0.275
 4599SOL    HW114696   1.630   5.173   0.273
 4599SOL    HW214697   1.477   5.132   0.313
 4600SOL     OW14698   1.192   4.862   5.108
 4600SOL    HW114699   1.282   4.822   5.089
 4600SOL    HW214700   1.189   4.956   5.075
 4601SOL     OW14701   1.360   6.798   5.637
 4601SOL    HW114702   1.395   6.888   5.663
 4601SOL    HW214703   1.435   6.740   5.605
 4602SOL     OW14704   1.018   5.595   1.667
 4602SOL    HW114705   1.038   5.560   1.576
 4602SOL    HW214706   1.076   5.549   1.734
 4603SOL     OW14707   3.368   6.239   0.785
 4603SOL    HW114708   3.310   6.231   0.866
 4603SOL    HW214709   3.446   6.298   0.805
 4604SOL     OW14710   4.676   0.150   1.958
 4604SOL    HW114711   4.749   0.186   2.017
 4604SOL    HW214712   4.635   0.226   1.907
 4605SOL     OW14713   3.192   1.081   3.614
 4605SOL    HW114714   3.222   1.055   3.706
 4605SOL    HW214715   3.135   1.009   3.576
 4606SOL     OW14716   0.845   6.976   1.552
 4606SOL    HW114717   0.860   6.908   1.623
 4606SOL    HW214718   0.815   6.931   1.468
 4607SOL     OW14719   2.557   2.513   1.028
 4607SOL    HW114720   2.458   2.518   1.040
 4607SOL    HW214721   2.595   2.605   1.025
 4608SOL     OW14722   1.051   5.969   3.610
 4608SOL    HW114723   1.140   6.010   3.625
 4608SOL    HW214724   1.003   5.960   3.697
 4609SOL     OW14725   4.628   5.034   5.986
 4609SOL    HW114726   4.723   5.023   5.957
 4609SOL    HW214727   4.611   4.975   6.065
 4610SOL     OW14728   5.105   2.168   0.782
 4610SOL    HW114729   5.064   2.129   0.699
 4610SOL    HW214730   5.154   2.252   0.759
 4611SOL     OW14731   0.129   5.986   6.181
 4611SOL    HW114732   0.108   6.002   6.085
 4611SOL    HW214733   0.107   5.891   6.205
 4612SOL     OW14734   0.612   5.309   0.150
 4612SOL    HW114735   0.588   5.374   0.079
 4612SOL    HW214736   0.711   5.301   0.157
 4613SOL     OW14737   2.696   6.041   2.273
 4613SOL    HW114738   2.603   6.011   2.251
 4613SOL    HW214739   2.761   5.986   2.220
 4614SOL     OW14740   0.350   3.783   4.540
 4614SOL    HW114741   0.258   3.821   4.526
 4614SOL    HW214742   0.373   3.723   4.463
 4615SOL     OW14743   2.341   1.052   7.012
 4615SOL    HW114744   2.257   1.061   6.957
 4615SOL    HW214745   2.318   1.017   0.077
 4616SOL     OW14746   5.797   0.630   5.829
 4616SOL    HW114747   5.871   0.688   5.794
 4616SOL    HW214748   5.725   0.688   5.868
 4617SOL     OW14749   0.844   2.806   1.802
 4617SOL    HW114750   0.859   2.708   1.811
 4617SOL    HW214751   0.786   2.838   1.877
 4618SOL     OW14752   2.064   2.757   5.457
 4618SOL    HW114753   2.052   2.658   5.451
 4618SOL    HW214754   2.099   2.791   5.369
 4619SOL     OW14755   3.220   6.292   2.944
 4619SOL    HW114756   3.137   6.275   2.997
 4619SOL    HW214757   3.204   6.368   2.882
 4620SOL     OW14758   3.098   4.523   0.199
 4620SOL    HW114759   3.161   4.600   0.185
 4620SOL    HW214760   3.069   4.520   0.295
 4621SOL     OW14761   4.736   1.447   2.695
 4621SOL    HW114762   4.637   1.433   2.694
 4621SOL    HW214763   4.761   1.510   2.768
 4622SOL     OW14764   2.013   4.149   0.181
 4622SOL    HW114765   2.074   4.212   0.228
 4622SOL    HW214766   2.062   4.065   0.158
 4623SOL     OW14767   6.587   6.220   0.731
 4623SOL    HW114768   6.502   6.201   0.779
 4623SOL    HW214769   6.572   6.213   0.632
 4624SOL     OW14770   5.710   0.289   3.408
 4624SOL    HW114771   5.798   0.337   3.411
 4624SOL    HW214772   5.641   0.350   3.370
 4625SOL     OW14773   1.510   4.087   0.155
 4625SOL    HW114774   1.582   4.148   0.121
 4625SOL    HW214775   1.496   4.013   0.090
 4626SOL     OW14776   5.699   5.720   2.860
 4626SOL    HW114777   5.744   5.686   2.778
 4626SOL    HW214778   5.760   5.709   2.939
 4627SOL     OW14779   3.112   5.287   3.839
 4627SOL    HW114780   3.081   5.241   3.755
 4627SOL    HW214781   3.038   5.344   3.875
 4628SOL     OW14782   5.626   3.966   4.068
 4628SOL    HW114783   5.622   3.881   4.016
 4628SOL    HW214784   5.719   4.003   4.065
 4629SOL     OW14785   2.409   5.284   5.783
 4629SOL    HW114786   2.320   5.284   5.829
 4629SOL    HW214787   2.397   5.310   5.687
 4630SOL     OW14788   3.701   5.462   2.236
 4630SOL    HW114789   3.643   5.544   2.235
 4630SOL    HW214790   3.753   5.460   2.321
 4631SOL     OW14791   2.194   6.392   3.631
 4631SOL    HW114792   2.137   6.455   3.579
 4631SOL    HW214793   2.204   6.425   3.725
 4632SOL     OW14794   3.876   5.122   2.549
 4632SOL    HW114795   3.942   5.095   2.478
 4632SOL    HW214796   3.818   5.045   2.572
 4633SOL     OW14797   5.625   1.424   3.926
 4633SOL    HW114798   5.620   1.410   3.827
 4633SOL    HW214799   5.557   1.492   3.953
 4634SOL     OW14800   2.681   4.891   6.256
 4634SOL    HW114801   2.621   4.928   6.326
 4634SOL    HW214802   2.733   4.814   6.295
 4635SOL     OW14803   5.375   3.968   1.643
 4635SOL    HW114804   5.281   3.951   1.615
 4635SOL    HW214805   5.387   4.066   1.663
 4636SOL     OW14806   2.207   4.574   0.160
 4636SOL    HW114807   2.294   4.532   0.135
 4636SOL    HW214808   2.154   4.593   0.077
 4637SOL     OW14809   1.005   0.231   6.925
 4637SOL    HW114810   0.967   0.269   6.841
 4637SOL    HW214811   0.931   0.192   6.980
 4638SOL     OW14812   4.818   3.111   0.239
 4638SOL    HW114813   4.887   3.041   0.222
 4638SOL    HW214814   4.727   3.072   0.226
 4639SOL     OW14815   2.375   4.425   4.785
 4639SOL    HW114816   2.460   4.445   4.735
 4639SOL    HW214817   2.297   4.454   4.730
 4640SOL     OW14818   4.904   4.790   3.318
 4640SOL    HW114819   4.939   4.843   3.394
 4640SOL    HW214820   4.812   4.756   3.340
 4641SOL     OW14821   2.889   6.087   4.591
 4641SOL    HW114822   2.882   5.989   4.607
 4641SOL    HW214823   2.873   6.106   4.494
 4642SOL     OW14824   0.179   5.614   4.447
 4642SOL    HW114825   0.171   5.557   4.364
 4642SOL    HW214826   0.175   5.555   4.528
 4643SOL     OW14827   5.918   2.847   1.321
 4643SOL    HW114828   5.859   2.825   1.244
 4643SOL    HW214829   5.962   2.764   1.355
 4644SOL     OW14830   0.225   4.553   5.320
 4644SOL    HW114831   0.217   4.460   5.355
 4644SOL    HW214832   0.136   4.583   5.285
 4645SOL     OW14833   0.945   1.089   4.895
 4645SOL    HW114834   1.032   1.060   4.854
 4645SOL    HW214835   0.954   1.184   4.926
 4646SOL     OW14836   2.501   5.933   3.197
 4646SOL    HW114837   2.503   6.014   3.138
 4646SOL    HW214838   2.499   5.850   3.140
 4647SOL     OW14839   1.316   1.046   4.084
 4647SOL    HW114840   1.413   1.056   4.105
 4647SOL    HW214841   1.303   0.972   4.018
 4648SOL     OW14842   4.231   0.928   2.243
 4648SOL    HW114843   4.177   1.007   2.214
 4648SOL    HW214844   4.328   0.947   2.228
 4649SOL     OW14845   5.403   0.582   6.201
 4649SOL    HW114846   5.318   0.628   6.174
 4649SOL    HW214847   5.398   0.558   6.298
 4650SOL     OW14848   5.041   5.495   3.616
 4650SOL    HW114849   4.980   5.469   3.691
 4650SOL    HW214850   5.058   5.594   3.620
 4651SOL     OW14851   6.720   1.583   0.839
 4651SOL    HW114852   6.785   1.647   0.879
 4651SOL    HW214853   6.688   1.519   0.909
 4652SOL     OW14854   0.228   0.080   4.374
 4652SOL    HW114855   0.196   0.174   4.357
 4652SOL    HW214856   0.292   0.080   4.450
 4653SOL     OW14857   5.947   4.719   6.957
 4653SOL    HW114858   5.928   4.790   7.025
 4653SOL    HW214859   5.922   4.753   6.866
 4654SOL     OW14860   0.654   6.248   0.347
 4654SOL    HW114861   0.617   6.208   0.262
 4654SOL    HW214862   0.695   6.176   0.403
 4655SOL     OW14863   6.599   5.355   1.783
 4655SOL    HW114864   6.652   5.309   1.712
 4655SOL    HW214865   6.590   5.452   1.760
 4656SOL     OW14866   0.970   0.314   3.832
 4656SOL    HW114867   1.033   0.310   3.910
 4656SOL    HW214868   1.015   0.277   3.751
 4657SOL     OW14869   5.257   6.473   1.477
 4657SOL    HW114870   5.301   6.563   1.469
 4657SOL    HW214871   5.159   6.483   1.460
 4658SOL     OW14872   4.221   1.369   2.621
 4658SOL    HW114873   4.163   1.319   2.556
 4658SOL    HW214874   4.186   1.357   2.714
 4659SOL     OW14875   2.967   4.364   5.316
 4659SOL    HW114876   2.941   4.437   5.254
 4659SOL    HW214877   3.030   4.302   5.269
 4660SOL     OW14878   1.052   3.385   5.432
 4660SOL    HW114879   1.010   3.388   5.341
 4660SOL    HW214880   1.131   3.447   5.434
 4661SOL     OW14881   3.504   3.817   5.722
 4661SOL    HW114882   3.571   3.847   5.789
 4661SOL    HW214883   3.476   3.723   5.743
 4662SOL     OW14884   3.756   6.842   4.750
 4662SOL    HW114885   3.712   6.759   4.786
 4662SOL    HW214886   3.809   6.885   4.823
 4663SOL     OW14887   0.330   1.900   3.121
 4663SOL    HW114888   0.253   1.893   3.058
 4663SOL    HW214889   0.331   1.820   3.181
 4664SOL     OW14890   1.866   1.294   0.417
 4664SOL    HW114891   1.845   1.231   0.492
 4664SOL    HW214892   1.965   1.312   0.416
 4665SOL     OW14893   3.195   6.643   0.429
 4665SOL    HW114894   3.100   6.647   0.461
 4665SOL    HW214895   3.250   6.710   0.480
 4666SOL     OW14896   1.435   2.074   1.082
 4666SOL    HW114897   1.466   2.038   0.994
 4666SOL    HW214898   1.512   2.074   1.146
 4667SOL     OW14899   6.536   4.173   1.972
 4667SOL    HW114900   6.485   4.259   1.978
 4667SOL    HW214901   6.501   4.109   2.040
 4668SOL     OW14902   5.366   1.830   3.310
 4668SOL    HW114903   5.298   1.800   3.376
 4668SOL    HW214904   5.454   1.787   3.330
 4669SOL     OW14905   4.308   6.511   6.795
 4669SOL    HW114906   4.213   6.538   6.776
 4669SOL    HW214907   4.344   6.461   6.717
 4670SOL     OW14908   3.246   2.251   5.479
 4670SOL    HW114909   3.254   2.283   5.385
 4670SOL    HW214910   3.281   2.320   5.542
 4671SOL     OW14911   6.575   2.256   2.382
 4671SOL    HW114912   6.651   2.230   2.322
 4671SOL    HW214913   6.556   2.354   2.371
 4672SOL     OW14914   2.828   4.241   6.049
 4672SOL    HW114915   2.859   4.243   5.954
 4672SOL    HW214916   2.875   4.313   6.100
 4673SOL     OW14917   5.026   6.731   1.364
 4673SOL    HW114918   4.943   6.772   1.326
 4673SOL    HW214919   5.076   6.684   1.292
 4674SOL     OW14920   5.040   6.641   6.429
 4674SOL    HW114921   5.046   6.701   6.509
 4674SOL    HW214922   4.945   6.615   6.412
 4675SOL     OW14923   0.067   1.956   6.268
 4675SOL    HW114924   0.106   2.018   6.335
 4675SOL    HW214925   0.038   1.871   6.313
 4676SOL     OW14926   6.806   6.203   3.823
 4676SOL    HW114927   6.781   6.296   3.850
 4676SOL    HW214928   6.901   6.202   3.793
 4677SOL     OW14929   2.700   1.057   6.991
 4677SOL    HW114930   2.755   1.139   6.979
 4677SOL    HW214931   2.657   1.032   6.904
 4678SOL     OW14932   1.887   4.768   2.982
 4678SOL    HW114933   1.806   4.793   2.929
 4678SOL    HW214934   1.928   4.685   2.943
 4679SOL     OW14935   3.536   0.168   1.328
 4679SOL    HW114936   3.468   0.139   1.260
 4679SOL    HW214937   3.610   0.216   1.281
 4680SOL     OW14938   3.785   1.392   6.842
 4680SOL    HW114939   3.842   1.345   6.911
 4680SOL    HW214940   3.693   1.355   6.844
 4681SOL     OW14941   5.695   4.927   6.805
 4681SOL    HW114942   5.771   4.880   6.759
 4681SOL    HW214943   5.648   4.863   6.866
 4682SOL     OW14944   5.014   4.524   5.395
 4682SOL    HW114945   5.011   4.510   5.296
 4682SOL    HW214946   4.920   4.525   5.431
 4683SOL     OW14947   4.912   5.034   2.455
 4683SOL    HW114948   4.825   5.081   2.472
 4683SOL    HW214949   4.946   4.995   2.540
 4684SOL     OW14950   5.526   0.448   5.207
 4684SOL    HW114951   5.518   0.523   5.273
 4684SOL    HW214952   5.465   0.466   5.130
 4685SOL     OW14953   1.567   5.130   5.662
 4685SOL    HW114954   1.655   5.165   5.694
 4685SOL    HW214955   1.554   5.037   5.694
 4686SOL     OW14956   4.708   5.268   6.553
 4686SOL    HW114957   4.612   5.294   6.554
 4686SOL    HW214958   4.754   5.311   6.475
 4687SOL     OW14959   5.035   3.491   4.308
 4687SOL    HW114960   4.992   3.502   4.397
 4687SOL    HW214961   4.985   3.423   4.254
 4688SOL     OW14962   5.867   3.915   5.075
 4688SOL    HW114963   5.961   3.947   5.082
 4688SOL    HW214964   5.813   3.979   5.020
 4689SOL     OW14965   4.711   0.905   0.176
 4689SOL    HW114966   4.765   0.821   0.180
 4689SOL    HW214967   4.704   0.936   0.081
 4690SOL     OW14968   0.893   0.161   0.132
 4690SOL    HW114969   0.896   0.221   0.211
 4690SOL    HW214970   0.914   0.067   0.160
 4691SOL     OW14971   3.089   4.101   0.777
 4691SOL    HW114972   3.056   4.113   0.683
 4691SOL    HW214973   3.056   4.015   0.814
 4692SOL     OW14974   5.424   5.441   2.287
 4692SOL    HW114975   5.348   5.502   2.264
 4692SOL    HW214976   5.389   5.355   2.322
 4693SOL     OW14977   1.023   1.684   2.696
 4693SOL    HW114978   1.067   1.770   2.720
 4693SOL    HW214979   1.086   1.608   2.716
 4694SOL     OW14980   2.571   1.413   0.152
 4694SOL    HW114981   2.516   1.392   0.072
 4694SOL    HW214982   2.526   1.484   0.206
 4695SOL     OW14983   1.656   4.320   2.045
 4695SOL    HW114984   1.624   4.409   2.014
 4695SOL    HW214985   1.745   4.301   2.004
 4696SOL     OW14986   0.075   3.912   0.348
 4696SOL    HW114987   0.115   3.928   0.257
 4696SOL    HW214988   0.140   3.862   0.405
 4697SOL     OW14989   1.578   3.997   1.475
 4697SOL    HW114990   1.610   4.012   1.381
 4697SOL    HW214991   1.655   3.973   1.533
 4698SOL     OW14992   4.416   5.694   2.737
 4698SOL    HW114993   4.504   5.733   2.764
 4698SOL    HW214994   4.346   5.765   2.740
 4699SOL     OW14995   1.275   6.408   2.387
 4699SOL    HW114996   1.226   6.488   2.421
 4699SOL    HW214997   1.348   6.384   2.451
 4700SOL     OW14998   6.794   1.176   3.064
 4700SOL    HW114999   6.698   1.161   3.042
 4700SOL    HW215000   6.851   1.144   2.988
 4701SOL     OW15001   3.257   2.400   0.443
 4701SOL    HW115002   3.312   2.320   0.466
 4701SOL    HW215003   3.257   2.464   0.520
 4702SOL     OW15004   5.082   4.999   0.336
 4702SOL    HW115005   5.017   5.038   0.272
 4702SOL    HW215006   5.111   5.069   0.402
 4703SOL     OW15007   0.098   0.462   2.176
 4703SOL    HW115008   0.044   0.513   2.109
 4703SOL    HW215009   0.038   0.422   2.245
 4704SOL     OW15010   6.498   6.702   6.332
 4704SOL    HW115011   6.597   6.694   6.339
 4704SOL    HW215012   6.466   6.659   6.247
 4705SOL     OW15013   4.083   2.743   1.089
 4705SOL    HW115014   4.165   2.688   1.072
 4705SOL    HW215015   4.010   2.684   1.124
 4706SOL     OW15016   2.604   0.181   0.445
 4706SOL    HW115017   2.570   0.183   0.351
 4706SOL    HW215018   2.598   0.273   0.485
 4707SOL     OW15019   1.289   6.965   0.303
 4707SOL    HW115020   1.346   6.978   0.223
 4707SOL    HW215021   1.310   6.877   0.345
 4708SOL     OW15022   1.246   2.569   6.237
 4708SOL    HW115023   1.335   2.554   6.194
 4708SOL    HW215024   1.194   2.636   6.183
 4709SOL     OW15025   4.487   5.661   5.396
 4709SOL    HW115026   4.506   5.688   5.301
 4709SOL    HW215027   4.391   5.634   5.405
 4710SOL     OW15028   4.754   0.144   5.917
 4710SOL    HW115029   4.853   0.156   5.924
 4710SOL    HW215030   4.724   0.179   5.828
 4711SOL     OW15031   6.152   1.552   1.499
 4711SOL    HW115032   6.117   1.463   1.471
 4711SOL    HW215033   6.181   1.547   1.595
 4712SOL     OW15034   2.571   5.297   6.520
 4712SOL    HW115035   2.659   5.330   6.484
 4712SOL    HW215036   2.519   5.374   6.556
 4713SOL     OW15037   3.492   4.328   0.974
 4713SOL    HW115038   3.514   4.235   1.005
 4713SOL    HW215039   3.499   4.333   0.875
 4714SOL     OW15040   0.936   1.434   6.145
 4714SOL    HW115041   0.944   1.456   6.047
 4714SOL    HW215042   0.884   1.506   6.191
 4715SOL     OW15043   5.854   3.420   2.375
 4715SOL    HW115044   5.852   3.384   2.281
 4715SOL    HW215045   5.764   3.411   2.416
 4716SOL     OW15046   4.348   6.632   6.419
 4716SOL    HW115047   4.369   6.714   6.365
 4716SOL    HW215048   4.254   6.637   6.450
 4717SOL     OW15049   0.556   6.206   3.764
 4717SOL    HW115050   0.609   6.280   3.723
 4717SOL    HW215051   0.569   6.122   3.712
 4718SOL     OW15052   5.958   2.299   1.052
 4718SOL    HW115053   5.956   2.215   0.998
 4718SOL    HW215054   6.000   2.372   0.998
 4719SOL     OW15055   4.802   3.087   1.654
 4719SOL    HW115056   4.864   3.015   1.684
 4719SOL    HW215057   4.713   3.076   1.700
 4720SOL     OW15058   1.951   5.134   6.129
 4720SOL    HW115059   1.903   5.165   6.212
 4720SOL    HW215060   1.927   5.039   6.111
 4721SOL     OW15061   6.598   1.526   2.572
 4721SOL    HW115062   6.592   1.623   2.594
 4721SOL    HW215063   6.643   1.515   2.483
 4722SOL     OW15064   1.042   6.143   6.701
 4722SOL    HW115065   0.989   6.175   6.622
 4722SOL    HW215066   1.128   6.103   6.670
 4723SOL     OW15067   2.757   3.399   6.102
 4723SOL    HW115068   2.804   3.311   6.104
 4723SOL    HW215069   2.659   3.385   6.115
 4724SOL     OW15070   6.292   0.077   3.743
 4724SOL    HW115071   6.216   0.013   3.731
 4724SOL    HW215072   6.353   0.044   3.814
 4725SOL     OW15073   6.800   4.911   1.099
 4725SOL    HW115074   6.897   4.887   1.094
 4725SOL    HW215075   6.772   4.958   1.015
 4726SOL     OW15076   1.288   3.261   6.178
 4726SOL    HW115077   1.318   3.184   6.236
 4726SOL    HW215078   1.336   3.257   6.090
 4727SOL     OW15079   0.857   6.442   1.422
 4727SOL    HW115080   0.765   6.480   1.427
 4727SOL    HW215081   0.897   6.464   1.332
 4728SOL     OW15082   5.767   1.606   1.759
 4728SOL    HW115083   5.685   1.653   1.727
 4728SOL    HW215084   5.741   1.521   1.805
 4729SOL     OW15085   4.524   1.223   0.640
 4729SOL    HW115086   4.586   1.210   0.717
 4729SOL    HW215087   4.489   1.316   0.641
 4730SOL     OW15088   3.108   5.675   5.089
 4730SOL    HW115089   3.195   5.705   5.050
 4730SOL    HW215090   3.098   5.577   5.077
 4731SOL     OW15091   2.947   0.213   0.351
 4731SOL    HW115092   2.901   0.295   0.316
 4731SOL    HW215093   2.982   0.232   0.443
 4732SOL     OW15094   1.217   4.044   5.240
 4732SOL    HW115095   1.149   4.109   5.206
 4732SOL    HW215096   1.297   4.044   5.180
 4733SOL     OW15097   1.889   4.129   3.643
 4733SOL    HW115098   1.858   4.106   3.550
 4733SOL    HW215099   1.944   4.054   3.679
 4734SOL     OW15100   4.706   3.716   0.021
 4734SOL    HW115101   4.756   3.801   0.007
 4734SOL    HW215102   4.766   3.638   0.006
 4735SOL     OW15103   6.976   5.114   5.048
 4735SOL    HW115104   0.017   5.186   5.028
 4735SOL    HW215105   6.925   5.137   5.131
 4736SOL     OW15106   6.048   1.779   5.832
 4736SOL    HW115107   6.033   1.757   5.928
 4736SOL    HW215108   6.109   1.857   5.824
 4737SOL     OW15109   3.179   4.401   1.625
 4737SOL    HW115110   3.173   4.485   1.679
 4737SOL    HW215111   3.096   4.347   1.637
 4738SOL     OW15112   2.027   6.280   3.093
 4738SOL    HW115113   2.098   6.293   3.162
 4738SOL    HW215114   2.069   6.267   3.003
 4739SOL     OW15115   4.829   1.798   2.649
 4739SOL    HW115116   4.845   1.779   2.746
 4739SOL    HW215117   4.736   1.774   2.625
 4740SOL     OW15118   0.330   1.885   0.733
 4740SOL    HW115119   0.252   1.874   0.671
 4740SOL    HW215120   0.296   1.895   0.827
 4741SOL     OW15121   5.553   4.382   0.685
 4741SOL    HW115122   5.621   4.312   0.705
 4741SOL    HW215123   5.466   4.339   0.662
 4742SOL     OW15124   3.047   0.075   6.764
 4742SOL    HW115125   3.088   0.019   6.836
 4742SOL    HW215126   2.958   0.037   6.739
 4743SOL     OW15127   1.963   3.584   5.368
 4743SOL    HW115128   1.879   3.630   5.395
 4743SOL    HW215129   1.970   3.582   5.268
 4744SOL     OW15130   2.734   4.073   6.237
 4744SOL    HW115131   2.687   3.987   6.218
 4744SOL    HW215132   2.744   4.125   6.152
 4745SOL     OW15133   3.321   5.372   6.332
 4745SOL    HW115134   3.395   5.417   6.382
 4745SOL    HW215135   3.277   5.304   6.391
 4746SOL     OW15136   5.416   6.414   2.339
 4746SOL    HW115137   5.331   6.399   2.390
 4746SOL    HW215138   5.487   6.354   2.375
 4747SOL     OW15139   1.997   4.335   6.230
 4747SOL    HW115140   2.025   4.407   6.293
 4747SOL    HW215141   2.014   4.246   6.272
 4748SOL     OW15142   1.014   4.886   0.714
 4748SOL    HW115143   0.942   4.828   0.751
 4748SOL    HW215144   0.979   4.979   0.701
 4749SOL     OW15145   2.980   6.305   5.222
 4749SOL    HW115146   3.070   6.320   5.261
 4749SOL    HW215147   2.913   6.292   5.295
 4750SOL     OW15148   0.444   3.692   3.520
 4750SOL    HW115149   0.344   3.685   3.519
 4750SOL    HW215150   0.478   3.674   3.612
 4751SOL     OW15151   3.028   2.428   1.175
 4751SOL    HW115152   3.037   2.332   1.147
 4751SOL    HW215153   3.011   2.432   1.274
 4752SOL     OW15154   3.403   0.413   6.580
 4752SOL    HW115155   3.358   0.336   6.626
 4752SOL    HW215156   3.500   0.395   6.570
 4753SOL     OW15157   4.997   0.282   3.792
 4753SOL    HW115158   5.055   0.339   3.851
 4753SOL    HW215159   4.915   0.333   3.767
 4754SOL     OW15160   5.930   7.019   4.647
 4754SOL    HW115161   5.907   6.968   4.564
 4754SOL    HW215162   5.846   0.018   4.695
 4755SOL     OW15163   2.389   0.730   0.918
 4755SOL    HW115164   2.363   0.795   0.847
 4755SOL    HW215165   2.488   0.723   0.923
 4756SOL     OW15166   6.124   3.454   1.287
 4756SOL    HW115167   6.181   3.392   1.234
 4756SOL    HW215168   6.102   3.535   1.233
 4757SOL     OW15169   2.443   1.798   0.610
 4757SOL    HW115170   2.502   1.769   0.685
 4757SOL    HW215171   2.493   1.796   0.524
 4758SOL     OW15172   2.207   6.477   4.386
 4758SOL    HW115173   2.181   6.380   4.387
 4758SOL    HW215174   2.169   6.523   4.466
 4759SOL     OW15175   5.290   4.782   4.783
 4759SOL    HW115176   5.307   4.726   4.865
 4759SOL    HW215177   5.345   4.748   4.708
 4760SOL     OW15178   3.414   2.095   0.156
 4760SOL    HW115179   3.343   2.030   0.183
 4760SOL    HW215180   3.374   2.186   0.149
 4761SOL     OW15181   0.425   5.917   0.198
 4761SOL    HW115182   0.385   5.947   0.285
 4761SOL    HW215183   0.475   5.994   0.157
 4762SOL     OW15184   1.626   5.605   3.060
 4762SOL    HW115185   1.528   5.608   3.080
 4762SOL    HW215186   1.640   5.595   2.962
 4763SOL     OW15187   6.641   6.250   3.202
 4763SOL    HW115188   6.627   6.319   3.273
 4763SOL    HW215189   6.610   6.161   3.236
 4764SOL     OW15190   4.894   3.862   5.034
 4764SOL    HW115191   4.887   3.910   4.947
 4764SOL    HW215192   4.851   3.772   5.026
 4765SOL     OW15193   4.656   1.070   4.272
 4765SOL    HW115194   4.576   1.122   4.244
 4765SOL    HW215195   4.696   1.025   4.192
 4766SOL     OW15196   5.203   5.442   4.215
 4766SOL    HW115197   5.156   5.359   4.243
 4766SOL    HW215198   5.153   5.522   4.249
 4767SOL     OW15199   3.710   5.492   6.101
 4767SOL    HW115200   3.765   5.505   6.019
 4767SOL    HW215201   3.769   5.498   6.182
 4768SOL     OW15202   4.057   0.881   5.078
 4768SOL    HW115203   4.033   0.953   5.013
 4768SOL    HW215204   4.143   0.905   5.124
 4769SOL     OW15205   5.194   4.616   0.405
 4769SOL    HW115206   5.153   4.682   0.341
 4769SOL    HW215207   5.234   4.541   0.353
 4770SOL     OW15208   1.087   0.557   4.430
 4770SOL    HW115209   1.170   0.538   4.483
 4770SOL    HW215210   1.006   0.537   4.486
 4771SOL     OW15211   3.463   5.601   6.140
 4771SOL    HW115212   3.552   5.561   6.117
 4771SOL    HW215213   3.405   5.531   6.181
 4772SOL     OW15214   3.298   4.542   1.316
 4772SOL    HW115215   3.369   4.580   1.256
 4772SOL    HW215216   3.249   4.470   1.268
 4773SOL     OW15217   0.046   5.678   4.925
 4773SOL    HW115218   6.977   5.659   4.896
 4773SOL    HW215219   0.084   5.751   4.868
 4774SOL     OW15220   1.233   2.286   1.868
 4774SOL    HW115221   1.287   2.362   1.902
 4774SOL    HW215222   1.293   2.216   1.829
 4775SOL     OW15223   5.174   6.359   2.432
 4775SOL    HW115224   5.078   6.385   2.417
 4775SOL    HW215225   5.190   6.348   2.530
 4776SOL     OW15226   0.882   6.164   5.442
 4776SOL    HW115227   0.791   6.204   5.443
 4776SOL    HW215228   0.903   6.125   5.532
 4777SOL     OW15229   2.574   5.031   1.030
 4777SOL    HW115230   2.629   5.113   1.010
 4777SOL    HW215231   2.482   5.059   1.057
 4778SOL     OW15232   6.672   2.947   3.212
 4778SOL    HW115233   6.587   2.903   3.242
 4778SOL    HW215234   6.687   2.927   3.115
 4779SOL     OW15235   6.278   6.653   2.625
 4779SOL    HW115236   6.364   6.663   2.575
 4779SOL    HW215237   6.276   6.718   2.700
 4780SOL     OW15238   6.209   0.608   0.125
 4780SOL    HW115239   6.220   0.703   0.157
 4780SOL    HW215240   6.154   0.557   0.190
 4781SOL     OW15241   2.441   5.971   2.198
 4781SOL    HW115242   2.418   5.886   2.245
 4781SOL    HW215243   2.371   6.040   2.216
 4782SOL     OW15244   4.459   5.603   0.026
 4782SOL    HW115245   4.361   5.590   0.043
 4782SOL    HW215246   4.506   5.516   0.043
 4783SOL     OW15247   4.843   4.652   7.016
 4783SOL    HW115248   4.823   4.711   6.938
 4783SOL    HW215249   4.884   4.566   6.983
 4784SOL     OW15250   5.829   4.182   6.493
 4784SOL    HW115251   5.795   4.109   6.552
 4784SOL    HW215252   5.873   4.143   6.412
 4785SOL     OW15253   0.145   6.392   2.319
 4785SOL    HW115254   0.170   6.318   2.257
 4785SOL    HW215255   0.222   6.413   2.379
 4786SOL     OW15256   2.855   1.824   0.299
 4786SOL    HW115257   2.819   1.737   0.266
 4786SOL    HW215258   2.926   1.807   0.367
 4787SOL     OW15259   4.057   1.590   2.530
 4787SOL    HW115260   4.087   1.671   2.478
 4787SOL    HW215261   4.137   1.535   2.554
 4788SOL     OW15262   0.623   5.633   5.561
 4788SOL    HW115263   0.593   5.565   5.494
 4788SOL    HW215264   0.615   5.594   5.653
 4789SOL     OW15265   5.459   1.531   1.292
 4789SOL    HW115266   5.473   1.443   1.246
 4789SOL    HW215267   5.369   1.532   1.335
 4790SOL     OW15268   6.524   2.513   5.121
 4790SOL    HW115269   6.470   2.520   5.037
 4790SOL    HW215270   6.463   2.493   5.198
 4791SOL     OW15271   6.317   2.367   2.080
 4791SOL    HW115272   6.256   2.336   2.006
 4791SOL    HW215273   6.270   2.437   2.134
 4792SOL     OW15274   2.174   4.066   3.044
 4792SOL    HW115275   2.099   4.023   3.094
 4792SOL    HW215276   2.178   4.028   2.951
 4793SOL     OW15277   2.058   2.668   5.901
 4793SOL    HW115278   2.123   2.703   5.833
 4793SOL    HW215279   1.982   2.733   5.910
 4794SOL     OW15280   4.345   0.395   3.181
 4794SOL    HW115281   4.355   0.361   3.274
 4794SOL    HW215282   4.253   0.433   3.169
 4795SOL     OW15283   5.829   2.446   4.176
 4795SOL    HW115284   5.916   2.430   4.221
 4795SOL    HW215285   5.825   2.393   4.091
 4796SOL     OW15286   5.128   1.448   5.272
 4796SOL    HW115287   5.161   1.362   5.311
 4796SOL    HW215288   5.114   1.437   5.174
 4797SOL     OW15289   1.308   6.269   5.945
 4797SOL    HW115290   1.377   6.199   5.965
 4797SOL    HW215291   1.257   6.290   6.028
 4798SOL     OW15292   0.280   3.340   4.440
 4798SOL    HW115293   0.201   3.359   4.383
 4798SOL    HW215294   0.310   3.424   4.486
 4799SOL     OW15295   5.327   2.427   6.838
 4799SOL    HW115296   5.326   2.341   6.786
 4799SOL    HW215297   5.421   2.461   6.844
 4800SOL     OW15298   3.355   3.271   6.040
 4800SOL    HW115299   3.422   3.229   5.979
 4800SOL    HW215300   3.262   3.251   6.007
 4801SOL     OW15301   3.001   2.371   6.956
 4801SOL    HW115302   2.981   2.442   6.888
 4801SOL    HW215303   2.938   2.295   6.944
 4802SOL     OW15304   0.939   6.105   2.568
 4802SOL    HW115305   0.947   6.030   2.502
 4802SOL    HW215306   0.991   6.184   2.535
 4803SOL     OW15307   1.071   5.331   1.126
 4803SOL    HW115308   1.146   5.267   1.142
 4803SOL    HW215309   1.106   5.425   1.132
 4804SOL     OW15310   5.299   5.917   6.938
 4804SOL    HW115311   5.258   6.004   6.966
 4804SOL    HW215312   5.266   5.844   6.998
 4805SOL     OW15313   5.212   0.984   2.481
 4805SOL    HW115314   5.134   1.037   2.515
 4805SOL    HW215315   5.282   1.046   2.447
 4806SOL     OW15316   1.146   4.666   3.205
 4806SOL    HW115317   1.186   4.591   3.151
 4806SOL    HW215318   1.066   4.632   3.255
 4807SOL     OW15319   0.817   4.833   0.303
 4807SOL    HW115320   0.898   4.825   0.245
 4807SOL    HW215321   0.779   4.743   0.321
 4808SOL     OW15322   5.528   4.026   6.621
 4808SOL    HW115323   5.514   4.118   6.584
 4808SOL    HW215324   5.504   3.958   6.552
 4809SOL     OW15325   3.375   4.415   0.066
 4809SOL    HW115326   3.427   4.493   0.101
 4809SOL    HW215327   3.281   4.419   0.101
 4810SOL     OW15328   1.305   4.884   2.650
 4810SOL    HW115329   1.260   4.969   2.625
 4810SOL    HW215330   1.254   4.840   2.724
 4811SOL     OW15331   2.969   3.855   1.720
 4811SOL    HW115332   2.992   3.952   1.718
 4811SOL    HW215333   2.975   3.821   1.814
 4812SOL     OW15334   6.721   5.357   4.118
 4812SOL    HW115335   6.669   5.350   4.203
 4812SOL    HW215336   6.774   5.273   4.104
 4813SOL     OW15337   4.999   2.099   1.682
 4813SOL    HW115338   4.979   2.018   1.738
 4813SOL    HW215339   4.948   2.177   1.718
 4814SOL     OW15340   6.437   3.936   0.620
 4814SOL    HW115341   6.437   4.019   0.677
 4814SOL    HW215342   6.423   3.962   0.525
 4815SOL     OW15343   5.660   4.640   2.886
 4815SOL    HW115344   5.596   4.569   2.858
 4815SOL    HW215345   5.754   4.604   2.882
 4816SOL     OW15346   1.568   4.923   1.044
 4816SOL    HW115347   1.559   4.842   1.102
 4816SOL    HW215348   1.477   4.960   1.024
 4817SOL     OW15349   0.267   2.123   6.437
 4817SOL    HW115350   0.246   2.181   6.358
 4817SOL    HW215351   0.272   2.180   6.519
 4818SOL     OW15352   1.127   6.438   4.168
 4818SOL    HW115353   1.196   6.372   4.196
 4818SOL    HW215354   1.037   6.408   4.199
 4819SOL     OW15355   1.370   1.880   0.246
 4819SOL    HW115356   1.460   1.867   0.206
 4819SOL    HW215357   1.365   1.833   0.334
 4820SOL     OW15358   6.029   2.480   1.966
 4820SOL    HW115359   6.115   2.444   1.931
 4820SOL    HW215360   5.970   2.506   1.889
 4821SOL     OW15361   1.272   6.355   2.950
 4821SOL    HW115362   1.239   6.264   2.976
 4821SOL    HW215363   1.194   6.416   2.933
 4822SOL     OW15364   2.437   2.229   5.346
 4822SOL    HW115365   2.374   2.172   5.294
 4822SOL    HW215366   2.489   2.287   5.284
 4823SOL     OW15367   1.673   0.958   4.674
 4823SOL    HW115368   1.709   0.960   4.580
 4823SOL    HW215369   1.583   1.000   4.676
 4824SOL     OW15370   4.911   2.646   4.905
 4824SOL    HW115371   4.812   2.658   4.914
 4824SOL    HW215372   4.938   2.659   4.810
 4825SOL     OW15373   1.858   2.895   5.256
 4825SOL    HW115374   1.848   2.853   5.346
 4825SOL    HW215375   1.955   2.905   5.233
 4826SOL     OW15376   5.343   1.677   0.047
 4826SOL    HW115377   5.396   1.736   7.013
 4826SOL    HW215378   5.262   1.726   0.080
 4827SOL     OW15379   6.411   1.803   0.562
 4827SOL    HW115380   6.484   1.870   0.553
 4827SOL    HW215381   6.448   1.717   0.597
 4828SOL     OW15382   5.049   2.247   1.025
 4828SOL    HW115383   5.094   2.212   0.943
 4828SOL    HW215384   4.993   2.327   1.000
 4829SOL     OW15385   3.980   6.517   5.623
 4829SOL    HW115386   4.030   6.441   5.582
 4829SOL    HW215387   3.973   6.592   5.557
 4830SOL     OW15388   4.457   6.312   4.267
 4830SOL    HW115389   4.465   6.227   4.215
 4830SOL    HW215390   4.361   6.339   4.272
 4831SOL     OW15391   1.229   4.268   6.125
 4831SOL    HW115392   1.241   4.181   6.078
 4831SOL    HW215393   1.181   4.332   6.065
 4832SOL     OW15394   3.860   3.875   3.920
 4832SOL    HW115395   3.851   3.841   4.014
 4832SOL    HW215396   3.827   3.969   3.916
 4833SOL     OW15397   5.278   1.926   2.904
 4833SOL    HW115398   5.295   1.918   2.806
 4833SOL    HW215399   5.192   1.975   2.919
 4834SOL     OW15400   3.320   6.391   1.358
 4834SOL    HW115401   3.380   6.317   1.327
 4834SOL    HW215402   3.240   6.395   1.299
 4835SOL     OW15403   5.461   1.789   6.624
 4835SOL    HW115404   5.468   1.880   6.582
 4835SOL    HW215405   5.480   1.719   6.555
 4836SOL     OW15406   5.088   2.269   4.919
 4836SOL    HW115407   5.088   2.327   5.001
 4836SOL    HW215408   5.029   2.189   4.935
 4837SOL     OW15409   6.975   3.955   2.785
 4837SOL    HW115410   6.965   3.862   2.821
 4837SOL    HW215411   6.965   4.021   2.859
 4838SOL     OW15412   0.981   5.145   0.220
 4838SOL    HW115413   1.011   5.126   0.127
 4838SOL    HW215414   1.050   5.114   0.285
 4839SOL     OW15415   1.784   3.422   0.235
 4839SOL    HW115416   1.695   3.381   0.252
 4839SOL    HW215417   1.822   3.457   0.320
 4840SOL     OW15418   6.724   4.634   6.560
 4840SOL    HW115419   6.633   4.672   6.579
 4840SOL    HW215420   6.789   4.709   6.547
 4841SOL     OW15421   2.185   5.270   2.389
 4841SOL    HW115422   2.197   5.346   2.452
 4841SOL    HW215423   2.273   5.226   2.371
 4842SOL     OW15424   3.881   5.151   2.252
 4842SOL    HW115425   3.896   5.214   2.176
 4842SOL    HW215426   3.964   5.143   2.306
 4843SOL     OW15427   6.198   3.123   1.557
 4843SOL    HW115428   6.161   3.165   1.639
 4843SOL    HW215429   6.196   3.023   1.566
 4844SOL     OW15430   0.377   3.122   6.386
 4844SOL    HW115431   0.477   3.124   6.380
 4844SOL    HW215432   0.350   3.065   6.464
 4845SOL     OW15433   5.330   5.130   6.456
 4845SOL    HW115434   5.298   5.102   6.366
 4845SOL    HW215435   5.255   5.123   6.522
 4846SOL     OW15436   6.781   2.084   3.373
 4846SOL    HW115437   6.831   2.049   3.294
 4846SOL    HW215438   6.782   2.184   3.373
 4847SOL     OW15439   2.568   0.803   6.492
 4847SOL    HW115440   2.582   0.901   6.477
 4847SOL    HW215441   2.648   0.765   6.538
 4848SOL     OW15442   1.878   1.106   4.810
 4848SOL    HW115443   1.806   1.051   4.853
 4848SOL    HW215444   1.960   1.050   4.798
 4849SOL     OW15445   1.094   5.803   6.767
 4849SOL    HW115446   1.154   5.726   6.747
 4849SOL    HW215447   1.125   5.883   6.715
 4850SOL     OW15448   4.123   1.057   1.764
 4850SOL    HW115449   4.086   0.968   1.791
 4850SOL    HW215450   4.216   1.066   1.799
 4851SOL     OW15451   3.403   6.745   5.668
 4851SOL    HW115452   3.431   6.657   5.705
 4851SOL    HW215453   3.372   6.804   5.742
 4852SOL     OW15454   2.030   5.857   5.065
 4852SOL    HW115455   2.013   5.845   4.967
 4852SOL    HW215456   2.123   5.826   5.087
 4853SOL     OW15457   2.799   1.322   3.666
 4853SOL    HW115458   2.878   1.290   3.719
 4853SOL    HW215459   2.758   1.401   3.712
 4854SOL     OW15460   4.300   6.522   2.183
 4854SOL    HW115461   4.291   6.615   2.219
 4854SOL    HW215462   4.352   6.466   2.246
 4855SOL     OW15463   5.539   2.753   4.297
 4855SOL    HW115464   5.494   2.820   4.355
 4855SOL    HW215465   5.614   2.710   4.347
 4856SOL     OW15466   1.881   3.358   2.695
 4856SOL    HW115467   1.913   3.290   2.629
 4856SOL    HW215468   1.959   3.390   2.749
 4857SOL     OW15469   2.904   2.317   3.735
 4857SOL    HW115470   2.809   2.332   3.764
 4857SOL    HW215471   2.947   2.251   3.796
 4858SOL     OW15472   7.018   0.265   4.863
 4858SOL    HW115473   7.008   0.350   4.811
 4858SOL    HW215474   6.966   0.272   4.948
 4859SOL     OW15475   0.649   5.523   3.185
 4859SOL    HW115476   0.627   5.533   3.282
 4859SOL    HW215477   0.591   5.452   3.144
 4860SOL     OW15478   4.641   4.998   0.634
 4860SOL    HW115479   4.705   4.937   0.589
 4860SOL    HW215480   4.642   5.087   0.588
 4861SOL     OW15481   5.909   5.237   6.589
 4861SOL    HW115482   5.920   5.194   6.678
 4861SOL    HW215483   5.993   5.223   6.535
 4862SOL     OW15484   1.917   4.477   4.702
 4862SOL    HW115485   1.982   4.526   4.760
 4862SOL    HW215486   1.904   4.384   4.736
 4863SOL     OW15487   5.342   3.667   2.120
 4863SOL    HW115488   5.377   3.650   2.212
 4863SOL    HW215489   5.309   3.581   2.081
 4864SOL     OW15490   3.386   1.697   2.652
 4864SOL    HW115491   3.313   1.764   2.638
 4864SOL    HW215492   3.414   1.696   2.748
 4865SOL     OW15493   1.747   6.468   4.694
 4865SOL    HW115494   1.789   6.377   4.687
 4865SOL    HW215495   1.662   6.462   4.745
 4866SOL     OW15496   6.267   4.545   1.299
 4866SOL    HW115497   6.359   4.580   1.285
 4866SOL    HW215498   6.221   4.599   1.371
 4867SOL     OW15499   4.734   5.876   1.986
 4867SOL    HW115500   4.821   5.923   2.002
 4867SOL    HW215501   4.677   5.881   2.068
 4868SOL     OW15502   0.526   5.071   1.874
 4868SOL    HW115503   0.461   5.077   1.798
 4868SOL    HW215504   0.615   5.040   1.839
 4869SOL     OW15505   0.053   1.997   1.864
 4869SOL    HW115506   0.054   1.908   1.818
 4869SOL    HW215507   0.141   2.014   1.906
 4870SOL     OW15508   6.709   5.894   1.977
 4870SOL    HW115509   6.692   5.933   1.887
 4870SOL    HW215510   6.740   5.967   2.039
 4871SOL     OW15511   0.544   1.853   4.503
 4871SOL    HW115512   0.537   1.771   4.446
 4871SOL    HW215513   0.567   1.931   4.445
 4872SOL     OW15514   0.134   6.098   4.336
 4872SOL    HW115515   0.115   6.118   4.433
 4872SOL    HW215516   0.196   6.166   4.299
 4873SOL     OW15517   6.580   4.931   3.813
 4873SOL    HW115518   6.572   4.882   3.900
 4873SOL    HW215519   6.665   4.984   3.812
 4874SOL     OW15520   6.030   3.264   3.272
 4874SOL    HW115521   6.117   3.278   3.319
 4874SOL    HW215522   6.023   3.168   3.243
 4875SOL     OW15523   5.268   3.241   1.389
 4875SOL    HW115524   5.277   3.150   1.348
 4875SOL    HW215525   5.357   3.274   1.418
 4876SOL     OW15526   5.575   1.018   4.605
 4876SOL    HW115527   5.543   1.005   4.512
 4876SOL    HW215528   5.510   1.075   4.655
 4877SOL     OW15529   0.040   1.903   0.127
 4877SOL    HW115530   0.039   1.872   0.032
 4877SOL    HW215531   0.048   1.825   0.188
 4878SOL     OW15532   6.168   1.007   3.439
 4878SOL    HW115533   6.177   0.978   3.343
 4878SOL    HW215534   6.154   1.106   3.442
 4879SOL     OW15535   4.785   5.117   3.250
 4879SOL    HW115536   4.714   5.168   3.202
 4879SOL    HW215537   4.803   5.161   3.338
 4880SOL     OW15538   6.421   3.451   6.605
 4880SOL    HW115539   6.408   3.388   6.528
 4880SOL    HW215540   6.432   3.544   6.570
 4881SOL     OW15541   2.001   6.818   6.758
 4881SOL    HW115542   2.086   6.847   6.801
 4881SOL    HW215543   2.002   6.843   6.661
 4882SOL     OW15544   5.881   1.541   3.922
 4882SOL    HW115545   5.900   1.551   4.019
 4882SOL    HW215546   5.784   1.522   3.909
 4883SOL     OW15547   5.047   4.887   2.249
 4883SOL    HW115548   5.009   4.938   2.326
 4883SOL    HW215549   5.068   4.794   2.278
 4884SOL     OW15550   3.994   0.223   0.853
 4884SOL    HW115551   3.952   0.302   0.899
 4884SOL    HW215552   4.092   0.224   0.869
 4885SOL     OW15553   2.845   6.014   1.899
 4885SOL    HW115554   2.863   5.944   1.830
 4885SOL    HW215555   2.931   6.055   1.928
 4886SOL     OW15556   6.329   5.817   6.550
 4886SOL    HW115557   6.250   5.796   6.492
 4886SOL    HW215558   6.326   5.760   6.632
 4887SOL     OW15559   6.977   0.470   3.244
 4887SOL    HW115560   6.995   0.565   3.217
 4887SOL    HW215561   0.015   0.409   3.196
 4888SOL     OW15562   2.028   6.549   4.619
 4888SOL    HW115563   1.939   6.502   4.616
 4888SOL    HW215564   2.031   6.620   4.549
 4889SOL     OW15565   6.269   0.606   6.561
 4889SOL    HW115566   6.334   0.530   6.567
 4889SOL    HW215567   6.196   0.593   6.628
 4890SOL     OW15568   0.591   1.964   5.569
 4890SOL    HW115569   0.515   2.014   5.528
 4890SOL    HW215570   0.561   1.871   5.590
 4891SOL     OW15571   1.683   5.719   0.710
 4891SOL    HW115572   1.614   5.684   0.647
 4891SOL    HW215573   1.768   5.666   0.700
 4892SOL     OW15574   2.567   6.345   1.815
 4892SOL    HW115575   2.496   6.400   1.860
 4892SOL    HW215576   2.656   6.371   1.851
 4893SOL     OW15577   0.052   4.039   0.725
 4893SOL    HW115578   0.041   3.975   0.801
 4893SOL    HW215579   0.143   4.081   0.729
 4894SOL     OW15580   2.159   2.259   2.150
 4894SOL    HW115581   2.131   2.354   2.156
 4894SOL    HW215582   2.259   2.253   2.145
 4895SOL     OW15583   0.636   4.690   2.715
 4895SOL    HW115584   0.564   4.676   2.648
 4895SOL    HW215585   0.683   4.776   2.697
 4896SOL     OW15586   2.270   4.911   1.569
 4896SOL    HW115587   2.284   4.820   1.529
 4896SOL    HW215588   2.352   4.966   1.556
 4897SOL     OW15589   2.528   5.081   5.633
 4897SOL    HW115590   2.531   4.993   5.680
 4897SOL    HW215591   2.499   5.152   5.697
 4898SOL     OW15592   4.517   0.817   4.412
 4898SOL    HW115593   4.581   0.740   4.411
 4898SOL    HW215594   4.564   0.901   4.387
 4899SOL     OW15595   6.024   5.036   3.396
 4899SOL    HW115596   6.059   4.959   3.342
 4899SOL    HW215597   6.073   5.119   3.372
 4900SOL     OW15598   1.556   5.769   4.945
 4900SOL    HW115599   1.519   5.772   4.852
 4900SOL    HW215600   1.639   5.713   4.946
 4901SOL     OW15601   2.740   6.605   5.606
 4901SOL    HW115602   2.738   6.638   5.700
 4901SOL    HW215603   2.821   6.640   5.559
 4902SOL     OW15604   2.574   2.516   4.875
 4902SOL    HW115605   2.649   2.511   4.940
 4902SOL    HW215606   2.573   2.435   4.817
 4903SOL     OW15607   2.805   6.345   6.329
 4903SOL    HW115608   2.718   6.309   6.365
 4903SOL    HW215609   2.807   6.444   6.342
 4904SOL     OW15610   1.147   0.317   4.040
 4904SOL    HW115611   1.183   0.405   4.070
 4904SOL    HW215612   1.188   0.243   4.093
 4905SOL     OW15613   4.060   1.139   2.202
 4905SOL    HW115614   4.109   1.220   2.169
 4905SOL    HW215615   3.963   1.161   2.212
 4906SOL     OW15616   3.966   1.605   6.765
 4906SOL    HW115617   3.985   1.621   6.668
 4906SOL    HW215618   3.900   1.530   6.774
 4907SOL     OW15619   4.974   6.160   1.269
 4907SOL    HW115620   4.885   6.157   1.223
 4907SOL    HW215621   4.995   6.070   1.307
 4908SOL     OW15622   4.995   5.008   6.120
 4908SOL    HW115623   4.925   5.067   6.160
 4908SOL    HW215624   4.969   4.984   6.026
 4909SOL     OW15625   6.873   0.340   5.084
 4909SOL    HW115626   6.940   0.358   5.157
 4909SOL    HW215627   6.807   0.271   5.115
 4910SOL     OW15628   5.393   6.561   4.400
 4910SOL    HW115629   5.472   6.506   4.372
 4910SOL    HW215630   5.316   6.543   4.339
 4911SOL     OW15631   6.660   2.839   5.631
 4911SOL    HW115632   6.623   2.856   5.540
 4911SOL    HW215633   6.592   2.790   5.685
 4912SOL     OW15634   5.452   2.809   1.389
 4912SOL    HW115635   5.475   2.730   1.332
 4912SOL    HW215636   5.529   2.873   1.390
 4913SOL     OW15637   4.105   3.578   3.700
 4913SOL    HW115638   4.168   3.618   3.634
 4913SOL    HW215639   4.116   3.622   3.789
 4914SOL     OW15640   3.013   6.908   5.081
 4914SOL    HW115641   3.051   6.979   5.141
 4914SOL    HW215642   3.021   6.819   5.127
 4915SOL     OW15643   4.373   0.412   4.390
 4915SOL    HW115644   4.303   0.346   4.416
 4915SOL    HW215645   4.399   0.468   4.469
 4916SOL     OW15646   1.977   1.648   3.692
 4916SOL    HW115647   2.015   1.740   3.695
 4916SOL    HW215648   1.880   1.652   3.668
 4917SOL     OW15649   1.309   4.816   0.638
 4917SOL    HW115650   1.252   4.752   0.689
 4917SOL    HW215651   1.401   4.819   0.679
 4918SOL     OW15652   2.598   6.798   2.478
 4918SOL    HW115653   2.662   6.737   2.525
 4918SOL    HW215654   2.538   6.744   2.419
 4919SOL     OW15655   1.906   1.344   0.029
 4919SOL    HW115656   1.945   1.364   0.120
 4919SOL    HW215657   1.854   1.423   7.023
 4920SOL     OW15658   4.663   0.485   6.062
 4920SOL    HW115659   4.627   0.560   6.116
 4920SOL    HW215660   4.746   0.515   6.014
 4921SOL     OW15661   1.937   4.353   0.939
 4921SOL    HW115662   1.972   4.444   0.959
 4921SOL    HW215663   1.907   4.309   1.024
 4922SOL     OW15664   1.983   2.980   4.925
 4922SOL    HW115665   2.039   2.978   4.842
 4922SOL    HW215666   1.999   3.065   4.974
 4923SOL     OW15667   3.365   1.228   0.564
 4923SOL    HW115668   3.373   1.270   0.654
 4923SOL    HW215669   3.280   1.176   0.560
 4924SOL     OW15670   1.881   2.429   6.213
 4924SOL    HW115671   1.794   2.448   6.259
 4924SOL    HW215672   1.911   2.337   6.236
 4925SOL     OW15673   5.796   6.594   1.418
 4925SOL    HW115674   5.781   6.576   1.321
 4925SOL    HW215675   5.775   6.512   1.471
 4926SOL     OW15676   5.352   2.414   0.811
 4926SOL    HW115677   5.423   2.363   0.860
 4926SOL    HW215678   5.395   2.477   0.746
 4927SOL     OW15679   3.875   3.937   4.543
 4927SOL    HW115680   3.829   3.848   4.532
 4927SOL    HW215681   3.808   4.006   4.570
 4928SOL     OW15682   0.023   0.536   6.648
 4928SOL    HW115683   6.965   0.590   6.635
 4928SOL    HW215684   0.002   0.439   6.636
 4929SOL     OW15685   1.585   4.254   4.815
 4929SOL    HW115686   1.579   4.169   4.762
 4929SOL    HW215687   1.512   4.316   4.786
 4930SOL     OW15688   5.312   1.021   1.953
 4930SOL    HW115689   5.231   0.982   1.908
 4930SOL    HW215690   5.298   1.118   1.969
 4931SOL     OW15691   6.806   6.828   1.441
 4931SOL    HW115692   6.729   6.825   1.377
 4931SOL    HW215693   6.886   6.867   1.394
 4932SOL     OW15694   2.517   2.489   1.980
 4932SOL    HW115695   2.445   2.515   2.045
 4932SOL    HW215696   2.554   2.571   1.937
 4933SOL     OW15697   2.791   6.589   3.934
 4933SOL    HW115698   2.813   6.495   3.959
 4933SOL    HW215699   2.738   6.590   3.849
 4934SOL     OW15700   1.519   4.794   3.153
 4934SOL    HW115701   1.553   4.842   3.234
 4934SOL    HW215702   1.480   4.706   3.181
 4935SOL     OW15703   1.230   1.323   6.710
 4935SOL    HW115704   1.311   1.336   6.768
 4935SOL    HW215705   1.148   1.337   6.765
 4936SOL     OW15706   2.490   5.099   1.595
 4936SOL    HW115707   2.483   5.194   1.626
 4936SOL    HW215708   2.585   5.079   1.574
 4937SOL     OW15709   6.697   3.110   5.978
 4937SOL    HW115710   6.678   3.110   5.880
 4937SOL    HW215711   6.790   3.143   5.994
 4938SOL     OW15712   2.498   5.708   0.236
 4938SOL    HW115713   2.580   5.652   0.234
 4938SOL    HW215714   2.494   5.759   0.322
 4939SOL     OW15715   0.882   1.490   4.091
 4939SOL    HW115716   0.834   1.488   4.179
 4939SOL    HW215717   0.980   1.484   4.107
 4940SOL     OW15718   0.633   1.240   5.717
 4940SOL    HW115719   0.595   1.197   5.799
 4940SOL    HW215720   0.565   1.240   5.645
 4941SOL     OW15721   4.366   2.418   5.313
 4941SOL    HW115722   4.458   2.454   5.330
 4941SOL    HW215723   4.299   2.492   5.323
 4942SOL     OW15724   5.556   2.882   4.985
 4942SOL    HW115725   5.483   2.865   4.919
 4942SOL    HW215726   5.613   2.800   4.994
 4943SOL     OW15727   5.190   4.274   5.697
 4943SOL    HW115728   5.225   4.305   5.609
 4943SOL    HW215729   5.090   4.270   5.694
 4944SOL     OW15730   2.653   4.117   1.577
 4944SOL    HW115731   2.728   4.167   1.621
 4944SOL    HW215732   2.629   4.162   1.491
 4945SOL     OW15733   1.179   6.693   4.954
 4945SOL    HW115734   1.194   6.790   4.932
 4945SOL    HW215735   1.158   6.644   4.869
 4946SOL     OW15736   0.900   5.190   6.860
 4946SOL    HW115737   0.910   5.154   6.767
 4946SOL    HW215738   0.809   5.230   6.871
 4947SOL     OW15739   2.406   0.310   0.853
 4947SOL    HW115740   2.409   0.284   0.756
 4947SOL    HW215741   2.311   0.311   0.884
 4948SOL     OW15742   1.938   2.422   2.475
 4948SOL    HW115743   2.001   2.469   2.413
 4948SOL    HW215744   1.949   2.459   2.567
 4949SOL     OW15745   6.579   4.424   5.339
 4949SOL    HW115746   6.607   4.364   5.415
 4949SOL    HW215747   6.481   4.440   5.345
 4950SOL     OW15748   2.097   4.557   4.891
 4950SOL    HW115749   2.184   4.591   4.925
 4950SOL    HW215750   2.070   4.476   4.943
 4951SOL     OW15751   6.116   1.173   4.173
 4951SOL    HW115752   6.059   1.169   4.091
 4951SOL    HW215753   6.191   1.108   4.164
 4952SOL     OW15754   0.076   0.251   6.294
 4952SOL    HW115755   0.092   0.336   6.346
 4952SOL    HW215756   0.128   0.177   6.336
 4953SOL     OW15757   1.434   7.000   3.759
 4953SOL    HW115758   1.366   6.931   3.733
 4953SOL    HW215759   1.443   0.042   3.686
 4954SOL     OW15760   2.707   3.100   6.908
 4954SOL    HW115761   2.764   3.139   6.981
 4954SOL    HW215762   2.736   3.136   6.820
 4955SOL     OW15763   2.904   6.841   6.934
 4955SOL    HW115764   2.963   6.919   6.956
 4955SOL    HW215765   2.901   6.779   7.012
 4956SOL     OW15766   2.791   6.962   5.836
 4956SOL    HW115767   2.867   6.902   5.859
 4956SOL    HW215768   2.746   6.929   5.753
 4957SOL     OW15769   6.220   2.291   1.836
 4957SOL    HW115770   6.276   2.314   1.756
 4957SOL    HW215771   6.193   2.195   1.831
 4958SOL     OW15772   0.940   5.136   6.114
 4958SOL    HW115773   0.932   5.041   6.143
 4958SOL    HW215774   0.848   5.175   6.103
 4959SOL     OW15775   6.233   2.020   0.619
 4959SOL    HW115776   6.271   1.929   0.601
 4959SOL    HW215777   6.232   2.036   0.717
 4960SOL     OW15778   3.896   4.937   3.459
 4960SOL    HW115779   3.800   4.941   3.432
 4960SOL    HW215780   3.902   4.919   3.558
 4961SOL     OW15781   3.644   0.518   5.600
 4961SOL    HW115782   3.688   0.435   5.635
 4961SOL    HW215783   3.700   0.598   5.620
 4962SOL     OW15784   6.000   2.914   0.508
 4962SOL    HW115785   5.962   2.897   0.599
 4962SOL    HW215786   6.089   2.959   0.517
 4963SOL     OW15787   0.534   5.960   0.590
 4963SOL    HW115788   0.490   6.002   0.670
 4963SOL    HW215789   0.469   5.959   0.514
 4964SOL     OW15790   2.513   6.995   4.709
 4964SOL    HW115791   2.554   6.926   4.768
 4964SOL    HW215792   2.419   6.969   4.688
 4965SOL     OW15793   0.930   0.285   2.063
 4965SOL    HW115794   0.942   0.382   2.082
 4965SOL    HW215795   0.993   0.256   1.991
 4966SOL     OW15796   2.857   6.525   5.087
 4966SOL    HW115797   2.919   6.449   5.106
 4966SOL    HW215798   2.801   6.503   5.007
 4967SOL     OW15799   3.744   4.843   5.459
 4967SOL    HW115800   3.736   4.749   5.493
 4967SOL    HW215801   3.835   4.856   5.418
 4968SOL     OW15802   0.207   1.172   3.368
 4968SOL    HW115803   0.134   1.234   3.339
 4968SOL    HW215804   0.234   1.115   3.291
 4969SOL     OW15805   1.757   5.850   3.076
 4969SOL    HW115806   1.709   5.765   3.098
 4969SOL    HW215807   1.751   5.867   2.977
 4970SOL     OW15808   2.679   1.910   1.356
 4970SOL    HW115809   2.620   1.957   1.422
 4970SOL    HW215810   2.682   1.812   1.378
 4971SOL     OW15811   5.889   5.399   2.879
 4971SOL    HW115812   5.797   5.420   2.846
 4971SOL    HW215813   5.956   5.433   2.813
 4972SOL     OW15814   0.912   3.363   1.397
 4972SOL    HW115815   0.870   3.313   1.473
 4972SOL    HW215816   0.943   3.453   1.429
 4973SOL     OW15817   1.426   6.897   1.818
 4973SOL    HW115818   1.379   6.915   1.904
 4973SOL    HW215819   1.496   6.826   1.833
 4974SOL     OW15820   0.079   4.474   0.856
 4974SOL    HW115821   0.014   4.413   0.810
 4974SOL    HW215822   0.045   4.495   0.947
 4975SOL     OW15823   6.065   4.126   5.765
 4975SOL    HW115824   6.010   4.047   5.737
 4975SOL    HW215825   6.106   4.109   5.854
 4976SOL     OW15826   2.498   1.975   4.055
 4976SOL    HW115827   2.462   2.012   4.140
 4976SOL    HW215828   2.456   1.886   4.037
 4977SOL     OW15829   4.595   4.658   0.100
 4977SOL    HW115830   4.566   4.564   0.085
 4977SOL    HW215831   4.677   4.678   0.046
 4978SOL     OW15832   6.294   4.574   5.094
 4978SOL    HW115833   6.314   4.660   5.140
 4978SOL    HW215834   6.379   4.536   5.056
 4979SOL     OW15835   6.671   6.841   5.469
 4979SOL    HW115836   6.694   6.837   5.566
 4979SOL    HW215837   6.581   6.883   5.457
 4980SOL     OW15838   5.531   5.465   3.068
 4980SOL    HW115839   5.511   5.477   3.165
 4980SOL    HW215840   5.629   5.455   3.054
 4981SOL     OW15841   3.983   4.959   1.042
 4981SOL    HW115842   3.999   5.056   1.056
 4981SOL    HW215843   3.945   4.944   0.951
 4982SOL     OW15844   3.333   1.262   5.729
 4982SOL    HW115845   3.256   1.312   5.689
 4982SOL    HW215846   3.416   1.317   5.720
 4983SOL     OW15847   6.514   3.424   5.831
 4983SOL    HW115848   6.578   3.441   5.906
 4983SOL    HW215849   6.478   3.331   5.838
 4984SOL     OW15850   5.604   4.275   3.537
 4984SOL    HW115851   5.654   4.360   3.521
 4984SOL    HW215852   5.653   4.219   3.603
 4985SOL     OW15853   5.703   0.208   2.917
 4985SOL    HW115854   5.706   0.214   2.817
 4985SOL    HW215855   5.610   0.227   2.949
 4986SOL     OW15856   0.381   4.875   1.471
 4986SOL    HW115857   0.283   4.887   1.452
 4986SOL    HW215858   0.422   4.818   1.400
 4987SOL     OW15859   0.602   6.649   2.376
 4987SOL    HW115860   0.548   6.711   2.433
 4987SOL    HW215861   0.695   6.684   2.368
 4988SOL     OW15862   5.069   0.985   3.001
 4988SOL    HW115863   4.985   0.930   2.994
 4988SOL    HW215864   5.145   0.927   3.030
 4989SOL     OW15865   5.465   6.530   1.694
 4989SOL    HW115866   5.506   6.598   1.633
 4989SOL    HW215867   5.412   6.464   1.641
 4990SOL     OW15868   2.760   2.282   6.083
 4990SOL    HW115869   2.757   2.381   6.067
 4990SOL    HW215870   2.697   2.236   6.021
 4991SOL     OW15871   6.779   5.590   3.697
 4991SOL    HW115872   6.778   5.580   3.797
 4991SOL    HW215873   6.708   5.532   3.657
 4992SOL     OW15874   4.903   0.510   1.859
 4992SOL    HW115875   4.981   0.574   1.857
 4992SOL    HW215876   4.840   0.537   1.931
 4993SOL     OW15877   3.624   5.971   4.951
 4993SOL    HW115878   3.685   5.893   4.968
 4993SOL    HW215879   3.624   6.031   5.031
 4994SOL     OW15880   1.669   0.543   4.359
 4994SOL    HW115881   1.677   0.450   4.396
 4994SOL    HW215882   1.708   0.545   4.267
 4995SOL     OW15883   0.589   1.722   5.303
 4995SOL    HW115884   0.511   1.780   5.278
 4995SOL    HW215885   0.628   1.753   5.390
 4996SOL     OW15886   0.310   0.845   3.037
 4996SOL    HW115887   0.352   0.793   3.111
 4996SOL    HW215888   0.270   0.781   2.971
 4997SOL     OW15889   4.637   2.657   2.322
 4997SOL    HW115890   4.676   2.604   2.397
 4997SOL    HW215891   4.552   2.613   2.290
 4998SOL     OW15892   2.241   3.455   5.096
 4998SOL    HW115893   2.279   3.415   5.179
 4998SOL    HW215894   2.233   3.554   5.108
 4999SOL     OW15895   6.745   3.690   6.085
 4999SOL    HW115896   6.783   3.739   6.162
 4999SOL    HW215897   6.727   3.754   6.010
 5000SOL     OW15898   3.934   6.684   3.240
 5000SOL    HW115899   3.972   6.766   3.197
 5000SOL    HW215900   3.900   6.622   3.168
 5001SOL     OW15901   0.459   4.269   2.051
 5001SOL    HW115902   0.401   4.291   2.129
 5001SOL    HW215903   0.456   4.344   1.984
 5002SOL     OW15904   0.810   3.287   2.076
 5002SOL    HW115905   0.835   3.190   2.080
 5002SOL    HW215906   0.713   3.296   2.053
 5003SOL     OW15907   3.139   5.241   2.544
 5003SOL    HW115908   3.144   5.318   2.608
 5003SOL    HW215909   3.048   5.201   2.546
 5004SOL     OW15910   2.655   5.233   5.422
 5004SOL    HW115911   2.631   5.168   5.494
 5004SOL    HW215912   2.683   5.320   5.463
 5005SOL     OW15913   3.398   3.000   0.971
 5005SOL    HW115914   3.384   2.996   1.070
 5005SOL    HW215915   3.457   3.077   0.949
 5006SOL     OW15916   4.858   0.543   1.097
 5006SOL    HW115917   4.824   0.474   1.161
 5006SOL    HW215918   4.792   0.556   1.023
 5007SOL     OW15919   0.636   6.462   0.857
 5007SOL    HW115920   0.596   6.407   0.783
 5007SOL    HW215921   0.621   6.559   0.837
 5008SOL     OW15922   5.506   6.254   1.701
 5008SOL    HW115923   5.573   6.194   1.745
 5008SOL    HW215924   5.457   6.306   1.771
 5009SOL     OW15925   0.380   1.240   0.779
 5009SOL    HW115926   0.429   1.158   0.806
 5009SOL    HW215927   0.288   1.239   0.819
 5010SOL     OW15928   4.072   3.221   2.369
 5010SOL    HW115929   4.154   3.250   2.319
 5010SOL    HW215930   4.041   3.296   2.428
 5011SOL     OW15931   1.475   4.106   1.938
 5011SOL    HW115932   1.526   4.181   1.979
 5011SOL    HW215933   1.404   4.075   2.002
 5012SOL     OW15934   5.629   4.037   5.550
 5012SOL    HW115935   5.611   4.072   5.643
 5012SOL    HW215936   5.709   4.083   5.512
 5013SOL     OW15937   5.292   1.268   0.381
 5013SOL    HW115938   5.342   1.192   0.338
 5013SOL    HW215939   5.212   1.231   0.429
 5014SOL     OW15940   6.423   4.163   1.086
 5014SOL    HW115941   6.477   4.224   1.143
 5014SOL    HW215942   6.460   4.070   1.092
 5015SOL     OW15943   4.611   1.760   4.624
 5015SOL    HW115944   4.706   1.759   4.654
 5015SOL    HW215945   4.603   1.713   4.536
 5016SOL     OW15946   1.255   2.830   6.783
 5016SOL    HW115947   1.245   2.906   6.719
 5016SOL    HW215948   1.252   2.743   6.733
 5017SOL     OW15949   2.315   2.904   0.841
 5017SOL    HW115950   2.345   2.858   0.757
 5017SOL    HW215951   2.383   2.973   0.867
 5018SOL     OW15952   1.190   3.689   2.274
 5018SOL    HW115953   1.102   3.728   2.302
 5018SOL    HW215954   1.191   3.681   2.174
 5019SOL     OW15955   1.092   5.008   5.767
 5019SOL    HW115956   1.128   4.993   5.676
 5019SOL    HW215957   1.031   5.087   5.767
 5020SOL     OW15958   5.394   0.003   6.648
 5020SOL    HW115959   5.318   0.017   6.584
 5020SOL    HW215960   5.468   0.066   6.626
 5021SOL     OW15961   0.538   1.162   0.304
 5021SOL    HW115962   0.444   1.127   0.308
 5021SOL    HW215963   0.561   1.206   0.391
 5022SOL     OW15964   1.461   1.131   0.337
 5022SOL    HW115965   1.443   1.035   0.317
 5022SOL    HW215966   1.534   1.164   0.276
 5023SOL     OW15967   0.176   3.435   1.434
 5023SOL    HW115968   0.139   3.521   1.399
 5023SOL    HW215969   0.108   3.390   1.492
 5024SOL     OW15970   6.429   5.695   1.821
 5024SOL    HW115971   6.357   5.632   1.794
 5024SOL    HW215972   6.510   5.643   1.848
 5025SOL     OW15973   3.571   1.689   2.254
 5025SOL    HW115974   3.631   1.622   2.209
 5025SOL    HW215975   3.504   1.724   2.188
 5026SOL     OW15976   6.032   6.045   5.229
 5026SOL    HW115977   5.947   6.076   5.272
 5026SOL    HW215978   6.093   6.009   5.298
 5027SOL     OW15979   0.350   6.304   1.572
 5027SOL    HW115980   0.363   6.241   1.496
 5027SOL    HW215981   0.269   6.361   1.555
 5028SOL     OW15982   0.155   2.106   2.484
 5028SOL    HW115983   0.237   2.082   2.536
 5028SOL    HW215984   0.079   2.123   2.548
 5029SOL     OW15985   6.329   2.061   2.028
 5029SOL    HW115986   6.322   2.151   2.072
 5029SOL    HW215987   6.389   2.068   1.948
 5030SOL     OW15988   0.199   6.510   0.052
 5030SOL    HW115989   0.272   6.565   0.011
 5030SOL    HW215990   0.141   6.568   0.109
 5031SOL     OW15991   6.050   0.370   5.708
 5031SOL    HW115992   6.085   0.454   5.665
 5031SOL    HW215993   6.112   0.294   5.688
 5032SOL     OW15994   1.906   1.873   0.068
 5032SOL    HW115995   1.984   1.816   0.092
 5032SOL    HW215996   1.900   1.950   0.131
 5033SOL     OW15997   2.187   6.992   5.393
 5033SOL    HW115998   2.200   6.927   5.467
 5033SOL    HW215999   2.174   6.943   5.306
 5034SOL     OW16000   5.706   0.621   3.555
 5034SOL    HW116001   5.688   0.646   3.459
 5034SOL    HW216002   5.622   0.630   3.608
 5035SOL     OW16003   1.009   3.358   6.938
 5035SOL    HW116004   1.066   3.310   6.871
 5035SOL    HW216005   1.034   3.454   6.939
 5036SOL     OW16006   0.705   4.930   6.349
 5036SOL    HW116007   0.790   4.898   6.307
 5036SOL    HW216008   0.658   4.853   6.393
 5037SOL     OW16009   5.653   4.359   2.438
 5037SOL    HW116010   5.564   4.401   2.453
 5037SOL    HW216011   5.640   4.266   2.403
 5038SOL     OW16012   3.510   3.857   6.140
 5038SOL    HW116013   3.473   3.764   6.137
 5038SOL    HW216014   3.439   3.920   6.171
 5039SOL     OW16015   2.832   4.555   5.612
 5039SOL    HW116016   2.891   4.475   5.622
 5039SOL    HW216017   2.775   4.565   5.694
 5040SOL     OW16018   1.658   6.166   5.608
 5040SOL    HW116019   1.695   6.174   5.515
 5040SOL    HW216020   1.653   6.070   5.633
 5041SOL     OW16021   2.483   1.868   2.734
 5041SOL    HW116022   2.490   1.965   2.713
 5041SOL    HW216023   2.493   1.814   2.651
 5042SOL     OW16024   6.688   2.794   0.127
 5042SOL    HW116025   6.693   2.766   0.223
 5042SOL    HW216026   6.606   2.849   0.112
 5043SOL     OW16027   3.206   6.995   6.207
 5043SOL    HW116028   3.244   6.907   6.181
 5043SOL    HW216029   3.277   0.024   6.252
 5044SOL     OW16030   0.200   6.705   6.802
 5044SOL    HW116031   0.250   6.649   6.736
 5044SOL    HW216032   0.264   6.744   6.868
 5045SOL     OW16033   4.813   0.567   6.676
 5045SOL    HW116034   4.880   0.583   6.748
 5045SOL    HW216035   4.840   0.487   6.622
 5046SOL     OW16036   3.359   4.141   2.954
 5046SOL    HW116037   3.442   4.179   2.913
 5046SOL    HW216038   3.317   4.076   2.890
 5047SOL     OW16039   0.809   4.449   2.347
 5047SOL    HW116040   0.851   4.405   2.268
 5047SOL    HW216041   0.717   4.482   2.322
 5048SOL     OW16042   0.745   1.628   2.293
 5048SOL    HW116043   0.687   1.593   2.367
 5048SOL    HW216044   0.692   1.629   2.207
 5049SOL     OW16045   5.819   2.146   5.977
 5049SOL    HW116046   5.813   2.128   5.879
 5049SOL    HW216047   5.814   2.245   5.994
 5050SOL     OW16048   1.460   1.632   1.303
 5050SOL    HW116049   1.510   1.548   1.323
 5050SOL    HW216050   1.492   1.705   1.364
 5051SOL     OW16051   4.675   4.762   0.975
 5051SOL    HW116052   4.666   4.783   1.072
 5051SOL    HW216053   4.649   4.842   0.921
 5052SOL     OW16054   2.540   1.100   6.465
 5052SOL    HW116055   2.605   1.172   6.488
 5052SOL    HW216056   2.453   1.118   6.510
 5053SOL     OW16057   2.114   3.790   3.389
 5053SOL    HW116058   2.155   3.820   3.475
 5053SOL    HW216059   2.128   3.692   3.377
 5054SOL     OW16060   3.658   5.398   5.410
 5054SOL    HW116061   3.653   5.331   5.484
 5054SOL    HW216062   3.704   5.480   5.442
 5055SOL     OW16063   1.893   1.908   6.029
 5055SOL    HW116064   1.974   1.873   5.982
 5055SOL    HW216065   1.893   2.008   6.027
 5056SOL     OW16066   6.715   4.297   6.657
 5056SOL    HW116067   6.653   4.237   6.707
 5056SOL    HW216068   6.709   4.278   6.559
 5057SOL     OW16069   0.127   5.806   3.918
 5057SOL    HW116070   0.100   5.859   3.838
 5057SOL    HW216071   0.200   5.743   3.893
 5058SOL     OW16072   2.932   3.431   5.555
 5058SOL    HW116073   2.846   3.418   5.504
 5058SOL    HW216074   2.911   3.468   5.646
 5059SOL     OW16075   5.610   1.154   3.662
 5059SOL    HW116076   5.551   1.212   3.606
 5059SOL    HW216077   5.705   1.169   3.637
 5060SOL     OW16078   0.856   1.991   5.570
 5060SOL    HW116079   0.861   1.891   5.572
 5060SOL    HW216080   0.760   2.019   5.577
 5061SOL     OW16081   4.070   2.450   1.600
 5061SOL    HW116082   4.087   2.486   1.509
 5061SOL    HW216083   4.047   2.353   1.595
 5062SOL     OW16084   4.795   1.157   3.460
 5062SOL    HW116085   4.877   1.209   3.439
 5062SOL    HW216086   4.818   1.059   3.463
 5063SOL     OW16087   1.074   6.603   2.202
 5063SOL    HW116088   1.001   6.538   2.184
 5063SOL    HW216089   1.142   6.561   2.262
 5064SOL     OW16090   5.290   4.282   1.961
 5064SOL    HW116091   5.206   4.314   2.004
 5064SOL    HW216092   5.313   4.191   1.997
 5065SOL     OW16093   2.095   0.682   3.851
 5065SOL    HW116094   2.060   0.593   3.882
 5065SOL    HW216095   2.190   0.671   3.821
 5066SOL     OW16096   4.463   4.896   2.105
 5066SOL    HW116097   4.453   4.801   2.134
 5066SOL    HW216098   4.478   4.899   2.006
 5067SOL     OW16099   4.988   0.867   1.523
 5067SOL    HW116100   4.911   0.850   1.584
 5067SOL    HW216101   4.953   0.898   1.434
 5068SOL     OW16102   3.217   4.904   0.016
 5068SOL    HW116103   3.297   4.910   6.983
 5068SOL    HW216104   3.219   4.979   0.083
 5069SOL     OW16105   2.303   3.552   5.766
 5069SOL    HW116106   2.274   3.555   5.671
 5069SOL    HW216107   2.384   3.495   5.775
 5070SOL     OW16108   4.562   5.058   3.868
 5070SOL    HW116109   4.605   5.034   3.781
 5070SOL    HW216110   4.594   4.997   3.939
 5071SOL     OW16111   4.081   2.098   3.132
 5071SOL    HW116112   4.069   2.149   3.217
 5071SOL    HW216113   4.008   2.123   3.068
 5072SOL     OW16114   0.970   0.173   1.237
 5072SOL    HW116115   0.892   0.147   1.180
 5072SOL    HW216116   1.021   0.091   1.264
 5073SOL     OW16117   0.224   5.735   1.789
 5073SOL    HW116118   0.215   5.672   1.866
 5073SOL    HW216119   0.320   5.759   1.776
 5074SOL     OW16120   2.902   2.852   1.132
 5074SOL    HW116121   2.911   2.795   1.213
 5074SOL    HW216122   2.930   2.946   1.154
 5075SOL     OW16123   0.809   1.654   6.291
 5075SOL    HW116124   0.801   1.732   6.229
 5075SOL    HW216125   0.797   1.684   6.385
 5076SOL     OW16126   4.259   1.174   0.694
 5076SOL    HW116127   4.352   1.211   0.701
 5076SOL    HW216128   4.213   1.214   0.614
 5077SOL     OW16129   1.995   4.700   5.514
 5077SOL    HW116130   2.053   4.621   5.494
 5077SOL    HW216131   1.959   4.738   5.429
 5078SOL     OW16132   1.149   0.682   4.187
 5078SOL    HW116133   1.235   0.634   4.168
 5078SOL    HW216134   1.116   0.655   4.278
 5079SOL     OW16135   2.135   2.910   6.146
 5079SOL    HW116136   2.230   2.885   6.164
 5079SOL    HW216137   2.082   2.828   6.125
 5080SOL     OW16138   6.239   6.925   5.907
 5080SOL    HW116139   6.210   6.941   5.812
 5080SOL    HW216140   6.159   6.901   5.962
 5081SOL     OW16141   3.049   3.127   4.647
 5081SOL    HW116142   3.082   3.050   4.701
 5081SOL    HW216143   3.124   3.163   4.591
 5082SOL     OW16144   4.793   5.786   0.645
 5082SOL    HW116145   4.735   5.792   0.563
 5082SOL    HW216146   4.741   5.747   0.720
 5083SOL     OW16147   2.277   6.515   2.468
 5083SOL    HW116148   2.365   6.544   2.432
 5083SOL    HW216149   2.211   6.509   2.393
 5084SOL     OW16150   0.322   4.771   4.645
 5084SOL    HW116151   0.319   4.671   4.647
 5084SOL    HW216152   0.313   4.802   4.550
 5085SOL     OW16153   5.119   3.128   6.639
 5085SOL    HW116154   5.129   3.078   6.726
 5085SOL    HW216155   5.141   3.066   6.563
 5086SOL     OW16156   1.151   5.761   3.425
 5086SOL    HW116157   1.109   5.672   3.442
 5086SOL    HW216158   1.128   5.823   3.500
 5087SOL     OW16159   1.564   5.294   2.269
 5087SOL    HW116160   1.475   5.309   2.312
 5087SOL    HW216161   1.592   5.199   2.283
 5088SOL     OW16162   6.342   1.247   5.149
 5088SOL    HW116163   6.402   1.287   5.219
 5088SOL    HW216164   6.363   1.287   5.060
 5089SOL     OW16165   4.953   3.867   4.464
 5089SOL    HW116166   4.976   3.853   4.368
 5089SOL    HW216167   4.907   3.956   4.475
 5090SOL     OW16168   2.021   4.082   2.468
 5090SOL    HW116169   2.085   4.008   2.490
 5090SOL    HW216170   1.959   4.052   2.395
 5091SOL     OW16171   0.703   0.065   2.599
 5091SOL    HW116172   0.702   0.129   2.521
 5091SOL    HW216173   0.741   0.111   2.679
 5092SOL     OW16174   3.830   3.385   1.708
 5092SOL    HW116175   3.863   3.303   1.660
 5092SOL    HW216176   3.874   3.466   1.669
 5093SOL     OW16177   2.637   1.214   1.434
 5093SOL    HW116178   2.537   1.211   1.443
 5093SOL    HW216179   2.678   1.161   1.508
 5094SOL     OW16180   2.353   5.582   5.743
 5094SOL    HW116181   2.398   5.662   5.703
 5094SOL    HW216182   2.340   5.512   5.672
 5095SOL     OW16183   5.779   2.450   4.742
 5095SOL    HW116184   5.712   2.408   4.680
 5095SOL    HW216185   5.740   2.455   4.834
 5096SOL     OW16186   4.312   4.318   0.660
 5096SOL    HW116187   4.301   4.415   0.681
 5096SOL    HW216188   4.233   4.286   0.608
 5097SOL     OW16189   1.382   0.631   6.539
 5097SOL    HW116190   1.434   0.702   6.587
 5097SOL    HW216191   1.289   0.626   6.576
 5098SOL     OW16192   1.523   0.688   1.727
 5098SOL    HW116193   1.467   0.709   1.807
 5098SOL    HW216194   1.507   0.593   1.699
 5099SOL     OW16195   0.502   6.078   6.768
 5099SOL    HW116196   0.472   5.996   6.815
 5099SOL    HW216197   0.601   6.090   6.780
 5100SOL     OW16198   3.993   5.554   5.447
 5100SOL    HW116199   3.896   5.575   5.437
 5100SOL    HW216200   4.014   5.541   5.544
 5101SOL     OW16201   4.750   6.345   0.152
 5101SOL    HW116202   4.802   6.395   0.221
 5101SOL    HW216203   4.653   6.369   0.159
 5102SOL     OW16204   5.119   0.233   4.151
 5102SOL    HW116205   5.124   0.312   4.211
 5102SOL    HW216206   5.150   0.258   4.059
 5103SOL     OW16207   0.168   1.696   3.884
 5103SOL    HW116208   0.186   1.778   3.830
 5103SOL    HW216209   0.251   1.668   3.932
 5104SOL     OW16210   1.919   6.514   2.985
 5104SOL    HW116211   1.935   6.612   2.998
 5104SOL    HW216212   1.936   6.490   2.889
 5105SOL     OW16213   3.514   3.106   0.527
 5105SOL    HW116214   3.425   3.072   0.558
 5105SOL    HW216215   3.533   3.069   0.435
 5106SOL     OW16216   3.252   1.025   0.184
 5106SOL    HW116217   3.339   1.000   0.140
 5106SOL    HW216218   3.178   1.022   0.117
 5107SOL     OW16219   3.252   0.860   0.424
 5107SOL    HW116220   3.344   0.820   0.414
 5107SOL    HW216221   3.219   0.890   0.334
 5108SOL     OW16222   2.913   3.691   4.424
 5108SOL    HW116223   2.878   3.690   4.518
 5108SOL    HW216224   2.936   3.785   4.398
 5109SOL     OW16225   1.261   0.767   0.478
 5109SOL    HW116226   1.348   0.777   0.526
 5109SOL    HW216227   1.271   0.701   0.404
 5110SOL     OW16228   0.395   0.847   6.585
 5110SOL    HW116229   0.359   0.756   6.604
 5110SOL    HW216230   0.491   0.839   6.558
 5111SOL     OW16231   2.830   1.718   5.679
 5111SOL    HW116232   2.817   1.625   5.645
 5111SOL    HW216233   2.873   1.774   5.608
 5112SOL     OW16234   1.135   0.012   2.964
 5112SOL    HW116235   1.167   0.081   3.029
 5112SOL    HW216236   1.039   7.016   2.983
 5113SOL     OW16237   2.410   6.392   1.262
 5113SOL    HW116238   2.419   6.418   1.359
 5113SOL    HW216239   2.364   6.466   1.213
 5114SOL     OW16240   3.184   1.580   0.160
 5114SOL    HW116241   3.254   1.552   0.226
 5114SOL    HW216242   3.221   1.574   0.067
 5115SOL     OW16243   2.198   5.173   4.213
 5115SOL    HW116244   2.203   5.253   4.154
 5115SOL    HW216245   2.192   5.090   4.157
 5116SOL     OW16246   6.020   7.009   6.833
 5116SOL    HW116247   6.089   0.055   6.825
 5116SOL    HW216248   6.056   6.934   6.889
 5117SOL     OW16249   2.922   4.838   4.815
 5117SOL    HW116250   2.916   4.761   4.880
 5117SOL    HW216251   2.836   4.845   4.765
 5118SOL     OW16252   4.841   0.675   0.183
 5118SOL    HW116253   4.940   0.671   0.191
 5118SOL    HW216254   4.805   0.581   0.180
 5119SOL     OW16255   5.290   0.687   1.833
 5119SOL    HW116256   5.247   0.627   1.765
 5119SOL    HW216257   5.221   0.747   1.873
 5120SOL     OW16258   4.056   1.737   4.304
 5120SOL    HW116259   4.088   1.656   4.354
 5120SOL    HW216260   4.118   1.756   4.229
 5121SOL     OW16261   2.790   2.076   6.882
 5121SOL    HW116262   2.780   2.153   6.820
 5121SOL    HW216263   2.820   1.995   6.831
 5122SOL     OW16264   2.963   0.006   2.993
 5122SOL    HW116265   2.912   0.089   2.969
 5122SOL    HW216266   2.956   7.015   3.091
 5123SOL     OW16267   5.411   1.328   5.198
 5123SOL    HW116268   5.507   1.300   5.209
 5123SOL    HW216269   5.357   1.292   5.274
 5124SOL     OW16270   3.134   4.900   4.676
 5124SOL    HW116271   3.207   4.877   4.740
 5124SOL    HW216272   3.046   4.871   4.714
 5125SOL     OW16273   6.858   3.134   4.033
 5125SOL    HW116274   6.808   3.190   4.098
 5125SOL    HW216275   6.793   3.089   3.971
 5126SOL     OW16276   5.982   5.771   5.742
 5126SOL    HW116277   5.907   5.825   5.779
 5126SOL    HW216278   5.964   5.750   5.646
 5127SOL     OW16279   0.550   3.789   0.268
 5127SOL    HW116280   0.561   3.695   0.300
 5127SOL    HW216281   0.481   3.835   0.324
 5128SOL     OW16282   6.693   0.687   6.796
 5128SOL    HW116283   6.605   0.710   6.755
 5128SOL    HW216284   6.743   0.626   6.735
 5129SOL     OW16285   4.545   0.265   2.810
 5129SOL    HW116286   4.606   0.284   2.887
 5129SOL    HW216287   4.540   0.166   2.794
 5130SOL     OW16288   1.752   5.234   4.048
 5130SOL    HW116289   1.682   5.178   4.092
 5130SOL    HW216290   1.709   5.316   4.010
 5131SOL     OW16291   2.661   4.887   3.941
 5131SOL    HW116292   2.705   4.976   3.950
 5131SOL    HW216293   2.649   4.865   3.844
 5132SOL     OW16294   3.562   1.724   6.507
 5132SOL    HW116295   3.598   1.649   6.453
 5132SOL    HW216296   3.627   1.748   6.580
 5133SOL     OW16297   2.192   5.054   6.558
 5133SOL    HW116298   2.118   4.992   6.531
 5133SOL    HW216299   2.178   5.144   6.517
 5134SOL     OW16300   6.579   0.946   1.917
 5134SOL    HW116301   6.634   1.026   1.895
 5134SOL    HW216302   6.620   0.896   1.994
 5135SOL     OW16303   4.872   3.602   4.533
 5135SOL    HW116304   4.893   3.601   4.631
 5135SOL    HW216305   4.865   3.697   4.502
 5136SOL     OW16306   5.355   0.615   6.519
 5136SOL    HW116307   5.312   0.703   6.500
 5136SOL    HW216308   5.305   0.568   6.591
 5137SOL     OW16309   5.228   3.332   5.381
 5137SOL    HW116310   5.196   3.383   5.461
 5137SOL    HW216311   5.225   3.234   5.400
 5138SOL     OW16312   4.065   3.789   4.742
 5138SOL    HW116313   4.152   3.751   4.710
 5138SOL    HW216314   4.029   3.851   4.672
 5139SOL     OW16315   0.907   0.131   4.284
 5139SOL    HW116316   0.871   0.222   4.264
 5139SOL    HW216317   1.006   0.136   4.293
 5140SOL     OW16318   3.972   1.618   5.724
 5140SOL    HW116319   3.932   1.586   5.810
 5140SOL    HW216320   4.014   1.708   5.738
 5141SOL     OW16321   6.268   3.803   1.106
 5141SOL    HW116322   6.220   3.864   1.043
 5141SOL    HW216323   6.202   3.747   1.156
 5142SOL     OW16324   5.325   6.265   4.093
 5142SOL    HW116325   5.394   6.259   4.165
 5142SOL    HW216326   5.368   6.247   4.005
 5143SOL     OW16327   0.178   4.617   4.378
 5143SOL    HW116328   0.092   4.575   4.350
 5143SOL    HW216329   0.184   4.617   4.478
 5144SOL     OW16330   1.395   5.017   5.275
 5144SOL    HW116331   1.432   4.943   5.220
 5144SOL    HW216332   1.338   5.076   5.218
 5145SOL     OW16333   3.694   5.994   6.538
 5145SOL    HW116334   3.776   6.049   6.526
 5145SOL    HW216335   3.613   6.047   6.511
 5146SOL     OW16336   3.396   3.901   5.497
 5146SOL    HW116337   3.437   3.867   5.413
 5146SOL    HW216338   3.433   3.850   5.575
 5147SOL     OW16339   6.673   5.871   4.041
 5147SOL    HW116340   6.599   5.939   4.031
 5147SOL    HW216341   6.759   5.911   4.010
 5148SOL     OW16342   7.020   0.955   2.152
 5148SOL    HW116343   0.040   1.044   2.149
 5148SOL    HW216344   0.053   0.889   2.198
 5149SOL     OW16345   6.448   5.267   4.325
 5149SOL    HW116346   6.438   5.171   4.301
 5149SOL    HW216347   6.359   5.306   4.346
 5150SOL     OW16348   2.266   5.509   3.462
 5150SOL    HW116349   2.191   5.539   3.403
 5150SOL    HW216350   2.342   5.573   3.455
 5151SOL     OW16351   0.377   3.990   1.904
 5151SOL    HW116352   0.359   4.076   1.951
 5151SOL    HW216353   0.306   3.923   1.927
 5152SOL     OW16354   1.468   5.209   6.810
 5152SOL    HW116355   1.541   5.231   6.875
 5152SOL    HW216356   1.379   5.224   6.852
 5153SOL     OW16357   0.738   2.009   0.910
 5153SOL    HW116358   0.818   1.953   0.930
 5153SOL    HW216359   0.688   2.028   0.995
 5154SOL     OW16360   1.082   2.748   6.088
 5154SOL    HW116361   1.075   2.660   6.040
 5154SOL    HW216362   1.134   2.812   6.032
 5155SOL     OW16363   3.903   0.056   2.029
 5155SOL    HW116364   3.941   0.070   2.121
 5155SOL    HW216365   3.818   0.004   2.036
 5156SOL     OW16366   5.530   4.658   5.438
 5156SOL    HW116367   5.589   4.711   5.499
 5156SOL    HW216368   5.447   4.632   5.487
 5157SOL     OW16369   3.241   2.150   2.918
 5157SOL    HW116370   3.208   2.227   2.974
 5157SOL    HW216371   3.340   2.140   2.930
 5158SOL     OW16372   4.037   2.155   0.952
 5158SOL    HW116373   4.001   2.132   0.862
 5158SOL    HW216374   4.125   2.111   0.965
 5159SOL     OW16375   5.648   3.007   5.910
 5159SOL    HW116376   5.617   2.944   5.981
 5159SOL    HW216377   5.746   3.026   5.922
 5160SOL     OW16378   0.044   4.722   3.390
 5160SOL    HW116379   0.044   4.683   3.297
 5160SOL    HW216380   0.041   4.822   3.383
 5161SOL     OW16381   1.992   3.619   6.924
 5161SOL    HW116382   2.019   3.527   6.894
 5161SOL    HW216383   2.072   3.669   6.956
 5162SOL     OW16384   0.903   5.609   3.113
 5162SOL    HW116385   0.810   5.573   3.125
 5162SOL    HW216386   0.961   5.573   3.187
 5163SOL     OW16387   2.948   6.944   0.959
 5163SOL    HW116388   2.890   6.870   0.993
 5163SOL    HW216389   2.972   7.005   1.035
 5164SOL     OW16390   3.794   3.038   0.290
 5164SOL    HW116391   3.715   2.981   0.271
 5164SOL    HW216392   3.875   3.000   0.245
 5165SOL     OW16393   0.796   3.889   5.806
 5165SOL    HW116394   0.817   3.822   5.736
 5165SOL    HW216395   0.881   3.922   5.847
 5166SOL     OW16396   1.780   5.449   2.263
 5166SOL    HW116397   1.694   5.399   2.272
 5166SOL    HW216398   1.852   5.385   2.236
 5167SOL     OW16399   6.218   4.655   5.497
 5167SOL    HW116400   6.279   4.610   5.432
 5167SOL    HW216401   6.167   4.587   5.548
 5168SOL     OW16402   5.555   3.374   2.190
 5168SOL    HW116403   5.567   3.299   2.254
 5168SOL    HW216404   5.609   3.357   2.107
 5169SOL     OW16405   3.754   2.103   3.463
 5169SOL    HW116406   3.828   2.053   3.509
 5169SOL    HW216407   3.787   2.140   3.376
 5170SOL     OW16408   1.258   3.645   4.967
 5170SOL    HW116409   1.194   3.719   4.947
 5170SOL    HW216410   1.307   3.665   5.052
 5171SOL     OW16411   0.329   3.834   6.137
 5171SOL    HW116412   0.248   3.776   6.128
 5171SOL    HW216413   0.411   3.778   6.121
 5172SOL     OW16414   1.853   3.262   2.400
 5172SOL    HW116415   1.867   3.164   2.409
 5172SOL    HW216416   1.782   3.279   2.331
 5173SOL     OW16417   3.996   5.166   5.273
 5173SOL    HW116418   3.932   5.152   5.349
 5173SOL    HW216419   3.968   5.109   5.196
 5174SOL     OW16420   2.590   4.929   3.149
 5174SOL    HW116421   2.566   4.895   3.240
 5174SOL    HW216422   2.527   5.003   3.124
 5175SOL     OW16423   3.069   3.465   6.631
 5175SOL    HW116424   2.979   3.470   6.673
 5175SOL    HW216425   3.060   3.460   6.532
 5176SOL     OW16426   5.237   3.812   6.929
 5176SOL    HW116427   5.336   3.797   6.925
 5176SOL    HW216428   5.209   3.874   6.857
 5177SOL     OW16429   5.579   6.588   0.811
 5177SOL    HW116430   5.606   6.531   0.733
 5177SOL    HW216431   5.499   6.547   0.855
 5178SOL     OW16432   1.381   3.666   2.471
 5178SOL    HW116433   1.335   3.677   2.383
 5178SOL    HW216434   1.454   3.599   2.463
 5179SOL     OW16435   4.510   4.480   3.931
 5179SOL    HW116436   4.487   4.498   3.836
 5179SOL    HW216437   4.452   4.536   3.990
 5180SOL     OW16438   3.111   1.191   1.290
 5180SOL    HW116439   3.033   1.129   1.281
 5180SOL    HW216440   3.192   1.150   1.248
 5181SOL     OW16441   5.074   0.814   2.228
 5181SOL    HW116442   5.039   0.826   2.321
 5181SOL    HW216443   5.167   0.778   2.232
 5182SOL     OW16444   4.324   4.573   1.869
 5182SOL    HW116445   4.262   4.595   1.944
 5182SOL    HW216446   4.375   4.490   1.891
 5183SOL     OW16447   3.467   1.701   2.921
 5183SOL    HW116448   3.371   1.689   2.945
 5183SOL    HW216449   3.509   1.611   2.904
 5184SOL     OW16450   1.223   2.610   3.527
 5184SOL    HW116451   1.223   2.704   3.490
 5184SOL    HW216452   1.129   2.579   3.538
 5185SOL     OW16453   4.801   1.383   3.152
 5185SOL    HW116454   4.711   1.359   3.116
 5185SOL    HW216455   4.865   1.308   3.136
 5186SOL     OW16456   5.843   1.199   7.019
 5186SOL    HW116457   5.892   1.251   6.949
 5186SOL    HW216458   5.891   1.114   0.012
 5187SOL     OW16459   1.321   5.962   4.924
 5187SOL    HW116460   1.295   5.887   4.863
 5187SOL    HW216461   1.245   6.027   4.931
 5188SOL     OW16462   6.610   5.583   1.612
 5188SOL    HW116463   6.710   5.592   1.613
 5188SOL    HW216464   6.575   5.608   1.522
 5189SOL     OW16465   4.218   5.792   0.981
 5189SOL    HW116466   4.242   5.741   0.898
 5189SOL    HW216467   4.128   5.761   1.013
 5190SOL     OW16468   0.642   3.527   4.270
 5190SOL    HW116469   0.643   3.458   4.342
 5190SOL    HW216470   0.717   3.510   4.206
 5191SOL     OW16471   3.671   6.880   2.576
 5191SOL    HW116472   3.759   6.917   2.549
 5191SOL    HW216473   3.607   6.955   2.594
 5192SOL     OW16474   1.901   5.969   1.587
 5192SOL    HW116475   1.899   5.872   1.565
 5192SOL    HW216476   1.897   5.981   1.686
 5193SOL     OW16477   5.184   5.765   5.597
 5193SOL    HW116478   5.207   5.775   5.694
 5193SOL    HW216479   5.235   5.831   5.543
 5194SOL     OW16480   4.343   1.927   6.956
 5194SOL    HW116481   4.354   2.021   6.924
 5194SOL    HW216482   4.344   1.865   6.877
 5195SOL     OW16483   0.249   0.350   4.191
 5195SOL    HW116484   0.313   0.424   4.171
 5195SOL    HW216485   0.282   0.265   4.150
 5196SOL     OW16486   4.763   6.957   2.262
 5196SOL    HW116487   4.831   6.962   2.188
 5196SOL    HW216488   4.674   6.931   2.224
 5197SOL     OW16489   2.025   4.071   6.372
 5197SOL    HW116490   2.081   4.066   6.455
 5197SOL    HW216491   2.035   3.986   6.320
 5198SOL     OW16492   4.809   6.053   3.322
 5198SOL    HW116493   4.830   6.026   3.228
 5198SOL    HW216494   4.773   6.146   3.324
 5199SOL     OW16495   0.924   6.064   0.153
 5199SOL    HW116496   0.857   6.011   0.206
 5199SOL    HW216497   0.979   6.002   0.098
 5200SOL     OW16498   6.850   3.947   5.299
 5200SOL    HW116499   6.928   3.935   5.239
 5200SOL    HW216500   6.785   3.872   5.285
 5201SOL     OW16501   0.658   6.869   2.837
 5201SOL    HW116502   0.715   6.802   2.789
 5201SOL    HW216503   0.563   6.837   2.841
 5202SOL     OW16504   5.122   2.480   6.367
 5202SOL    HW116505   5.214   2.498   6.402
 5202SOL    HW216506   5.089   2.393   6.403
 5203SOL     OW16507   2.251   2.567   6.663
 5203SOL    HW116508   2.213   2.619   6.586
 5203SOL    HW216509   2.181   2.555   6.733
 5204SOL     OW16510   3.236   5.110   6.464
 5204SOL    HW116511   3.277   5.070   6.383
 5204SOL    HW216512   3.212   5.038   6.529
 5205SOL     OW16513   0.363   6.525   0.590
 5205SOL    HW116514   0.417   6.448   0.625
 5205SOL    HW216515   0.288   6.490   0.534
 5206SOL     OW16516   0.359   4.168   5.646
 5206SOL    HW116517   0.437   4.133   5.697
 5206SOL    HW216518   0.336   4.260   5.680
 5207SOL     OW16519   0.887   5.941   3.826
 5207SOL    HW116520   0.896   5.942   3.925
 5207SOL    HW216521   0.791   5.929   3.801
 5208SOL     OW16522   3.712   1.752   6.734
 5208SOL    HW116523   3.682   1.847   6.741
 5208SOL    HW216524   3.766   1.728   6.814
 5209SOL     OW16525   5.614   5.824   3.604
 5209SOL    HW116526   5.625   5.890   3.679
 5209SOL    HW216527   5.585   5.736   3.641
 5210SOL     OW16528   5.281   2.854   5.333
 5210SOL    HW116529   5.205   2.823   5.277
 5210SOL    HW216530   5.295   2.791   5.409
 5211SOL     OW16531   3.259   2.992   4.775
 5211SOL    HW116532   3.348   2.979   4.732
 5211SOL    HW216533   3.270   2.996   4.874
 5212SOL     OW16534   6.226   2.119   0.874
 5212SOL    HW116535   6.263   2.100   0.965
 5212SOL    HW216536   6.126   2.122   0.879
 5213SOL     OW16537   4.413   4.047   6.891
 5213SOL    HW116538   4.409   3.956   6.931
 5213SOL    HW216539   4.335   4.101   6.924
 5214SOL     OW16540   4.772   1.586   5.417
 5214SOL    HW116541   4.825   1.647   5.358
 5214SOL    HW216542   4.700   1.543   5.363
 5215SOL     OW16543   5.783   4.708   3.737
 5215SOL    HW116544   5.827   4.791   3.771
 5215SOL    HW216545   5.845   4.630   3.747
 5216SOL     OW16546   4.279   5.446   1.552
 5216SOL    HW116547   4.325   5.510   1.614
 5216SOL    HW216548   4.255   5.363   1.603
 5217SOL     OW16549   3.399   5.539   4.305
 5217SOL    HW116550   3.476   5.554   4.367
 5217SOL    HW216551   3.328   5.606   4.323
 5218SOL     OW16552   1.007   0.792   3.946
 5218SOL    HW116553   1.042   0.735   4.020
 5218SOL    HW216554   1.024   0.748   3.858
 5219SOL     OW16555   4.065   0.456   5.761
 5219SOL    HW116556   4.159   0.426   5.741
 5219SOL    HW216557   4.052   0.458   5.860
 5220SOL     OW16558   1.587   5.691   2.587
 5220SOL    HW116559   1.673   5.675   2.538
 5220SOL    HW216560   1.517   5.722   2.522
 5221SOL     OW16561   5.552   2.298   4.059
 5221SOL    HW116562   5.542   2.203   4.088
 5221SOL    HW216563   5.640   2.310   4.013
 5222SOL     OW16564   3.398   6.028   3.481
 5222SOL    HW116565   3.386   6.011   3.383
 5222SOL    HW216566   3.402   5.941   3.529
 5223SOL     OW16567   5.708   1.633   1.111
 5223SOL    HW116568   5.686   1.537   1.090
 5223SOL    HW216569   5.768   1.636   1.191
 5224SOL     OW16570   0.042   2.607   3.914
 5224SOL    HW116571   0.029   2.662   3.997
 5224SOL    HW216572   0.134   2.622   3.878
 5225SOL     OW16573   0.285   0.118   3.337
 5225SOL    HW116574   0.318   0.196   3.284
 5225SOL    HW216575   0.218   0.150   3.404
 5226SOL     OW16576   0.374   5.940   4.637
 5226SOL    HW116577   0.323   6.021   4.607
 5226SOL    HW216578   0.327   5.858   4.604
 5227SOL     OW16579   1.254   3.483   3.916
 5227SOL    HW116580   1.350   3.466   3.938
 5227SOL    HW216581   1.225   3.569   3.958
 5228SOL     OW16582   6.376   2.261   1.309
 5228SOL    HW116583   6.400   2.357   1.298
 5228SOL    HW216584   6.348   2.243   1.403
 5229SOL     OW16585   1.842   5.663   0.328
 5229SOL    HW116586   1.821   5.671   0.230
 5229SOL    HW216587   1.936   5.630   0.339
 5230SOL     OW16588   0.569   6.209   0.960
 5230SOL    HW116589   0.561   6.303   0.929
 5230SOL    HW216590   0.613   6.206   1.049
 5231SOL     OW16591   4.254   3.663   5.505
 5231SOL    HW116592   4.322   3.672   5.578
 5231SOL    HW216593   4.299   3.637   5.420
 5232SOL     OW16594   3.463   2.060   5.661
 5232SOL    HW116595   3.409   2.067   5.577
 5232SOL    HW216596   3.412   2.009   5.729
 5233SOL     OW16597   5.487   0.881   2.081
 5233SOL    HW116598   5.579   0.883   2.041
 5233SOL    HW216599   5.425   0.935   2.024
 5234SOL     OW16600   2.482   0.424   0.165
 5234SOL    HW116601   2.531   0.480   0.232
 5234SOL    HW216602   2.384   0.440   0.174
 5235SOL     OW16603   2.080   3.111   1.083
 5235SOL    HW116604   2.121   3.021   1.098
 5235SOL    HW216605   1.982   3.107   1.101
 5236SOL     OW16606   5.845   3.907   2.769
 5236SOL    HW116607   5.875   3.850   2.846
 5236SOL    HW216608   5.794   3.851   2.704
 5237SOL     OW16609   2.311   0.765   4.999
 5237SOL    HW116610   2.353   0.678   4.974
 5237SOL    HW216611   2.305   0.772   5.098
 5238SOL     OW16612   1.435   4.220   0.645
 5238SOL    HW116613   1.495   4.177   0.578
 5238SOL    HW216614   1.475   4.306   0.676
 5239SOL     OW16615   4.068   3.241   4.340
 5239SOL    HW116616   4.045   3.218   4.246
 5239SOL    HW216617   4.161   3.209   4.361
 5240SOL     OW16618   3.359   1.504   6.462
 5240SOL    HW116619   3.261   1.528   6.464
 5240SOL    HW216620   3.411   1.573   6.513
 5241SOL     OW16621   0.678   5.328   5.565
 5241SOL    HW116622   0.734   5.390   5.620
 5241SOL    HW216623   0.727   5.303   5.482
 5242SOL     OW16624   6.610   5.883   6.152
 5242SOL    HW116625   6.546   5.841   6.088
 5242SOL    HW216626   6.562   5.949   6.209
 5243SOL     OW16627   1.423   5.634   1.736
 5243SOL    HW116628   1.388   5.548   1.773
 5243SOL    HW216629   1.474   5.682   1.806
 5244SOL     OW16630   3.475   4.218   6.300
 5244SOL    HW116631   3.427   4.140   6.259
 5244SOL    HW216632   3.520   4.270   6.228
 5245SOL     OW16633   4.917   4.540   0.430
 5245SOL    HW116634   5.009   4.526   0.465
 5245SOL    HW216635   4.916   4.617   0.366
 5246SOL     OW16636   5.687   4.319   2.735
 5246SOL    HW116637   5.733   4.235   2.762
 5246SOL    HW216638   5.696   4.332   2.636
 5247SOL     OW16639   0.915   6.882   0.457
 5247SOL    HW116640   0.838   6.933   0.495
 5247SOL    HW216641   0.921   6.792   0.501
 5248SOL     OW16642   5.523   0.798   4.319
 5248SOL    HW116643   5.469   0.794   4.235
 5248SOL    HW216644   5.557   0.891   4.333
 5249SOL     OW16645   6.829   4.609   4.931
 5249SOL    HW116646   6.853   4.512   4.928
 5249SOL    HW216647   6.802   4.634   5.024
 5250SOL     OW16648   0.919   0.808   5.484
 5250SOL    HW116649   0.930   0.839   5.579
 5250SOL    HW216650   0.822   0.795   5.465
 5251SOL     OW16651   0.494   3.278   0.438
 5251SOL    HW116652   0.466   3.196   0.489
 5251SOL    HW216653   0.592   3.272   0.417
 5252SOL     OW16654   2.075   5.913   0.887
 5252SOL    HW116655   1.987   5.945   0.853
 5252SOL    HW216656   2.071   5.814   0.901
 5253SOL     OW16657   5.517   3.993   4.752
 5253SOL    HW116658   5.582   3.926   4.718
 5253SOL    HW216659   5.449   3.947   4.810
 5254SOL     OW16660   4.322   1.430   3.055
 5254SOL    HW116661   4.258   1.475   3.117
 5254SOL    HW216662   4.329   1.333   3.078
 5255SOL     OW16663   4.465   0.579   5.775
 5255SOL    HW116664   4.540   0.645   5.778
 5255SOL    HW216665   4.428   0.566   5.867
 5256SOL     OW16666   4.511   0.578   3.400
 5256SOL    HW116667   4.539   0.602   3.493
 5256SOL    HW216668   4.580   0.519   3.358
 5257SOL     OW16669   4.883   6.405   2.102
 5257SOL    HW116670   4.821   6.471   2.145
 5257SOL    HW216671   4.883   6.419   2.003
 5258SOL     OW16672   5.408   3.417   1.741
 5258SOL    HW116673   5.438   3.488   1.804
 5258SOL    HW216674   5.308   3.419   1.733
 5259SOL     OW16675   4.840   6.004   0.858
 5259SOL    HW116676   4.879   5.919   0.823
 5259SOL    HW216677   4.758   5.984   0.911
 5260SOL     OW16678   5.521   3.837   0.760
 5260SOL    HW116679   5.473   3.921   0.784
 5260SOL    HW216680   5.535   3.782   0.842
 5261SOL     OW16681   1.868   3.364   6.633
 5261SOL    HW116682   1.864   3.303   6.553
 5261SOL    HW216683   1.834   3.455   6.607
 5262SOL     OW16684   2.636   0.407   3.093
 5262SOL    HW116685   2.611   0.434   3.186
 5262SOL    HW216686   2.601   0.475   3.029
 5263SOL     OW16687   1.237   0.826   5.401
 5263SOL    HW116688   1.162   0.788   5.347
 5263SOL    HW216689   1.260   0.917   5.367
 5264SOL     OW16690   5.625   1.211   2.529
 5264SOL    HW116691   5.718   1.236   2.502
 5264SOL    HW216692   5.569   1.200   2.447
 5265SOL     OW16693   5.237   4.070   3.494
 5265SOL    HW116694   5.288   4.133   3.436
 5265SOL    HW216695   5.139   4.078   3.475
 5266SOL     OW16696   2.754   6.809   1.913
 5266SOL    HW116697   2.840   6.781   1.870
 5266SOL    HW216698   2.716   6.886   1.862
 5267SOL     OW16699   4.880   4.233   5.678
 5267SOL    HW116700   4.876   4.150   5.622
 5267SOL    HW216701   4.789   4.273   5.686
 5268SOL     OW16702   6.284   0.278   6.439
 5268SOL    HW116703   6.298   0.303   6.535
 5268SOL    HW216704   6.223   0.345   6.396
 5269SOL     OW16705   2.012   0.220   4.217
 5269SOL    HW116706   2.048   0.162   4.144
 5269SOL    HW216707   1.926   0.181   4.251
 5270SOL     OW16708   5.448   2.011   2.211
 5270SOL    HW116709   5.406   2.006   2.120
 5270SOL    HW216710   5.457   2.106   2.239
 5271SOL     OW16711   5.560   5.335   5.212
 5271SOL    HW116712   5.654   5.344   5.177
 5271SOL    HW216713   5.537   5.238   5.219
 5272SOL     OW16714   2.109   6.380   1.973
 5272SOL    HW116715   2.090   6.336   1.885
 5272SOL    HW216716   2.205   6.405   1.978
 5273SOL     OW16717   6.753   3.224   3.247
 5273SOL    HW116718   6.743   3.126   3.235
 5273SOL    HW216719   6.678   3.259   3.302
 5274SOL     OW16720   6.675   6.245   2.239
 5274SOL    HW116721   6.754   6.296   2.274
 5274SOL    HW216722   6.690   6.147   2.253
 5275SOL     OW16723   3.817   2.020   6.385
 5275SOL    HW116724   3.855   2.112   6.379
 5275SOL    HW216725   3.773   2.008   6.474
 5276SOL     OW16726   1.429   1.002   0.946
 5276SOL    HW116727   1.395   1.009   1.039
 5276SOL    HW216728   1.388   1.073   0.889
 5277SOL     OW16729   1.419   2.095   3.048
 5277SOL    HW116730   1.380   2.099   3.140
 5277SOL    HW216731   1.495   2.030   3.047
 5278SOL     OW16732   4.576   0.274   4.055
 5278SOL    HW116733   4.544   0.362   4.090
 5278SOL    HW216734   4.669   0.257   4.089
 5279SOL     OW16735   1.517   5.391   6.605
 5279SOL    HW116736   1.502   5.312   6.663
 5279SOL    HW216737   1.463   5.468   6.639
 5280SOL     OW16738   3.306   6.426   5.598
 5280SOL    HW116739   3.223   6.375   5.577
 5280SOL    HW216740   3.316   6.502   5.534
 5281SOL     OW16741   0.692   1.683   3.039
 5281SOL    HW116742   0.605   1.661   2.996
 5281SOL    HW216743   0.715   1.779   3.022
 5282SOL     OW16744   2.216   1.768   3.113
 5282SOL    HW116745   2.203   1.804   3.206
 5282SOL    HW216746   2.148   1.698   3.095
 5283SOL     OW16747   3.455   0.004   2.016
 5283SOL    HW116748   3.427   0.087   2.064
 5283SOL    HW216749   3.391   6.956   2.037
 5284SOL     OW16750   5.584   3.562   3.205
 5284SOL    HW116751   5.654   3.491   3.213
 5284SOL    HW216752   5.493   3.521   3.212
 5285SOL     OW16753   1.845   3.893   4.385
 5285SOL    HW116754   1.917   3.881   4.317
 5285SOL    HW216755   1.837   3.990   4.408
 5286SOL     OW16756   0.275   3.862   1.056
 5286SOL    HW116757   0.296   3.767   1.031
 5286SOL    HW216758   0.190   3.891   1.013
 5287SOL     OW16759   1.546   6.066   1.647
 5287SOL    HW116760   1.548   6.164   1.626
 5287SOL    HW216761   1.612   6.046   1.719
 5288SOL     OW16762   3.872   0.630   2.607
 5288SOL    HW116763   3.785   0.616   2.655
 5288SOL    HW216764   3.854   0.650   2.511
 5289SOL     OW16765   1.730   5.719   6.385
 5289SOL    HW116766   1.802   5.789   6.387
 5289SOL    HW216767   1.671   5.734   6.307
 5290SOL     OW16768   1.866   4.436   5.219
 5290SOL    HW116769   1.915   4.415   5.134
 5290SOL    HW216770   1.925   4.416   5.297
 5291SOL     OW16771   2.899   5.166   5.589
 5291SOL    HW116772   2.848   5.252   5.589
 5291SOL    HW216773   2.997   5.186   5.579
 5292SOL     OW16774   6.333   4.676   0.436
 5292SOL    HW116775   6.269   4.683   0.359
 5292SOL    HW216776   6.351   4.580   0.455
 5293SOL     OW16777   1.366   0.500   4.104
 5293SOL    HW116778   1.370   0.508   4.005
 5293SOL    HW216779   1.416   0.419   4.134
 5294SOL     OW16780   5.809   2.833   4.785
 5294SOL    HW116781   5.903   2.813   4.809
 5294SOL    HW216782   5.779   2.917   4.832
 5295SOL     OW16783   4.210   0.660   2.614
 5295SOL    HW116784   4.141   0.700   2.674
 5295SOL    HW216785   4.266   0.596   2.666
 5296SOL     OW16786   2.245   5.324   0.740
 5296SOL    HW116787   2.170   5.307   0.676
 5296SOL    HW216788   2.266   5.241   0.790
 5297SOL     OW16789   2.976   2.204   0.798
 5297SOL    HW116790   3.073   2.229   0.796
 5297SOL    HW216791   2.961   2.131   0.864
 5298SOL     OW16792   1.236   5.964   6.596
 5298SOL    HW116793   1.255   5.881   6.543
 5298SOL    HW216794   1.314   6.025   6.591
 5299SOL     OW16795   2.555   2.398   0.777
 5299SOL    HW116796   2.571   2.437   0.868
 5299SOL    HW216797   2.634   2.417   0.718
 5300SOL     OW16798   0.836   6.231   1.570
 5300SOL    HW116799   0.763   6.265   1.628
 5300SOL    HW216800   0.860   6.300   1.502
 5301SOL     OW16801   3.593   2.222   6.337
 5301SOL    HW116802   3.606   2.123   6.329
 5301SOL    HW216803   3.631   2.267   6.257
 5302SOL     OW16804   5.888   5.562   3.832
 5302SOL    HW116805   5.810   5.516   3.874
 5302SOL    HW216806   5.973   5.517   3.860
 5303SOL     OW16807   6.834   5.871   2.699
 5303SOL    HW116808   6.911   5.902   2.644
 5303SOL    HW216809   6.858   5.875   2.796
 5304SOL     OW16810   5.220   1.517   6.489
 5304SOL    HW116811   5.286   1.529   6.563
 5304SOL    HW216812   5.155   1.593   6.490
 5305SOL     OW16813   1.397   5.337   3.810
 5305SOL    HW116814   1.316   5.299   3.855
 5305SOL    HW216815   1.370   5.417   3.756
 5306SOL     OW16816   0.913   4.540   4.953
 5306SOL    HW116817   0.939   4.546   5.049
 5306SOL    HW216818   0.990   4.504   4.899
 5307SOL     OW16819   3.944   0.138   0.604
 5307SOL    HW116820   3.963   0.141   0.702
 5307SOL    HW216821   3.940   0.043   0.573
 5308SOL     OW16822   1.116   6.495   3.504
 5308SOL    HW116823   1.052   6.429   3.465
 5308SOL    HW216824   1.204   6.488   3.457
 5309SOL     OW16825   4.328   4.753   1.519
 5309SOL    HW116826   4.408   4.766   1.578
 5309SOL    HW216827   4.340   4.809   1.436
 5310SOL     OW16828   6.339   3.489   1.856
 5310SOL    HW116829   6.309   3.448   1.771
 5310SOL    HW216830   6.285   3.571   1.876
 5311SOL     OW16831   0.219   6.240   0.176
 5311SOL    HW116832   0.227   6.333   0.141
 5311SOL    HW216833   0.123   6.212   0.176
 5312SOL     OW16834   0.611   4.625   1.614
 5312SOL    HW116835   0.536   4.645   1.678
 5312SOL    HW216836   0.589   4.664   1.525
 5313SOL     OW16837   1.638   4.939   6.369
 5313SOL    HW116838   1.642   5.039   6.362
 5313SOL    HW216839   1.610   4.901   6.281
 5314SOL     OW16840   3.487   6.274   6.872
 5314SOL    HW116841   3.446   6.215   6.803
 5314SOL    HW216842   3.559   6.225   6.921
 5315SOL     OW16843   4.905   3.602   1.594
 5315SOL    HW116844   4.808   3.615   1.618
 5315SOL    HW216845   4.912   3.567   1.501
 5316SOL     OW16846   0.028   4.420   5.016
 5316SOL    HW116847   6.993   4.358   5.065
 5316SOL    HW216848   0.023   4.511   5.057
 5317SOL     OW16849   6.541   0.007   5.065
 5317SOL    HW116850   6.463   6.972   5.051
 5317SOL    HW216851   6.572   0.042   4.977
 5318SOL     OW16852   6.989   2.329   6.252
 5318SOL    HW116853   6.988   2.364   6.158
 5318SOL    HW216854   6.906   2.277   6.270
 5319SOL     OW16855   4.592   6.791   6.938
 5319SOL    HW116856   4.560   6.708   6.983
 5319SOL    HW216857   4.517   6.857   6.933
 5320SOL     OW16858   6.063   4.814   0.421
 5320SOL    HW116859   6.130   4.849   0.356
 5320SOL    HW216860   6.015   4.736   0.381
 5321SOL     OW16861   1.053   4.238   3.631
 5321SOL    HW116862   0.994   4.199   3.702
 5321SOL    HW216863   1.026   4.202   3.542
 5322SOL     OW16864   4.295   6.072   6.413
 5322SOL    HW116865   4.246   6.099   6.329
 5322SOL    HW216866   4.251   6.115   6.492
 5323SOL     OW16867   3.694   2.891   6.901
 5323SOL    HW116868   3.637   2.948   6.960
 5323SOL    HW216869   3.636   2.838   6.840
 5324SOL     OW16870   4.302   2.578   1.027
 5324SOL    HW116871   4.287   2.481   1.049
 5324SOL    HW216872   4.358   2.585   0.945
 5325SOL     OW16873   4.465   0.488   4.158
 5325SOL    HW116874   4.417   0.436   4.229
 5325SOL    HW216875   4.418   0.576   4.144
 5326SOL     OW16876   0.348   5.337   4.085
 5326SOL    HW116877   0.385   5.355   4.176
 5326SOL    HW216878   0.419   5.354   4.017
 5327SOL     OW16879   5.509   3.768   5.089
 5327SOL    HW116880   5.554   3.706   5.024
 5327SOL    HW216881   5.574   3.793   5.160
 5328SOL     OW16882   3.912   2.947   5.867
 5328SOL    HW116883   3.939   2.867   5.814
 5328SOL    HW216884   3.961   2.948   5.954
 5329SOL     OW16885   6.650   4.339   0.284
 5329SOL    HW116886   6.729   4.393   0.313
 5329SOL    HW216887   6.633   4.267   0.352
 5330SOL     OW16888   3.659   4.146   5.833
 5330SOL    HW116889   3.738   4.208   5.833
 5330SOL    HW216890   3.615   4.147   5.744
 5331SOL     OW16891   5.126   1.019   1.048
 5331SOL    HW116892   5.059   0.946   1.060
 5331SOL    HW216893   5.184   0.998   0.969
 5332SOL     OW16894   0.463   4.026   1.202
 5332SOL    HW116895   0.560   4.019   1.178
 5332SOL    HW216896   0.407   4.015   1.120
 5333SOL     OW16897   0.880   0.751   3.392
 5333SOL    HW116898   0.980   0.743   3.387
 5333SOL    HW216899   0.854   0.784   3.482
 5334SOL     OW16900   3.948   6.559   4.194
 5334SOL    HW116901   3.960   6.653   4.224
 5334SOL    HW216902   4.011   6.540   4.118
 5335SOL     OW16903   6.485   5.598   2.412
 5335SOL    HW116904   6.444   5.527   2.355
 5335SOL    HW216905   6.516   5.673   2.355
 5336SOL     OW16906   1.641   1.909   3.113
 5336SOL    HW116907   1.628   1.873   3.206
 5336SOL    HW216908   1.723   1.966   3.111
 5337SOL     OW16909   5.735   4.555   2.225
 5337SOL    HW116910   5.704   4.529   2.134
 5337SOL    HW216911   5.681   4.507   2.294
 5338SOL     OW16912   6.025   0.829   5.793
 5338SOL    HW116913   6.014   0.834   5.694
 5338SOL    HW216914   6.091   0.898   5.823
 5339SOL     OW16915   6.402   2.195   3.327
 5339SOL    HW116916   6.423   2.100   3.305
 5339SOL    HW216917   6.347   2.235   3.253
 5340SOL     OW16918   5.528   3.558   1.382
 5340SOL    HW116919   5.529   3.474   1.436
 5340SOL    HW216920   5.617   3.603   1.389
 5341SOL     OW16921   3.312   5.028   6.212
 5341SOL    HW116922   3.298   4.941   6.165
 5341SOL    HW216923   3.231   5.086   6.200
 5342SOL     OW16924   4.565   6.547   4.165
 5342SOL    HW116925   4.663   6.530   4.178
 5342SOL    HW216926   4.513   6.470   4.203
 5343SOL     OW16927   3.602   3.760   4.766
 5343SOL    HW116928   3.508   3.727   4.780
 5343SOL    HW216929   3.649   3.763   4.854
 5344SOL     OW16930   1.849   1.835   0.847
 5344SOL    HW116931   1.878   1.739   0.843
 5344SOL    HW216932   1.923   1.890   0.884
 5345SOL     OW16933   3.963   6.334   0.373
 5345SOL    HW116934   4.060   6.331   0.396
 5345SOL    HW216935   3.910   6.357   0.454
 5346SOL     OW16936   3.356   5.478   3.960
 5346SOL    HW116937   3.411   5.398   3.984
 5346SOL    HW216938   3.382   5.511   3.869
 5347SOL     OW16939   0.079   2.903   2.281
 5347SOL    HW116940   0.020   2.975   2.317
 5347SOL    HW216941   0.129   2.937   2.202
 5348SOL     OW16942   6.610   1.981   0.495
 5348SOL    HW116943   6.672   1.968   0.418
 5348SOL    HW216944   6.663   1.990   0.579
 5349SOL     OW16945   2.339   2.432   0.267
 5349SOL    HW116946   2.325   2.408   0.171
 5349SOL    HW216947   2.334   2.350   0.323
 5350SOL     OW16948   1.234   6.948   4.891
 5350SOL    HW116949   1.240   7.004   4.974
 5350SOL    HW216950   1.320   6.955   4.840
 5351SOL     OW16951   6.534   5.135   2.065
 5351SOL    HW116952   6.493   5.161   1.977
 5351SOL    HW216953   6.588   5.052   2.053
 5352SOL     OW16954   1.859   5.180   2.954
 5352SOL    HW116955   1.907   5.266   2.939
 5352SOL    HW216956   1.826   5.144   2.867
 5353SOL     OW16957   3.998   5.284   4.385
 5353SOL    HW116958   4.001   5.381   4.361
 5353SOL    HW216959   3.908   5.247   4.362
 5354SOL     OW16960   1.948   4.646   0.988
 5354SOL    HW116961   1.898   4.671   1.072
 5354SOL    HW216962   1.896   4.676   0.908
 5355SOL     OW16963   6.300   4.391   4.642
 5355SOL    HW116964   6.348   4.471   4.677
 5355SOL    HW216965   6.225   4.420   4.583
 5356SOL     OW16966   6.833   3.782   2.410
 5356SOL    HW116967   6.869   3.690   2.397
 5356SOL    HW216968   6.777   3.784   2.493
 5357SOL     OW16969   3.012   5.836   6.978
 5357SOL    HW116970   3.043   5.909   0.014
 5357SOL    HW216971   2.925   5.799   7.012
 5358SOL     OW16972   4.516   1.368   0.378
 5358SOL    HW116973   4.557   1.277   0.371
 5358SOL    HW216974   4.509   1.395   0.474
 5359SOL     OW16975   2.147   1.181   5.892
 5359SOL    HW116976   2.121   1.275   5.914
 5359SOL    HW216977   2.091   1.148   5.816
 5360SOL     OW16978   3.342   6.138   3.766
 5360SOL    HW116979   3.337   6.107   3.672
 5360SOL    HW216980   3.340   6.059   3.828
 5361SOL     OW16981   2.594   0.995   4.660
 5361SOL    HW116982   2.609   0.964   4.754
 5361SOL    HW216983   2.644   1.080   4.644
 5362SOL     OW16984   6.057   6.479   2.702
 5362SOL    HW116985   6.119   6.553   2.677
 5362SOL    HW216986   6.003   6.506   2.782
 5363SOL     OW16987   6.540   6.473   5.269
 5363SOL    HW116988   6.510   6.506   5.359
 5363SOL    HW216989   6.479   6.401   5.237
 5364SOL     OW16990   6.700   0.100   1.853
 5364SOL    HW116991   6.718   0.181   1.798
 5364SOL    HW216992   6.673   0.025   1.793
 5365SOL     OW16993   4.160   2.943   1.280
 5365SOL    HW116994   4.081   2.998   1.306
 5365SOL    HW216995   4.129   2.858   1.237
 5366SOL     OW16996   5.948   6.051   0.817
 5366SOL    HW116997   6.036   6.006   0.804
 5366SOL    HW216998   5.957   6.149   0.802
 5367SOL     OW16999   0.163   6.994   1.092
 5367SOL    HW117000   0.152   7.008   0.994
 5367SOL    HW217001   0.218   0.043   1.130
 5368SOL     OW17002   5.571   6.990   2.282
 5368SOL    HW117003   5.590   6.974   2.379
 5368SOL    HW217004   5.474   6.977   2.264
 5369SOL     OW17005   2.693   6.793   0.982
 5369SOL    HW117006   2.697   6.697   1.011
 5369SOL    HW217007   2.661   6.849   1.057
 5370SOL     OW17008   4.928   2.517   0.971
 5370SOL    HW117009   4.836   2.519   0.931
 5370SOL    HW217010   4.952   2.608   1.004
 5371SOL     OW17011   0.221   3.930   5.539
 5371SOL    HW117012   0.243   3.908   5.444
 5371SOL    HW217013   0.277   4.008   5.569
 5372SOL     OW17014   1.424   5.783   3.320
 5372SOL    HW117015   1.440   5.877   3.287
 5372SOL    HW217016   1.333   5.777   3.359
 5373SOL     OW17017   3.896   6.500   4.775
 5373SOL    HW117018   3.882   6.541   4.685
 5373SOL    HW217019   3.807   6.485   4.819
 5374SOL     OW17020   1.970   3.981   0.555
 5374SOL    HW117021   1.976   3.946   0.648
 5374SOL    HW217022   1.968   4.081   0.556
 5375SOL     OW17023   0.612   6.260   4.640
 5375SOL    HW117024   0.557   6.305   4.569
 5375SOL    HW217025   0.571   6.278   4.729
 5376SOL     OW17026   1.252   2.272   1.386
 5376SOL    HW117027   1.207   2.349   1.431
 5376SOL    HW217028   1.195   2.191   1.394
 5377SOL     OW17029   0.191   0.113   2.230
 5377SOL    HW117030   0.217   0.116   2.327
 5377SOL    HW217031   0.238   0.186   2.181
 5378SOL     OW17032   6.975   0.420   2.430
 5378SOL    HW117033   0.009   0.407   2.509
 5378SOL    HW217034   6.888   0.460   2.460
 5379SOL     OW17035   0.726   4.238   4.964
 5379SOL    HW117036   0.758   4.328   4.994
 5379SOL    HW217037   0.651   4.207   5.023
 5380SOL     OW17038   2.835   0.514   2.763
 5380SOL    HW117039   2.767   0.587   2.766
 5380SOL    HW217040   2.820   0.458   2.682
 5381SOL     OW17041   6.134   5.235   1.991
 5381SOL    HW117042   6.057   5.254   2.053
 5381SOL    HW217043   6.148   5.313   1.930
 5382SOL     OW17044   2.496   1.596   1.966
 5382SOL    HW117045   2.571   1.601   1.901
 5382SOL    HW217046   2.530   1.561   2.054
 5383SOL     OW17047   2.044   2.242   5.329
 5383SOL    HW117048   2.062   2.155   5.375
 5383SOL    HW217049   2.082   2.240   5.237
 5384SOL     OW17050   5.435   0.187   4.781
 5384SOL    HW117051   5.405   0.138   4.864
 5384SOL    HW217052   5.532   0.170   4.767
 5385SOL     OW17053   3.527   3.558   4.473
 5385SOL    HW117054   3.603   3.605   4.518
 5385SOL    HW217055   3.472   3.624   4.423
 5386SOL     OW17056   4.845   1.287   4.112
 5386SOL    HW117057   4.752   1.323   4.115
 5386SOL    HW217058   4.887   1.296   4.203
 5387SOL     OW17059   2.015   6.616   3.810
 5387SOL    HW117060   1.936   6.555   3.808
 5387SOL    HW217061   1.987   6.707   3.840
 5388SOL     OW17062   0.165   1.058   3.107
 5388SOL    HW117063   0.222   0.982   3.078
 5388SOL    HW217064   0.199   1.143   3.068
 5389SOL     OW17065   3.296   1.417   3.356
 5389SOL    HW117066   3.213   1.362   3.348
 5389SOL    HW217067   3.327   1.417   3.451
 5390SOL     OW17068   4.807   3.944   3.573
 5390SOL    HW117069   4.815   4.014   3.644
 5390SOL    HW217070   4.814   3.853   3.613
 5391SOL     OW17071   2.821   1.147   1.088
 5391SOL    HW117072   2.820   1.242   1.119
 5391SOL    HW217073   2.781   1.089   1.159
 5392SOL     OW17074   6.008   3.817   1.526
 5392SOL    HW117075   6.040   3.723   1.534
 5392SOL    HW217076   6.073   3.870   1.472
 5393SOL     OW17077   5.151   0.468   5.668
 5393SOL    HW117078   5.060   0.478   5.627
 5393SOL    HW217079   5.205   0.404   5.614
 5394SOL     OW17080   0.398   5.649   1.279
 5394SOL    HW117081   0.367   5.720   1.342
 5394SOL    HW217082   0.344   5.652   1.195
 5395SOL     OW17083   4.809   0.869   1.262
 5395SOL    HW117084   4.895   0.820   1.250
 5395SOL    HW217085   4.775   0.900   1.173
 5396SOL     OW17086   5.689   4.509   1.926
 5396SOL    HW117087   5.692   4.409   1.922
 5396SOL    HW217088   5.605   4.541   1.883
 5397SOL     OW17089   0.174   2.911   1.563
 5397SOL    HW117090   0.267   2.878   1.547
 5397SOL    HW217091   0.155   2.909   1.661
 5398SOL     OW17092   2.635   2.345   3.828
 5398SOL    HW117093   2.644   2.373   3.923
 5398SOL    HW217094   2.576   2.409   3.779
 5399SOL     OW17095   2.538   6.530   0.607
 5399SOL    HW117096   2.531   6.607   0.670
 5399SOL    HW217097   2.553   6.565   0.514
 5400SOL     OW17098   3.486   3.517   0.010
 5400SOL    HW117099   3.497   3.424   0.045
 5400SOL    HW217100   3.436   3.572   0.078
 5401SOL     OW17101   6.515   4.634   2.231
 5401SOL    HW117102   6.472   4.699   2.169
 5401SOL    HW217103   6.574   4.682   2.295
 5402SOL     OW17104   2.172   6.097   1.736
 5402SOL    HW117105   2.211   6.060   1.652
 5402SOL    HW217106   2.242   6.099   1.807
 5403SOL     OW17107   5.587   2.807   5.499
 5403SOL    HW117108   5.522   2.731   5.509
 5403SOL    HW217109   5.583   2.843   5.406
 5404SOL     OW17110   0.769   0.489   3.013
 5404SOL    HW117111   0.861   0.497   3.050
 5404SOL    HW217112   0.748   0.570   2.959
 5405SOL     OW17113   5.890   5.700   0.020
 5405SOL    HW117114   5.864   5.774   6.984
 5405SOL    HW217115   5.810   5.643   0.040
 5406SOL     OW17116   1.897   0.063   5.248
 5406SOL    HW117117   1.828   0.001   5.284
 5406SOL    HW217118   1.957   0.094   5.322
 5407SOL     OW17119   3.734   1.667   1.096
 5407SOL    HW117120   3.713   1.749   1.041
 5407SOL    HW217121   3.826   1.635   1.074
 5408SOL     OW17122   3.590   0.355   6.138
 5408SOL    HW117123   3.622   0.270   6.096
 5408SOL    HW217124   3.662   0.393   6.196
 5409SOL     OW17125   0.034   1.679   3.210
 5409SOL    HW117126   0.063   1.715   3.298
 5409SOL    HW217127   6.973   1.723   3.183
 5410SOL     OW17128   1.177   2.392   6.444
 5410SOL    HW117129   1.188   2.300   6.405
 5410SOL    HW217130   1.199   2.461   6.375
 5411SOL     OW17131   5.881   5.417   6.096
 5411SOL    HW117132   5.931   5.338   6.060
 5411SOL    HW217133   5.880   5.412   6.196
 5412SOL     OW17134   3.680   1.112   6.996
 5412SOL    HW117135   3.743   1.063   0.030
 5412SOL    HW217136   3.644   1.051   6.926
 5413SOL     OW17137   0.081   0.309   0.943
 5413SOL    HW117138   0.024   0.321   0.861
 5413SOL    HW217139   0.031   0.343   1.022
 5414SOL     OW17140   6.030   3.790   4.750
 5414SOL    HW117141   6.103   3.788   4.819
 5414SOL    HW217142   6.018   3.699   4.711
 5415SOL     OW17143   1.114   5.991   2.084
 5415SOL    HW117144   1.145   6.071   2.136
 5415SOL    HW217145   1.133   6.005   1.987
 5416SOL     OW17146   3.160   5.259   5.577
 5416SOL    HW117147   3.191   5.305   5.660
 5416SOL    HW217148   3.145   5.326   5.504
 5417SOL     OW17149   4.525   6.477   4.465
 5417SOL    HW117150   4.501   6.420   4.386
 5417SOL    HW217151   4.619   6.456   4.493
 5418SOL     OW17152   4.989   0.633   4.255
 5418SOL    HW117153   5.058   0.673   4.196
 5418SOL    HW217154   5.019   0.543   4.286
 5419SOL     OW17155   3.699   5.397   7.009
 5419SOL    HW117156   3.757   5.320   0.009
 5419SOL    HW217157   3.694   5.405   6.910
 5420SOL     OW17158   2.095   2.943   1.806
 5420SOL    HW117159   2.159   3.004   1.854
 5420SOL    HW217160   2.145   2.865   1.769
 5421SOL     OW17161   2.822   4.987   3.022
 5421SOL    HW117162   2.833   4.935   2.937
 5421SOL    HW217163   2.729   4.976   3.057
 5422SOL     OW17164   1.218   5.564   4.578
 5422SOL    HW117165   1.258   5.496   4.639
 5422SOL    HW217166   1.153   5.519   4.516
 5423SOL     OW17167   6.066   3.967   7.018
 5423SOL    HW117168   6.059   4.021   0.077
 5423SOL    HW217169   6.038   4.023   6.941
 5424SOL     OW17170   5.581   3.846   4.340
 5424SOL    HW117171   5.571   3.900   4.256
 5424SOL    HW217172   5.509   3.776   4.343
 5425SOL     OW17173   5.201   2.229   4.668
 5425SOL    HW117174   5.173   2.266   4.757
 5425SOL    HW217175   5.275   2.163   4.682
 5426SOL     OW17176   6.421   5.180   3.988
 5426SOL    HW117177   6.489   5.154   4.057
 5426SOL    HW217178   6.413   5.280   3.986
 5427SOL     OW17179   5.373   4.551   0.815
 5427SOL    HW117180   5.365   4.514   0.907
 5427SOL    HW217181   5.441   4.499   0.764
 5428SOL     OW17182   5.943   0.096   1.984
 5428SOL    HW117183   5.970   0.172   1.925
 5428SOL    HW217184   5.913   0.131   2.072
 5429SOL     OW17185   1.311   1.068   5.238
 5429SOL    HW117186   1.332   1.041   5.144
 5429SOL    HW217187   1.384   1.125   5.274
 5430SOL     OW17188   2.455   2.641   6.356
 5430SOL    HW117189   2.358   2.664   6.360
 5430SOL    HW217190   2.493   2.669   6.268
 5431SOL     OW17191   3.592   4.328   6.084
 5431SOL    HW117192   3.608   4.243   6.033
 5431SOL    HW217193   3.535   4.390   6.030
 5432SOL     OW17194   3.504   5.784   6.469
 5432SOL    HW117195   3.548   5.785   6.379
 5432SOL    HW217196   3.558   5.836   6.534
 5433SOL     OW17197   0.183   0.684   2.845
 5433SOL    HW117198   0.102   0.657   2.898
 5433SOL    HW217199   0.238   0.603   2.825
 5434SOL     OW17200   4.596   0.914   4.708
 5434SOL    HW117201   4.591   0.979   4.632
 5434SOL    HW217202   4.518   0.853   4.705
 5435SOL     OW17203   6.059   2.114   1.452
 5435SOL    HW117204   6.138   2.115   1.513
 5435SOL    HW217205   5.991   2.049   1.485
 5436SOL     OW17206   5.665   4.409   4.275
 5436SOL    HW117207   5.655   4.338   4.345
 5436SOL    HW217208   5.745   4.465   4.296
 5437SOL     OW17209   2.981   5.551   5.833
 5437SOL    HW117210   3.071   5.595   5.825
 5437SOL    HW217211   2.975   5.475   5.768
 5438SOL     OW17212   6.552   3.769   2.066
 5438SOL    HW117213   6.505   3.706   2.128
 5438SOL    HW217214   6.538   3.740   1.972
 5439SOL     OW17215   6.943   2.331   0.377
 5439SOL    HW117216   6.878   2.335   0.452
 5439SOL    HW217217   6.893   2.329   0.290
 5440SOL     OW17218   6.534   0.432   3.482
 5440SOL    HW117219   6.616   0.386   3.446
 5440SOL    HW217220   6.459   0.422   3.417
 5441SOL     OW17221   4.799   2.695   3.394
 5441SOL    HW117222   4.820   2.775   3.450
 5441SOL    HW217223   4.701   2.677   3.398
 5442SOL     OW17224   2.752   6.943   3.296
 5442SOL    HW117225   2.844   6.916   3.266
 5442SOL    HW217226   2.717   7.014   3.235
 5443SOL     OW17227   3.181   5.675   4.374
 5443SOL    HW117228   3.123   5.754   4.393
 5443SOL    HW217229   3.129   5.591   4.393
 5444SOL     OW17230   0.184   0.598   3.351
 5444SOL    HW117231   0.271   0.574   3.394
 5444SOL    HW217232   0.160   0.692   3.375
 5445SOL     OW17233   6.261   4.217   3.860
 5445SOL    HW117234   6.290   4.267   3.778
 5445SOL    HW217235   6.324   4.237   3.935
 5446SOL     OW17236   5.542   5.423   4.686
 5446SOL    HW117237   5.534   5.338   4.738
 5446SOL    HW217238   5.606   5.484   4.733
 5447SOL     OW17239   1.099   1.600   0.569
 5447SOL    HW117240   1.023   1.601   0.504
 5447SOL    HW217241   1.062   1.606   0.662
 5448SOL     OW17242   5.906   4.606   4.402
 5448SOL    HW117243   5.982   4.576   4.345
 5448SOL    HW217244   5.933   4.604   4.498
 5449SOL     OW17245   2.016   1.680   0.409
 5449SOL    HW117246   2.073   1.679   0.491
 5449SOL    HW217247   1.929   1.635   0.427
 5450SOL     OW17248   3.013   0.477   0.875
 5450SOL    HW117249   2.924   0.454   0.836
 5450SOL    HW217250   3.075   0.399   0.866
 5451SOL     OW17251   2.539   6.604   3.810
 5451SOL    HW117252   2.521   6.545   3.732
 5451SOL    HW217253   2.470   6.589   3.880
 5452SOL     OW17254   3.015   3.899   6.667
 5452SOL    HW117255   3.084   3.828   6.655
 5452SOL    HW217256   2.932   3.873   6.619
 5453SOL     OW17257   5.440   4.080   2.077
 5453SOL    HW117258   5.502   4.002   2.083
 5453SOL    HW217259   5.492   4.161   2.051
 5454SOL     OW17260   4.995   5.268   6.371
 5454SOL    HW117261   5.042   5.289   6.286
 5454SOL    HW217262   4.905   5.228   6.350
 5455SOL     OW17263   0.308   2.231   3.090
 5455SOL    HW117264   0.266   2.161   3.149
 5455SOL    HW217265   0.406   2.213   3.083
 5456SOL     OW17266   3.092   0.002   0.028
 5456SOL    HW117267   3.088   0.092   0.071
 5456SOL    HW217268   3.139   6.964   0.089
 5457SOL     OW17269   6.499   2.050   1.800
 5457SOL    HW117270   6.564   1.983   1.834
 5457SOL    HW217271   6.528   2.142   1.828
 5458SOL     OW17272   0.627   4.981   0.675
 5458SOL    HW117273   0.709   5.011   0.626
 5458SOL    HW217274   0.607   5.046   0.748
 5459SOL     OW17275   3.752   3.854   6.269
 5459SOL    HW117276   3.668   3.880   6.222
 5459SOL    HW217277   3.757   3.902   6.357
 5460SOL     OW17278   3.242   6.454   3.234
 5460SOL    HW117279   3.194   6.379   3.188
 5460SOL    HW217280   3.314   6.416   3.292
 5461SOL     OW17281   0.445   0.969   5.545
 5461SOL    HW117282   0.501   0.928   5.472
 5461SOL    HW217283   0.457   1.068   5.544
 5462SOL     OW17284   5.370   6.463   6.969
 5462SOL    HW117285   5.440   6.418   6.913
 5462SOL    HW217286   5.415   6.511   0.019
 5463SOL     OW17287   6.977   1.463   0.023
 5463SOL    HW117288   6.933   1.374   0.036
 5463SOL    HW217289   6.910   1.535   0.041
 5464SOL     OW17290   6.332   0.165   4.472
 5464SOL    HW117291   6.256   0.153   4.535
 5464SOL    HW217292   6.381   0.250   4.494
 5465SOL     OW17293   4.710   0.413   4.435
 5465SOL    HW117294   4.648   0.473   4.385
 5465SOL    HW217295   4.736   0.458   4.521
 5466SOL     OW17296   4.885   2.944   4.803
 5466SOL    HW117297   4.966   2.893   4.774
 5466SOL    HW217298   4.902   2.987   4.892
 5467SOL     OW17299   5.384   3.865   3.632
 5467SOL    HW117300   5.365   3.946   3.577
 5467SOL    HW217301   5.423   3.794   3.574
 5468SOL     OW17302   6.601   2.605   3.753
 5468SOL    HW117303   6.699   2.623   3.759
 5468SOL    HW217304   6.565   2.639   3.666
 5469SOL     OW17305   2.863   6.673   5.901
 5469SOL    HW117306   2.945   6.707   5.856
 5469SOL    HW217307   2.870   6.574   5.913
 5470SOL     OW17308   3.582   5.520   3.361
 5470SOL    HW117309   3.511   5.535   3.292
 5470SOL    HW217310   3.661   5.476   3.319
 5471SOL     OW17311   5.935   0.476   3.456
 5471SOL    HW117312   5.853   0.529   3.477
 5471SOL    HW217313   5.976   0.443   3.541
 5472SOL     OW17314   2.841   3.511   6.771
 5472SOL    HW117315   2.841   3.539   6.867
 5472SOL    HW217316   2.810   3.416   6.765
 5473SOL     OW17317   1.501   3.186   1.825
 5473SOL    HW117318   1.520   3.223   1.916
 5473SOL    HW217319   1.556   3.234   1.757
 5474SOL     OW17320   0.885   4.512   4.115
 5474SOL    HW117321   0.823   4.460   4.173
 5474SOL    HW217322   0.938   4.575   4.172
 5475SOL     OW17323   2.026   2.655   1.141
 5475SOL    HW117324   2.030   2.641   1.240
 5475SOL    HW217325   2.064   2.745   1.119
 5476SOL     OW17326   2.156   4.841   4.691
 5476SOL    HW117327   2.249   4.826   4.725
 5476SOL    HW217328   2.109   4.908   4.749
 5477SOL     OW17329   2.261   4.272   2.422
 5477SOL    HW117330   2.194   4.198   2.422
 5477SOL    HW217331   2.257   4.320   2.509
 5478SOL     OW17332   3.151   6.243   4.518
 5478SOL    HW117333   3.053   6.226   4.530
 5478SOL    HW217334   3.170   6.263   4.422
 5479SOL     OW17335   5.496   1.417   6.164
 5479SOL    HW117336   5.574   1.416   6.102
 5479SOL    HW217337   5.413   1.441   6.113
 5480SOL     OW17338   5.994   5.830   3.862
 5480SOL    HW117339   6.069   5.871   3.811
 5480SOL    HW217340   5.986   5.733   3.839
 5481SOL     OW17341   4.483   1.499   4.425
 5481SOL    HW117342   4.556   1.561   4.397
 5481SOL    HW217343   4.407   1.551   4.464
 5482SOL     OW17344   3.798   4.538   1.465
 5482SOL    HW117345   3.893   4.568   1.475
 5482SOL    HW217346   3.767   4.496   1.550
 5483SOL     OW17347   6.949   2.113   5.260
 5483SOL    HW117348   6.860   2.107   5.215
 5483SOL    HW217349   6.994   2.198   5.232
 5484SOL     OW17350   3.711   1.367   4.010
 5484SOL    HW117351   3.758   1.452   3.987
 5484SOL    HW217352   3.677   1.372   4.104
 5485SOL     OW17353   4.032   6.838   4.315
 5485SOL    HW117354   3.974   6.801   4.388
 5485SOL    HW217355   3.975   6.871   4.240
 5486SOL     OW17356   1.719   6.152   5.327
 5486SOL    HW117357   1.665   6.095   5.265
 5486SOL    HW217358   1.816   6.138   5.308
 5487SOL     OW17359   5.879   3.234   6.692
 5487SOL    HW117360   5.974   3.232   6.660
 5487SOL    HW217361   5.876   3.202   6.787
 5488SOL     OW17362   6.018   0.174   1.350
 5488SOL    HW117363   6.025   0.124   1.436
 5488SOL    HW217364   5.951   0.248   1.360
 5489SOL     OW17365   0.811   4.350   1.485
 5489SOL    HW117366   0.730   4.332   1.429
 5489SOL    HW217367   0.864   4.266   1.495
 5490SOL     OW17368   3.395   6.978   1.190
 5490SOL    HW117369   3.470   6.912   1.183
 5490SOL    HW217370   3.331   6.963   1.115
 5491SOL     OW17371   1.658   3.941   0.940
 5491SOL    HW117372   1.657   3.950   0.841
 5491SOL    HW217373   1.687   3.849   0.965
 5492SOL     OW17374   0.223   3.004   5.824
 5492SOL    HW117375   0.264   3.054   5.748
 5492SOL    HW217376   0.295   2.980   5.890
 5493SOL     OW17377   3.127   3.977   4.086
 5493SOL    HW117378   3.089   3.935   4.003
 5493SOL    HW217379   3.116   3.914   4.163
 5494SOL     OW17380   6.799   3.031   6.316
 5494SOL    HW117381   6.866   3.030   6.243
 5494SOL    HW217382   6.716   3.077   6.285
 5495SOL     OW17383   3.817   1.193   0.856
 5495SOL    HW117384   3.889   1.138   0.813
 5495SOL    HW217385   3.768   1.137   0.923
 5496SOL     OW17386   3.781   1.143   3.643
 5496SOL    HW117387   3.743   1.054   3.620
 5496SOL    HW217388   3.768   1.162   3.740
 5497SOL     OW17389   0.329   1.794   4.952
 5497SOL    HW117390   0.344   1.764   4.858
 5497SOL    HW217391   0.252   1.858   4.954
 5498SOL     OW17392   6.540   5.964   1.078
 5498SOL    HW117393   6.549   5.998   0.984
 5498SOL    HW217394   6.550   6.040   1.142
 5499SOL     OW17395   0.471   0.512   4.842
 5499SOL    HW117396   0.513   0.597   4.872
 5499SOL    HW217397   0.416   0.529   4.760
 5500SOL     OW17398   1.182   0.527   0.613
 5500SOL    HW117399   1.090   0.494   0.593
 5500SOL    HW217400   1.185   0.626   0.603
 5501SOL     OW17401   3.663   1.022   0.496
 5501SOL    HW117402   3.716   0.940   0.475
 5501SOL    HW217403   3.613   1.052   0.415
 5502SOL     OW17404   5.062   3.736   0.121
 5502SOL    HW117405   5.122   3.759   0.043
 5502SOL    HW217406   5.111   3.755   0.206
 5503SOL     OW17407   0.472   4.751   2.501
 5503SOL    HW117408   0.495   4.779   2.408
 5503SOL    HW217409   0.400   4.681   2.498
 5504SOL     OW17410   4.253   1.031   5.264
 5504SOL    HW117411   4.223   1.112   5.314
 5504SOL    HW217412   4.297   0.967   5.327
 5505SOL     OW17413   2.168   4.940   4.050
 5505SOL    HW117414   2.073   4.946   4.019
 5505SOL    HW217415   2.225   4.906   3.975
 5506SOL     OW17416   1.097   2.427   0.123
 5506SOL    HW117417   1.113   2.491   0.198
 5506SOL    HW217418   1.024   2.363   0.148
 5507SOL     OW17419   3.475   1.214   4.586
 5507SOL    HW117420   3.531   1.286   4.627
 5507SOL    HW217421   3.418   1.253   4.514
 5508SOL     OW17422   1.400   0.862   6.707
 5508SOL    HW117423   1.311   0.895   6.675
 5508SOL    HW217424   1.467   0.936   6.700
 5509SOL     OW17425   0.318   6.530   6.617
 5509SOL    HW117426   0.340   6.449   6.671
 5509SOL    HW217427   0.383   6.540   6.542
 5510SOL     OW17428   4.895   5.552   0.168
 5510SOL    HW117429   4.875   5.608   0.087
 5510SOL    HW217430   4.818   5.557   0.231
 5511SOL     OW17431   1.487   0.991   3.720
 5511SOL    HW117432   1.501   1.062   3.789
 5511SOL    HW217433   1.453   1.033   3.636
 5512SOL     OW17434   5.407   2.129   1.137
 5512SOL    HW117435   5.366   2.153   1.224
 5512SOL    HW217436   5.433   2.212   1.087
 5513SOL     OW17437   4.585   4.420   6.159
 5513SOL    HW117438   4.674   4.392   6.124
 5513SOL    HW217439   4.516   4.407   6.089
 5514SOL     OW17440   3.903   6.967   3.710
 5514SOL    HW117441   3.922   0.038   3.725
 5514SOL    HW217442   3.966   6.912   3.765
 5515SOL     OW17443   0.986   5.902   2.328
 5515SOL    HW117444   1.038   5.973   2.281
 5515SOL    HW217445   1.046   5.822   2.343
 5516SOL     OW17446   1.826   4.209   6.484
 5516SOL    HW117447   1.735   4.221   6.444
 5516SOL    HW217448   1.883   4.157   6.420
 5517SOL     OW17449   2.396   2.992   1.759
 5517SOL    HW117450   2.437   3.030   1.676
 5517SOL    HW217451   2.340   3.062   1.804
 5518SOL     OW17452   5.879   6.839   6.628
 5518SOL    HW117453   5.898   6.922   6.681
 5518SOL    HW217454   5.964   6.808   6.585
 5519SOL     OW17455   5.758   3.834   3.466
 5519SOL    HW117456   5.764   3.801   3.560
 5519SOL    HW217457   5.836   3.801   3.413
 5520SOL     OW17458   6.487   0.075   2.498
 5520SOL    HW117459   6.438   0.060   2.584
 5520SOL    HW217460   6.424   0.062   2.422
 5521SOL     OW17461   5.764   6.163   2.184
 5521SOL    HW117462   5.757   6.080   2.130
 5521SOL    HW217463   5.860   6.188   2.196
 5522SOL     OW17464   6.327   4.960   0.480
 5522SOL    HW117465   6.382   4.974   0.562
 5522SOL    HW217466   6.317   4.861   0.463
 5523SOL     OW17467   3.208   0.788   2.065
 5523SOL    HW117468   3.299   0.805   2.102
 5523SOL    HW217469   3.142   0.789   2.140
 5524SOL     OW17470   5.189   0.410   4.336
 5524SOL    HW117471   5.176   0.404   4.435
 5524SOL    HW217472   5.275   0.458   4.316
 5525SOL     OW17473   0.217   1.994   0.973
 5525SOL    HW117474   0.280   2.009   1.049
 5525SOL    HW217475   0.179   2.082   0.944
 5526SOL     OW17476   4.656   5.729   3.536
 5526SOL    HW117477   4.751   5.761   3.541
 5526SOL    HW217478   4.655   5.631   3.516
 5527SOL     OW17479   5.097   3.656   4.106
 5527SOL    HW117480   5.074   3.613   4.019
 5527SOL    HW217481   5.077   3.593   4.181
 5528SOL     OW17482   1.450   1.113   7.017
 5528SOL    HW117483   1.354   1.106   0.020
 5528SOL    HW217484   1.459   1.079   6.923
 5529SOL     OW17485   3.021   6.938   3.259
 5529SOL    HW117486   3.065   6.849   3.267
 5529SOL    HW217487   3.059   7.000   3.328
 5530SOL     OW17488   5.830   2.319   1.607
 5530SOL    HW117489   5.909   2.280   1.560
 5530SOL    HW217490   5.802   2.258   1.681
 5531SOL     OW17491   3.254   3.579   2.148
 5531SOL    HW117492   3.302   3.493   2.166
 5531SOL    HW217493   3.271   3.607   2.053
 5532SOL     OW17494   0.954   3.462   0.883
 5532SOL    HW117495   1.004   3.467   0.970
 5532SOL    HW217496   0.915   3.370   0.873
 5533SOL     OW17497   3.729   1.793   2.970
 5533SOL    HW117498   3.639   1.770   2.935
 5533SOL    HW217499   3.722   1.811   3.069
 5534SOL     OW17500   6.967   1.719   6.398
 5534SOL    HW117501   6.909   1.669   6.334
 5534SOL    HW217502   0.002   1.654   6.446
 5535SOL     OW17503   0.429   2.880   3.060
 5535SOL    HW117504   0.409   2.975   3.085
 5535SOL    HW217505   0.349   2.840   3.015
 5536SOL     OW17506   2.997   0.971   4.523
 5536SOL    HW117507   3.026   0.875   4.525
 5536SOL    HW217508   2.925   0.983   4.455
 5537SOL     OW17509   2.629   1.066   2.686
 5537SOL    HW117510   2.682   1.141   2.647
 5537SOL    HW217511   2.590   1.011   2.613
 5538SOL     OW17512   2.277   5.916   5.765
 5538SOL    HW117513   2.257   6.014   5.770
 5538SOL    HW217514   2.339   5.898   5.689
 5539SOL     OW17515   1.403   3.371   1.149
 5539SOL    HW117516   1.312   3.374   1.190
 5539SOL    HW217517   1.464   3.318   1.207
 5540SOL     OW17518   4.626   4.670   3.416
 5540SOL    HW117519   4.534   4.663   3.376
 5540SOL    HW217520   4.645   4.588   3.469
 5541SOL     OW17521   5.989   0.177   6.114
 5541SOL    HW117522   6.083   0.211   6.106
 5541SOL    HW217523   5.925   0.249   6.088
 5542SOL     OW17524   5.308   3.591   6.009
 5542SOL    HW117525   5.269   3.499   6.005
 5542SOL    HW217526   5.364   3.607   5.927
 5543SOL     OW17527   3.878   5.104   5.793
 5543SOL    HW117528   3.843   5.015   5.763
 5543SOL    HW217529   3.816   5.144   5.860
 5544SOL     OW17530   4.698   5.844   5.952
 5544SOL    HW117531   4.695   5.849   5.853
 5544SOL    HW217532   4.793   5.854   5.983
 5545SOL     OW17533   4.127   1.373   2.116
 5545SOL    HW117534   4.222   1.396   2.134
 5545SOL    HW217535   4.109   1.381   2.018
 5546SOL     OW17536   0.342   5.022   4.782
 5546SOL    HW117537   0.295   4.956   4.723
 5546SOL    HW217538   0.439   5.000   4.786
 5547SOL     OW17539   2.616   6.334   5.162
 5547SOL    HW117540   2.637   6.425   5.125
 5547SOL    HW217541   2.532   6.300   5.119
 5548SOL     OW17542   6.365   2.494   4.871
 5548SOL    HW117543   6.377   2.543   4.785
 5548SOL    HW217544   6.349   2.397   4.852
 5549SOL     OW17545   4.626   4.296   6.435
 5549SOL    HW117546   4.540   4.263   6.474
 5549SOL    HW217547   4.606   4.364   6.364
 5550SOL     OW17548   2.677   5.414   1.975
 5550SOL    HW117549   2.705   5.482   1.908
 5550SOL    HW217550   2.577   5.405   1.974
 5551SOL     OW17551   2.339   0.721   3.110
 5551SOL    HW117552   2.242   0.710   3.089
 5551SOL    HW217553   2.394   0.696   3.031
 5552SOL     OW17554   6.489   0.956   6.884
 5552SOL    HW117555   6.502   0.877   6.824
 5552SOL    HW217556   6.540   1.034   6.849
 5553SOL     OW17557   4.487   6.119   0.052
 5553SOL    HW117558   4.541   6.138   6.996
 5553SOL    HW217559   4.506   6.026   0.083
 5554SOL     OW17560   3.460   1.186   5.441
 5554SOL    HW117561   3.476   1.284   5.442
 5554SOL    HW217562   3.491   1.146   5.527
 5555SOL     OW17563   0.931   4.318   3.901
 5555SOL    HW117564   0.909   4.342   3.996
 5555SOL    HW217565   0.861   4.355   3.841
 5556SOL     OW17566   0.418   2.502   4.037
 5556SOL    HW117567   0.350   2.505   4.111
 5556SOL    HW217568   0.402   2.420   3.981
 5557SOL     OW17569   3.622   6.027   3.062
 5557SOL    HW117570   3.705   5.972   3.070
 5557SOL    HW217571   3.642   6.121   3.088
 5558SOL     OW17572   5.123   3.736   6.422
 5558SOL    HW117573   5.074   3.722   6.509
 5558SOL    HW217574   5.136   3.833   6.406
 5559SOL     OW17575   2.293   6.745   2.092
 5559SOL    HW117576   2.239   6.747   2.177
 5559SOL    HW217577   2.238   6.706   2.019
 5560SOL     OW17578   0.536   6.741   3.843
 5560SOL    HW117579   0.480   6.672   3.796
 5560SOL    HW217580   0.578   6.700   3.924
 5561SOL     OW17581   2.240   2.490   3.991
 5561SOL    HW117582   2.334   2.518   4.007
 5561SOL    HW217583   2.182   2.523   4.064
 5562SOL     OW17584   2.908   2.492   0.175
 5562SOL    HW117585   2.925   2.447   0.087
 5562SOL    HW217586   2.810   2.491   0.195
 5563SOL     OW17587   4.703   6.314   2.463
 5563SOL    HW117588   4.645   6.331   2.383
 5563SOL    HW217589   4.680   6.225   2.502
 5564SOL     OW17590   4.286   1.565   1.958
 5564SOL    HW117591   4.225   1.580   1.881
 5564SOL    HW217592   4.279   1.641   2.022
 5565SOL     OW17593   4.944   1.843   6.843
 5565SOL    HW117594   4.970   1.805   6.931
 5565SOL    HW217595   4.956   1.773   6.772
 5566SOL     OW17596   1.641   5.101   0.650
 5566SOL    HW117597   1.569   5.157   0.610
 5566SOL    HW217598   1.601   5.017   0.688
 5567SOL     OW17599   0.774   4.819   2.020
 5567SOL    HW117600   0.784   4.767   1.935
 5567SOL    HW217601   0.815   4.768   2.095
 5568SOL     OW17602   4.752   2.481   2.520
 5568SOL    HW117603   4.658   2.487   2.555
 5568SOL    HW217604   4.807   2.424   2.580
 5569SOL     OW17605   3.016   1.169   1.636
 5569SOL    HW117606   3.018   1.262   1.600
 5569SOL    HW217607   3.001   1.104   1.562
 5570SOL     OW17608   5.736   4.419   4.871
 5570SOL    HW117609   5.679   4.499   4.891
 5570SOL    HW217610   5.691   4.337   4.907
 5571SOL     OW17611   0.415   6.908   6.684
 5571SOL    HW117612   0.365   6.890   6.599
 5571SOL    HW217613   0.389   6.998   6.719
 5572SOL     OW17614   2.002   2.678   6.194
 5572SOL    HW117615   1.941   2.749   6.229
 5572SOL    HW217616   1.959   2.589   6.203
 5573SOL     OW17617   1.985   2.795   0.055
 5573SOL    HW117618   2.005   2.845   0.139
 5573SOL    HW217619   1.886   2.781   0.047
 5574SOL     OW17620   6.590   1.106   4.129
 5574SOL    HW117621   6.541   1.169   4.189
 5574SOL    HW217622   6.645   1.158   4.063
 5575SOL     OW17623   0.740   1.259   1.974
 5575SOL    HW117624   0.668   1.297   2.033
 5575SOL    HW217625   0.709   1.261   1.879
 5576SOL     OW17626   6.896   6.054   2.109
 5576SOL    HW117627   6.927   6.136   2.060
 5576SOL    HW217628   6.975   6.006   2.147
 5577SOL     OW17629   3.029   2.541   6.313
 5577SOL    HW117630   3.017   2.535   6.413
 5577SOL    HW217631   2.951   2.590   6.274
 5578SOL     OW17632   4.453   3.529   0.730
 5578SOL    HW117633   4.439   3.454   0.665
 5578SOL    HW217634   4.444   3.494   0.823
 5579SOL     OW17635   6.425   3.949   6.764
 5579SOL    HW117636   6.366   3.873   6.736
 5579SOL    HW217637   6.518   3.934   6.731
 5580SOL     OW17638   4.841   2.033   6.196
 5580SOL    HW117639   4.832   2.132   6.207
 5580SOL    HW217640   4.759   1.997   6.150
 5581SOL     OW17641   2.240   6.804   1.050
 5581SOL    HW117642   2.268   6.894   1.016
 5581SOL    HW217643   2.172   6.765   0.988
 5582SOL     OW17644   3.535   3.146   3.901
 5582SOL    HW117645   3.491   3.182   3.983
 5582SOL    HW217646   3.525   3.046   3.899
 5583SOL     OW17647   3.544   6.782   2.807
 5583SOL    HW117648   3.610   6.821   2.742
 5583SOL    HW217649   3.535   6.843   2.886
 5584SOL     OW17650   5.738   4.196   4.426
 5584SOL    HW117651   5.710   4.134   4.353
 5584SOL    HW217652   5.833   4.176   4.452
 5585SOL     OW17653   4.792   0.465   3.599
 5585SOL    HW117654   4.703   0.426   3.625
 5585SOL    HW217655   4.802   0.555   3.640
 5586SOL     OW17656   1.330   2.466   7.023
 5586SOL    HW117657   1.387   2.392   0.033
 5586SOL    HW217658   1.249   2.476   0.054
 5587SOL     OW17659   4.639   6.720   1.999
 5587SOL    HW117660   4.685   6.683   2.080
 5587SOL    HW217661   4.570   6.655   1.968
 5588SOL     OW17662   1.083   6.533   3.921
 5588SOL    HW117663   1.026   6.458   3.888
 5588SOL    HW217664   1.125   6.506   4.008
 5589SOL     OW17665   5.127   2.887   6.495
 5589SOL    HW117666   5.196   2.816   6.510
 5589SOL    HW217667   5.038   2.855   6.528
 5590SOL     OW17668   7.025   5.641   2.826
 5590SOL    HW117669   6.931   5.612   2.813
 5590SOL    HW217670   0.033   5.683   2.742
 5591SOL     OW17671   5.757   1.105   6.357
 5591SOL    HW117672   5.748   1.172   6.431
 5591SOL    HW217673   5.826   1.137   6.292
 5592SOL     OW17674   2.157   4.915   2.863
 5592SOL    HW117675   2.065   4.912   2.901
 5592SOL    HW217676   2.155   4.888   2.766
 5593SOL     OW17677   0.071   2.473   5.744
 5593SOL    HW117678   0.058   2.572   5.755
 5593SOL    HW217679   7.013   2.433   5.705
 5594SOL     OW17680   2.887   1.085   6.541
 5594SOL    HW117681   2.811   1.150   6.539
 5594SOL    HW217682   2.874   1.020   6.615
 5595SOL     OW17683   5.852   0.728   5.213
 5595SOL    HW117684   5.946   0.761   5.212
 5595SOL    HW217685   5.837   0.670   5.293
 5596SOL     OW17686   5.018   0.386   2.920
 5596SOL    HW117687   5.065   0.303   2.891
 5596SOL    HW217688   5.034   0.459   2.854
 5597SOL     OW17689   5.454   2.232   5.252
 5597SOL    HW117690   5.367   2.251   5.297
 5597SOL    HW217691   5.448   2.256   5.155
 5598SOL     OW17692   5.471   2.572   4.073
 5598SOL    HW117693   5.475   2.473   4.082
 5598SOL    HW217694   5.510   2.615   4.154
 5599SOL     OW17695   6.478   4.006   2.190
 5599SOL    HW117696   6.537   3.930   2.164
 5599SOL    HW217697   6.481   4.020   2.289
 5600SOL     OW17698   2.048   0.289   2.322
 5600SOL    HW117699   1.970   0.341   2.289
 5600SOL    HW217700   2.052   0.200   2.276
 5601SOL     OW17701   4.412   2.288   5.768
 5601SOL    HW117702   4.480   2.318   5.701
 5601SOL    HW217703   4.388   2.193   5.749
 5602SOL     OW17704   6.858   0.715   3.183
 5602SOL    HW117705   6.889   0.804   3.217
 5602SOL    HW217706   6.781   0.683   3.239
 5603SOL     OW17707   4.740   2.237   5.036
 5603SOL    HW117708   4.676   2.212   5.108
 5603SOL    HW217709   4.807   2.303   5.071
 5604SOL     OW17710   1.247   1.751   4.579
 5604SOL    HW117711   1.183   1.819   4.543
 5604SOL    HW217712   1.291   1.703   4.503
 5605SOL     OW17713   1.248   6.871   5.219
 5605SOL    HW117714   1.192   6.788   5.222
 5605SOL    HW217715   1.213   6.937   5.285
 5606SOL     OW17716   4.221   0.947   0.480
 5606SOL    HW117717   4.142   1.001   0.509
 5606SOL    HW217718   4.283   1.005   0.428
 5607SOL     OW17719   5.764   2.336   3.467
 5607SOL    HW117720   5.804   2.247   3.486
 5607SOL    HW217721   5.665   2.327   3.457
 5608SOL     OW17722   5.902   1.641   3.164
 5608SOL    HW117723   5.826   1.593   3.119
 5608SOL    HW217724   5.891   1.740   3.150
 5609SOL     OW17725   4.704   6.079   0.256
 5609SOL    HW117726   4.712   6.163   0.203
 5609SOL    HW217727   4.654   6.010   0.204
 5610SOL     OW17728   5.837   3.648   0.920
 5610SOL    HW117729   5.818   3.571   0.859
 5610SOL    HW217730   5.754   3.703   0.932
 5611SOL     OW17731   1.126   4.817   2.150
 5611SOL    HW117732   1.133   4.744   2.218
 5611SOL    HW217733   1.039   4.864   2.161
 5612SOL     OW17734   3.193   2.525   0.670
 5612SOL    HW117735   3.220   2.470   0.750
 5612SOL    HW217736   3.144   2.607   0.701
 5613SOL     OW17737   6.854   4.949   5.424
 5613SOL    HW117738   6.890   4.920   5.336
 5613SOL    HW217739   6.840   5.048   5.423
 5614SOL     OW17740   6.089   2.505   4.257
 5614SOL    HW117741   6.173   2.538   4.214
 5614SOL    HW217742   6.102   2.498   4.356
 5615SOL     OW17743   0.252   1.278   2.999
 5615SOL    HW117744   0.283   1.279   2.904
 5615SOL    HW217745   0.269   1.367   3.040
 5616SOL     OW17746   2.304   2.628   5.197
 5616SOL    HW117747   2.325   2.557   5.130
 5616SOL    HW217748   2.260   2.705   5.151
 5617SOL     OW17749   1.841   3.964   4.859
 5617SOL    HW117750   1.835   3.907   4.940
 5617SOL    HW217751   1.887   3.914   4.786
 5618SOL     OW17752   6.664   5.159   3.221
 5618SOL    HW117753   6.690   5.161   3.124
 5618SOL    HW217754   6.569   5.130   3.229
 5619SOL     OW17755   3.675   2.891   3.632
 5619SOL    HW117756   3.607   2.882   3.705
 5619SOL    HW217757   3.760   2.930   3.670
 5620SOL     OW17758   5.112   3.999   6.167
 5620SOL    HW117759   5.114   4.077   6.105
 5620SOL    HW217760   5.115   3.914   6.114
 5621SOL     OW17761   1.140   3.260   6.545
 5621SOL    HW117762   1.058   3.306   6.511
 5621SOL    HW217763   1.221   3.309   6.513
 5622SOL     OW17764   4.667   6.814   5.323
 5622SOL    HW117765   4.611   6.843   5.401
 5622SOL    HW217766   4.760   6.793   5.354
 5623SOL     OW17767   5.058   6.815   5.130
 5623SOL    HW117768   5.001   6.767   5.064
 5623SOL    HW217769   5.018   6.806   5.221
 5624SOL     OW17770   1.133   5.233   3.824
 5624SOL    HW117771   1.173   5.192   3.742
 5624SOL    HW217772   1.042   5.267   3.803
 5625SOL     OW17773   0.627   4.596   4.879
 5625SOL    HW117774   0.724   4.586   4.899
 5625SOL    HW217775   0.574   4.574   4.961
 5626SOL     OW17776   2.537   5.065   4.421
 5626SOL    HW117777   2.490   5.027   4.501
 5626SOL    HW217778   2.495   5.029   4.338
 5627SOL     OW17779   6.819   5.596   6.190
 5627SOL    HW117780   6.829   5.643   6.102
 5627SOL    HW217781   6.889   5.629   6.253
 5628SOL     OW17782   3.103   2.932   1.407
 5628SOL    HW117783   3.161   2.952   1.486
 5628SOL    HW217784   3.017   2.983   1.415
 5629SOL     OW17785   4.109   2.868   1.729
 5629SOL    HW117786   4.160   2.953   1.722
 5629SOL    HW217787   4.156   2.797   1.676
 5630SOL     OW17788   1.956   4.021   6.031
 5630SOL    HW117789   2.038   4.003   6.086
 5630SOL    HW217790   1.922   4.113   6.050
 5631SOL     OW17791   5.320   1.287   2.007
 5631SOL    HW117792   5.355   1.315   2.096
 5631SOL    HW217793   5.279   1.365   1.960
 5632SOL     OW17794   5.260   1.685   5.340
 5632SOL    HW117795   5.201   1.760   5.371
 5632SOL    HW217796   5.205   1.607   5.314
 5633SOL     OW17797   6.699   5.117   4.816
 5633SOL    HW117798   6.729   5.212   4.826
 5633SOL    HW217799   6.612   5.115   4.766
 5634SOL     OW17800   1.768   4.707   3.714
 5634SOL    HW117801   1.739   4.664   3.800
 5634SOL    HW217802   1.765   4.806   3.723
 5635SOL     OW17803   2.653   6.500   0.129
 5635SOL    HW117804   2.574   6.458   0.083
 5635SOL    HW217805   2.707   6.429   0.173
 5636SOL     OW17806   5.498   0.959   5.703
 5636SOL    HW117807   5.534   0.999   5.618
 5636SOL    HW217808   5.466   0.866   5.684
 5637SOL     OW17809   5.097   0.012   3.808
 5637SOL    HW117810   5.060   0.104   3.796
 5637SOL    HW217811   5.187   0.018   3.851
 5638SOL     OW17812   5.918   5.539   0.938
 5638SOL    HW117813   5.895   5.448   0.973
 5638SOL    HW217814   6.016   5.555   0.949
 5639SOL     OW17815   1.297   0.821   1.561
 5639SOL    HW117816   1.295   0.868   1.650
 5639SOL    HW217817   1.384   0.839   1.516
 5640SOL     OW17818   2.822   0.218   2.326
 5640SOL    HW117819   2.895   0.275   2.289
 5640SOL    HW217820   2.800   0.146   2.261
 5641SOL     OW17821   0.550   4.410   6.078
 5641SOL    HW117822   0.525   4.467   6.156
 5641SOL    HW217823   0.506   4.445   5.995
 5642SOL     OW17824   1.197   4.971   5.532
 5642SOL    HW117825   1.155   4.904   5.471
 5642SOL    HW217826   1.281   5.006   5.491
 5643SOL     OW17827   3.661   0.714   4.767
 5643SOL    HW117828   3.574   0.733   4.722
 5643SOL    HW217829   3.681   0.786   4.833
 5644SOL     OW17830   3.899   0.474   3.720
 5644SOL    HW117831   3.874   0.567   3.691
 5644SOL    HW217832   3.887   0.466   3.819
 5645SOL     OW17833   6.810   4.373   3.173
 5645SOL    HW117834   6.710   4.364   3.167
 5645SOL    HW217835   6.841   4.446   3.112
 5646SOL     OW17836   2.476   5.707   3.391
 5646SOL    HW117837   2.487   5.805   3.406
 5646SOL    HW217838   2.531   5.678   3.313
 5647SOL     OW17839   6.054   6.785   6.995
 5647SOL    HW117840   6.051   6.687   7.014
 5647SOL    HW217841   6.014   6.835   0.047
 5648SOL     OW17842   1.523   1.458   2.636
 5648SOL    HW117843   1.481   1.497   2.718
 5648SOL    HW217844   1.493   1.510   2.556
 5649SOL     OW17845   0.682   6.723   5.771
 5649SOL    HW117846   0.734   6.800   5.806
 5649SOL    HW217847   0.618   6.755   5.701
 5650SOL     OW17848   0.646   5.499   1.239
 5650SOL    HW117849   0.566   5.547   1.275
 5650SOL    HW217850   0.725   5.560   1.239
 5651SOL     OW17851   0.369   1.122   1.891
 5651SOL    HW117852   0.358   1.065   1.810
 5651SOL    HW217853   0.418   1.206   1.866
 5652SOL     OW17854   5.837   6.653   2.359
 5652SOL    HW117855   5.752   6.650   2.305
 5652SOL    HW217856   5.895   6.727   2.326
 5653SOL     OW17857   0.536   6.582   6.443
 5653SOL    HW117858   0.493   6.518   6.379
 5653SOL    HW217859   0.553   6.669   6.396
 5654SOL     OW17860   6.433   6.976   5.477
 5654SOL    HW117861   6.480   0.036   5.501
 5654SOL    HW217862   6.355   6.996   5.418
 5655SOL     OW17863   1.112   3.286   4.648
 5655SOL    HW117864   1.157   3.365   4.691
 5655SOL    HW217865   1.180   3.227   4.606
 5656SOL     OW17866   1.637   3.891   0.291
 5656SOL    HW117867   1.735   3.888   0.271
 5656SOL    HW217868   1.592   3.949   0.223
 5657SOL     OW17869   5.390   0.601   0.896
 5657SOL    HW117870   5.291   0.608   0.894
 5657SOL    HW217871   5.418   0.516   0.941
 5658SOL     OW17872   3.280   5.845   6.031
 5658SOL    HW117873   3.330   5.770   6.075
 5658SOL    HW217874   3.273   5.921   6.095
 5659SOL     OW17875   3.704   4.050   3.562
 5659SOL    HW117876   3.619   4.090   3.528
 5659SOL    HW217877   3.781   4.087   3.510
 5660SOL     OW17878   5.805   0.276   5.606
 5660SOL    HW117879   5.833   0.190   5.563
 5660SOL    HW217880   5.883   0.316   5.653
 5661SOL     OW17881   7.007   4.224   5.794
 5661SOL    HW117882   7.025   4.171   5.877
 5661SOL    HW217883   6.971   4.164   5.724
 5662SOL     OW17884   2.851   5.398   3.466
 5662SOL    HW117885   2.772   5.403   3.405
 5662SOL    HW217886   2.828   5.437   3.555
 5663SOL     OW17887   2.077   3.956   6.774
 5663SOL    HW117888   2.049   4.042   6.818
 5663SOL    HW217889   2.155   3.918   6.822
 5664SOL     OW17890   6.813   4.170   4.239
 5664SOL    HW117891   6.753   4.157   4.160
 5664SOL    HW217892   6.763   4.151   4.323
 5665SOL     OW17893   1.574   1.972   6.892
 5665SOL    HW117894   1.547   1.971   6.989
 5665SOL    HW217895   1.674   1.969   6.885
 5666SOL     OW17896   5.616   6.136   0.662
 5666SOL    HW117897   5.556   6.204   0.620
 5666SOL    HW217898   5.707   6.142   0.622
 5667SOL     OW17899   1.269   4.368   3.750
 5667SOL    HW117900   1.230   4.427   3.820
 5667SOL    HW217901   1.196   4.327   3.695
 5668SOL     OW17902   5.532   1.994   5.148
 5668SOL    HW117903   5.508   2.079   5.194
 5668SOL    HW217904   5.510   1.917   5.208
 5669SOL     OW17905   0.443   2.774   6.837
 5669SOL    HW117906   0.420   2.828   6.918
 5669SOL    HW217907   0.522   2.815   6.791
 5670SOL     OW17908   0.115   2.897   3.728
 5670SOL    HW117909   0.142   2.803   3.748
 5670SOL    HW217910   0.105   2.948   3.813
 5671SOL     OW17911   0.953   6.580   6.249
 5671SOL    HW117912   0.910   6.539   6.329
 5671SOL    HW217913   0.888   6.639   6.202
 5672SOL     OW17914   4.309   4.421   6.755
 5672SOL    HW117915   4.322   4.512   6.715
 5672SOL    HW217916   4.336   4.351   6.689
 5673SOL     OW17917   1.165   6.002   1.783
 5673SOL    HW117918   1.065   5.991   1.784
 5673SOL    HW217919   1.206   5.924   1.737
 5674SOL     OW17920   6.651   4.118   4.006
 5674SOL    HW117921   6.594   4.190   3.967
 5674SOL    HW217922   6.706   4.076   3.935
 5675SOL     OW17923   4.301   2.303   6.000
 5675SOL    HW117924   4.321   2.381   6.059
 5675SOL    HW217925   4.373   2.294   5.931
 5676SOL     OW17926   2.189   2.098   2.394
 5676SOL    HW117927   2.137   2.149   2.326
 5676SOL    HW217928   2.132   2.024   2.431
 5677SOL     OW17929   0.723   2.589   2.685
 5677SOL    HW117930   0.648   2.580   2.751
 5677SOL    HW217931   0.775   2.672   2.704
 5678SOL     OW17932   2.597   6.437   2.737
 5678SOL    HW117933   2.650   6.517   2.764
 5678SOL    HW217934   2.616   6.361   2.800
 5679SOL     OW17935   1.230   0.592   3.535
 5679SOL    HW117936   1.203   0.539   3.454
 5679SOL    HW217937   1.290   0.667   3.507
 5680SOL     OW17938   1.133   5.696   0.641
 5680SOL    HW117939   1.228   5.712   0.669
 5680SOL    HW217940   1.098   5.614   0.686
 5681SOL     OW17941   0.210   3.596   0.201
 5681SOL    HW117942   0.111   3.584   0.211
 5681SOL    HW217943   0.257   3.510   0.223
 5682SOL     OW17944   2.433   4.758   5.278
 5682SOL    HW117945   2.414   4.835   5.338
 5682SOL    HW217946   2.528   4.761   5.248
 5683SOL     OW17947   3.550   1.158   0.292
 5683SOL    HW117948   3.451   1.145   0.301
 5683SOL    HW217949   3.569   1.253   0.267
 5684SOL     OW17950   3.582   2.938   4.900
 5684SOL    HW117951   3.556   2.850   4.859
 5684SOL    HW217952   3.624   2.996   4.830
 5685SOL     OW17953   1.803   3.262   2.082
 5685SOL    HW117954   1.831   3.185   2.025
 5685SOL    HW217955   1.883   3.314   2.110
 5686SOL     OW17956   2.489   6.990   6.378
 5686SOL    HW117957   2.459   6.949   6.292
 5686SOL    HW217958   2.437   6.951   6.454
 5687SOL     OW17959   0.578   3.983   5.483
 5687SOL    HW117960   0.546   4.075   5.461
 5687SOL    HW217961   0.669   3.987   5.523
 5688SOL     OW17962   6.837   2.150   6.992
 5688SOL    HW117963   6.891   2.110   0.042
 5688SOL    HW217964   6.893   2.153   6.910
 5689SOL     OW17965   4.494   0.372   0.608
 5689SOL    HW117966   4.586   0.387   0.574
 5689SOL    HW217967   4.498   0.335   0.700
 5690SOL     OW17968   2.274   6.120   0.630
 5690SOL    HW117969   2.176   6.103   0.642
 5690SOL    HW217970   2.294   6.217   0.644
 5691SOL     OW17971   2.681   6.105   1.674
 5691SOL    HW117972   2.615   6.125   1.746
 5691SOL    HW217973   2.722   6.015   1.691
 5692SOL     OW17974   6.966   3.123   6.091
 5692SOL    HW117975   0.033   3.134   6.128
 5692SOL    HW217976   6.969   3.069   6.007
 5693SOL     OW17977   6.002   2.438   2.557
 5693SOL    HW117978   6.037   2.413   2.467
 5693SOL    HW217979   5.908   2.407   2.566
 5694SOL     OW17980   0.969   1.785   3.668
 5694SOL    HW117981   0.931   1.731   3.743
 5694SOL    HW217982   0.982   1.879   3.699
 5695SOL     OW17983   1.009   2.806   3.286
 5695SOL    HW117984   1.023   2.904   3.295
 5695SOL    HW217985   1.086   2.765   3.237
 5696SOL     OW17986   1.496   0.660   3.200
 5696SOL    HW117987   1.542   0.660   3.288
 5696SOL    HW217988   1.448   0.574   3.187
 5697SOL     OW17989   6.373   2.088   1.104
 5697SOL    HW117990   6.424   2.005   1.128
 5697SOL    HW217991   6.365   2.147   1.184
 5698SOL     OW17992   0.551   3.116   2.185
 5698SOL    HW117993   0.596   3.059   2.116
 5698SOL    HW217994   0.509   3.195   2.140
 5699SOL     OW17995   6.157   1.926   2.811
 5699SOL    HW117996   6.113   1.994   2.753
 5699SOL    HW217997   6.208   1.972   2.883
 5700SOL     OW17998   6.306   6.608   4.216
 5700SOL    HW117999   6.303   6.616   4.316
 5700SOL    HW218000   6.261   6.687   4.175
 5701SOL     OW18001   1.525   6.422   3.622
 5701SOL    HW118002   1.603   6.361   3.611
 5701SOL    HW218003   1.456   6.379   3.679
 5702SOL     OW18004   1.673   6.991   5.367
 5702SOL    HW118005   1.594   6.933   5.351
 5702SOL    HW218006   1.642   0.058   5.390
 5703SOL     OW18007   5.424   4.404   1.507
 5703SOL    HW118008   5.487   4.356   1.446
 5703SOL    HW218009   5.333   4.406   1.466
 5704SOL     OW18010   4.172   5.558   1.855
 5704SOL    HW118011   4.078   5.527   1.869
 5704SOL    HW218012   4.174   5.657   1.842
 5705SOL     OW18013   5.079   1.284   0.985
 5705SOL    HW118014   5.097   1.203   1.040
 5705SOL    HW218015   5.085   1.261   0.888
 5706SOL     OW18016   0.579   1.942   0.121
 5706SOL    HW118017   0.522   1.893   0.187
 5706SOL    HW218018   0.613   1.878   0.052
 5707SOL     OW18019   0.168   0.159   0.483
 5707SOL    HW118020   0.186   0.217   0.404
 5707SOL    HW218021   0.222   0.190   0.561
 5708SOL     OW18022   5.165   6.544   1.192
 5708SOL    HW118023   5.159   6.591   1.104
 5708SOL    HW218024   5.213   6.457   1.180
 5709SOL     OW18025   1.447   0.391   3.599
 5709SOL    HW118026   1.490   0.452   3.532
 5709SOL    HW218027   1.452   0.297   3.565
 5710SOL     OW18028   2.754   3.260   6.643
 5710SOL    HW118029   2.658   3.285   6.655
 5710SOL    HW218030   2.766   3.219   6.552
 5711SOL     OW18031   4.480   0.765   3.064
 5711SOL    HW118032   4.530   0.678   3.067
 5711SOL    HW218033   4.400   0.761   3.124
 5712SOL     OW18034   0.567   5.536   5.810
 5712SOL    HW118035   0.652   5.483   5.802
 5712SOL    HW218036   0.527   5.522   5.901
 5713SOL     OW18037   1.523   2.100   1.826
 5713SOL    HW118038   1.546   2.015   1.874
 5713SOL    HW218039   1.443   2.084   1.767
 5714SOL     OW18040   0.397   6.390   6.325
 5714SOL    HW118041   0.302   6.419   6.307
 5714SOL    HW218042   0.397   6.299   6.366
 5715SOL     OW18043   1.353   6.771   3.398
 5715SOL    HW118044   1.314   6.796   3.487
 5715SOL    HW218045   1.405   6.686   3.408
 5716SOL     OW18046   1.420   4.729   6.943
 5716SOL    HW118047   1.389   4.658   6.880
 5716SOL    HW218048   1.490   4.784   6.898
 5717SOL     OW18049   1.983   6.276   0.975
 5717SOL    HW118050   2.079   6.267   0.946
 5717SOL    HW218051   1.968   6.222   1.058
 5718SOL     OW18052   1.198   3.501   6.161
 5718SOL    HW118053   1.232   3.409   6.178
 5718SOL    HW218054   1.151   3.504   6.073
 5719SOL     OW18055   2.332   1.325   6.193
 5719SOL    HW118056   2.424   1.319   6.157
 5719SOL    HW218057   2.266   1.324   6.117
 5720SOL     OW18058   0.782   4.895   4.382
 5720SOL    HW118059   0.830   4.969   4.430
 5720SOL    HW218060   0.846   4.822   4.360
 5721SOL     OW18061   0.727   3.517   0.550
 5721SOL    HW118062   0.824   3.499   0.565
 5721SOL    HW218063   0.713   3.615   0.539
 5722SOL     OW18064   6.388   1.850   4.926
 5722SOL    HW118065   6.445   1.799   4.991
 5722SOL    HW218066   6.430   1.938   4.906
 5723SOL     OW18067   4.464   3.666   6.944
 5723SOL    HW118068   4.552   3.696   6.980
 5723SOL    HW218069   4.473   3.641   6.848
 5724SOL     OW18070   4.147   2.719   5.326
 5724SOL    HW118071   4.069   2.780   5.318
 5724SOL    HW218072   4.122   2.628   5.293
 5725SOL     OW18073   6.483   5.648   4.086
 5725SOL    HW118074   6.512   5.638   4.181
 5725SOL    HW218075   6.515   5.737   4.052
 5726SOL     OW18076   6.414   3.922   4.056
 5726SOL    HW118077   6.391   3.981   4.134
 5726SOL    HW218078   6.474   3.848   4.087
 5727SOL     OW18079   0.802   2.733   4.321
 5727SOL    HW118080   0.865   2.697   4.390
 5727SOL    HW218081   0.836   2.711   4.230
 5728SOL     OW18082   4.775   1.223   6.870
 5728SOL    HW118083   4.768   1.258   6.964
 5728SOL    HW218084   4.763   1.298   6.805
 5729SOL     OW18085   0.694   1.384   0.260
 5729SOL    HW118086   0.705   1.415   0.166
 5729SOL    HW218087   0.623   1.314   0.264
 5730SOL     OW18088   4.502   5.244   5.861
 5730SOL    HW118089   4.563   5.177   5.904
 5730SOL    HW218090   4.444   5.198   5.794
 5731SOL     OW18091   1.982   6.752   4.410
 5731SOL    HW118092   2.059   6.803   4.372
 5731SOL    HW218093   1.940   6.695   4.339
 5732SOL     OW18094   6.738   5.193   5.486
 5732SOL    HW118095   6.684   5.276   5.500
 5732SOL    HW218096   6.795   5.177   5.566
 5733SOL     OW18097   3.184   0.286   5.698
 5733SOL    HW118098   3.283   0.287   5.709
 5733SOL    HW218099   3.144   0.360   5.753
 5734SOL     OW18100   1.480   6.042   5.945
 5734SOL    HW118101   1.569   6.085   5.928
 5734SOL    HW218102   1.459   5.978   5.872
 5735SOL     OW18103   4.069   1.174   2.487
 5735SOL    HW118104   4.055   1.167   2.389
 5735SOL    HW218105   4.115   1.091   2.520
 5736SOL     OW18106   5.808   4.185   1.224
 5736SOL    HW118107   5.740   4.256   1.206
 5736SOL    HW218108   5.893   4.208   1.176
 5737SOL     OW18109   5.602   5.853   6.804
 5737SOL    HW118110   5.528   5.919   6.818
 5737SOL    HW218111   5.577   5.766   6.847
 5738SOL     OW18112   3.395   2.292   6.664
 5738SOL    HW118113   3.371   2.261   6.756
 5738SOL    HW218114   3.351   2.381   6.647
 5739SOL     OW18115   0.650   6.280   5.519
 5739SOL    HW118116   0.617   6.277   5.613
 5739SOL    HW218117   0.574   6.257   5.457
 5740SOL     OW18118   3.995   4.020   1.115
 5740SOL    HW118119   4.056   4.075   1.058
 5740SOL    HW218120   3.959   4.078   1.188
 5741SOL     OW18121   6.911   3.623   4.746
 5741SOL    HW118122   6.967   3.554   4.791
 5741SOL    HW218123   6.853   3.579   4.676
 5742SOL     OW18124   4.565   6.352   2.214
 5742SOL    HW118125   4.502   6.278   2.240
 5742SOL    HW218126   4.610   6.328   2.128
 5743SOL     OW18127   2.043   5.731   5.690
 5743SOL    HW118128   2.130   5.771   5.720
 5743SOL    HW218129   1.973   5.749   5.759
 5744SOL     OW18130   4.773   1.515   1.248
 5744SOL    HW118131   4.703   1.547   1.311
 5744SOL    HW218132   4.791   1.585   1.179
 5745SOL     OW18133   1.939   1.336   3.307
 5745SOL    HW118134   1.887   1.413   3.344
 5745SOL    HW218135   1.926   1.255   3.365
 5746SOL     OW18136   4.932   0.266   2.048
 5746SOL    HW118137   4.994   0.266   2.127
 5746SOL    HW218138   4.921   0.360   2.016
 5747SOL     OW18139   1.649   5.199   1.835
 5747SOL    HW118140   1.655   5.119   1.896
 5747SOL    HW218141   1.597   5.271   1.880
 5748SOL     OW18142   1.284   0.509   1.139
 5748SOL    HW118143   1.372   0.527   1.096
 5748SOL    HW218144   1.298   0.486   1.235
 5749SOL     OW18145   1.151   6.305   5.077
 5749SOL    HW118146   1.133   6.246   4.998
 5749SOL    HW218147   1.202   6.386   5.048
 5750SOL     OW18148   6.443   6.253   4.868
 5750SOL    HW118149   6.465   6.159   4.843
 5750SOL    HW218150   6.496   6.316   4.812
 5751SOL     OW18151   2.253   3.003   4.757
 5751SOL    HW118152   2.310   2.999   4.839
 5751SOL    HW218153   2.254   2.914   4.711
 5752SOL     OW18154   5.354   0.279   0.220
 5752SOL    HW118155   5.256   0.259   0.231
 5752SOL    HW218156   5.369   0.377   0.233
 5753SOL     OW18157   3.664   4.121   4.601
 5753SOL    HW118158   3.641   4.218   4.609
 5753SOL    HW218159   3.587   4.066   4.635
 5754SOL     OW18160   0.192   5.552   2.371
 5754SOL    HW118161   0.138   5.614   2.429
 5754SOL    HW218162   0.148   5.542   2.282
 5755SOL     OW18163   2.037   2.451   6.814
 5755SOL    HW118164   2.007   2.541   6.847
 5755SOL    HW218165   2.060   2.393   6.892
 5756SOL     OW18166   6.590   0.323   3.067
 5756SOL    HW118167   6.625   0.332   3.161
 5756SOL    HW218168   6.498   0.284   3.069
 5757SOL     OW18169   0.573   5.583   2.901
 5757SOL    HW118170   0.576   5.626   2.992
 5757SOL    HW218171   0.536   5.648   2.835
 5758SOL     OW18172   2.517   1.311   3.983
 5758SOL    HW118173   2.614   1.288   3.986
 5758SOL    HW218174   2.489   1.324   3.888
 5759SOL     OW18175   4.887   1.044   6.704
 5759SOL    HW118176   4.855   1.108   6.773
 5759SOL    HW218177   4.810   0.989   6.671
 5760SOL     OW18178   6.987   3.149   0.959
 5760SOL    HW118179   0.052   3.133   0.998
 5760SOL    HW218180   6.992   3.224   0.893
 5761SOL     OW18181   5.667   5.045   5.924
 5761SOL    HW118182   5.658   5.062   5.826
 5761SOL    HW218183   5.763   5.030   5.947
 5762SOL     OW18184   5.095   4.030   1.046
 5762SOL    HW118185   5.102   4.004   0.950
 5762SOL    HW218186   5.175   3.997   1.096
 5763SOL     OW18187   6.513   5.670   0.742
 5763SOL    HW118188   6.603   5.692   0.780
 5763SOL    HW218189   6.442   5.693   0.809
 5764SOL     OW18190   5.347   4.797   5.288
 5764SOL    HW118191   5.410   4.761   5.357
 5764SOL    HW218192   5.270   4.843   5.334
 5765SOL     OW18193   6.368   3.089   0.952
 5765SOL    HW118194   6.413   3.117   1.037
 5765SOL    HW218195   6.284   3.039   0.974
 5766SOL     OW18196   1.554   1.463   5.853
 5766SOL    HW118197   1.591   1.554   5.871
 5766SOL    HW218198   1.489   1.439   5.926
 5767SOL     OW18199   2.011   0.759   0.770
 5767SOL    HW118200   1.965   0.753   0.681
 5767SOL    HW218201   2.048   0.670   0.795
 5768SOL     OW18202   1.377   6.017   4.075
 5768SOL    HW118203   1.360   6.040   4.171
 5768SOL    HW218204   1.312   6.067   4.017
 5769SOL     OW18205   2.510   5.519   4.281
 5769SOL    HW118206   2.595   5.490   4.325
 5769SOL    HW218207   2.476   5.601   4.328
 5770SOL     OW18208   6.436   6.018   6.345
 5770SOL    HW118209   6.363   5.978   6.401
 5770SOL    HW218210   6.473   6.098   6.390
 5771SOL     OW18211   1.178   0.083   4.270
 5771SOL    HW118212   1.206   0.017   4.201
 5771SOL    HW218213   1.237   0.075   4.350
 5772SOL     OW18214   5.394   1.123   2.322
 5772SOL    HW118215   5.318   1.125   2.257
 5772SOL    HW218216   5.471   1.176   2.286
 5773SOL     OW18217   3.933   0.330   3.483
 5773SOL    HW118218   3.917   0.381   3.399
 5773SOL    HW218219   3.901   0.384   3.561
 5774SOL     OW18220   3.053   6.209   4.072
 5774SOL    HW118221   3.053   6.253   3.983
 5774SOL    HW218222   3.092   6.271   4.140
 5775SOL     OW18223   1.705   0.810   2.493
 5775SOL    HW118224   1.698   0.841   2.588
 5775SOL    HW218225   1.798   0.776   2.476
 5776SOL     OW18226   0.079   0.576   4.155
 5776SOL    HW118227   0.125   0.488   4.166
 5776SOL    HW218228   7.017   0.575   4.203
 5777SOL     OW18229   6.723   0.502   4.895
 5777SOL    HW118230   6.628   0.520   4.920
 5777SOL    HW218231   6.778   0.491   4.978
 5778SOL     OW18232   1.524   0.612   1.050
 5778SOL    HW118233   1.622   0.618   1.030
 5778SOL    HW218234   1.472   0.654   0.977
 5779SOL     OW18235   4.128   2.660   0.612
 5779SOL    HW118236   4.039   2.663   0.567
 5779SOL    HW218237   4.129   2.726   0.687
 5780SOL     OW18238   6.295   5.853   4.190
 5780SOL    HW118239   6.316   5.767   4.144
 5780SOL    HW218240   6.355   5.864   4.270
 5781SOL     OW18241   6.629   4.914   4.457
 5781SOL    HW118242   6.569   4.949   4.529
 5781SOL    HW218243   6.641   4.816   4.469
 5782SOL     OW18244   1.680   1.193   0.227
 5782SOL    HW118245   1.723   1.145   0.151
 5782SOL    HW218246   1.747   1.250   0.274
 5783SOL     OW18247   1.379   0.436   1.672
 5783SOL    HW118248   1.376   0.357   1.733
 5783SOL    HW218249   1.295   0.490   1.684
 5784SOL     OW18250   6.593   5.765   6.422
 5784SOL    HW118251   6.569   5.772   6.326
 5784SOL    HW218252   6.510   5.769   6.478
 5785SOL     OW18253   2.597   1.467   0.614
 5785SOL    HW118254   2.525   1.422   0.561
 5785SOL    HW218255   2.680   1.471   0.559
 5786SOL     OW18256   1.026   3.684   0.458
 5786SOL    HW118257   1.027   3.598   0.510
 5786SOL    HW218258   0.996   3.665   0.364
 5787SOL     OW18259   3.587   2.008   4.947
 5787SOL    HW118260   3.597   2.012   4.848
 5787SOL    HW218261   3.506   2.060   4.975
 5788SOL     OW18262   3.141   1.357   0.988
 5788SOL    HW118263   3.057   1.374   0.937
 5788SOL    HW218264   3.119   1.319   1.078
 5789SOL     OW18265   3.139   4.686   6.508
 5789SOL    HW118266   3.128   4.645   6.418
 5789SOL    HW218267   3.051   4.683   6.556
 5790SOL     OW18268   1.052   4.818   4.695
 5790SOL    HW118269   1.152   4.819   4.701
 5790SOL    HW218270   1.022   4.731   4.657
 5791SOL     OW18271   3.149   1.269   2.501
 5791SOL    HW118272   3.191   1.306   2.583
 5791SOL    HW218273   3.073   1.328   2.472
 5792SOL     OW18274   6.133   3.181   2.475
 5792SOL    HW118275   6.190   3.111   2.518
 5792SOL    HW218276   6.140   3.172   2.375
 5793SOL     OW18277   4.718   0.900   3.738
 5793SOL    HW118278   4.655   0.977   3.747
 5793SOL    HW218279   4.767   0.908   3.651
 5794SOL     OW18280   2.511   0.953   6.802
 5794SOL    HW118281   2.435   1.011   6.832
 5794SOL    HW218282   2.502   0.863   6.844
 5795SOL     OW18283   6.484   0.105   6.723
 5795SOL    HW118284   6.496   0.020   6.671
 5795SOL    HW218285   6.393   0.108   6.763
 5796SOL     OW18286   4.901   1.445   6.131
 5796SOL    HW118287   4.931   1.353   6.108
 5796SOL    HW218288   4.980   1.499   6.163
 5797SOL     OW18289   4.950   2.439   6.963
 5797SOL    HW118290   4.874   2.502   6.952
 5797SOL    HW218291   4.950   2.402   0.030
 5798SOL     OW18292   0.964   5.177   4.987
 5798SOL    HW118293   0.929   5.110   4.922
 5798SOL    HW218294   1.063   5.183   4.980
 5799SOL     OW18295   0.301   0.536   3.796
 5799SOL    HW118296   0.331   0.460   3.738
 5799SOL    HW218297   0.217   0.510   3.843
 5800SOL     OW18298   6.475   6.436   2.340
 5800SOL    HW118299   6.420   6.380   2.402
 5800SOL    HW218300   6.540   6.378   2.291
 5801SOL     OW18301   1.594   2.388   3.194
 5801SOL    HW118302   1.568   2.305   3.244
 5801SOL    HW218303   1.693   2.400   3.200
 5802SOL     OW18304   0.618   3.944   2.219
 5802SOL    HW118305   0.637   4.016   2.286
 5802SOL    HW218306   0.525   3.910   2.233
 5803SOL     OW18307   2.468   5.415   1.635
 5803SOL    HW118308   2.482   5.444   1.730
 5803SOL    HW218309   2.485   5.492   1.574
 5804SOL     OW18310   0.599   5.826   3.805
 5804SOL    HW118311   0.588   5.878   3.890
 5804SOL    HW218312   0.597   5.888   3.727
 5805SOL     OW18313   2.083   3.282   0.328
 5805SOL    HW118314   2.010   3.253   0.266
 5805SOL    HW218315   2.154   3.212   0.330
 5806SOL     OW18316   6.472   5.241   5.035
 5806SOL    HW118317   6.571   5.230   5.023
 5806SOL    HW218318   6.434   5.285   4.954
 5807SOL     OW18319   0.902   3.673   1.198
 5807SOL    HW118320   0.964   3.659   1.120
 5807SOL    HW218321   0.949   3.648   1.283
 5808SOL     OW18322   6.631   5.594   4.621
 5808SOL    HW118323   6.622   5.500   4.653
 5808SOL    HW218324   6.628   5.656   4.700
 5809SOL     OW18325   5.930   2.061   4.522
 5809SOL    HW118326   5.993   2.015   4.584
 5809SOL    HW218327   5.952   2.037   4.427
 5810SOL     OW18328   4.108   1.427   4.838
 5810SOL    HW118329   4.174   1.387   4.902
 5810SOL    HW218330   4.146   1.423   4.745
 5811SOL     OW18331   3.141   0.816   5.314
 5811SOL    HW118332   3.189   0.902   5.332
 5811SOL    HW218333   3.185   0.767   5.239
 5812SOL     OW18334   6.053   3.138   4.654
 5812SOL    HW118335   6.100   3.081   4.722
 5812SOL    HW218336   6.052   3.233   4.685
 5813SOL     OW18337   1.873   1.564   0.763
 5813SOL    HW118338   1.972   1.552   0.758
 5813SOL    HW218339   1.835   1.562   0.670
 5814SOL     OW18340   6.502   4.233   2.373
 5814SOL    HW118341   6.416   4.266   2.334
 5814SOL    HW218342   6.577   4.255   2.311
 5815SOL     OW18343   4.043   1.861   4.865
 5815SOL    HW118344   4.050   1.826   4.959
 5815SOL    HW218345   3.971   1.930   4.861
 5816SOL     OW18346   4.916   5.054   0.090
 5816SOL    HW118347   4.817   5.046   0.095
 5816SOL    HW218348   4.948   5.020   0.001
 5817SOL     OW18349   5.920   3.858   5.685
 5817SOL    HW118350   5.891   3.899   5.599
 5817SOL    HW218351   5.951   3.764   5.669
 5818SOL     OW18352   0.025   5.677   5.220
 5818SOL    HW118353   0.089   5.665   5.143
 5818SOL    HW218354   6.997   5.760   5.205
 5819SOL     OW18355   3.225   6.873   6.602
 5819SOL    HW118356   3.254   6.811   6.675
 5819SOL    HW218357   3.296   6.941   6.585
 5820SOL     OW18358   4.585   5.487   3.498
 5820SOL    HW118359   4.537   5.506   3.412
 5820SOL    HW218360   4.518   5.466   3.569
 5821SOL     OW18361   7.025   6.923   1.313
 5821SOL    HW118362   0.073   6.966   1.261
 5821SOL    HW218363   0.038   6.870   1.388
 5822SOL     OW18364   1.590   2.512   1.253
 5822SOL    HW118365   1.491   2.505   1.241
 5822SOL    HW218366   1.633   2.530   1.164
 5823SOL     OW18367   2.112   0.527   5.244
 5823SOL    HW118368   2.128   0.626   5.241
 5823SOL    HW218369   2.022   0.507   5.206
 5824SOL     OW18370   6.993   5.712   2.209
 5824SOL    HW118371   0.040   5.772   2.243
 5824SOL    HW218372   6.991   5.716   2.110
 5825SOL     OW18373   0.033   1.743   5.311
 5825SOL    HW118374   7.016   1.715   5.398
 5825SOL    HW218375   0.098   1.673   5.282
 5826SOL     OW18376   6.929   4.877   6.140
 5826SOL    HW118377   6.842   4.925   6.129
 5826SOL    HW218378   6.989   4.899   6.063
 5827SOL     OW18379   2.173   3.858   4.844
 5827SOL    HW118380   2.103   3.839   4.776
 5827SOL    HW218381   2.233   3.931   4.812
 5828SOL     OW18382   6.304   1.499   1.752
 5828SOL    HW118383   6.339   1.587   1.785
 5828SOL    HW218384   6.228   1.470   1.810
 5829SOL     OW18385   0.930   0.549   3.236
 5829SOL    HW118386   1.012   0.567   3.181
 5829SOL    HW218387   0.908   0.631   3.289
 5830SOL     OW18388   5.035   6.602   5.813
 5830SOL    HW118389   5.041   6.701   5.807
 5830SOL    HW218390   5.032   6.573   5.908
 5831SOL     OW18391   1.308   1.432   5.459
 5831SOL    HW118392   1.251   1.411   5.539
 5831SOL    HW218393   1.273   1.383   5.379
 5832SOL     OW18394   2.531   4.672   6.839
 5832SOL    HW118395   2.627   4.654   6.856
 5832SOL    HW218396   2.482   4.585   6.828
 5833SOL     OW18397   3.718   3.783   5.014
 5833SOL    HW118398   3.660   3.865   5.016
 5833SOL    HW218399   3.767   3.774   5.100
 5834SOL     OW18400   7.005   2.842   0.677
 5834SOL    HW118401   7.014   2.765   0.614
 5834SOL    HW218402   0.067   2.858   0.723
 5835SOL     OW18403   5.440   2.883   3.210
 5835SOL    HW118404   5.529   2.880   3.164
 5835SOL    HW218405   5.372   2.923   3.149
 5836SOL     OW18406   2.547   6.681   2.033
 5836SOL    HW118407   2.459   6.720   2.008
 5836SOL    HW218408   2.620   6.742   2.002
 5837SOL     OW18409   3.663   4.286   6.517
 5837SOL    HW118410   3.642   4.364   6.576
 5837SOL    HW218411   3.584   4.265   6.460
 5838SOL     OW18412   2.867   1.619   0.661
 5838SOL    HW118413   2.924   1.682   0.608
 5838SOL    HW218414   2.797   1.671   0.711
 5839SOL     OW18415   0.537   2.099   2.352
 5839SOL    HW118416   0.598   2.088   2.273
 5839SOL    HW218417   0.553   2.025   2.417
 5840SOL     OW18418   0.347   5.224   6.477
 5840SOL    HW118419   0.338   5.126   6.458
 5840SOL    HW218420   0.315   5.243   6.570
 5841SOL     OW18421   5.174   2.046   2.330
 5841SOL    HW118422   5.260   2.018   2.286
 5841SOL    HW218423   5.098   2.032   2.266
 5842SOL     OW18424   4.766   2.830   1.478
 5842SOL    HW118425   4.768   2.912   1.536
 5842SOL    HW218426   4.744   2.856   1.384
 5843SOL     OW18427   1.381   3.829   3.212
 5843SOL    HW118428   1.355   3.825   3.116
 5843SOL    HW218429   1.312   3.879   3.264
 5844SOL     OW18430   1.964   6.056   5.931
 5844SOL    HW118431   2.009   6.103   5.856
 5844SOL    HW218432   2.024   5.986   5.969
 5845SOL     OW18433   0.682   0.272   2.795
 5845SOL    HW118434   0.707   0.244   2.888
 5845SOL    HW218435   0.697   0.370   2.784
 5846SOL     OW18436   6.517   2.877   5.017
 5846SOL    HW118437   6.509   2.890   4.918
 5846SOL    HW218438   6.593   2.815   5.036
 5847SOL     OW18439   2.954   2.180   1.595
 5847SOL    HW118440   2.861   2.210   1.574
 5847SOL    HW218441   2.996   2.143   1.512
 5848SOL     OW18442   1.520   6.020   3.273
 5848SOL    HW118443   1.512   6.120   3.277
 5848SOL    HW218444   1.543   5.993   3.180
 5849SOL     OW18445   1.082   0.705   5.872
 5849SOL    HW118446   1.032   0.714   5.957
 5849SOL    HW218447   1.094   0.796   5.830
 5850SOL     OW18448   6.851   3.566   1.876
 5850SOL    HW118449   6.926   3.556   1.941
 5850SOL    HW218450   6.888   3.587   1.785
 5851SOL     OW18451   4.862   3.767   3.012
 5851SOL    HW118452   4.851   3.773   2.913
 5851SOL    HW218453   4.920   3.689   3.035
 5852SOL     OW18454   6.219   6.080   3.343
 5852SOL    HW118455   6.208   6.116   3.250
 5852SOL    HW218456   6.209   5.980   3.341
 5853SOL     OW18457   3.649   5.335   4.703
 5853SOL    HW118458   3.554   5.336   4.733
 5853SOL    HW218459   3.699   5.261   4.749
 5854SOL     OW18460   4.860   4.298   6.119
 5854SOL    HW118461   4.870   4.372   6.186
 5854SOL    HW218462   4.879   4.333   6.027
 5855SOL     OW18463   0.702   1.863   4.810
 5855SOL    HW118464   0.616   1.896   4.770
 5855SOL    HW218465   0.681   1.810   4.893
 5856SOL     OW18466   2.085   5.697   3.886
 5856SOL    HW118467   2.051   5.671   3.976
 5856SOL    HW218468   2.068   5.795   3.870
 5857SOL     OW18469   6.431   2.163   6.271
 5857SOL    HW118470   6.424   2.064   6.256
 5857SOL    HW218471   6.527   2.191   6.267
 5858SOL     OW18472   2.903   1.890   2.354
 5858SOL    HW118473   2.843   1.952   2.302
 5858SOL    HW218474   2.998   1.910   2.333
 5859SOL     OW18475   5.870   6.299   1.646
 5859SOL    HW118476   5.924   6.227   1.603
 5859SOL    HW218477   5.865   6.282   1.745
 5860SOL     OW18478   0.588   3.758   1.758
 5860SOL    HW118479   0.564   3.730   1.850
 5860SOL    HW218480   0.624   3.680   1.707
 5861SOL     OW18481   4.295   1.687   4.545
 5861SOL    HW118482   4.231   1.610   4.540
 5861SOL    HW218483   4.302   1.718   4.639
 5862SOL     OW18484   6.378   5.515   1.418
 5862SOL    HW118485   6.440   5.450   1.375
 5862SOL    HW218486   6.389   5.605   1.376
 5863SOL     OW18487   3.341   2.006   5.429
 5863SOL    HW118488   3.312   1.975   5.339
 5863SOL    HW218489   3.282   2.081   5.459
 5864SOL     OW18490   4.025   3.510   2.282
 5864SOL    HW118491   3.993   3.604   2.270
 5864SOL    HW218492   4.028   3.488   2.379
 5865SOL     OW18493   6.085   0.385   4.456
 5865SOL    HW118494   6.125   0.308   4.507
 5865SOL    HW218495   5.986   0.388   4.473
 5866SOL     OW18496   4.004   4.606   6.997
 5866SOL    HW118497   4.099   4.584   7.019
 5866SOL    HW218498   4.000   4.662   6.915
 5867SOL     OW18499   2.080   3.406   0.561
 5867SOL    HW118500   2.090   3.355   0.476
 5867SOL    HW218501   2.040   3.347   0.631
 5868SOL     OW18502   0.906   1.704   5.519
 5868SOL    HW118503   0.949   1.690   5.430
 5868SOL    HW218504   0.903   1.617   5.568
 5869SOL     OW18505   1.765   6.228   3.610
 5869SOL    HW118506   1.710   6.149   3.581
 5869SOL    HW218507   1.810   6.206   3.697
 5870SOL     OW18508   4.730   6.012   4.598
 5870SOL    HW118509   4.658   5.951   4.564
 5870SOL    HW218510   4.688   6.091   4.643
 5871SOL     OW18511   3.798   2.852   1.226
 5871SOL    HW118512   3.791   2.752   1.225
 5871SOL    HW218513   3.706   2.891   1.237
 5872SOL     OW18514   3.959   5.859   1.168
 5872SOL    HW118515   3.900   5.820   1.097
 5872SOL    HW218516   3.947   5.958   1.171
 5873SOL     OW18517   3.062   1.662   1.428
 5873SOL    HW118518   3.062   1.675   1.527
 5873SOL    HW218519   3.147   1.699   1.390
 5874SOL     OW18520   3.205   3.695   6.637
 5874SOL    HW118521   3.161   3.607   6.617
 5874SOL    HW218522   3.301   3.691   6.609
 5875SOL     OW18523   4.443   0.858   6.755
 5875SOL    HW118524   4.463   0.823   6.846
 5875SOL    HW218525   4.384   0.794   6.706
 5876SOL     OW18526   3.713   3.572   0.671
 5876SOL    HW118527   3.755   3.624   0.597
 5876SOL    HW218528   3.622   3.609   0.690
 5877SOL     OW18529   0.287   0.677   1.101
 5877SOL    HW118530   0.376   0.662   1.144
 5877SOL    HW218531   0.216   0.679   1.171
 5878SOL     OW18532   5.998   5.216   4.115
 5878SOL    HW118533   6.014   5.200   4.212
 5878SOL    HW218534   6.013   5.131   4.065
 5879SOL     OW18535   1.797   3.864   6.724
 5879SOL    HW118536   1.770   3.958   6.700
 5879SOL    HW218537   1.880   3.867   6.779
 5880SOL     OW18538   5.142   4.773   6.713
 5880SOL    HW118539   5.183   4.682   6.710
 5880SOL    HW218540   5.123   4.805   6.621
 5881SOL     OW18541   0.882   6.746   2.354
 5881SOL    HW118542   0.911   6.666   2.301
 5881SOL    HW218543   0.907   6.830   2.306
 5882SOL     OW18544   0.039   5.496   6.759
 5882SOL    HW118545   6.993   5.553   6.799
 5882SOL    HW218546   0.015   5.473   6.665
 5883SOL     OW18547   0.167   1.680   6.659
 5883SOL    HW118548   0.239   1.618   6.688
 5883SOL    HW218549   0.207   1.757   6.609
 5884SOL     OW18550   4.961   1.059   4.019
 5884SOL    HW118551   4.940   1.141   4.072
 5884SOL    HW218552   4.876   1.022   3.981
 5885SOL     OW18553   0.117   5.969   2.245
 5885SOL    HW118554   0.149   5.963   2.151
 5885SOL    HW218555   0.195   5.964   2.308
 5886SOL     OW18556   0.604   2.243   3.778
 5886SOL    HW118557   0.607   2.315   3.709
 5886SOL    HW218558   0.677   2.256   3.844
 5887SOL     OW18559   2.370   2.383   1.709
 5887SOL    HW118560   2.436   2.308   1.701
 5887SOL    HW218561   2.402   2.448   1.778
 5888SOL     OW18562   1.866   0.504   1.292
 5888SOL    HW118563   1.779   0.477   1.333
 5888SOL    HW218564   1.878   0.603   1.301
 5889SOL     OW18565   7.007   1.128   0.499
 5889SOL    HW118566   6.967   1.073   0.572
 5889SOL    HW218567   0.018   1.067   0.428
 5890SOL     OW18568   2.034   0.982   3.046
 5890SOL    HW118569   2.099   0.996   3.121
 5890SOL    HW218570   1.976   1.063   3.038
 5891SOL     OW18571   3.290   3.785   0.128
 5891SOL    HW118572   3.321   3.799   0.034
 5891SOL    HW218573   3.281   3.687   0.146
 5892SOL     OW18574   1.259   5.066   2.162
 5892SOL    HW118575   1.190   5.116   2.110
 5892SOL    HW218576   1.238   4.969   2.163
 5893SOL     OW18577   1.988   4.141   3.256
 5893SOL    HW118578   1.929   4.159   3.178
 5893SOL    HW218579   1.945   4.073   3.316
 5894SOL     OW18580   0.531   5.747   4.270
 5894SOL    HW118581   0.506   5.674   4.335
 5894SOL    HW218582   0.491   5.833   4.301
 5895SOL     OW18583   5.150   3.376   3.680
 5895SOL    HW118584   5.194   3.447   3.735
 5895SOL    HW218585   5.051   3.379   3.695
 5896SOL     OW18586   3.831   1.350   1.551
 5896SOL    HW118587   3.783   1.311   1.472
 5896SOL    HW218588   3.820   1.290   1.630
 5897SOL     OW18589   4.014   0.299   1.868
 5897SOL    HW118590   3.965   0.212   1.875
 5897SOL    HW218591   3.960   0.364   1.815
 5898SOL     OW18592   2.639   0.658   4.938
 5898SOL    HW118593   2.619   0.755   4.955
 5898SOL    HW218594   2.671   0.647   4.844
 5899SOL     OW18595   6.544   5.253   0.064
 5899SOL    HW118596   6.541   5.353   0.060
 5899SOL    HW218597   6.470   5.220   0.122
 5900SOL     OW18598   6.248   4.887   3.721
 5900SOL    HW118599   6.247   4.967   3.781
 5900SOL    HW218600   6.318   4.900   3.650
 5901SOL     OW18601   3.228   0.505   0.574
 5901SOL    HW118602   3.225   0.578   0.642
 5901SOL    HW218603   3.316   0.508   0.525
 5902SOL     OW18604   6.033   3.006   5.728
 5902SOL    HW118605   6.075   3.095   5.709
 5902SOL    HW218606   6.008   2.962   5.642
 5903SOL     OW18607   4.841   3.847   6.384
 5903SOL    HW118608   4.776   3.801   6.324
 5903SOL    HW218609   4.934   3.831   6.350
 5904SOL     OW18610   1.313   5.078   0.752
 5904SOL    HW118611   1.312   4.994   0.698
 5904SOL    HW218612   1.318   5.055   0.849
 5905SOL     OW18613   6.190   0.608   4.344
 5905SOL    HW118614   6.185   0.510   4.365
 5905SOL    HW218615   6.158   0.660   4.422
 5906SOL     OW18616   3.968   1.976   3.596
 5906SOL    HW118617   3.936   1.881   3.595
 5906SOL    HW218618   4.057   1.981   3.551
 5907SOL     OW18619   0.807   5.875   0.306
 5907SOL    HW118620   0.741   5.815   0.261
 5907SOL    HW218621   0.880   5.819   0.346
 5908SOL     OW18622   6.658   2.947   0.421
 5908SOL    HW118623   6.751   2.969   0.391
 5908SOL    HW218624   6.647   2.847   0.426
 5909SOL     OW18625   6.768   5.118   0.236
 5909SOL    HW118626   6.767   5.100   0.335
 5909SOL    HW218627   6.678   5.098   0.198
 5910SOL     OW18628   0.265   4.515   2.501
 5910SOL    HW118629   0.315   4.435   2.532
 5910SOL    HW218630   0.249   4.509   2.403
 5911SOL     OW18631   6.545   4.887   6.249
 5911SOL    HW118632   6.481   4.961   6.270
 5911SOL    HW218633   6.534   4.814   6.317
 5912SOL     OW18634   5.702   3.283   6.510
 5912SOL    HW118635   5.762   3.278   6.430
 5912SOL    HW218636   5.753   3.260   6.592
 5913SOL     OW18637   4.119   3.512   6.635
 5913SOL    HW118638   4.103   3.602   6.676
 5913SOL    HW218639   4.154   3.450   6.704
 5914SOL     OW18640   2.166   5.298   6.422
 5914SOL    HW118641   2.086   5.348   6.388
 5914SOL    HW218642   2.243   5.311   6.359
 5915SOL     OW18643   5.641   4.903   1.471
 5915SOL    HW118644   5.622   4.809   1.497
 5915SOL    HW218645   5.615   4.965   1.545
 5916SOL     OW18646   3.843   5.433   5.210
 5916SOL    HW118647   3.914   5.381   5.257
 5916SOL    HW218648   3.754   5.411   5.250
 5917SOL     OW18649   3.819   3.251   3.868
 5917SOL    HW118650   3.722   3.229   3.866
 5917SOL    HW218651   3.833   3.344   3.835
 5918SOL     OW18652   1.943   3.229   5.595
 5918SOL    HW118653   1.928   3.138   5.635
 5918SOL    HW218654   2.009   3.222   5.520
 5919SOL     OW18655   4.423   3.002   1.275
 5919SOL    HW118656   4.336   2.956   1.257
 5919SOL    HW218657   4.414   3.059   1.357
 5920SOL     OW18658   3.593   0.444   6.971
 5920SOL    HW118659   3.635   0.487   6.891
 5920SOL    HW218660   3.533   0.370   6.942
 5921SOL     OW18661   4.121   5.509   5.719
 5921SOL    HW118662   4.195   5.459   5.672
 5921SOL    HW218663   4.161   5.580   5.776
 5922SOL     OW18664   6.603   5.493   2.996
 5922SOL    HW118665   6.601   5.592   2.988
 5922SOL    HW218666   6.527   5.462   3.053
 5923SOL     OW18667   5.333   0.993   1.385
 5923SOL    HW118668   5.332   1.072   1.324
 5923SOL    HW218669   5.273   1.010   1.463
 5924SOL     OW18670   0.115   1.284   3.878
 5924SOL    HW118671   0.208   1.319   3.889
 5924SOL    HW218672   0.092   1.279   3.781
 5925SOL     OW18673   3.721   5.451   1.664
 5925SOL    HW118674   3.712   5.352   1.651
 5925SOL    HW218675   3.636   5.486   1.705
 5926SOL     OW18676   3.851   5.363   1.352
 5926SOL    HW118677   3.925   5.383   1.416
 5926SOL    HW218678   3.808   5.449   1.324
 5927SOL     OW18679   1.170   4.148   3.038
 5927SOL    HW118680   1.262   4.165   3.003
 5927SOL    HW218681   1.117   4.233   3.034
 5928SOL     OW18682   3.431   0.035   0.584
 5928SOL    HW118683   3.485   0.095   0.525
 5928SOL    HW218684   3.445   0.060   0.680
 5929SOL     OW18685   0.541   6.451   6.053
 5929SOL    HW118686   0.488   6.434   6.136
 5929SOL    HW218687   0.580   6.365   6.020
 5930SOL     OW18688   6.781   2.377   3.360
 5930SOL    HW118689   6.791   2.444   3.287
 5930SOL    HW218690   6.830   2.407   3.441
 5931SOL     OW18691   0.104   5.207   3.791
 5931SOL    HW118692   0.103   5.121   3.843
 5931SOL    HW218693   0.029   5.265   3.823
 5932SOL     OW18694   2.136   7.009   0.844
 5932SOL    HW118695   2.068   0.055   0.831
 5932SOL    HW218696   2.171   6.979   0.755
 5933SOL     OW18697   0.014   6.239   3.638
 5933SOL    HW118698   0.108   6.214   3.661
 5933SOL    HW218699   0.014   6.326   3.589
 5934SOL     OW18700   4.083   3.480   4.467
 5934SOL    HW118701   4.023   3.481   4.547
 5934SOL    HW218702   4.075   3.392   4.421
 5935SOL     OW18703   4.728   4.073   6.070
 5935SOL    HW118704   4.782   4.151   6.102
 5935SOL    HW218705   4.782   4.021   6.003
 5936SOL     OW18706   4.071   3.490   0.608
 5936SOL    HW118707   4.041   3.473   0.514
 5936SOL    HW218708   3.991   3.491   0.669
 5937SOL     OW18709   0.744   4.839   2.990
 5937SOL    HW118710   0.835   4.814   3.023
 5937SOL    HW218711   0.748   4.856   2.891
 5938SOL     OW18712   0.699   5.118   4.171
 5938SOL    HW118713   0.634   5.089   4.241
 5938SOL    HW218714   0.673   5.079   4.083
 5939SOL     OW18715   2.893   6.566   3.146
 5939SOL    HW118716   2.956   6.564   3.069
 5939SOL    HW218717   2.935   6.616   3.222
 5940SOL     OW18718   4.564   5.671   0.831
 5940SOL    HW118719   4.502   5.658   0.754
 5940SOL    HW218720   4.577   5.769   0.846
 5941SOL     OW18721   5.661   3.291   1.817
 5941SOL    HW118722   5.586   3.334   1.767
 5941SOL    HW218723   5.748   3.325   1.782
 5942SOL     OW18724   5.349   2.752   0.367
 5942SOL    HW118725   5.260   2.714   0.340
 5942SOL    HW218726   5.401   2.774   0.284
 5943SOL     OW18727   3.546   5.470   0.689
 5943SOL    HW118728   3.497   5.483   0.603
 5943SOL    HW218729   3.639   5.504   0.680
 5944SOL     OW18730   6.612   2.815   1.495
 5944SOL    HW118731   6.666   2.731   1.495
 5944SOL    HW218732   6.600   2.847   1.401
 5945SOL     OW18733   6.187   5.598   5.228
 5945SOL    HW118734   6.181   5.517   5.287
 5945SOL    HW218735   6.246   5.666   5.272
 5946SOL     OW18736   3.509   3.560   5.839
 5946SOL    HW118737   3.599   3.558   5.883
 5946SOL    HW218738   3.497   3.476   5.786
 5947SOL     OW18739   3.551   3.791   1.803
 5947SOL    HW118740   3.626   3.857   1.798
 5947SOL    HW218741   3.553   3.746   1.892
 5948SOL     OW18742   4.218   5.131   3.189
 5948SOL    HW118743   4.224   5.108   3.092
 5948SOL    HW218744   4.281   5.074   3.241
 5949SOL     OW18745   4.913   3.465   1.878
 5949SOL    HW118746   4.873   3.556   1.870
 5949SOL    HW218747   5.010   3.469   1.853
 5950SOL     OW18748   4.704   2.358   5.648
 5950SOL    HW118749   4.650   2.430   5.607
 5950SOL    HW218750   4.715   2.282   5.583
 5951SOL     OW18751   0.813   5.672   4.314
 5951SOL    HW118752   0.714   5.680   4.302
 5951SOL    HW218753   0.843   5.741   4.380
 5952SOL     OW18754   5.394   4.648   4.328
 5952SOL    HW118755   5.410   4.705   4.246
 5952SOL    HW218756   5.457   4.570   4.326
 5953SOL     OW18757   6.321   2.796   5.261
 5953SOL    HW118758   6.239   2.852   5.268
 5953SOL    HW218759   6.316   2.740   5.178
 5954SOL     OW18760   0.923   4.245   5.424
 5954SOL    HW118761   0.953   4.324   5.477
 5954SOL    HW218762   0.873   4.182   5.484
 5955SOL     OW18763   5.291   5.900   2.832
 5955SOL    HW118764   5.358   5.827   2.847
 5955SOL    HW218765   5.277   5.950   2.918
 5956SOL     OW18766   4.233   0.910   6.100
 5956SOL    HW118767   4.285   0.896   6.015
 5956SOL    HW218768   4.205   1.005   6.107
 5957SOL     OW18769   3.775   0.797   5.510
 5957SOL    HW118770   3.836   0.718   5.514
 5957SOL    HW218771   3.792   0.848   5.426
 5958SOL     OW18772   5.931   6.881   2.812
 5958SOL    HW118773   5.999   6.824   2.858
 5958SOL    HW218774   5.977   6.951   2.758
 5959SOL     OW18775   4.107   2.326   5.600
 5959SOL    HW118776   4.021   2.366   5.571
 5959SOL    HW218777   4.160   2.393   5.653
 5960SOL     OW18778   3.629   5.507   4.476
 5960SOL    HW118779   3.623   5.424   4.420
 5960SOL    HW218780   3.645   5.481   4.571
 5961SOL     OW18781   5.319   1.254   3.195
 5961SOL    HW118782   5.234   1.304   3.207
 5961SOL    HW218783   5.370   1.293   3.118
 5962SOL     OW18784   5.036   6.180   0.986
 5962SOL    HW118785   4.966   6.130   0.935
 5962SOL    HW218786   5.015   6.176   1.084
 5963SOL     OW18787   3.407   3.532   5.387
 5963SOL    HW118788   3.462   3.450   5.406
 5963SOL    HW218789   3.466   3.604   5.350
 5964SOL     OW18790   0.277   5.542   5.668
 5964SOL    HW118791   0.322   5.630   5.686
 5964SOL    HW218792   0.333   5.468   5.706
 5965SOL     OW18793   1.193   2.200   6.762
 5965SOL    HW118794   1.150   2.165   6.844
 5965SOL    HW218795   1.188   2.300   6.762
 5966SOL     OW18796   2.463   5.867   5.553
 5966SOL    HW118797   2.436   5.801   5.483
 5966SOL    HW218798   2.500   5.949   5.509
 5967SOL     OW18799   4.464   6.583   7.016
 5967SOL    HW118800   4.418   6.550   6.934
 5967SOL    HW218801   4.459   6.514   0.062
 5968SOL     OW18802   4.663   1.065   1.432
 5968SOL    HW118803   4.713   1.022   1.357
 5968SOL    HW218804   4.584   1.009   1.456
 5969SOL     OW18805   0.165   0.191   6.711
 5969SOL    HW118806   0.169   0.252   6.791
 5969SOL    HW218807   0.088   0.128   6.721
 5970SOL     OW18808   0.570   4.597   2.983
 5970SOL    HW118809   0.567   4.627   2.888
 5970SOL    HW218810   0.649   4.637   3.028
 5971SOL     OW18811   1.015   0.946   2.195
 5971SOL    HW118812   1.001   0.903   2.284
 5971SOL    HW218813   0.931   0.991   2.166
 5972SOL     OW18814   5.548   5.602   6.997
 5972SOL    HW118815   5.460   5.563   7.024
 5972SOL    HW218816   5.603   5.532   6.952
 5973SOL     OW18817   2.058   3.041   2.198
 5973SOL    HW118818   2.086   2.981   2.273
 5973SOL    HW218819   1.976   3.005   2.155
 5974SOL     OW18820   5.595   4.999   6.344
 5974SOL    HW118821   5.530   5.069   6.316
 5974SOL    HW218822   5.550   4.932   6.403
 5975SOL     OW18823   3.624   1.422   0.588
 5975SOL    HW118824   3.527   1.410   0.609
 5975SOL    HW218825   3.678   1.354   0.637
 5976SOL     OW18826   3.009   3.267   5.209
 5976SOL    HW118827   2.950   3.323   5.151
 5976SOL    HW218828   3.103   3.303   5.205
 5977SOL     OW18829   2.776   5.686   0.009
 5977SOL    HW118830   2.701   5.733   6.987
 5977SOL    HW218831   2.798   5.602   6.986
 5978SOL     OW18832   5.438   5.688   2.864
 5978SOL    HW118833   5.535   5.713   2.860
 5978SOL    HW218834   5.429   5.604   2.918
 5979SOL     OW18835   5.637   0.838   2.775
 5979SOL    HW118836   5.664   0.864   2.683
 5979SOL    HW218837   5.709   0.783   2.817
 5980SOL     OW18838   4.282   3.756   0.785
 5980SOL    HW118839   4.333   3.679   0.747
 5980SOL    HW218840   4.344   3.815   0.836
 5981SOL     OW18841   5.870   1.655   1.334
 5981SOL    HW118842   5.817   1.623   1.412
 5981SOL    HW218843   5.965   1.666   1.361
 5982SOL     OW18844   6.605   3.264   2.157
 5982SOL    HW118845   6.586   3.303   2.068
 5982SOL    HW218846   6.562   3.320   2.228
 5983SOL     OW18847   1.361   1.452   4.535
 5983SOL    HW118848   1.336   1.386   4.465
 5983SOL    HW218849   1.391   1.537   4.492
 5984SOL     OW18850   6.636   5.740   4.852
 5984SOL    HW118851   6.587   5.692   4.925
 5984SOL    HW218852   6.612   5.837   4.853
 5985SOL     OW18853   0.251   3.111   4.096
 5985SOL    HW118854   0.255   3.173   4.017
 5985SOL    HW218855   0.327   3.131   4.157
 5986SOL     OW18856   3.257   3.377   5.193
 5986SOL    HW118857   3.310   3.420   5.266
 5986SOL    HW218858   3.317   3.356   5.116
 5987SOL     OW18859   4.124   0.289   4.424
 5987SOL    HW118860   4.033   0.294   4.384
 5987SOL    HW218861   4.153   0.193   4.429
 5988SOL     OW18862   5.054   6.928   5.531
 5988SOL    HW118863   4.981   6.961   5.589
 5988SOL    HW218864   5.052   6.976   5.443
 5989SOL     OW18865   3.092   6.077   0.100
 5989SOL    HW118866   3.051   6.031   0.179
 5989SOL    HW218867   3.022   6.132   0.054
 5990SOL     OW18868   3.842   4.317   0.277
 5990SOL    HW118869   3.770   4.248   0.273
 5990SOL    HW218870   3.817   4.394   0.218
 5991SOL     OW18871   3.375   5.253   6.656
 5991SOL    HW118872   3.471   5.223   6.654
 5991SOL    HW218873   3.322   5.197   6.592
 5992SOL     OW18874   3.454   0.272   3.076
 5992SOL    HW118875   3.409   0.349   3.031
 5992SOL    HW218876   3.397   0.191   3.068
 5993SOL     OW18877   2.816   6.198   6.560
 5993SOL    HW118878   2.893   6.193   6.623
 5993SOL    HW218879   2.844   6.245   6.476
 5994SOL     OW18880   6.221   2.208   2.468
 5994SOL    HW118881   6.226   2.285   2.405
 5994SOL    HW218882   6.298   2.146   2.452
 5995SOL     OW18883   5.467   4.575   3.296
 5995SOL    HW118884   5.433   4.518   3.372
 5995SOL    HW218885   5.546   4.530   3.254
 5996SOL     OW18886   1.126   6.555   0.629
 5996SOL    HW118887   1.076   6.494   0.567
 5996SOL    HW218888   1.067   6.578   0.707
 5997SOL     OW18889   1.039   5.465   2.488
 5997SOL    HW118890   1.034   5.448   2.390
 5997SOL    HW218891   0.956   5.431   2.532
 5998SOL     OW18892   6.034   2.085   2.633
 5998SOL    HW118893   5.941   2.121   2.639
 5998SOL    HW218894   6.083   2.131   2.559
 5999SOL     OW18895   1.842   1.679   2.392
 5999SOL    HW118896   1.772   1.608   2.403
 5999SOL    HW218897   1.813   1.743   2.321
 6000SOL     OW18898   4.378   6.798   1.518
 6000SOL    HW118899   4.409   6.782   1.424
 6000SOL    HW218900   4.288   6.840   1.517
 6001SOL     OW18901   0.392   3.583   6.984
 6001SOL    HW118902   0.388   3.486   6.961
 6001SOL    HW218903   0.319   3.606   0.022
 6002SOL     OW18904   6.094   0.330   1.064
 6002SOL    HW118905   6.141   0.375   1.140
 6002SOL    HW218906   6.122   0.233   1.061
 6003SOL     OW18907   7.002   2.251   3.730
 6003SOL    HW118908   6.987   2.158   3.697
 6003SOL    HW218909   0.031   2.248   3.814
 6004SOL     OW18910   0.797   3.928   2.987
 6004SOL    HW118911   0.814   3.837   3.025
 6004SOL    HW218912   0.789   3.995   3.062
 6005SOL     OW18913   4.670   5.379   4.530
 6005SOL    HW118914   4.673   5.422   4.439
 6005SOL    HW218915   4.703   5.285   4.524
 6006SOL     OW18916   3.261   0.522   6.352
 6006SOL    HW118917   3.324   0.511   6.429
 6006SOL    HW218918   3.214   0.435   6.335
 6007SOL     OW18919   4.918   3.562   5.340
 6007SOL    HW118920   4.856   3.593   5.267
 6007SOL    HW218921   4.880   3.480   5.382
 6008SOL     OW18922   1.840   5.145   5.394
 6008SOL    HW118923   1.751   5.189   5.384
 6008SOL    HW218924   1.854   5.120   5.490
 6009SOL     OW18925   3.503   0.630   4.006
 6009SOL    HW118926   3.545   0.594   4.089
 6009SOL    HW218927   3.407   0.604   4.003
 6010SOL     OW18928   1.752   4.204   3.877
 6010SOL    HW118929   1.812   4.211   3.797
 6010SOL    HW218930   1.741   4.108   3.903
 6011SOL     OW18931   5.278   3.178   2.396
 6011SOL    HW118932   5.196   3.198   2.342
 6011SOL    HW218933   5.253   3.154   2.489
 6012SOL     OW18934   5.525   1.078   0.330
 6012SOL    HW118935   5.559   1.134   0.406
 6012SOL    HW218936   5.562   1.113   0.244
 6013SOL     OW18937   5.369   2.504   3.298
 6013SOL    HW118938   5.414   2.573   3.240
 6013SOL    HW218939   5.427   2.423   3.305
 6014SOL     OW18940   4.261   3.568   1.000
 6014SOL    HW118941   4.224   3.624   0.926
 6014SOL    HW218942   4.357   3.592   1.015
 6015SOL     OW18943   5.461   2.932   4.483
 6015SOL    HW118944   5.409   3.000   4.533
 6015SOL    HW218945   5.559   2.950   4.494
 6016SOL     OW18946   6.069   1.693   6.105
 6016SOL    HW118947   5.998   1.726   6.167
 6016SOL    HW218948   6.080   1.594   6.116
 6017SOL     OW18949   6.877   4.230   2.661
 6017SOL    HW118950   6.889   4.154   2.725
 6017SOL    HW218951   6.920   4.312   2.697
 6018SOL     OW18952   2.868   0.535   6.211
 6018SOL    HW118953   2.928   0.568   6.285
 6018SOL    HW218954   2.787   0.594   6.206
 6019SOL     OW18955   6.585   1.782   4.155
 6019SOL    HW118956   6.502   1.775   4.100
 6019SOL    HW218957   6.665   1.767   4.098
 6020SOL     OW18958   2.001   5.019   0.978
 6020SOL    HW118959   2.028   4.935   1.025
 6020SOL    HW218960   2.031   5.016   0.883
 6021SOL     OW18961   4.528   0.764   2.477
 6021SOL    HW118962   4.518   0.814   2.563
 6021SOL    HW218963   4.509   0.825   2.401
 6022SOL     OW18964   4.324   2.272   3.927
 6022SOL    HW118965   4.261   2.245   4.000
 6022SOL    HW218966   4.323   2.202   3.855
 6023SOL     OW18967   6.642   0.316   2.052
 6023SOL    HW118968   6.686   0.275   2.132
 6023SOL    HW218969   6.630   0.247   1.981
 6024SOL     OW18970   1.074   4.928   3.140
 6024SOL    HW118971   1.020   4.961   3.218
 6024SOL    HW218972   1.086   4.829   3.148
 6025SOL     OW18973   3.626   1.491   2.852
 6025SOL    HW118974   3.571   1.435   2.789
 6025SOL    HW218975   3.717   1.505   2.813
 6026SOL     OW18976   0.238   4.297   5.430
 6026SOL    HW118977   0.235   4.243   5.345
 6026SOL    HW218978   0.283   4.243   5.502
 6027SOL     OW18979   1.600   4.252   6.352
 6027SOL    HW118980   1.575   4.257   6.256
 6027SOL    HW218981   1.541   4.185   6.398
 6028SOL     OW18982   0.652   4.635   6.562
 6028SOL    HW118983   0.642   4.712   6.625
 6028SOL    HW218984   0.742   4.639   6.519
 6029SOL     OW18985   2.391   6.208   5.047
 6029SOL    HW118986   2.327   6.284   5.059
 6029SOL    HW218987   2.407   6.193   4.949
 6030SOL     OW18988   4.149   6.207   2.791
 6030SOL    HW118989   4.129   6.286   2.849
 6030SOL    HW218990   4.069   6.184   2.736
 6031SOL     OW18991   3.598   5.394   2.932
 6031SOL    HW118992   3.567   5.439   2.849
 6031SOL    HW218993   3.519   5.365   2.986
 6032SOL     OW18994   2.700   4.608   3.005
 6032SOL    HW118995   2.701   4.620   3.104
 6032SOL    HW218996   2.789   4.633   2.966
 6033SOL     OW18997   2.784   1.571   2.756
 6033SOL    HW118998   2.878   1.601   2.738
 6033SOL    HW218999   2.741   1.634   2.820
 6034SOL     OW19000   0.900   5.078   4.576
 6034SOL    HW119001   0.866   5.051   4.666
 6034SOL    HW219002   0.998   5.058   4.570
 6035SOL     OW19003   6.761   0.915   2.929
 6035SOL    HW119004   6.777   0.914   3.028
 6035SOL    HW219005   6.848   0.931   2.882
 6036SOL     OW19006   6.513   5.879   4.414
 6036SOL    HW119007   6.486   5.783   4.401
 6036SOL    HW219008   6.484   5.910   4.504
 6037SOL     OW19009   4.690   4.721   6.155
 6037SOL    HW119010   4.775   4.681   6.190
 6037SOL    HW219011   4.666   4.800   6.211
 6038SOL     OW19012   1.596   2.727   6.101
 6038SOL    HW119013   1.689   2.733   6.137
 6038SOL    HW219014   1.598   2.695   6.006
 6039SOL     OW19015   3.150   3.009   2.377
 6039SOL    HW119016   3.058   3.009   2.416
 6039SOL    HW219017   3.217   2.993   2.450
 6040SOL     OW19018   0.693   1.896   6.132
 6040SOL    HW119019   0.636   1.882   6.052
 6040SOL    HW219020   0.777   1.945   6.105
 6041SOL     OW19021   2.332   0.232   5.001
 6041SOL    HW119022   2.356   0.329   5.006
 6041SOL    HW219023   2.237   0.219   5.031
 6042SOL     OW19024   5.602   5.777   1.932
 6042SOL    HW119025   5.557   5.797   2.019
 6042SOL    HW219026   5.699   5.801   1.938
 6043SOL     OW19027   0.957   4.483   5.600
 6043SOL    HW119028   1.051   4.505   5.574
 6043SOL    HW219029   0.896   4.552   5.563
 6044SOL     OW19030   1.265   2.072   1.700
 6044SOL    HW119031   1.286   2.051   1.605
 6044SOL    HW219032   1.187   2.017   1.730
 6045SOL     OW19033   6.705   4.947   1.735
 6045SOL    HW119034   6.791   4.922   1.690
 6045SOL    HW219035   6.720   4.953   1.834
 6046SOL     OW19036   3.973   2.141   7.002
 6046SOL    HW119037   4.030   2.065   0.010
 6046SOL    HW219038   4.024   2.192   6.932
 6047SOL     OW19039   5.445   2.395   2.221
 6047SOL    HW119040   5.353   2.356   2.225
 6047SOL    HW219041   5.501   2.342   2.157
 6048SOL     OW19042   4.809   5.778   4.247
 6048SOL    HW119043   4.739   5.708   4.261
 6048SOL    HW219044   4.767   5.859   4.205
 6049SOL     OW19045   5.806   3.327   6.095
 6049SOL    HW119046   5.793   3.421   6.127
 6049SOL    HW219047   5.894   3.320   6.047
 6050SOL     OW19048   2.984   5.101   4.272
 6050SOL    HW119049   3.068   5.119   4.221
 6050SOL    HW219050   2.906   5.137   4.221
 6051SOL     OW19051   2.735   1.444   4.481
 6051SOL    HW119052   2.718   1.542   4.495
 6051SOL    HW219053   2.684   1.412   4.401
 6052SOL     OW19054   5.937   0.102   0.518
 6052SOL    HW119055   5.844   0.078   0.543
 6052SOL    HW219056   5.939   0.137   0.425
 6053SOL     OW19057   4.091   1.009   6.439
 6053SOL    HW119058   4.044   0.975   6.358
 6053SOL    HW219059   4.023   1.034   6.509
 6054SOL     OW19060   2.569   3.789   0.394
 6054SOL    HW119061   2.571   3.708   0.334
 6054SOL    HW219062   2.478   3.799   0.433
 6055SOL     OW19063   4.758   0.937   5.576
 6055SOL    HW119064   4.813   0.999   5.632
 6055SOL    HW219065   4.813   0.901   5.501
 6056SOL     OW19066   4.666   2.743   4.813
 6056SOL    HW119067   4.613   2.728   4.730
 6056SOL    HW219068   4.742   2.805   4.794
 6057SOL     OW19069   4.952   2.577   4.108
 6057SOL    HW119070   4.985   2.529   4.189
 6057SOL    HW219071   5.027   2.629   4.067
 6058SOL     OW19072   4.951   3.094   1.220
 6058SOL    HW119073   4.862   3.049   1.229
 6058SOL    HW219074   5.018   3.030   1.184
 6059SOL     OW19075   5.406   5.022   5.083
 6059SOL    HW119076   5.330   4.993   5.025
 6059SOL    HW219077   5.429   4.948   5.147
 6060SOL     OW19078   3.115   4.125   6.490
 6060SOL    HW119079   3.073   4.057   6.549
 6060SOL    HW219080   3.062   4.133   6.405
 6061SOL     OW19081   3.721   2.313   1.260
 6061SOL    HW119082   3.708   2.244   1.331
 6061SOL    HW219083   3.682   2.400   1.290
 6062SOL     OW19084   2.408   1.832   5.043
 6062SOL    HW119085   2.443   1.886   5.120
 6062SOL    HW219086   2.316   1.800   5.064
 6063SOL     OW19087   3.929   1.604   6.494
 6063SOL    HW119088   3.958   1.625   6.400
 6063SOL    HW219089   3.850   1.544   6.492
 6064SOL     OW19090   1.909   6.095   1.175
 6064SOL    HW119091   1.989   6.039   1.197
 6064SOL    HW219092   1.889   6.155   1.252
 6065SOL     OW19093   5.644   6.912   2.017
 6065SOL    HW119094   5.738   6.881   2.025
 6065SOL    HW219095   5.604   6.922   2.108
 6066SOL     OW19096   4.984   2.098   5.948
 6066SOL    HW119097   4.896   2.110   5.902
 6066SOL    HW219098   4.969   2.065   6.041
 6067SOL     OW19099   5.317   1.493   5.962
 6067SOL    HW119100   5.270   1.443   5.889
 6067SOL    HW219101   5.250   1.533   6.024
 6068SOL     OW19102   5.716   3.116   5.018
 6068SOL    HW119103   5.803   3.097   4.972
 6068SOL    HW219104   5.652   3.041   4.999
 6069SOL     OW19105   0.032   3.378   4.944
 6069SOL    HW119106   0.052   3.373   4.847
 6069SOL    HW219107   6.965   3.345   4.961
 6070SOL     OW19108   2.326   2.024   0.611
 6070SOL    HW119109   2.361   2.076   0.689
 6070SOL    HW219110   2.378   1.940   0.600
 6071SOL     OW19111   5.786   4.805   4.691
 6071SOL    HW119112   5.814   4.710   4.679
 6071SOL    HW219113   5.803   4.833   4.785
 6072SOL     OW19114   0.308   6.661   1.829
 6072SOL    HW119115   0.328   6.725   1.903
 6072SOL    HW219116   0.331   6.568   1.859
 6073SOL     OW19117   6.236   4.331   0.741
 6073SOL    HW119118   6.282   4.253   0.784
 6073SOL    HW219119   6.210   4.397   0.811
 6074SOL     OW19120   1.346   5.923   4.365
 6074SOL    HW119121   1.377   5.828   4.360
 6074SOL    HW219122   1.251   5.925   4.396
 6075SOL     OW19123   6.742   1.615   6.232
 6075SOL    HW119124   6.642   1.615   6.236
 6075SOL    HW219125   6.775   1.709   6.239
 6076SOL     OW19126   2.012   5.752   4.176
 6076SOL    HW119127   2.035   5.822   4.244
 6076SOL    HW219128   2.080   5.679   4.180
 6077SOL     OW19129   5.654   6.061   1.810
 6077SOL    HW119130   5.580   5.996   1.827
 6077SOL    HW219131   5.740   6.024   1.843
 6078SOL     OW19132   3.622   5.175   1.091
 6078SOL    HW119133   3.566   5.152   1.171
 6078SOL    HW219134   3.623   5.098   1.028
 6079SOL     OW19135   4.047   2.937   6.500
 6079SOL    HW119136   4.102   2.970   6.424
 6079SOL    HW219137   3.955   2.977   6.495
 6080SOL     OW19138   0.022   0.746   1.649
 6080SOL    HW119139   6.984   0.670   1.652
 6080SOL    HW219140   0.101   0.726   1.706
 6081SOL     OW19141   6.418   3.107   5.135
 6081SOL    HW119142   6.454   3.015   5.121
 6081SOL    HW219143   6.492   3.167   5.168
 6082SOL     OW19144   2.172   1.844   3.380
 6082SOL    HW119145   2.215   1.803   3.460
 6082SOL    HW219146   2.217   1.931   3.359
 6083SOL     OW19147   0.366   4.590   6.970
 6083SOL    HW119148   0.398   4.502   7.006
 6083SOL    HW219149   0.331   4.645   0.020
 6084SOL     OW19150   0.551   5.963   3.141
 6084SOL    HW119151   0.526   6.040   3.200
 6084SOL    HW219152   0.515   5.879   3.180
 6085SOL     OW19153   0.708   4.300   0.313
 6085SOL    HW119154   0.617   4.285   0.275
 6085SOL    HW219155   0.775   4.250   0.260
 6086SOL     OW19156   3.783   1.250   6.118
 6086SOL    HW119157   3.772   1.315   6.193
 6086SOL    HW219158   3.772   1.297   6.031
 6087SOL     OW19159   4.092   5.760   0.547
 6087SOL    HW119160   4.106   5.794   0.454
 6087SOL    HW219161   3.995   5.761   0.569
 6088SOL     OW19162   5.722   6.148   4.491
 6088SOL    HW119163   5.735   6.174   4.395
 6088SOL    HW219164   5.625   6.154   4.514
 6089SOL     OW19165   6.468   3.567   1.056
 6089SOL    HW119166   6.425   3.482   1.023
 6089SOL    HW219167   6.411   3.645   1.031
 6090SOL     OW19168   2.466   6.280   5.456
 6090SOL    HW119169   2.524   6.289   5.537
 6090SOL    HW219170   2.510   6.325   5.378
 6091SOL     OW19171   1.533   1.558   1.587
 6091SOL    HW119172   1.529   1.518   1.678
 6091SOL    HW219173   1.449   1.611   1.570
 6092SOL     OW19174   3.309   0.021   3.133
 6092SOL    HW119175   3.297   6.977   3.063
 6092SOL    HW219176   3.222   0.065   3.153
 6093SOL     OW19177   1.740   2.744   2.994
 6093SOL    HW119178   1.762   2.682   3.069
 6093SOL    HW219179   1.822   2.757   2.937
 6094SOL     OW19180   3.822   0.786   1.637
 6094SOL    HW119181   3.821   0.875   1.591
 6094SOL    HW219182   3.730   0.747   1.635
 6095SOL     OW19183   4.736   3.467   6.769
 6095SOL    HW119184   4.762   3.423   6.683
 6095SOL    HW219185   4.715   3.397   6.838
 6096SOL     OW19186   5.809   0.530   3.775
 6096SOL    HW119187   5.883   0.467   3.752
 6096SOL    HW219188   5.783   0.582   3.693
 6097SOL     OW19189   2.061   0.016   2.172
 6097SOL    HW119190   1.964   0.034   2.191
 6097SOL    HW219191   2.075   0.013   2.073
 6098SOL     OW19192   1.412   2.927   6.041
 6098SOL    HW119193   1.466   3.006   6.069
 6098SOL    HW219194   1.460   2.843   6.068
 6099SOL     OW19195   6.805   5.739   0.837
 6099SOL    HW119196   6.830   5.686   0.755
 6099SOL    HW219197   6.811   5.837   0.816
 6100SOL     OW19198   5.222   3.676   0.400
 6100SOL    HW119199   5.198   3.648   0.493
 6100SOL    HW219200   5.234   3.595   0.343
 6101SOL     OW19201   5.985   1.867   4.117
 6101SOL    HW119202   6.011   1.824   4.030
 6101SOL    HW219203   6.014   1.808   4.193
 6102SOL     OW19204   3.194   6.463   3.571
 6102SOL    HW119205   3.270   6.417   3.525
 6102SOL    HW219206   3.226   6.502   3.657
 6103SOL     OW19207   7.006   2.336   2.443
 6103SOL    HW119208   6.957   2.394   2.507
 6103SOL    HW219209   0.074   2.320   2.477
 6104SOL     OW19210   5.847   1.232   5.533
 6104SOL    HW119211   5.749   1.234   5.517
 6104SOL    HW219212   5.889   1.163   5.473
 6105SOL     OW19213   1.794   0.309   5.530
 6105SOL    HW119214   1.873   0.248   5.526
 6105SOL    HW219215   1.716   0.266   5.483
 6106SOL     OW19216   2.379   4.021   5.438
 6106SOL    HW119217   2.397   4.011   5.340
 6106SOL    HW219218   2.463   4.009   5.489
 6107SOL     OW19219   2.556   4.575   4.603
 6107SOL    HW119220   2.483   4.605   4.542
 6107SOL    HW219221   2.645   4.587   4.558
 6108SOL     OW19222   0.651   2.544   2.061
 6108SOL    HW119223   0.567   2.506   2.023
 6108SOL    HW219224   0.629   2.617   2.125
 6109SOL     OW19225   5.116   3.086   6.323
 6109SOL    HW119226   5.109   2.999   6.371
 6109SOL    HW219227   5.138   3.069   6.227
 6110SOL     OW19228   4.536   3.460   0.424
 6110SOL    HW119229   4.533   3.361   0.413
 6110SOL    HW219230   4.443   3.494   0.436
 6111SOL     OW19231   2.170   4.030   2.100
 6111SOL    HW119232   2.132   4.020   2.008
 6111SOL    HW219233   2.129   3.961   2.161
 6112SOL     OW19234   3.189   6.899   2.928
 6112SOL    HW119235   3.105   6.950   2.947
 6112SOL    HW219236   3.177   6.844   2.846
 6113SOL     OW19237   1.617   1.153   6.112
 6113SOL    HW119238   1.529   1.186   6.145
 6113SOL    HW219239   1.618   1.156   6.012
 6114SOL     OW19240   5.052   5.175   1.128
 6114SOL    HW119241   5.005   5.254   1.168
 6114SOL    HW219242   4.984   5.110   1.093
 6115SOL     OW19243   4.981   6.872   3.603
 6115SOL    HW119244   5.041   6.920   3.666
 6115SOL    HW219245   4.904   6.833   3.654
 6116SOL     OW19246   2.807   0.020   0.547
 6116SOL    HW119247   2.763   0.094   0.496
 6116SOL    HW219248   2.897   0.001   0.508
 6117SOL     OW19249   0.489   0.619   5.807
 6117SOL    HW119250   0.512   0.602   5.903
 6117SOL    HW219251   0.494   0.533   5.756
 6118SOL     OW19252   6.088   0.217   1.718
 6118SOL    HW119253   6.074   0.311   1.687
 6118SOL    HW219254   6.005   0.163   1.700
 6119SOL     OW19255   1.594   3.701   5.629
 6119SOL    HW119256   1.511   3.656   5.595
 6119SOL    HW219257   1.568   3.782   5.682
 6120SOL     OW19258   3.820   6.835   4.129
 6120SOL    HW119259   3.852   6.773   4.057
 6120SOL    HW219260   3.724   6.815   4.150
 6121SOL     OW19261   0.947   3.031   4.907
 6121SOL    HW119262   0.855   3.036   4.867
 6121SOL    HW219263   1.008   2.983   4.844
 6122SOL     OW19264   3.849   0.128   1.658
 6122SOL    HW119265   3.793   0.155   1.736
 6122SOL    HW219266   3.905   0.049   1.683
 6123SOL     OW19267   6.354   0.615   6.122
 6123SOL    HW119268   6.293   0.555   6.070
 6123SOL    HW219269   6.447   0.605   6.087
 6124SOL     OW19270   2.326   1.343   6.653
 6124SOL    HW119271   2.407   1.398   6.632
 6124SOL    HW219272   2.284   1.312   6.567
 6125SOL     OW19273   1.349   5.819   6.962
 6125SOL    HW119274   1.360   5.869   6.875
 6125SOL    HW219275   1.392   5.871   0.010
 6126SOL     OW19276   6.949   6.915   4.275
 6126SOL    HW119277   6.884   6.865   4.218
 6126SOL    HW219278   0.003   6.941   4.220
 6127SOL     OW19279   3.144   0.038   2.323
 6127SOL    HW119280   3.083   6.989   2.351
 6127SOL    HW219281   3.178   0.086   2.404
 6128SOL     OW19282   6.818   3.043   7.012
 6128SOL    HW119283   6.792   2.953   0.022
 6128SOL    HW219284   6.830   3.106   0.063
 6129SOL     OW19285   6.711   3.727   2.650
 6129SOL    HW119286   6.626   3.780   2.649
 6129SOL    HW219287   6.747   3.724   2.743
 6130SOL     OW19288   6.573   2.034   3.581
 6130SOL    HW119289   6.664   2.032   3.539
 6130SOL    HW219290   6.510   2.083   3.520
 6131SOL     OW19291   6.825   1.479   5.376
 6131SOL    HW119292   6.865   1.568   5.399
 6131SOL    HW219293   6.873   1.407   5.427
 6132SOL     OW19294   4.689   1.156   0.845
 6132SOL    HW119295   4.760   1.226   0.853
 6132SOL    HW219296   4.729   1.066   0.859
 6133SOL     OW19297   1.004   2.261   2.249
 6133SOL    HW119298   1.054   2.290   2.330
 6133SOL    HW219299   0.906   2.279   2.261
 6134SOL     OW19300   3.939   4.379   6.540
 6134SOL    HW119301   3.847   4.345   6.523
 6134SOL    HW219302   3.955   4.386   6.639
 6135SOL     OW19303   0.451   0.188   2.074
 6135SOL    HW119304   0.484   0.129   2.148
 6135SOL    HW219305   0.529   0.229   2.027
 6136SOL     OW19306   0.744   2.356   2.233
 6136SOL    HW119307   0.727   2.424   2.162
 6136SOL    HW219308   0.662   2.346   2.290
 6137SOL     OW19309   5.777   2.902   3.817
 6137SOL    HW119310   5.731   2.837   3.877
 6137SOL    HW219311   5.848   2.856   3.765
 6138SOL     OW19312   4.989   6.208   2.237
 6138SOL    HW119313   5.088   6.209   2.221
 6138SOL    HW219314   4.949   6.294   2.207
 6139SOL     OW19315   1.675   1.812   5.651
 6139SOL    HW119316   1.679   1.891   5.713
 6139SOL    HW219317   1.726   1.736   5.691
 6140SOL     OW19318   0.494   6.656   1.620
 6140SOL    HW119319   0.579   6.626   1.664
 6140SOL    HW219320   0.426   6.675   1.690
 6141SOL     OW19321   6.177   5.568   6.439
 6141SOL    HW119322   6.153   5.529   6.528
 6141SOL    HW219323   6.094   5.600   6.393
 6142SOL     OW19324   0.489   5.321   1.097
 6142SOL    HW119325   0.562   5.366   1.150
 6142SOL    HW219326   0.477   5.369   1.010
 6143SOL     OW19327   6.684   4.263   0.692
 6143SOL    HW119328   6.779   4.288   0.675
 6143SOL    HW219329   6.653   4.200   0.620
 6144SOL     OW19330   6.751   4.926   3.387
 6144SOL    HW119331   6.705   4.989   3.324
 6144SOL    HW219332   6.683   4.881   3.445
 6145SOL     OW19333   4.391   5.458   3.703
 6145SOL    HW119334   4.335   5.540   3.693
 6145SOL    HW219335   4.339   5.379   3.670
 6146SOL     OW19336   3.310   6.924   3.914
 6146SOL    HW119337   3.293   6.921   4.012
 6146SOL    HW219338   3.408   6.919   3.896
 6147SOL     OW19339   1.370   3.752   4.683
 6147SOL    HW119340   1.302   3.740   4.611
 6147SOL    HW219341   1.328   3.735   4.772
 6148SOL     OW19342   6.704   0.355   4.679
 6148SOL    HW119343   6.716   0.400   4.767
 6148SOL    HW219344   6.794   0.338   4.638
 6149SOL     OW19345   3.209   5.320   1.541
 6149SOL    HW119346   3.201   5.321   1.640
 6149SOL    HW219347   3.285   5.379   1.512
 6150SOL     OW19348   4.350   4.635   6.609
 6150SOL    HW119349   4.265   4.619   6.558
 6150SOL    HW219350   4.425   4.645   6.544
 6151SOL     OW19351   5.952   4.005   5.435
 6151SOL    HW119352   6.039   4.049   5.459
 6151SOL    HW219353   5.898   4.067   5.377
 6152SOL     OW19354   5.946   5.705   4.899
 6152SOL    HW119355   5.898   5.693   4.986
 6152SOL    HW219356   5.945   5.802   4.873
 6153SOL     OW19357   5.243   3.904   1.991
 6153SOL    HW119358   5.318   3.967   2.009
 6153SOL    HW219359   5.273   3.810   2.008
 6154SOL     OW19360   5.327   1.883   2.628
 6154SOL    HW119361   5.231   1.858   2.620
 6154SOL    HW219362   5.379   1.841   2.554
 6155SOL     OW19363   2.062   2.308   4.578
 6155SOL    HW119364   1.963   2.301   4.569
 6155SOL    HW219365   2.104   2.301   4.488
 6156SOL     OW19366   4.454   4.817   1.845
 6156SOL    HW119367   4.419   4.723   1.848
 6156SOL    HW219368   4.496   4.834   1.756
 6157SOL     OW19369   1.146   1.019   4.719
 6157SOL    HW119370   1.178   1.112   4.704
 6157SOL    HW219371   1.140   0.971   4.632
 6158SOL     OW19372   4.315   0.787   5.712
 6158SOL    HW119373   4.381   0.714   5.729
 6158SOL    HW219374   4.236   0.774   5.772
 6159SOL     OW19375   4.907   1.830   1.828
 6159SOL    HW119376   4.825   1.821   1.771
 6159SOL    HW219377   4.880   1.852   1.922
 6160SOL     OW19378   4.756   0.361   6.508
 6160SOL    HW119379   4.779   0.266   6.528
 6160SOL    HW219380   4.756   0.376   6.409
 6161SOL     OW19381   5.201   1.446   4.385
 6161SOL    HW119382   5.192   1.444   4.484
 6161SOL    HW219383   5.147   1.522   4.347
 6162SOL     OW19384   1.185   6.782   3.855
 6162SOL    HW119385   1.136   6.701   3.887
 6162SOL    HW219386   1.163   6.799   3.759
 6163SOL     OW19387   6.145   5.970   1.636
 6163SOL    HW119388   6.102   6.034   1.573
 6163SOL    HW219389   6.234   5.941   1.599
 6164SOL     OW19390   3.127   2.351   1.721
 6164SOL    HW119391   3.083   2.273   1.676
 6164SOL    HW219392   3.057   2.406   1.767
 6165SOL     OW19393   4.765   0.759   6.435
 6165SOL    HW119394   4.763   0.682   6.499
 6165SOL    HW219395   4.734   0.842   6.482
 6166SOL     OW19396   4.548   1.193   6.514
 6166SOL    HW119397   4.530   1.250   6.594
 6166SOL    HW219398   4.462   1.176   6.466
 6167SOL     OW19399   0.701   3.899   3.334
 6167SOL    HW119400   0.740   3.864   3.419
 6167SOL    HW219401   0.610   3.935   3.352
 6168SOL     OW19402   0.987   3.439   0.594
 6168SOL    HW119403   1.041   3.356   0.578
 6168SOL    HW219404   0.982   3.457   0.692
 6169SOL     OW19405   1.850   2.813   1.415
 6169SOL    HW119406   1.925   2.748   1.431
 6169SOL    HW219407   1.763   2.764   1.410
 6170SOL     OW19408   1.267   3.367   4.996
 6170SOL    HW119409   1.306   3.337   4.909
 6170SOL    HW219410   1.278   3.466   5.004
 6171SOL     OW19411   0.275   2.740   0.383
 6171SOL    HW119412   0.254   2.710   0.476
 6171SOL    HW219413   0.338   2.675   0.340
 6172SOL     OW19414   1.826   2.983   2.416
 6172SOL    HW119415   1.780   2.960   2.330
 6172SOL    HW219416   1.916   2.938   2.418
 6173SOL     OW19417   0.592   5.319   2.689
 6173SOL    HW119418   0.613   5.248   2.755
 6173SOL    HW219419   0.514   5.373   2.721
 6174SOL     OW19420   5.297   5.641   3.834
 6174SOL    HW119421   5.201   5.614   3.827
 6174SOL    HW219422   5.305   5.724   3.889
 6175SOL     OW19423   3.929   1.151   3.929
 6175SOL    HW119424   3.961   1.245   3.937
 6175SOL    HW219425   3.835   1.144   3.964
 6176SOL     OW19426   5.141   4.736   5.542
 6176SOL    HW119427   5.096   4.688   5.467
 6176SOL    HW219428   5.223   4.687   5.569
 6177SOL     OW19429   5.956   1.729   1.623
 6177SOL    HW119430   5.870   1.692   1.657
 6177SOL    HW219431   6.009   1.657   1.577
 6178SOL     OW19432   5.594   4.932   1.875
 6178SOL    HW119433   5.526   4.996   1.839
 6178SOL    HW219434   5.648   4.978   1.946
 6179SOL     OW19435   6.382   4.288   3.614
 6179SOL    HW119436   6.371   4.288   3.515
 6179SOL    HW219437   6.477   4.270   3.637
 6180SOL     OW19438   2.470   4.842   0.533
 6180SOL    HW119439   2.428   4.791   0.608
 6180SOL    HW219440   2.550   4.892   0.568
 6181SOL     OW19441   4.934   6.299   6.170
 6181SOL    HW119442   5.003   6.356   6.124
 6181SOL    HW219443   4.859   6.282   6.106
 6182SOL     OW19444   4.579   3.088   5.710
 6182SOL    HW119445   4.559   2.999   5.752
 6182SOL    HW219446   4.631   3.073   5.625
 6183SOL     OW19447   1.318   2.384   3.685
 6183SOL    HW119448   1.371   2.437   3.751
 6183SOL    HW219449   1.294   2.441   3.607
 6184SOL     OW19450   3.040   6.160   6.752
 6184SOL    HW119451   3.105   6.224   6.710
 6184SOL    HW219452   3.005   6.199   6.837
 6185SOL     OW19453   6.843   3.805   6.363
 6185SOL    HW119454   6.939   3.820   6.339
 6185SOL    HW219455   6.833   3.717   6.409
 6186SOL     OW19456   6.538   1.021   0.274
 6186SOL    HW119457   6.591   0.989   0.353
 6186SOL    HW219458   6.593   1.010   0.191
 6187SOL     OW19459   5.341   4.212   4.421
 6187SOL    HW119460   5.385   4.205   4.511
 6187SOL    HW219461   5.301   4.123   4.397
 6188SOL     OW19462   1.602   1.161   5.812
 6188SOL    HW119463   1.508   1.136   5.787
 6188SOL    HW219464   1.611   1.261   5.808
 6189SOL     OW19465   4.124   5.094   2.396
 6189SOL    HW119466   4.179   5.016   2.364
 6189SOL    HW219467   4.180   5.177   2.394
 6190SOL     OW19468   0.531   3.867   5.778
 6190SOL    HW119469   0.512   3.887   5.682
 6190SOL    HW219470   0.623   3.900   5.802
 6191SOL     OW19471   2.895   2.615   6.818
 6191SOL    HW119472   2.847   2.639   6.734
 6191SOL    HW219473   2.931   2.698   6.860
 6192SOL     OW19474   3.029   2.099   6.427
 6192SOL    HW119475   3.109   2.136   6.380
 6192SOL    HW219476   3.020   2.001   6.406
 6193SOL     OW19477   4.968   6.431   1.336
 6193SOL    HW119478   5.043   6.474   1.286
 6193SOL    HW219479   4.980   6.331   1.335
 6194SOL     OW19480   0.079   0.870   6.522
 6194SOL    HW119481   0.128   0.878   6.610
 6194SOL    HW219482   7.013   0.835   6.538
 6195SOL     OW19483   4.430   5.531   4.557
 6195SOL    HW119484   4.487   5.454   4.528
 6195SOL    HW219485   4.374   5.561   4.480
 6196SOL     OW19486   5.616   4.223   1.914
 6196SOL    HW119487   5.534   4.214   1.857
 6196SOL    HW219488   5.696   4.193   1.862
 6197SOL     OW19489   2.553   5.871   1.378
 6197SOL    HW119490   2.633   5.850   1.321
 6197SOL    HW219491   2.489   5.927   1.325
 6198SOL     OW19492   4.075   6.842   0.937
 6198SOL    HW119493   4.148   6.789   0.893
 6198SOL    HW219494   3.989   6.790   0.934
 6199SOL     OW19495   0.381   0.735   0.454
 6199SOL    HW119496   0.439   0.773   0.382
 6199SOL    HW219497   0.420   0.756   0.544
 6200SOL     OW19498   1.158   1.415   5.681
 6200SOL    HW119499   1.172   1.487   5.749
 6200SOL    HW219500   1.063   1.415   5.651
 6201SOL     OW19501   0.848   3.511   5.860
 6201SOL    HW119502   0.836   3.593   5.914
 6201SOL    HW219503   0.827   3.530   5.764
 6202SOL     OW19504   4.902   1.356   1.755
 6202SOL    HW119505   4.859   1.444   1.774
 6202SOL    HW219506   4.833   1.291   1.724
 6203SOL     OW19507   6.304   6.203   2.059
 6203SOL    HW119508   6.356   6.135   2.006
 6203SOL    HW219509   6.292   6.170   2.152
 6204SOL     OW19510   0.968   5.771   4.549
 6204SOL    HW119511   0.887   5.772   4.608
 6204SOL    HW219512   1.007   5.679   4.546
 6205SOL     OW19513   6.062   5.680   1.672
 6205SOL    HW119514   6.086   5.776   1.658
 6205SOL    HW219515   6.075   5.629   1.587
 6206SOL     OW19516   6.153   1.628   2.460
 6206SOL    HW119517   6.208   1.568   2.401
 6206SOL    HW219518   6.168   1.723   2.432
 6207SOL     OW19519   1.779   5.711   5.215
 6207SOL    HW119520   1.770   5.807   5.186
 6207SOL    HW219521   1.779   5.652   5.134
 6208SOL     OW19522   3.931   2.451   5.413
 6208SOL    HW119523   3.998   2.467   5.341
 6208SOL    HW219524   3.890   2.537   5.441
 6209SOL     OW19525   3.027   5.576   6.640
 6209SOL    HW119526   2.989   5.662   6.676
 6209SOL    HW219527   2.974   5.547   6.560
 6210SOL     OW19528   4.874   3.985   3.173
 6210SOL    HW119529   4.855   3.913   3.105
 6210SOL    HW219530   4.931   4.055   3.131
 6211SOL     OW19531   2.589   6.234   5.687
 6211SOL    HW119532   2.563   6.145   5.724
 6211SOL    HW219533   2.572   6.305   5.756
 6212SOL     OW19534   2.852   5.009   4.485
 6212SOL    HW119535   2.846   5.069   4.565
 6212SOL    HW219536   2.896   5.058   4.410
 6213SOL     OW19537   4.966   6.822   6.616
 6213SOL    HW119538   4.873   6.796   6.643
 6213SOL    HW219539   5.027   6.813   6.694
 6214SOL     OW19540   5.333   5.830   5.352
 6214SOL    HW119541   5.325   5.923   5.316
 6214SOL    HW219542   5.267   5.770   5.305
 6215SOL     OW19543   4.017   2.594   0.191
 6215SOL    HW119544   3.990   2.544   0.273
 6215SOL    HW219545   3.935   2.614   0.137
 6216SOL     OW19546   6.017   2.690   2.664
 6216SOL    HW119547   6.043   2.699   2.760
 6216SOL    HW219548   6.010   2.594   2.640
 6217SOL     OW19549   0.875   3.824   2.303
 6217SOL    HW119550   0.903   3.843   2.397
 6217SOL    HW219551   0.791   3.874   2.283
 6218SOL     OW19552   3.648   6.820   0.037
 6218SOL    HW119553   3.605   6.731   0.052
 6218SOL    HW219554   3.746   6.807   0.019
 6219SOL     OW19555   0.884   1.724   4.620
 6219SOL    HW119556   0.914   1.715   4.525
 6219SOL    HW219557   0.815   1.796   4.626
 6220SOL     OW19558   2.805   1.953   5.487
 6220SOL    HW119559   2.880   2.016   5.506
 6220SOL    HW219560   2.805   1.928   5.391
 6221SOL     OW19561   5.571   0.244   6.760
 6221SOL    HW119562   5.558   0.298   6.842
 6221SOL    HW219563   5.543   0.297   6.680
 6222SOL     OW19564   1.327   0.501   2.147
 6222SOL    HW119565   1.351   0.523   2.242
 6222SOL    HW219566   1.296   0.583   2.100
 6223SOL     OW19567   1.342   4.987   3.098
 6223SOL    HW119568   1.252   4.942   3.095
 6223SOL    HW219569   1.413   4.918   3.113
 6224SOL     OW19570   4.430   1.197   5.826
 6224SOL    HW119571   4.471   1.263   5.762
 6224SOL    HW219572   4.341   1.167   5.790
 6225SOL     OW19573   3.644   2.374   6.568
 6225SOL    HW119574   3.646   2.301   6.499
 6225SOL    HW219575   3.558   2.370   6.619
 6226SOL     OW19576   1.185   1.513   4.010
 6226SOL    HW119577   1.199   1.417   4.034
 6226SOL    HW219578   1.173   1.521   3.911
 6227SOL     OW19579   3.572   5.226   5.596
 6227SOL    HW119580   3.544   5.187   5.684
 6227SOL    HW219581   3.535   5.170   5.522
 6228SOL     OW19582   0.456   2.824   2.231
 6228SOL    HW119583   0.432   2.753   2.297
 6228SOL    HW219584   0.553   2.846   2.239
 6229SOL     OW19585   0.997   2.661   5.362
 6229SOL    HW119586   0.904   2.625   5.356
 6229SOL    HW219587   1.036   2.637   5.450
 6230SOL     OW19588   1.022   2.042   3.707
 6230SOL    HW119589   1.116   2.068   3.727
 6230SOL    HW219590   0.974   2.119   3.665
 6231SOL     OW19591   5.829   4.955   0.474
 6231SOL    HW119592   5.773   4.872   0.478
 6231SOL    HW219593   5.920   4.931   0.439
 6232SOL     OW19594   6.911   1.740   0.536
 6232SOL    HW119595   6.893   1.820   0.594
 6232SOL    HW219596   6.829   1.684   0.530
 6233SOL     OW19597   5.858   2.548   1.783
 6233SOL    HW119598   5.844   2.485   1.706
 6233SOL    HW219599   5.769   2.572   1.822
 6234SOL     OW19600   6.600   0.209   5.458
 6234SOL    HW119601   6.631   0.170   5.544
 6234SOL    HW219602   6.650   0.167   5.382
 6235SOL     OW19603   0.093   0.427   1.461
 6235SOL    HW119604   0.100   0.375   1.546
 6235SOL    HW219605   0.181   0.469   1.440
 6236SOL     OW19606   0.588   4.250   0.845
 6236SOL    HW119607   0.607   4.290   0.755
 6236SOL    HW219608   0.496   4.209   0.844
 6237SOL     OW19609   3.175   0.307   0.190
 6237SOL    HW119610   3.105   0.264   0.246
 6237SOL    HW219611   3.136   0.337   0.104
 6238SOL     OW19612   4.977   6.079   2.517
 6238SOL    HW119613   4.975   6.145   2.592
 6238SOL    HW219614   4.971   6.127   2.429
 6239SOL     OW19615   3.594   0.981   1.295
 6239SOL    HW119616   3.689   1.006   1.306
 6239SOL    HW219617   3.588   0.892   1.249
 6240SOL     OW19618   2.833   3.443   5.073
 6240SOL    HW119619   2.824   3.446   4.973
 6240SOL    HW219620   2.896   3.515   5.102
 6241SOL     OW19621   3.305   0.625   3.357
 6241SOL    HW119622   3.359   0.709   3.359
 6241SOL    HW219623   3.248   0.625   3.275
 6242SOL     OW19624   3.499   6.948   3.340
 6242SOL    HW119625   3.412   6.926   3.386
 6242SOL    HW219626   3.484   7.020   3.273
 6243SOL     OW19627   6.954   7.012   5.186
 6243SOL    HW119628   6.983   7.013   5.091
 6243SOL    HW219629   6.925   6.919   5.211
 6244SOL     OW19630   5.240   3.475   3.438
 6244SOL    HW119631   5.177   3.475   3.361
 6244SOL    HW219632   5.196   3.433   3.517
 6245SOL     OW19633   1.408   3.808   1.608
 6245SOL    HW119634   1.443   3.888   1.560
 6245SOL    HW219635   1.421   3.726   1.552
 6246SOL     OW19636   1.056   1.310   5.032
 6246SOL    HW119637   1.070   1.398   4.986
 6246SOL    HW219638   1.083   1.317   5.128
 6247SOL     OW19639   1.636   6.172   3.895
 6247SOL    HW119640   1.730   6.170   3.860
 6247SOL    HW219641   1.609   6.080   3.922
 6248SOL     OW19642   3.630   3.853   0.092
 6248SOL    HW119643   3.580   3.785   0.037
 6248SOL    HW219644   3.610   3.838   0.189
 6249SOL     OW19645   6.924   3.096   0.607
 6249SOL    HW119646   6.828   3.124   0.615
 6249SOL    HW219647   6.941   3.018   0.668
 6250SOL     OW19648   6.386   6.696   1.408
 6250SOL    HW119649   6.306   6.636   1.403
 6250SOL    HW219650   6.357   6.791   1.397
 6251SOL     OW19651   4.334   6.562   4.621
 6251SOL    HW119652   4.273   6.486   4.644
 6251SOL    HW219653   4.412   6.528   4.570
 6252SOL     OW19654   2.649   4.605   5.867
 6252SOL    HW119655   2.682   4.570   5.955
 6252SOL    HW219656   2.553   4.579   5.855
 6253SOL     OW19657   2.565   4.659   4.073
 6253SOL    HW119658   2.472   4.686   4.098
 6253SOL    HW219659   2.615   4.739   4.039
 6254SOL     OW19660   5.860   0.258   0.913
 6254SOL    HW119661   5.942   0.282   0.964
 6254SOL    HW219662   5.823   0.339   0.868
 6255SOL     OW19663   2.801   1.580   1.003
 6255SOL    HW119664   2.728   1.544   1.060
 6255SOL    HW219665   2.865   1.507   0.979
 6256SOL     OW19666   3.934   5.396   2.102
 6256SOL    HW119667   3.933   5.377   2.004
 6256SOL    HW219668   3.841   5.393   2.138
 6257SOL     OW19669   4.250   3.405   0.180
 6257SOL    HW119670   4.244   3.458   0.095
 6257SOL    HW219671   4.254   3.468   0.258
 6258SOL     OW19672   3.092   6.747   4.611
 6258SOL    HW119673   3.137   6.796   4.685
 6258SOL    HW219674   3.105   6.648   4.623
 6259SOL     OW19675   2.006   0.629   6.331
 6259SOL    HW119676   1.996   0.656   6.427
 6259SOL    HW219677   1.979   0.533   6.321
 6260SOL     OW19678   3.713   6.125   6.990
 6260SOL    HW119679   3.681   6.041   0.008
 6260SOL    HW219680   3.756   6.183   0.033
 6261SOL     OW19681   5.108   0.196   0.269
 6261SOL    HW119682   5.095   0.194   0.368
 6261SOL    HW219683   5.028   0.157   0.223
 6262SOL     OW19684   2.006   5.952   2.074
 6262SOL    HW119685   1.959   5.914   2.154
 6262SOL    HW219686   1.939   5.985   2.008
 6263SOL     OW19687   1.052   6.564   4.693
 6263SOL    HW119688   1.136   6.555   4.639
 6263SOL    HW219689   0.992   6.486   4.673
 6264SOL     OW19690   2.236   0.573   1.846
 6264SOL    HW119691   2.304   0.532   1.785
 6264SOL    HW219692   2.224   0.670   1.823
 6265SOL     OW19693   4.500   3.240   0.773
 6265SOL    HW119694   4.538   3.160   0.727
 6265SOL    HW219695   4.560   3.268   0.848
 6266SOL     OW19696   4.676   6.941   3.356
 6266SOL    HW119697   4.645   6.954   3.449
 6266SOL    HW219698   4.604   6.967   3.292
 6267SOL     OW19699   2.280   6.799   4.894
 6267SOL    HW119700   2.377   6.800   4.916
 6267SOL    HW219701   2.252   6.891   4.865
 6268SOL     OW19702   2.249   0.875   1.831
 6268SOL    HW119703   2.336   0.914   1.861
 6268SOL    HW219704   2.178   0.893   1.899
 6269SOL     OW19705   6.310   0.318   2.670
 6269SOL    HW119706   6.381   0.388   2.674
 6269SOL    HW219707   6.287   0.288   2.762
 6270SOL     OW19708   0.055   6.924   0.171
 6270SOL    HW119709   7.024   6.988   0.223
 6270SOL    HW219710   0.147   6.962   0.162
 6271SOL     OW19711   6.202   2.856   5.902
 6271SOL    HW119712   6.243   2.942   5.935
 6271SOL    HW219713   6.141   2.876   5.825
 6272SOL     OW19714   0.582   1.647   0.279
 6272SOL    HW119715   0.627   1.560   0.300
 6272SOL    HW219716   0.514   1.633   0.207
 6273SOL     OW19717   0.583   6.019   2.858
 6273SOL    HW119718   0.644   5.954   2.813
 6273SOL    HW219719   0.561   5.987   2.950
 6274SOL     OW19720   3.170   0.093   4.556
 6274SOL    HW119721   3.084   0.044   4.543
 6274SOL    HW219722   3.162   0.151   4.637
 6275SOL     OW19723   1.531   6.144   0.162
 6275SOL    HW119724   1.471   6.179   0.091
 6275SOL    HW219725   1.520   6.045   0.170
 6276SOL     OW19726   2.941   5.631   3.257
 6276SOL    HW119727   2.884   5.711   3.274
 6276SOL    HW219728   2.944   5.574   3.339
 6277SOL     OW19729   4.914   2.792   0.709
 6277SOL    HW119730   4.879   2.795   0.803
 6277SOL    HW219731   4.888   2.876   0.662
 6278SOL     OW19732   3.698   0.522   4.582
 6278SOL    HW119733   3.661   0.602   4.629
 6278SOL    HW219734   3.797   0.518   4.595
 6279SOL     OW19735   3.912   6.027   0.625
 6279SOL    HW119736   3.983   6.044   0.694
 6279SOL    HW219737   3.946   6.055   0.535
 6280SOL     OW19738   6.970   1.094   6.424
 6280SOL    HW119739   7.012   1.007   6.452
 6280SOL    HW219740   0.000   1.170   6.457
 6281SOL     OW19741   6.784   4.773   4.150
 6281SOL    HW119742   6.804   4.675   4.142
 6281SOL    HW219743   6.859   4.819   4.198
 6282SOL     OW19744   5.917   3.605   5.084
 6282SOL    HW119745   5.934   3.696   5.120
 6282SOL    HW219746   5.843   3.608   5.017
 6283SOL     OW19747   0.418   3.942   4.177
 6283SOL    HW119748   0.405   3.865   4.239
 6283SOL    HW219749   0.437   3.907   4.085
 6284SOL     OW19750   1.434   5.436   6.331
 6284SOL    HW119751   1.337   5.446   6.309
 6284SOL    HW219752   1.444   5.385   6.417
 6285SOL     OW19753   1.314   3.016   3.257
 6285SOL    HW119754   1.307   3.098   3.200
 6285SOL    HW219755   1.281   3.037   3.349
 6286SOL     OW19756   0.378   3.515   4.655
 6286SOL    HW119757   0.359   3.613   4.664
 6286SOL    HW219758   0.371   3.472   4.746
 6287SOL     OW19759   3.428   4.897   5.225
 6287SOL    HW119760   3.411   4.948   5.310
 6287SOL    HW219761   3.350   4.907   5.164
 6288SOL     OW19762   5.895   5.212   1.426
 6288SOL    HW119763   5.891   5.188   1.523
 6288SOL    HW219764   5.990   5.211   1.395
 6289SOL     OW19765   2.186   5.110   0.117
 6289SOL    HW119766   2.203   5.065   0.204
 6289SOL    HW219767   2.273   5.133   0.074
 6290SOL     OW19768   5.695   5.681   6.182
 6290SOL    HW119769   5.610   5.703   6.231
 6290SOL    HW219770   5.692   5.586   6.151
 6291SOL     OW19771   3.296   4.148   3.905
 6291SOL    HW119772   3.227   4.100   3.959
 6291SOL    HW219773   3.264   4.157   3.811
 6292SOL     OW19774   2.761   2.417   5.552
 6292SOL    HW119775   2.754   2.324   5.517
 6292SOL    HW219776   2.803   2.476   5.484
 6293SOL     OW19777   4.773   1.583   0.894
 6293SOL    HW119778   4.719   1.505   0.927
 6293SOL    HW219779   4.777   1.653   0.966
 6294SOL     OW19780   4.169   0.254   3.596
 6294SOL    HW119781   4.250   0.264   3.538
 6294SOL    HW219782   4.087   0.272   3.541
 6295SOL     OW19783   5.243   4.441   4.659
 6295SOL    HW119784   5.291   4.354   4.653
 6295SOL    HW219785   5.301   4.513   4.621
 6296SOL     OW19786   6.975   4.434   5.967
 6296SOL    HW119787   7.000   4.346   5.928
 6296SOL    HW219788   6.972   4.503   5.895
 6297SOL     OW19789   6.320   0.658   5.237
 6297SOL    HW119790   6.291   0.667   5.142
 6297SOL    HW219791   6.418   0.676   5.244
 6298SOL     OW19792   0.399   3.346   6.559
 6298SOL    HW119793   0.497   3.358   6.547
 6298SOL    HW219794   0.362   3.291   6.484
 6299SOL     OW19795   5.896   3.365   2.099
 6299SOL    HW119796   5.826   3.293   2.101
 6299SOL    HW219797   5.986   3.323   2.086
 6300SOL     OW19798   6.704   1.006   0.056
 6300SOL    HW119799   6.626   0.986   7.021
 6300SOL    HW219800   6.739   1.098   0.035
 6301SOL     OW19801   2.611   6.076   0.220
 6301SOL    HW119802   2.587   6.118   0.308
 6301SOL    HW219803   2.682   6.130   0.176
 6302SOL     OW19804   2.050   1.979   5.476
 6302SOL    HW119805   2.034   2.023   5.564
 6302SOL    HW219806   2.126   1.915   5.484
 6303SOL     OW19807   0.323   0.018   6.052
 6303SOL    HW119808   0.420   0.007   6.074
 6303SOL    HW219809   0.299   0.115   6.055
 6304SOL     OW19810   3.505   1.316   2.384
 6304SOL    HW119811   3.518   1.412   2.358
 6304SOL    HW219812   3.495   1.309   2.483
 6305SOL     OW19813   6.063   6.038   0.316
 6305SOL    HW119814   6.059   6.120   0.258
 6305SOL    HW219815   6.042   5.957   0.260
 6306SOL     OW19816   7.017   3.916   4.191
 6306SOL    HW119817   0.015   3.997   4.245
 6306SOL    HW219818   7.008   3.837   4.251
 6307SOL     OW19819   2.893   3.596   3.689
 6307SOL    HW119820   2.982   3.560   3.664
 6307SOL    HW219821   2.834   3.599   3.608
 6308SOL     OW19822   1.562   2.249   5.127
 6308SOL    HW119823   1.497   2.317   5.162
 6308SOL    HW219824   1.540   2.160   5.165
 6309SOL     OW19825   0.003   6.553   4.090
 6309SOL    HW119826   0.073   6.608   4.135
 6309SOL    HW219827   7.003   6.476   4.149
 6310SOL     OW19828   1.806   6.368   2.762
 6310SOL    HW119829   1.827   6.333   2.854
 6310SOL    HW219830   1.829   6.298   2.694
 6311SOL     OW19831   4.952   2.085   5.628
 6311SOL    HW119832   4.860   2.067   5.663
 6311SOL    HW219833   5.008   2.127   5.700
 6312SOL     OW19834   0.220   6.938   5.540
 6312SOL    HW119835   0.245   6.949   5.636
 6312SOL    HW219836   0.159   7.012   5.512
 6313SOL     OW19837   6.258   6.473   3.464
 6313SOL    HW119838   6.186   6.522   3.514
 6313SOL    HW219839   6.323   6.433   3.529
 6314SOL     OW19840   3.281   6.698   2.415
 6314SOL    HW119841   3.325   6.783   2.443
 6314SOL    HW219842   3.194   6.718   2.371
 6315SOL     OW19843   3.312   1.853   5.143
 6315SOL    HW119844   3.363   1.939   5.151
 6315SOL    HW219845   3.320   1.819   5.049
 6316SOL     OW19846   5.006   2.187   5.346
 6316SOL    HW119847   4.928   2.147   5.393
 6316SOL    HW219848   4.991   2.286   5.335
 6317SOL     OW19849   5.013   4.292   2.103
 6317SOL    HW119850   5.075   4.349   2.158
 6317SOL    HW219851   4.954   4.239   2.164
 6318SOL     OW19852   4.474   0.177   6.316
 6318SOL    HW119853   4.447   0.202   6.224
 6318SOL    HW219854   4.473   0.259   6.374
 6319SOL     OW19855   6.672   2.122   5.092
 6319SOL    HW119856   6.736   2.087   5.024
 6319SOL    HW219857   6.702   2.213   5.122
 6320SOL     OW19858   6.770   6.321   5.226
 6320SOL    HW119859   6.688   6.373   5.248
 6320SOL    HW219860   6.848   6.383   5.219
 6321SOL     OW19861   4.864   3.043   0.590
 6321SOL    HW119862   4.888   3.100   0.668
 6321SOL    HW219863   4.859   3.099   0.508
 6322SOL     OW19864   3.069   2.780   0.784
 6322SOL    HW119865   3.073   2.740   0.875
 6322SOL    HW219866   2.985   2.750   0.737
 6323SOL     OW19867   1.345   1.973   1.433
 6323SOL    HW119868   1.440   1.943   1.431
 6323SOL    HW219869   1.322   2.016   1.346
 6324SOL     OW19870   4.147   1.397   0.521
 6324SOL    HW119871   4.149   1.336   0.442
 6324SOL    HW219872   4.223   1.462   0.516
 6325SOL     OW19873   1.836   3.021   2.906
 6325SOL    HW119874   1.745   3.034   2.946
 6325SOL    HW219875   1.827   2.983   2.814
 6326SOL     OW19876   5.811   4.931   0.080
 6326SOL    HW119877   5.769   4.979   0.003
 6326SOL    HW219878   5.740   4.905   0.145
 6327SOL     OW19879   0.461   2.023   3.863
 6327SOL    HW119880   0.512   2.100   3.825
 6327SOL    HW219881   0.515   1.939   3.850
 6328SOL     OW19882   4.886   3.698   6.658
 6328SOL    HW119883   4.817   3.653   6.714
 6328SOL    HW219884   4.852   3.787   6.629
 6329SOL     OW19885   1.714   2.731   5.079
 6329SOL    HW119886   1.737   2.790   5.156
 6329SOL    HW219887   1.737   2.777   4.993
 6330SOL     OW19888   5.899   6.843   2.059
 6330SOL    HW119889   5.971   6.778   2.036
 6330SOL    HW219890   5.940   6.932   2.078
 6331SOL     OW19891   0.046   3.810   4.617
 6331SOL    HW119892   7.008   3.749   4.664
 6331SOL    HW219893   0.118   3.838   4.680
 6332SOL     OW19894   0.489   2.602   0.872
 6332SOL    HW119895   0.435   2.649   0.942
 6332SOL    HW219896   0.580   2.644   0.866
 6333SOL     OW19897   4.878   0.421   5.581
 6333SOL    HW119898   4.955   0.370   5.545
 6333SOL    HW219899   4.827   0.463   5.506
 6334SOL     OW19900   2.784   1.045   2.381
 6334SOL    HW119901   2.706   0.984   2.395
 6334SOL    HW219902   2.852   1.029   2.452
 6335SOL     OW19903   4.187   0.293   0.627
 6335SOL    HW119904   4.193   0.324   0.722
 6335SOL    HW219905   4.091   0.272   0.605
 6336SOL     OW19906   0.570   1.835   6.400
 6336SOL    HW119907   0.601   1.875   6.313
 6336SOL    HW219908   0.554   1.909   6.466
 6337SOL     OW19909   4.037   4.932   4.564
 6337SOL    HW119910   3.956   4.910   4.509
 6337SOL    HW219911   4.020   5.016   4.616
 6338SOL     OW19912   2.497   2.554   4.051
 6338SOL    HW119913   2.501   2.572   4.150
 6338SOL    HW219914   2.580   2.506   4.023
 6339SOL     OW19915   0.936   3.226   4.177
 6339SOL    HW119916   1.023   3.275   4.185
 6339SOL    HW219917   0.953   3.129   4.163
 6340SOL     OW19918   2.450   3.835   1.194
 6340SOL    HW119919   2.546   3.854   1.213
 6340SOL    HW219920   2.443   3.751   1.139
 6341SOL     OW19921   6.265   3.375   4.798
 6341SOL    HW119922   6.326   3.298   4.817
 6341SOL    HW219923   6.203   3.387   4.876
 6342SOL     OW19924   3.291   0.956   0.728
 6342SOL    HW119925   3.225   1.000   0.667
 6342SOL    HW219926   3.254   0.953   0.821
 6343SOL     OW19927   3.816   0.255   7.017
 6343SOL    HW119928   3.769   0.178   0.036
 6343SOL    HW219929   3.752   0.331   7.006
 6344SOL     OW19930   5.302   2.005   4.459
 6344SOL    HW119931   5.354   1.924   4.432
 6344SOL    HW219932   5.223   2.015   4.398
 6345SOL     OW19933   5.226   3.161   1.952
 6345SOL    HW119934   5.246   3.167   1.855
 6345SOL    HW219935   5.127   3.167   1.966
 6346SOL     OW19936   0.238   5.238   4.921
 6346SOL    HW119937   0.275   5.177   4.849
 6346SOL    HW219938   0.253   5.333   4.894
 6347SOL     OW19939   1.781   1.530   0.505
 6347SOL    HW119940   1.683   1.552   0.503
 6347SOL    HW219941   1.794   1.432   0.490
 6348SOL     OW19942   0.869   3.041   6.467
 6348SOL    HW119943   0.873   3.108   6.541
 6348SOL    HW219944   0.958   2.995   6.459
 6349SOL     OW19945   2.345   1.273   0.707
 6349SOL    HW119946   2.374   1.237   0.619
 6349SOL    HW219947   2.407   1.241   0.778
 6350SOL     OW19948   0.718   5.377   4.062
 6350SOL    HW119949   0.651   5.358   3.990
 6350SOL    HW219950   0.740   5.292   4.110
 6351SOL     OW19951   6.245   3.454   3.434
 6351SOL    HW119952   6.187   3.535   3.445
 6351SOL    HW219953   6.236   3.395   3.513
 6352SOL     OW19954   2.410   0.521   4.947
 6352SOL    HW119955   2.499   0.565   4.955
 6352SOL    HW219956   2.369   0.544   4.859
 6353SOL     OW19957   1.438   6.078   6.316
 6353SOL    HW119958   1.508   6.131   6.269
 6353SOL    HW219959   1.402   6.130   6.393
 6354SOL     OW19960   3.624   6.105   2.517
 6354SOL    HW119961   3.606   6.157   2.600
 6354SOL    HW219962   3.680   6.025   2.540
 6355SOL     OW19963   2.840   5.453   6.910
 6355SOL    HW119964   2.846   5.483   6.814
 6355SOL    HW219965   2.908   5.382   6.927
 6356SOL     OW19966   5.713   4.609   0.687
 6356SOL    HW119967   5.704   4.610   0.588
 6356SOL    HW219968   5.632   4.567   0.728
 6357SOL     OW19969   5.625   3.701   2.317
 6357SOL    HW119970   5.665   3.685   2.227
 6357SOL    HW219971   5.562   3.626   2.339
 6358SOL     OW19972   0.298   1.958   6.088
 6358SOL    HW119973   0.268   1.900   6.012
 6358SOL    HW219974   0.230   1.954   6.161
 6359SOL     OW19975   6.079   6.535   0.266
 6359SOL    HW119976   6.178   6.538   0.276
 6359SOL    HW219977   6.037   6.598   0.332
 6360SOL     OW19978   0.985   3.802   4.619
 6360SOL    HW119979   1.046   3.826   4.544
 6360SOL    HW219980   0.974   3.702   4.623
 6361SOL     OW19981   1.086   0.971   0.475
 6361SOL    HW119982   1.161   0.906   0.486
 6361SOL    HW219983   1.103   1.051   0.532
 6362SOL     OW19984   0.464   5.656   6.658
 6362SOL    HW119985   0.452   5.603   6.574
 6362SOL    HW219986   0.518   5.738   6.639
 6363SOL     OW19987   2.809   5.962   3.736
 6363SOL    HW119988   2.742   5.894   3.708
 6363SOL    HW219989   2.898   5.941   3.696
 6364SOL     OW19990   3.042   2.741   5.745
 6364SOL    HW119991   3.131   2.746   5.699
 6364SOL    HW219992   2.984   2.815   5.713
 6365SOL     OW19993   5.259   6.056   3.742
 6365SOL    HW119994   5.305   6.046   3.654
 6365SOL    HW219995   5.297   5.990   3.807
 6366SOL     OW19996   0.701   5.888   5.708
 6366SOL    HW119997   0.703   5.977   5.662
 6366SOL    HW219998   0.704   5.816   5.639
 6367SOL     OW19999   3.452   2.105   3.196
 6367SOL    HW120000   3.466   2.113   3.097
 6367SOL    HW220001   3.374   2.162   3.223
 6368SOL     OW20002   3.933   4.907   4.184
 6368SOL    HW120003   4.011   4.854   4.218
 6368SOL    HW220004   3.940   4.916   4.084
 6369SOL     OW20005   1.548   0.643   4.629
 6369SOL    HW120006   1.578   0.730   4.669
 6369SOL    HW220007   1.627   0.586   4.610
 6370SOL     OW20008   4.970   4.087   3.431
 6370SOL    HW120009   4.907   4.032   3.484
 6370SOL    HW220010   4.954   4.071   3.333
 6371SOL     OW20011   5.427   4.595   2.750
 6371SOL    HW120012   5.505   4.623   2.694
 6371SOL    HW220013   5.427   4.496   2.762
 6372SOL     OW20014   1.113   0.715   2.079
 6372SOL    HW120015   1.108   0.811   2.106
 6372SOL    HW220016   1.053   0.661   2.138
 6373SOL     OW20017   5.484   4.329   2.931
 6373SOL    HW120018   5.532   4.376   3.005
 6373SOL    HW220019   5.551   4.294   2.865
 6374SOL     OW20020   4.467   3.602   1.396
 6374SOL    HW120021   4.485   3.670   1.325
 6374SOL    HW220022   4.504   3.513   1.368
 6375SOL     OW20023   0.002   2.633   2.167
 6375SOL    HW120024   6.947   2.630   2.226
 6375SOL    HW220025   0.048   2.722   2.178
 6376SOL     OW20026   4.255   2.145   6.248
 6376SOL    HW120027   4.271   2.166   6.344
 6376SOL    HW220028   4.303   2.212   6.191
 6377SOL     OW20029   6.391   1.416   5.445
 6377SOL    HW120030   6.300   1.450   5.424
 6377SOL    HW220031   6.453   1.436   5.369
 6378SOL     OW20032   5.490   4.849   3.677
 6378SOL    HW120033   5.498   4.757   3.715
 6378SOL    HW220034   5.399   4.885   3.697
 6379SOL     OW20035   0.541   4.376   5.351
 6379SOL    HW120036   0.517   4.285   5.320
 6379SOL    HW220037   0.510   4.389   5.445
 6380SOL     OW20038   0.348   2.322   4.816
 6380SOL    HW120039   0.351   2.281   4.908
 6380SOL    HW220040   0.390   2.259   4.751
 6381SOL     OW20041   4.509   3.267   1.163
 6381SOL    HW120042   4.476   3.174   1.177
 6381SOL    HW220043   4.597   3.279   1.208
 6382SOL     OW20044   3.182   1.932   0.180
 6382SOL    HW120045   3.101   1.990   0.185
 6382SOL    HW220046   3.154   1.839   0.154
 6383SOL     OW20047   2.355   2.642   2.337
 6383SOL    HW120048   2.427   2.598   2.391
 6383SOL    HW220049   2.339   2.734   2.373
 6384SOL     OW20050   6.115   3.452   3.063
 6384SOL    HW120051   6.061   3.408   2.991
 6384SOL    HW220052   6.086   3.417   3.152
 6385SOL     OW20053   6.811   3.754   2.900
 6385SOL    HW120054   6.744   3.813   2.946
 6385SOL    HW220055   6.860   3.700   2.967
 6386SOL     OW20056   2.482   3.321   6.730
 6386SOL    HW120057   2.412   3.366   6.674
 6386SOL    HW220058   2.438   3.251   6.788
 6387SOL     OW20059   6.128   1.858   0.072
 6387SOL    HW120060   6.117   1.761   0.090
 6387SOL    HW220061   6.038   1.900   0.058
 6388SOL     OW20062   4.995   5.641   1.599
 6388SOL    HW120063   5.071   5.589   1.637
 6388SOL    HW220064   5.016   5.739   1.605
 6389SOL     OW20065   0.687   0.083   0.740
 6389SOL    HW120066   0.734   0.009   0.788
 6389SOL    HW220067   0.590   0.059   0.728
 6390SOL     OW20068   6.149   0.564   5.470
 6390SOL    HW120069   6.167   0.567   5.371
 6390SOL    HW220070   6.225   0.518   5.516
 6391SOL     OW20071   1.832   0.968   6.123
 6391SOL    HW120072   1.907   1.006   6.178
 6391SOL    HW220073   1.756   1.033   6.124
 6392SOL     OW20074   3.125   5.372   2.909
 6392SOL    HW120075   3.089   5.463   2.930
 6392SOL    HW220076   3.070   5.302   2.954
 6393SOL     OW20077   6.717   5.648   1.888
 6393SOL    HW120078   6.724   5.730   1.945
 6393SOL    HW220079   6.777   5.657   1.808
 6394SOL     OW20080   1.819   5.276   0.776
 6394SOL    HW120081   1.846   5.229   0.860
 6394SOL    HW220082   1.750   5.222   0.728
 6395SOL     OW20083   6.628   3.417   1.900
 6395SOL    HW120084   6.532   3.438   1.880
 6395SOL    HW220085   6.683   3.501   1.893
 6396SOL     OW20086   6.475   3.662   6.195
 6396SOL    HW120087   6.405   3.705   6.137
 6396SOL    HW220088   6.566   3.683   6.159
 6397SOL     OW20089   5.872   1.366   2.031
 6397SOL    HW120090   5.936   1.410   2.094
 6397SOL    HW220091   5.872   1.268   2.047
 6398SOL     OW20092   2.291   0.167   1.748
 6398SOL    HW120093   2.310   0.206   1.658
 6398SOL    HW220094   2.274   0.241   1.813
 6399SOL     OW20095   1.443   0.200   6.430
 6399SOL    HW120096   1.444   0.117   6.487
 6399SOL    HW220097   1.446   0.174   6.334
 6400SOL     OW20098   1.851   4.877   2.390
 6400SOL    HW120099   1.873   4.805   2.455
 6400SOL    HW220100   1.912   4.869   2.310
 6401SOL     OW20101   5.368   5.142   3.147
 6401SOL    HW120102   5.467   5.136   3.163
 6401SOL    HW220103   5.333   5.226   3.187
 6402SOL     OW20104   2.191   3.104   3.666
 6402SOL    HW120105   2.112   3.044   3.677
 6402SOL    HW220106   2.196   3.136   3.571
 6403SOL     OW20107   6.114   6.109   5.616
 6403SOL    HW120108   6.174   6.183   5.644
 6403SOL    HW220109   6.021   6.143   5.605
 6404SOL     OW20110   4.592   1.264   3.010
 6404SOL    HW120111   4.647   1.187   2.978
 6404SOL    HW220112   4.503   1.230   3.041
 6405SOL     OW20113   4.373   0.734   4.177
 6405SOL    HW120114   4.311   0.812   4.170
 6405SOL    HW220115   4.448   0.756   4.239
 6406SOL     OW20116   0.744   2.779   2.232
 6406SOL    HW120117   0.711   2.769   2.326
 6406SOL    HW220118   0.844   2.769   2.232
 6407SOL     OW20119   2.251   0.457   4.550
 6407SOL    HW120120   2.213   0.438   4.460
 6407SOL    HW220121   2.179   0.450   4.619
 6408SOL     OW20122   5.397   1.440   1.557
 6408SOL    HW120123   5.463   1.381   1.603
 6408SOL    HW220124   5.316   1.387   1.533
 6409SOL     OW20125   7.012   4.982   3.312
 6409SOL    HW120126   6.913   4.976   3.299
 6409SOL    HW220127   0.033   4.945   3.232
 6410SOL     OW20128   2.316   0.944   6.093
 6410SOL    HW120129   2.408   0.957   6.131
 6410SOL    HW220130   2.308   0.995   6.007
 6411SOL     OW20131   0.916   2.496   2.428
 6411SOL    HW120132   0.832   2.462   2.384
 6411SOL    HW220133   0.904   2.494   2.528
 6412SOL     OW20134   2.096   0.772   6.078
 6412SOL    HW120135   2.183   0.817   6.061
 6412SOL    HW220136   2.074   0.777   6.175
 6413SOL     OW20137   3.379   4.932   3.944
 6413SOL    HW120138   3.288   4.910   3.909
 6413SOL    HW220139   3.374   4.944   4.043
 6414SOL     OW20140   5.175   0.916   6.697
 6414SOL    HW120141   5.076   0.929   6.689
 6414SOL    HW220142   5.214   0.905   6.605
 6415SOL     OW20143   1.494   3.092   3.965
 6415SOL    HW120144   1.396   3.110   3.973
 6415SOL    HW220145   1.544   3.178   3.969
 6416SOL     OW20146   2.312   6.710   5.983
 6416SOL    HW120147   2.251   6.634   5.960
 6416SOL    HW220148   2.377   6.724   5.909
 6417SOL     OW20149   5.816   3.413   0.740
 6417SOL    HW120150   5.746   3.369   0.795
 6417SOL    HW220151   5.789   3.413   0.644
 6418SOL     OW20152   4.905   4.205   2.971
 6418SOL    HW120153   4.837   4.212   2.898
 6418SOL    HW220154   4.966   4.285   2.968
 6419SOL     OW20155   1.255   5.226   3.254
 6419SOL    HW120156   1.317   5.230   3.332
 6419SOL    HW220157   1.278   5.147   3.197
 6420SOL     OW20158   2.331   1.143   4.143
 6420SOL    HW120159   2.386   1.195   4.077
 6420SOL    HW220160   2.378   1.059   4.166
 6421SOL     OW20161   4.195   0.353   1.187
 6421SOL    HW120162   4.249   0.410   1.249
 6421SOL    HW220163   4.222   0.372   1.093
 6422SOL     OW20164   6.688   1.672   4.988
 6422SOL    HW120165   6.687   1.573   4.980
 6422SOL    HW220166   6.737   1.698   5.071
 6423SOL     OW20167   5.026   5.091   4.733
 6423SOL    HW120168   4.995   5.031   4.659
 6423SOL    HW220169   5.094   5.155   4.697
 6424SOL     OW20170   1.000   4.202   4.922
 6424SOL    HW120171   1.010   4.221   5.020
 6424SOL    HW220172   0.903   4.189   4.901
 6425SOL     OW20173   6.870   6.001   2.939
 6425SOL    HW120174   6.801   6.067   2.909
 6425SOL    HW220175   6.852   5.975   3.034
 6426SOL     OW20176   6.537   5.434   3.384
 6426SOL    HW120177   6.476   5.461   3.309
 6426SOL    HW220178   6.598   5.362   3.352
 6427SOL     OW20179   3.454   4.133   3.498
 6427SOL    HW120180   3.429   4.119   3.402
 6427SOL    HW220181   3.373   4.126   3.555
 6428SOL     OW20182   6.555   3.457   0.304
 6428SOL    HW120183   6.616   3.458   0.383
 6428SOL    HW220184   6.462   3.481   0.332
 6429SOL     OW20185   7.017   1.203   5.461
 6429SOL    HW120186   0.023   1.109   5.469
 6429SOL    HW220187   6.917   1.205   5.469
 6430SOL     OW20188   6.461   1.256   4.327
 6430SOL    HW120189   6.370   1.273   4.366
 6430SOL    HW220190   6.518   1.337   4.340
 6431SOL     OW20191   4.358   5.957   3.233
 6431SOL    HW120192   4.320   5.866   3.220
 6431SOL    HW220193   4.428   5.955   3.305
 6432SOL     OW20194   4.369   4.808   5.804
 6432SOL    HW120195   4.420   4.887   5.772
 6432SOL    HW220196   4.278   4.808   5.763
 6433SOL     OW20197   2.788   4.603   6.926
 6433SOL    HW120198   2.833   4.527   6.974
 6433SOL    HW220199   2.849   4.682   6.925
 6434SOL     OW20200   3.143   0.277   6.331
 6434SOL    HW120201   3.075   0.294   6.260
 6434SOL    HW220202   3.097   0.243   6.414
 6435SOL     OW20203   5.819   6.768   0.565
 6435SOL    HW120204   5.909   6.784   0.524
 6435SOL    HW220205   5.789   6.851   0.612
 6436SOL     OW20206   1.627   3.284   2.663
 6436SOL    HW120207   1.569   3.279   2.745
 6436SOL    HW220208   1.719   3.314   2.688
 6437SOL     OW20209   1.566   2.137   0.598
 6437SOL    HW120210   1.665   2.120   0.607
 6437SOL    HW220211   1.525   2.063   0.545
 6438SOL     OW20212   0.635   4.836   5.662
 6438SOL    HW120213   0.542   4.843   5.698
 6438SOL    HW220214   0.675   4.927   5.652
 6439SOL     OW20215   5.230   0.579   2.447
 6439SOL    HW120216   5.259   0.583   2.352
 6439SOL    HW220217   5.291   0.634   2.504
 6440SOL     OW20218   3.100   1.410   5.630
 6440SOL    HW120219   3.059   1.433   5.719
 6440SOL    HW220220   3.043   1.448   5.557
 6441SOL     OW20221   0.264   0.970   1.678
 6441SOL    HW120222   0.193   0.902   1.696
 6441SOL    HW220223   0.311   0.946   1.593
 6442SOL     OW20224   3.277   1.831   4.858
 6442SOL    HW120225   3.194   1.783   4.830
 6442SOL    HW220226   3.285   1.916   4.806
 6443SOL     OW20227   3.276   3.037   5.666
 6443SOL    HW120228   3.260   2.940   5.648
 6443SOL    HW220229   3.213   3.092   5.610
 6444SOL     OW20230   5.706   2.550   4.420
 6444SOL    HW120231   5.765   2.491   4.366
 6444SOL    HW220232   5.611   2.519   4.412
 6445SOL     OW20233   3.884   3.375   3.313
 6445SOL    HW120234   3.843   3.455   3.268
 6445SOL    HW220235   3.876   3.385   3.412
 6446SOL     OW20236   0.208   1.515   0.323
 6446SOL    HW120237   0.202   1.449   0.399
 6446SOL    HW220238   0.243   1.469   0.242
 6447SOL     OW20239   0.112   4.655   2.882
 6447SOL    HW120240   0.212   4.662   2.887
 6447SOL    HW220241   0.073   4.745   2.868
 6448SOL     OW20242   5.859   4.879   1.310
 6448SOL    HW120243   5.810   4.897   1.395
 6448SOL    HW220244   5.876   4.780   1.302
 6449SOL     OW20245   3.495   5.414   1.973
 6449SOL    HW120246   3.458   5.461   2.053
 6449SOL    HW220247   3.519   5.320   1.998
 6450SOL     OW20248   1.322   3.178   0.589
 6450SOL    HW120249   1.362   3.119   0.659
 6450SOL    HW220250   1.373   3.168   0.503
 6451SOL     OW20251   2.413   1.127   5.854
 6451SOL    HW120252   2.449   1.118   5.761
 6451SOL    HW220253   2.316   1.152   5.851
 6452SOL     OW20254   4.794   4.076   2.560
 6452SOL    HW120255   4.892   4.096   2.550
 6452SOL    HW220256   4.779   4.028   2.646
 6453SOL     OW20257   2.367   0.634   1.558
 6453SOL    HW120258   2.289   0.674   1.511
 6453SOL    HW220259   2.424   0.707   1.597
 6454SOL     OW20260   1.286   0.899   2.857
 6454SOL    HW120261   1.220   0.893   2.932
 6454SOL    HW220262   1.379   0.893   2.894
 6455SOL     OW20263   6.531   3.209   3.403
 6455SOL    HW120264   6.459   3.152   3.442
 6455SOL    HW220265   6.491   3.281   3.347
 6456SOL     OW20266   1.257   1.259   3.907
 6456SOL    HW120267   1.234   1.163   3.890
 6456SOL    HW220268   1.355   1.268   3.922
 6457SOL     OW20269   5.433   0.385   1.455
 6457SOL    HW120270   5.349   0.440   1.449
 6457SOL    HW220271   5.511   0.446   1.467
 6458SOL     OW20272   1.696   4.684   4.339
 6458SOL    HW120273   1.758   4.728   4.274
 6458SOL    HW220274   1.695   4.735   4.425
 6459SOL     OW20275   6.118   3.061   2.221
 6459SOL    HW120276   6.093   2.968   2.194
 6459SOL    HW220277   6.214   3.076   2.201
 6460SOL     OW20278   5.899   6.116   6.160
 6460SOL    HW120279   5.841   6.142   6.083
 6460SOL    HW220280   5.984   6.076   6.126
 6461SOL     OW20281   2.775   4.180   6.981
 6461SOL    HW120282   2.866   4.161   6.945
 6461SOL    HW220283   2.709   4.186   6.906
 6462SOL     OW20284   1.515   2.732   4.645
 6462SOL    HW120285   1.571   2.649   4.646
 6462SOL    HW220286   1.523   2.776   4.555
 6463SOL     OW20287   5.395   0.310   0.660
 6463SOL    HW120288   5.308   0.278   0.696
 6463SOL    HW220289   5.467   0.291   0.726
 6464SOL     OW20290   2.050   5.442   4.887
 6464SOL    HW120291   2.027   5.352   4.923
 6464SOL    HW220292   2.066   5.436   4.789
 6465SOL     OW20293   0.090   3.076   2.873
 6465SOL    HW120294   0.157   3.103   2.804
 6465SOL    HW220295   0.058   3.157   2.922
 6466SOL     OW20296   6.101   1.252   6.341
 6466SOL    HW120297   6.055   1.165   6.321
 6466SOL    HW220298   6.049   1.302   6.410
 6467SOL     OW20299   3.851   0.414   0.976
 6467SOL    HW120300   3.772   0.457   0.934
 6467SOL    HW220301   3.883   0.470   1.053
 6468SOL     OW20302   3.598   6.685   1.880
 6468SOL    HW120303   3.692   6.717   1.897
 6468SOL    HW220304   3.546   6.687   1.965
 6469SOL     OW20305   4.054   2.208   3.377
 6469SOL    HW120306   4.041   2.224   3.475
 6469SOL    HW220307   4.109   2.281   3.338
 6470SOL     OW20308   6.139   2.979   1.025
 6470SOL    HW120309   6.107   3.037   0.951
 6470SOL    HW220310   6.095   2.889   1.020
 6471SOL     OW20311   0.336   6.691   5.455
 6471SOL    HW120312   0.306   6.624   5.523
 6471SOL    HW220313   0.313   6.783   5.487
 6472SOL     OW20314   6.488   6.067   2.471
 6472SOL    HW120315   6.548   6.027   2.401
 6472SOL    HW220316   6.531   6.055   2.561
 6473SOL     OW20317   2.478   1.767   4.783
 6473SOL    HW120318   2.560   1.821   4.764
 6473SOL    HW220319   2.440   1.794   4.871
 6474SOL     OW20320   4.602   6.271   5.624
 6474SOL    HW120321   4.692   6.232   5.644
 6474SOL    HW220322   4.549   6.277   5.709
 6475SOL     OW20323   5.807   4.394   3.993
 6475SOL    HW120324   5.710   4.410   3.971
 6475SOL    HW220325   5.840   4.468   4.051
 6476SOL     OW20326   5.280   3.157   0.248
 6476SOL    HW120327   5.371   3.123   0.274
 6476SOL    HW220328   5.267   3.146   0.150
 6477SOL     OW20329   6.362   5.133   0.230
 6477SOL    HW120330   6.400   5.176   0.312
 6477SOL    HW220331   6.325   5.043   0.254
 6478SOL     OW20332   2.771   6.612   2.588
 6478SOL    HW120333   2.715   6.563   2.522
 6478SOL    HW220334   2.831   6.547   2.636
 6479SOL     OW20335   4.092   5.493   4.246
 6479SOL    HW120336   4.105   5.541   4.160
 6479SOL    HW220337   4.081   5.559   4.320
 6480SOL     OW20338   2.774   0.903   6.719
 6480SOL    HW120339   2.794   0.833   6.788
 6480SOL    HW220340   2.675   0.914   6.711
 6481SOL     OW20341   3.528   2.164   1.699
 6481SOL    HW120342   3.446   2.136   1.748
 6481SOL    HW220343   3.592   2.206   1.764
 6482SOL     OW20344   6.012   1.838   6.696
 6482SOL    HW120345   5.938   1.876   6.751
 6482SOL    HW220346   6.094   1.827   6.752
 6483SOL     OW20347   6.726   6.921   3.251
 6483SOL    HW120348   6.813   6.967   3.230
 6483SOL    HW220349   6.745   6.834   3.298
 6484SOL     OW20350   3.169   0.778   2.564
 6484SOL    HW120351   3.091   0.839   2.551
 6484SOL    HW220352   3.244   0.828   2.607
 6485SOL     OW20353   2.255   5.323   3.692
 6485SOL    HW120354   2.167   5.279   3.714
 6485SOL    HW220355   2.238   5.416   3.658
 6486SOL     OW20356   1.132   4.597   2.311
 6486SOL    HW120357   1.130   4.610   2.410
 6486SOL    HW220358   1.142   4.500   2.290
 6487SOL     OW20359   1.096   6.797   5.541
 6487SOL    HW120360   1.193   6.819   5.538
 6487SOL    HW220361   1.084   6.699   5.522
 6488SOL     OW20362   4.097   5.678   4.445
 6488SOL    HW120363   4.175   5.731   4.478
 6488SOL    HW220364   4.021   5.687   4.510
 6489SOL     OW20365   3.695   3.128   6.284
 6489SOL    HW120366   3.599   3.158   6.288
 6489SOL    HW220367   3.716   3.072   6.364
 6490SOL     OW20368   3.877   1.025   6.244
 6490SOL    HW120369   3.822   1.109   6.238
 6490SOL    HW220370   3.864   0.971   6.160
 6491SOL     OW20371   3.193   0.435   1.088
 6491SOL    HW120372   3.174   0.415   1.185
 6491SOL    HW220373   3.106   0.450   1.040
 6492SOL     OW20374   3.881   3.880   5.634
 6492SOL    HW120375   3.960   3.889   5.573
 6492SOL    HW220376   3.910   3.897   5.728
 6493SOL     OW20377   1.169   4.225   6.388
 6493SOL    HW120378   1.157   4.220   6.289
 6493SOL    HW220379   1.184   4.133   6.424
 6494SOL     OW20380   0.270   0.002   2.802
 6494SOL    HW120381   0.257   7.021   2.901
 6494SOL    HW220382   0.321   0.084   2.780
 6495SOL     OW20383   0.110   0.981   4.398
 6495SOL    HW120384   0.144   1.073   4.414
 6495SOL    HW220385   0.102   0.965   4.299
 6496SOL     OW20386   5.784   1.182   2.764
 6496SOL    HW120387   5.722   1.191   2.686
 6496SOL    HW220388   5.831   1.269   2.780
 6497SOL     OW20389   0.691   0.533   1.474
 6497SOL    HW120390   0.690   0.437   1.445
 6497SOL    HW220391   0.769   0.579   1.432
 6498SOL     OW20392   0.825   3.589   4.538
 6498SOL    HW120393   0.782   3.498   4.542
 6498SOL    HW220394   0.782   3.649   4.605
 6499SOL     OW20395   5.424   3.815   5.587
 6499SOL    HW120396   5.500   3.877   5.566
 6499SOL    HW220397   5.387   3.777   5.502
 6500SOL     OW20398   6.795   3.972   3.791
 6500SOL    HW120399   6.801   3.905   3.718
 6500SOL    HW220400   6.882   4.021   3.800
 6501SOL     OW20401   6.500   1.297   0.541
 6501SOL    HW120402   6.555   1.305   0.458
 6501SOL    HW220403   6.412   1.342   0.528
 6502SOL     OW20404   0.152   3.978   2.416
 6502SOL    HW120405   0.176   3.911   2.486
 6502SOL    HW220406   0.058   3.963   2.387
 6503SOL     OW20407   5.277   1.260   3.624
 6503SOL    HW120408   5.265   1.274   3.722
 6503SOL    HW220409   5.196   1.292   3.575
 6504SOL     OW20410   3.774   6.544   5.971
 6504SOL    HW120411   3.748   6.598   5.891
 6504SOL    HW220412   3.692   6.521   6.024
 6505SOL     OW20413   5.648   6.525   6.297
 6505SOL    HW120414   5.705   6.468   6.356
 6505SOL    HW220415   5.588   6.582   6.353
 6506SOL     OW20416   0.122   2.817   2.954
 6506SOL    HW120417   0.119   2.769   2.866
 6506SOL    HW220418   0.109   2.915   2.939
 6507SOL     OW20419   2.740   5.709   6.629
 6507SOL    HW120420   2.704   5.792   6.671
 6507SOL    HW220421   2.811   5.733   6.562
 6508SOL     OW20422   1.520   0.593   2.844
 6508SOL    HW120423   1.509   0.516   2.908
 6508SOL    HW220424   1.440   0.599   2.785
 6509SOL     OW20425   4.683   2.121   4.557
 6509SOL    HW120426   4.736   2.176   4.492
 6509SOL    HW220427   4.633   2.182   4.618
 6510SOL     OW20428   6.410   4.771   6.849
 6510SOL    HW120429   6.443   4.812   6.934
 6510SOL    HW220430   6.345   4.698   6.870
 6511SOL     OW20431   4.279   0.732   4.548
 6511SOL    HW120432   4.240   0.797   4.614
 6511SOL    HW220433   4.359   0.772   4.505
 6512SOL     OW20434   3.684   6.920   2.113
 6512SOL    HW120435   3.668   6.854   2.186
 6512SOL    HW220436   3.597   6.960   2.084
 6513SOL     OW20437   2.581   5.419   3.382
 6513SOL    HW120438   2.504   5.357   3.366
 6513SOL    HW220439   2.547   5.510   3.403
 6514SOL     OW20440   5.740   1.435   4.564
 6514SOL    HW120441   5.641   1.439   4.560
 6514SOL    HW220442   5.769   1.392   4.649
 6515SOL     OW20443   1.445   3.503   3.267
 6515SOL    HW120444   1.359   3.522   3.314
 6515SOL    HW220445   1.458   3.570   3.194
 6516SOL     OW20446   0.536   3.074   1.268
 6516SOL    HW120447   0.603   3.142   1.239
 6516SOL    HW220448   0.463   3.119   1.319
 6517SOL     OW20449   6.754   1.669   1.898
 6517SOL    HW120450   6.832   1.704   1.949
 6517SOL    HW220451   6.786   1.603   1.830
 6518SOL     OW20452   0.487   0.540   1.249
 6518SOL    HW120453   0.571   0.546   1.303
 6518SOL    HW220454   0.408   0.556   1.308
 6519SOL     OW20455   0.327   1.289   2.742
 6519SOL    HW120456   0.342   1.202   2.695
 6519SOL    HW220457   0.254   1.340   2.696
 6520SOL     OW20458   0.142   4.968   0.073
 6520SOL    HW120459   0.194   4.893   0.112
 6520SOL    HW220460   0.044   4.951   0.084
 6521SOL     OW20461   2.002   2.827   4.536
 6521SOL    HW120462   1.949   2.766   4.476
 6521SOL    HW220463   1.940   2.882   4.591
 6522SOL     OW20464   3.480   5.059   5.785
 6522SOL    HW120465   3.562   5.004   5.774
 6522SOL    HW220466   3.399   5.005   5.761
 6523SOL     OW20467   3.913   0.739   0.019
 6523SOL    HW120468   3.924   0.838   0.024
 6523SOL    HW220469   3.999   0.695   0.044
 6524SOL     OW20470   2.439   3.390   1.244
 6524SOL    HW120471   2.520   3.387   1.302
 6524SOL    HW220472   2.382   3.309   1.263
 6525SOL     OW20473   1.915   4.653   2.613
 6525SOL    HW120474   1.971   4.735   2.629
 6525SOL    HW220475   1.922   4.592   2.692
 6526SOL     OW20476   1.103   0.422   1.498
 6526SOL    HW120477   1.112   0.323   1.482
 6526SOL    HW220478   1.027   0.438   1.561
 6527SOL     OW20479   6.724   2.346   6.541
 6527SOL    HW120480   6.729   2.429   6.596
 6527SOL    HW220481   6.687   2.271   6.596
 6528SOL     OW20482   5.915   1.497   5.500
 6528SOL    HW120483   5.919   1.397   5.503
 6528SOL    HW220484   5.888   1.527   5.408
 6529SOL     OW20485   1.952   0.503   2.566
 6529SOL    HW120486   2.023   0.440   2.599
 6529SOL    HW220487   1.880   0.450   2.520
 6530SOL     OW20488   7.012   1.920   1.112
 6530SOL    HW120489   6.967   1.988   1.170
 6530SOL    HW220490   0.024   1.965   1.031
 6531SOL     OW20491   4.966   3.122   5.001
 6531SOL    HW120492   4.971   3.221   4.987
 6531SOL    HW220493   4.943   3.103   5.096
 6532SOL     OW20494   1.014   1.268   1.122
 6532SOL    HW120495   0.968   1.356   1.108
 6532SOL    HW220496   0.987   1.230   1.210
 6533SOL     OW20497   4.253   6.093   0.388
 6533SOL    HW120498   4.333   6.103   0.445
 6533SOL    HW220499   4.270   6.133   0.298
 6534SOL     OW20500   5.331   4.800   1.439
 6534SOL    HW120501   5.250   4.850   1.408
 6534SOL    HW220502   5.403   4.806   1.371
 6535SOL     OW20503   6.780   4.503   4.131
 6535SOL    HW120504   6.683   4.499   4.152
 6535SOL    HW220505   6.800   4.443   4.053
 6536SOL     OW20506   0.686   2.151   5.219
 6536SOL    HW120507   0.778   2.177   5.190
 6536SOL    HW220508   0.680   2.052   5.229
 6537SOL     OW20509   0.134   4.510   6.423
 6537SOL    HW120510   0.061   4.466   6.475
 6537SOL    HW220511   0.093   4.566   6.350
 6538SOL     OW20512   2.150   3.866   5.486
 6538SOL    HW120513   2.172   3.812   5.404
 6538SOL    HW220514   2.222   3.933   5.503
 6539SOL     OW20515   5.063   0.900   6.985
 6539SOL    HW120516   5.125   0.934   6.915
 6539SOL    HW220517   5.021   0.977   0.007
 6540SOL     OW20518   3.747   2.372   6.173
 6540SOL    HW120519   3.791   2.425   6.245
 6540SOL    HW220520   3.816   2.343   6.107
 6541SOL     OW20521   5.106   1.329   5.007
 6541SOL    HW120522   5.108   1.266   5.085
 6541SOL    HW220523   5.200   1.353   4.983
 6542SOL     OW20524   0.269   2.677   3.812
 6542SOL    HW120525   0.320   2.713   3.890
 6542SOL    HW220526   0.332   2.650   3.740
 6543SOL     OW20527   4.462   3.127   5.422
 6543SOL    HW120528   4.418   3.037   5.410
 6543SOL    HW220529   4.392   3.196   5.437
 6544SOL     OW20530   1.629   6.765   3.662
 6544SOL    HW120531   1.647   6.669   3.684
 6544SOL    HW220532   1.550   6.798   3.713
 6545SOL     OW20533   4.183   0.572   0.785
 6545SOL    HW120534   4.111   0.536   0.845
 6545SOL    HW220535   4.253   0.617   0.841
 6546SOL     OW20536   2.598   3.968   5.909
 6546SOL    HW120537   2.537   3.914   5.850
 6546SOL    HW220538   2.598   4.063   5.879
 6547SOL     OW20539   4.691   0.981   6.942
 6547SOL    HW120540   4.746   0.915   6.891
 6547SOL    HW220541   4.700   1.071   6.899
 6548SOL     OW20542   1.303   4.007   1.266
 6548SOL    HW120543   1.323   4.029   1.171
 6548SOL    HW220544   1.383   4.027   1.322
 6549SOL     OW20545   4.631   0.769   2.077
 6549SOL    HW120546   4.624   0.674   2.046
 6549SOL    HW220547   4.726   0.792   2.095
 6550SOL     OW20548   6.834   6.643   4.828
 6550SOL    HW120549   6.808   6.712   4.895
 6550SOL    HW220550   6.887   6.687   4.755
 6551SOL     OW20551   2.134   3.707   2.034
 6551SOL    HW120552   2.126   3.763   1.951
 6551SOL    HW220553   2.161   3.614   2.008
 6552SOL     OW20554   1.227   0.234   0.107
 6552SOL    HW120555   1.145   0.219   0.050
 6552SOL    HW220556   1.283   0.152   0.107
 6553SOL     OW20557   0.170   2.060   3.261
 6553SOL    HW120558   0.201   2.064   3.356
 6553SOL    HW220559   0.224   1.992   3.211
 6554SOL     OW20560   1.617   0.289   4.447
 6554SOL    HW120561   1.521   0.308   4.428
 6554SOL    HW220562   1.634   0.294   4.545
 6555SOL     OW20563   4.829   2.060   2.720
 6555SOL    HW120564   4.819   1.994   2.645
 6555SOL    HW220565   4.739   2.100   2.740
 6556SOL     OW20566   5.726   4.521   3.475
 6556SOL    HW120567   5.758   4.595   3.534
 6556SOL    HW220568   5.746   4.543   3.380
 6557SOL     OW20569   2.342   0.225   3.042
 6557SOL    HW120570   2.365   0.147   3.100
 6557SOL    HW220571   2.287   0.290   3.095
 6558SOL     OW20572   6.803   4.872   0.475
 6558SOL    HW120573   6.720   4.819   0.459
 6558SOL    HW220574   6.882   4.823   0.440
 6559SOL     OW20575   0.948   3.885   0.226
 6559SOL    HW120576   1.006   3.895   0.146
 6559SOL    HW220577   0.927   3.788   0.240
 6560SOL     OW20578   4.268   5.076   1.453
 6560SOL    HW120579   4.218   4.990   1.459
 6560SOL    HW220580   4.246   5.122   1.367
 6561SOL     OW20581   3.630   4.280   1.258
 6561SOL    HW120582   3.561   4.220   1.217
 6561SOL    HW220583   3.683   4.324   1.185
 6562SOL     OW20584   5.912   2.111   0.867
 6562SOL    HW120585   5.834   2.137   0.810
 6562SOL    HW220586   5.895   2.021   0.907
 6563SOL     OW20587   5.026   5.642   6.220
 6563SOL    HW120588   4.984   5.707   6.284
 6563SOL    HW220589   5.099   5.592   6.267
 6564SOL     OW20590   6.619   3.468   2.670
 6564SOL    HW120591   6.521   3.462   2.689
 6564SOL    HW220592   6.650   3.561   2.685
 6565SOL     OW20593   5.860   1.161   2.420
 6565SOL    HW120594   5.873   1.161   2.321
 6565SOL    HW220595   5.846   1.067   2.451
 6566SOL     OW20596   3.927   6.500   2.140
 6566SOL    HW120597   4.006   6.555   2.113
 6566SOL    HW220598   3.864   6.555   2.194
 6567SOL     OW20599   4.702   0.581   2.318
 6567SOL    HW120600   4.677   0.662   2.372
 6567SOL    HW220601   4.796   0.555   2.339
 6568SOL     OW20602   3.588   1.757   4.122
 6568SOL    HW120603   3.599   1.828   4.192
 6568SOL    HW220604   3.664   1.762   4.058
 6569SOL     OW20605   2.599   3.171   0.316
 6569SOL    HW120606   2.506   3.177   0.280
 6569SOL    HW220607   2.628   3.075   0.318
 6570SOL     OW20608   2.747   0.727   2.510
 6570SOL    HW120609   2.689   0.645   2.506
 6570SOL    HW220610   2.744   0.766   2.601
 6571SOL     OW20611   3.242   5.114   1.957
 6571SOL    HW120612   3.281   5.137   2.046
 6571SOL    HW220613   3.242   5.015   1.945
 6572SOL     OW20614   0.078   4.158   4.320
 6572SOL    HW120615   7.011   4.176   4.284
 6572SOL    HW220616   0.143   4.219   4.276
 6573SOL     OW20617   0.390   1.791   2.409
 6573SOL    HW120618   0.418   1.849   2.332
 6573SOL    HW220619   0.435   1.702   2.401
 6574SOL     OW20620   2.454   5.512   2.758
 6574SOL    HW120621   2.531   5.465   2.802
 6574SOL    HW220622   2.368   5.476   2.793
 6575SOL     OW20623   0.729   6.934   3.783
 6575SOL    HW120624   0.650   6.874   3.798
 6575SOL    HW220625   0.799   6.914   3.851
 6576SOL     OW20626   2.503   6.762   0.012
 6576SOL    HW120627   2.560   6.738   6.959
 6576SOL    HW220628   2.559   6.806   0.082
 6577SOL     OW20629   0.962   1.950   3.244
 6577SOL    HW120630   0.941   1.865   3.293
 6577SOL    HW220631   1.003   2.016   3.307
 6578SOL     OW20632   0.664   6.175   2.497
 6578SOL    HW120633   0.644   6.091   2.447
 6578SOL    HW220634   0.751   6.165   2.546
 6579SOL     OW20635   0.267   3.406   3.252
 6579SOL    HW120636   0.286   3.472   3.325
 6579SOL    HW220637   0.240   3.319   3.291
 6580SOL     OW20638   0.151   1.835   0.534
 6580SOL    HW120639   0.235   1.809   0.486
 6580SOL    HW220640   0.072   1.814   0.476
 6581SOL     OW20641   2.326   0.487   0.608
 6581SOL    HW120642   2.276   0.547   0.671
 6581SOL    HW220643   2.289   0.394   0.614
 6582SOL     OW20644   0.035   1.393   3.296
 6582SOL    HW120645   0.025   1.485   3.257
 6582SOL    HW220646   6.987   1.378   3.363
 6583SOL     OW20647   4.886   0.338   6.250
 6583SOL    HW120648   4.922   0.245   6.239
 6583SOL    HW220649   4.822   0.358   6.176
 6584SOL     OW20650   4.561   2.213   0.498
 6584SOL    HW120651   4.605   2.228   0.409
 6584SOL    HW220652   4.631   2.201   0.568
 6585SOL     OW20653   6.547   5.872   0.175
 6585SOL    HW120654   6.578   5.896   0.267
 6585SOL    HW220655   6.486   5.792   0.181
 6586SOL     OW20656   5.868   1.203   6.090
 6586SOL    HW120657   5.826   1.273   6.032
 6586SOL    HW220658   5.810   1.122   6.091
 6587SOL     OW20659   2.039   5.069   5.717
 6587SOL    HW120660   2.069   4.973   5.715
 6587SOL    HW220661   2.093   5.119   5.784
 6588SOL     OW20662   0.106   2.811   1.826
 6588SOL    HW120663   0.091   2.715   1.849
 6588SOL    HW220664   0.020   2.861   1.837
 6589SOL     OW20665   4.631   0.145   1.582
 6589SOL    HW120666   4.715   0.112   1.625
 6589SOL    HW220667   4.563   0.163   1.653
 6590SOL     OW20668   6.894   1.112   6.853
 6590SOL    HW120669   6.934   1.022   6.835
 6590SOL    HW220670   6.963   1.173   6.892
 6591SOL     OW20671   6.607   5.688   3.368
 6591SOL    HW120672   6.563   5.599   3.377
 6591SOL    HW220673   6.591   5.742   3.451
 6592SOL     OW20674   5.230   6.707   3.207
 6592SOL    HW120675   5.302   6.695   3.139
 6592SOL    HW220676   5.180   6.792   3.187
 6593SOL     OW20677   2.369   2.363   3.000
 6593SOL    HW120678   2.342   2.267   3.013
 6593SOL    HW220679   2.390   2.378   2.904
 6594SOL     OW20680   3.951   1.304   6.365
 6594SOL    HW120681   4.038   1.353   6.364
 6594SOL    HW220682   3.883   1.357   6.416
 6595SOL     OW20683   1.319   4.205   6.753
 6595SOL    HW120684   1.381   4.163   6.820
 6595SOL    HW220685   1.359   4.198   6.662
 6596SOL     OW20686   3.560   6.996   4.321
 6596SOL    HW120687   3.490   6.999   4.249
 6596SOL    HW220688   3.524   6.947   4.400
 6597SOL     OW20689   1.099   5.785   0.909
 6597SOL    HW120690   1.043   5.820   0.834
 6597SOL    HW220691   1.177   5.846   0.923
 6598SOL     OW20692   1.880   4.509   4.108
 6598SOL    HW120693   1.853   4.436   4.172
 6598SOL    HW220694   1.896   4.593   4.159
 6599SOL     OW20695   4.155   6.295   6.248
 6599SOL    HW120696   4.242   6.340   6.225
 6599SOL    HW220697   4.079   6.354   6.221
 6600SOL     OW20698   3.541   6.320   5.472
 6600SOL    HW120699   3.450   6.336   5.512
 6600SOL    HW220700   3.588   6.407   5.461
 6601SOL     OW20701   1.755   2.012   5.088
 6601SOL    HW120702   1.751   2.094   5.146
 6601SOL    HW220703   1.747   2.038   4.992
 6602SOL     OW20704   1.941   0.788   1.861
 6602SOL    HW120705   1.903   0.697   1.840
 6602SOL    HW220706   1.906   0.854   1.794
 6603SOL     OW20707   0.411   3.167   3.118
 6603SOL    HW120708   0.416   3.184   3.216
 6603SOL    HW220709   0.431   3.252   3.068
 6604SOL     OW20710   1.096   6.711   1.556
 6604SOL    HW120711   1.152   6.793   1.572
 6604SOL    HW220712   1.106   6.683   1.460
 6605SOL     OW20713   5.558   5.690   1.653
 6605SOL    HW120714   5.567   5.733   1.742
 6605SOL    HW220715   5.604   5.601   1.654
 6606SOL     OW20716   0.477   5.574   2.275
 6606SOL    HW120717   0.558   5.553   2.330
 6606SOL    HW220718   0.396   5.572   2.334
 6607SOL     OW20719   1.261   4.535   3.016
 6607SOL    HW120720   1.256   4.510   2.920
 6607SOL    HW220721   1.353   4.517   3.051
 6608SOL     OW20722   6.345   6.935   0.111
 6608SOL    HW120723   6.365   6.861   0.047
 6608SOL    HW220724   6.429   6.986   0.130
 6609SOL     OW20725   5.768   0.853   0.050
 6609SOL    HW120726   5.799   0.819   0.139
 6609SOL    HW220727   5.835   0.829   7.005
 6610SOL     OW20728   2.202   6.410   0.222
 6610SOL    HW120729   2.119   6.354   0.216
 6610SOL    HW220730   2.198   6.482   0.153
 6611SOL     OW20731   4.868   3.008   3.317
 6611SOL    HW120732   4.822   2.951   3.249
 6611SOL    HW220733   4.965   3.016   3.293
 6612SOL     OW20734   6.280   2.038   6.494
 6612SOL    HW120735   6.181   2.033   6.487
 6612SOL    HW220736   6.310   2.132   6.484
 6613SOL     OW20737   6.789   6.058   5.303
 6613SOL    HW120738   6.785   5.979   5.243
 6613SOL    HW220739   6.736   6.133   5.263
 6614SOL     OW20740   4.597   4.885   6.855
 6614SOL    HW120741   4.510   4.836   6.867
 6614SOL    HW220742   4.621   4.930   6.941
 6615SOL     OW20743   1.330   5.976   1.216
 6615SOL    HW120744   1.290   5.900   1.267
 6615SOL    HW220745   1.335   5.951   1.119
 6616SOL     OW20746   4.675   0.080   6.450
 6616SOL    HW120747   4.642   0.057   6.541
 6616SOL    HW220748   4.598   0.113   6.394
 6617SOL     OW20749   4.556   5.224   3.119
 6617SOL    HW120750   4.529   5.181   3.033
 6617SOL    HW220751   4.478   5.225   3.182
 6618SOL     OW20752   1.517   2.341   2.419
 6618SOL    HW120753   1.463   2.261   2.441
 6618SOL    HW220754   1.526   2.350   2.320
 6619SOL     OW20755   5.466   0.274   3.017
 6619SOL    HW120756   5.392   0.219   2.978
 6619SOL    HW220757   5.432   0.327   3.094
 6620SOL     OW20758   2.026   2.478   5.434
 6620SOL    HW120759   1.978   2.470   5.521
 6620SOL    HW220760   2.021   2.391   5.385
 6621SOL     OW20761   3.463   3.253   6.292
 6621SOL    HW120762   3.388   3.252   6.226
 6621SOL    HW220763   3.433   3.297   6.377
 6622SOL     OW20764   6.028   6.174   2.273
 6622SOL    HW120765   6.016   6.273   2.275
 6622SOL    HW220766   6.123   6.152   2.295
 6623SOL     OW20767   3.483   2.950   4.616
 6623SOL    HW120768   3.528   3.036   4.640
 6623SOL    HW220769   3.502   2.928   4.520
 6624SOL     OW20770   6.730   4.330   5.602
 6624SOL    HW120771   6.667   4.390   5.651
 6624SOL    HW220772   6.821   4.338   5.642
 6625SOL     OW20773   5.117   1.969   5.219
 6625SOL    HW120774   5.073   2.050   5.257
 6625SOL    HW220775   5.137   1.985   5.122
 6626SOL     OW20776   3.574   6.779   5.460
 6626SOL    HW120777   3.513   6.751   5.534
 6626SOL    HW220778   3.617   6.698   5.420
 6627SOL     OW20779   1.811   6.421   5.316
 6627SOL    HW120780   1.770   6.334   5.288
 6627SOL    HW220781   1.812   6.426   5.416
 6628SOL     OW20782   6.128   4.732   4.672
 6628SOL    HW120783   6.079   4.703   4.754
 6628SOL    HW220784   6.220   4.694   4.672
 6629SOL     OW20785   4.694   6.633   6.443
 6629SOL    HW120786   4.600   6.617   6.412
 6629SOL    HW220787   4.695   6.706   6.512
 6630SOL     OW20788   3.643   2.114   1.447
 6630SOL    HW120789   3.591   2.042   1.402
 6630SOL    HW220790   3.601   2.134   1.536
 6631SOL     OW20791   2.338   5.866   3.682
 6631SOL    HW120792   2.420   5.852   3.627
 6631SOL    HW220793   2.351   5.825   3.772
 6632SOL     OW20794   1.202   0.832   1.169
 6632SOL    HW120795   1.214   0.785   1.081
 6632SOL    HW220796   1.178   0.766   1.240
 6633SOL     OW20797   2.430   4.961   6.421
 6633SOL    HW120798   2.357   5.024   6.448
 6633SOL    HW220799   2.516   4.989   6.465
 6634SOL     OW20800   5.160   1.472   4.670
 6634SOL    HW120801   5.098   1.480   4.748
 6634SOL    HW220802   5.177   1.563   4.631
 6635SOL     OW20803   4.736   4.279   2.743
 6635SOL    HW120804   4.742   4.201   2.680
 6635SOL    HW220805   4.700   4.358   2.694
 6636SOL     OW20806   4.674   1.852   6.807
 6636SOL    HW120807   4.774   1.852   6.812
 6636SOL    HW220808   4.638   1.779   6.865
 6637SOL     OW20809   0.693   7.018   6.765
 6637SOL    HW120810   0.775   7.017   6.707
 6637SOL    HW220811   0.613   6.994   6.709
 6638SOL     OW20812   3.307   3.728   3.217
 6638SOL    HW120813   3.242   3.656   3.193
 6638SOL    HW220814   3.261   3.817   3.216
 6639SOL     OW20815   4.955   4.554   6.545
 6639SOL    HW120816   4.965   4.455   6.534
 6639SOL    HW220817   4.881   4.573   6.610
 6640SOL     OW20818   6.601   2.299   4.796
 6640SOL    HW120819   6.560   2.313   4.706
 6640SOL    HW220820   6.529   2.297   4.865
 6641SOL     OW20821   2.883   1.283   6.978
 6641SOL    HW120822   2.982   1.268   6.972
 6641SOL    HW220823   2.859   1.308   0.046
 6642SOL     OW20824   2.440   6.409   7.009
 6642SOL    HW120825   2.382   6.347   0.037
 6642SOL    HW220826   2.456   6.369   6.918
 6643SOL     OW20827   5.114   6.327   0.326
 6643SOL    HW120828   5.190   6.262   0.323
 6643SOL    HW220829   5.127   6.397   0.255
 6644SOL     OW20830   2.779   5.264   1.085
 6644SOL    HW120831   2.728   5.233   1.165
 6644SOL    HW220832   2.833   5.188   1.048
 6645SOL     OW20833   5.693   4.197   0.874
 6645SOL    HW120834   5.782   4.225   0.838
 6645SOL    HW220835   5.655   4.270   0.931
 6646SOL     OW20836   4.396   1.047   4.995
 6646SOL    HW120837   4.364   1.081   5.083
 6646SOL    HW220838   4.481   0.996   5.008
 6647SOL     OW20839   4.678   0.394   1.395
 6647SOL    HW120840   4.691   0.453   1.474
 6647SOL    HW220841   4.738   0.314   1.403
 6648SOL     OW20842   3.441   6.401   4.129
 6648SOL    HW120843   3.531   6.404   4.172
 6648SOL    HW220844   3.451   6.380   4.032
 6649SOL     OW20845   5.557   1.634   6.411
 6649SOL    HW120846   5.619   1.555   6.413
 6649SOL    HW220847   5.561   1.678   6.322
 6650SOL     OW20848   3.815   1.364   5.875
 6650SOL    HW120849   3.822   1.340   5.778
 6650SOL    HW220850   3.906   1.380   5.913
 6651SOL     OW20851   2.393   0.563   5.809
 6651SOL    HW120852   2.380   0.465   5.797
 6651SOL    HW220853   2.481   0.580   5.853
 6652SOL     OW20854   0.265   4.303   6.837
 6652SOL    HW120855   0.301   4.236   6.902
 6652SOL    HW220856   0.341   4.344   6.786
 6653SOL     OW20857   3.992   4.266   1.638
 6653SOL    HW120858   3.969   4.175   1.674
 6653SOL    HW220859   3.914   4.327   1.647
 6654SOL     OW20860   2.108   5.388   1.362
 6654SOL    HW120861   2.042   5.372   1.434
 6654SOL    HW220862   2.090   5.326   1.285
 6655SOL     OW20863   0.640   6.568   4.023
 6655SOL    HW120864   0.595   6.480   4.004
 6655SOL    HW220865   0.690   6.562   4.110
 6656SOL     OW20866   5.764   2.206   3.105
 6656SOL    HW120867   5.833   2.156   3.157
 6656SOL    HW220868   5.729   2.147   3.032
 6657SOL     OW20869   5.606   4.796   6.020
 6657SOL    HW120870   5.619   4.887   5.981
 6657SOL    HW220871   5.512   4.789   6.056
 6658SOL     OW20872   5.017   1.042   4.862
 6658SOL    HW120873   5.113   1.035   4.891
 6658SOL    HW220874   4.998   1.137   4.836
 6659SOL     OW20875   2.346   2.606   0.763
 6659SOL    HW120876   2.420   2.543   0.741
 6659SOL    HW220877   2.263   2.554   0.785
 6660SOL     OW20878   1.776   4.369   1.243
 6660SOL    HW120879   1.868   4.401   1.267
 6660SOL    HW220880   1.723   4.357   1.327
 6661SOL     OW20881   1.486   0.186   5.057
 6661SOL    HW120882   1.568   0.129   5.054
 6661SOL    HW220883   1.501   0.270   5.005
 6662SOL     OW20884   0.859   0.229   0.610
 6662SOL    HW120885   0.941   0.199   0.659
 6662SOL    HW220886   0.779   0.185   0.650
 6663SOL     OW20887   6.603   6.223   4.590
 6663SOL    HW120888   6.506   6.208   4.567
 6663SOL    HW220889   6.615   6.317   4.621
 6664SOL     OW20890   2.217   6.925   0.606
 6664SOL    HW120891   2.137   6.913   0.547
 6664SOL    HW220892   2.300   6.922   0.551
 6665SOL     OW20893   1.813   6.198   4.648
 6665SOL    HW120894   1.756   6.170   4.571
 6665SOL    HW220895   1.797   6.137   4.725
 6666SOL     OW20896   6.098   6.674   6.571
 6666SOL    HW120897   6.189   6.716   6.561
 6666SOL    HW220898   6.108   6.574   6.575
 6667SOL     OW20899   6.836   6.729   5.992
 6667SOL    HW120900   6.774   6.682   5.929
 6667SOL    HW220901   6.804   6.822   6.008
 6668SOL     OW20902   0.027   5.842   1.021
 6668SOL    HW120903   0.009   5.831   1.119
 6668SOL    HW220904   0.065   5.758   0.984
 6669SOL     OW20905   2.640   1.993   1.871
 6669SOL    HW120906   2.608   1.945   1.952
 6669SOL    HW220907   2.672   2.084   1.896
 6670SOL     OW20908   3.220   1.679   5.341
 6670SOL    HW120909   3.185   1.735   5.416
 6670SOL    HW220910   3.251   1.738   5.266
 6671SOL     OW20911   4.244   6.890   0.625
 6671SOL    HW120912   4.176   6.827   0.588
 6671SOL    HW220913   4.273   6.857   0.715
 6672SOL     OW20914   6.232   2.812   6.777
 6672SOL    HW120915   6.224   2.805   6.876
 6672SOL    HW220916   6.287   2.891   6.753
 6673SOL     OW20917   4.742   4.324   3.918
 6673SOL    HW120918   4.718   4.246   3.975
 6673SOL    HW220919   4.667   4.390   3.919
 6674SOL     OW20920   0.742   3.348   7.008
 6674SOL    HW120921   0.829   3.331   6.963
 6674SOL    HW220922   0.728   3.446   7.020
 6675SOL     OW20923   5.765   3.533   0.499
 6675SOL    HW120924   5.753   3.485   0.412
 6675SOL    HW220925   5.828   3.609   0.486
 6676SOL     OW20926   0.463   3.666   5.270
 6676SOL    HW120927   0.523   3.735   5.231
 6676SOL    HW220928   0.471   3.667   5.369
 6677SOL     OW20929   1.097   1.970   6.235
 6677SOL    HW120930   1.067   1.944   6.326
 6677SOL    HW220931   1.195   1.950   6.225
 6678SOL     OW20932   3.876   3.670   0.459
 6678SOL    HW120933   3.920   3.743   0.407
 6678SOL    HW220934   3.888   3.583   0.411
 6679SOL     OW20935   3.074   0.646   4.464
 6679SOL    HW120936   3.159   0.684   4.425
 6679SOL    HW220937   3.072   0.662   4.562
 6680SOL     OW20938   4.662   6.807   6.649
 6680SOL    HW120939   4.656   6.907   6.656
 6680SOL    HW220940   4.611   6.766   6.724
 6681SOL     OW20941   4.117   5.301   0.812
 6681SOL    HW120942   4.072   5.379   0.855
 6681SOL    HW220943   4.112   5.221   0.873
 6682SOL     OW20944   1.651   4.334   0.986
 6682SOL    HW120945   1.696   4.316   1.074
 6682SOL    HW220946   1.719   4.342   0.914
 6683SOL     OW20947   6.016   2.956   5.224
 6683SOL    HW120948   6.028   2.984   5.129
 6683SOL    HW220949   5.922   2.973   5.253
 6684SOL     OW20950   3.551   6.201   2.031
 6684SOL    HW120951   3.604   6.171   2.110
 6684SOL    HW220952   3.598   6.277   1.986
 6685SOL     OW20953   5.224   2.871   6.110
 6685SOL    HW120954   5.292   2.826   6.168
 6685SOL    HW220955   5.264   2.953   6.070
 6686SOL     OW20956   4.893   5.410   4.120
 6686SOL    HW120957   4.921   5.488   4.175
 6686SOL    HW220958   4.946   5.330   4.147
 6687SOL     OW20959   0.776   3.232   1.633
 6687SOL    HW120960   0.721   3.161   1.587
 6687SOL    HW220961   0.846   3.188   1.689
 6688SOL     OW20962   5.810   4.409   1.477
 6688SOL    HW120963   5.869   4.333   1.503
 6688SOL    HW220964   5.738   4.377   1.416
 6689SOL     OW20965   3.761   3.583   6.259
 6689SOL    HW120966   3.857   3.556   6.264
 6689SOL    HW220967   3.754   3.682   6.258
 6690SOL     OW20968   0.026   0.235   1.235
 6690SOL    HW120969   7.021   0.258   1.327
 6690SOL    HW220970   6.973   0.217   1.177
 6691SOL     OW20971   2.352   0.270   2.045
 6691SOL    HW120972   2.358   0.173   2.022
 6691SOL    HW220973   2.358   0.282   2.144
 6692SOL     OW20974   4.113   3.726   3.921
 6692SOL    HW120975   4.156   3.718   4.011
 6692SOL    HW220976   4.031   3.782   3.928
 6693SOL     OW20977   3.724   2.281   5.316
 6693SOL    HW120978   3.791   2.341   5.358
 6693SOL    HW220979   3.633   2.324   5.320
 6694SOL     OW20980   4.008   5.563   1.474
 6694SOL    HW120981   4.096   5.525   1.504
 6694SOL    HW220982   3.997   5.655   1.511
 6695SOL     OW20983   3.250   2.211   6.901
 6695SOL    HW120984   3.245   2.136   6.966
 6695SOL    HW220985   3.176   2.276   6.920
 6696SOL     OW20986   3.229   2.973   4.396
 6696SOL    HW120987   3.316   2.935   4.425
 6696SOL    HW220988   3.167   2.979   4.475
 6697SOL     OW20989   4.634   1.861   3.277
 6697SOL    HW120990   4.625   1.767   3.309
 6697SOL    HW220991   4.586   1.922   3.340
 6698SOL     OW20992   3.285   1.949   0.476
 6698SOL    HW120993   3.275   1.924   0.379
 6698SOL    HW220994   3.213   2.013   0.501
 6699SOL     OW20995   2.717   5.732   5.598
 6699SOL    HW120996   2.662   5.811   5.571
 6699SOL    HW220997   2.730   5.732   5.697
 6700SOL     OW20998   0.115   1.145   1.300
 6700SOL    HW120999   0.097   1.099   1.214
 6700SOL    HW221000   0.195   1.204   1.290
 6701SOL     OW21001   5.938   5.394   1.639
 6701SOL    HW121002   5.972   5.468   1.696
 6701SOL    HW221003   5.842   5.410   1.616
 6702SOL     OW21004   3.097   2.146   1.179
 6702SOL    HW121005   3.134   2.152   1.271
 6702SOL    HW221006   3.036   2.067   1.173
 6703SOL     OW21007   6.030   0.739   0.679
 6703SOL    HW121008   5.994   0.787   0.758
 6703SOL    HW221009   5.957   0.688   0.634
 6704SOL     OW21010   3.733   1.945   3.225
 6704SOL    HW121011   3.652   1.976   3.275
 6704SOL    HW221012   3.796   1.899   3.288
 6705SOL     OW21013   6.376   3.908   1.413
 6705SOL    HW121014   6.377   3.851   1.495
 6705SOL    HW221015   6.470   3.925   1.383
 6706SOL     OW21016   1.819   4.918   1.440
 6706SOL    HW121017   1.769   4.889   1.522
 6706SOL    HW221018   1.891   4.982   1.466
 6707SOL     OW21019   6.036   6.749   3.277
 6707SOL    HW121020   5.964   6.777   3.213
 6707SOL    HW221021   6.016   6.657   3.311
 6708SOL     OW21022   6.628   4.555   0.566
 6708SOL    HW121023   6.618   4.627   0.496
 6708SOL    HW221024   6.690   4.485   0.532
 6709SOL     OW21025   2.096   6.536   2.262
 6709SOL    HW121026   2.099   6.437   2.253
 6709SOL    HW221027   2.009   6.570   2.226
 6710SOL     OW21028   4.197   1.390   6.476
 6710SOL    HW121029   4.184   1.349   6.566
 6710SOL    HW221030   4.250   1.474   6.485
 6711SOL     OW21031   4.875   6.554   5.606
 6711SOL    HW121032   4.894   6.459   5.581
 6711SOL    HW221033   4.926   6.578   5.688
 6712SOL     OW21034   5.583   4.356   0.379
 6712SOL    HW121035   5.577   4.318   0.471
 6712SOL    HW221036   5.634   4.293   0.320
 6713SOL     OW21037   2.276   0.511   2.788
 6713SOL    HW121038   2.218   0.441   2.746
 6713SOL    HW221039   2.364   0.471   2.814
 6714SOL     OW21040   6.340   0.856   5.896
 6714SOL    HW121041   6.363   0.823   5.805
 6714SOL    HW221042   6.354   0.782   5.963
 6715SOL     OW21043   0.555   0.354   0.841
 6715SOL    HW121044   0.497   0.333   0.920
 6715SOL    HW221045   0.646   0.380   0.873
 6716SOL     OW21046   0.443   5.455   2.030
 6716SOL    HW121047   0.525   5.423   1.984
 6716SOL    HW221048   0.468   5.496   2.118
 6717SOL     OW21049   3.919   2.999   6.779
 6717SOL    HW121050   3.842   2.958   6.828
 6717SOL    HW221051   3.982   2.927   6.751
 6718SOL     OW21052   5.292   0.976   0.834
 6718SOL    HW121053   5.293   0.946   0.739
 6718SOL    HW221054   5.375   1.029   0.854
 6719SOL     OW21055   2.843   6.700   0.124
 6719SOL    HW121056   2.827   6.737   0.215
 6719SOL    HW221057   2.778   6.626   0.106
 6720SOL     OW21058   1.812   0.111   4.611
 6720SOL    HW121059   1.892   0.111   4.551
 6720SOL    HW221060   1.730   0.090   4.557
 6721SOL     OW21061   6.336   6.381   0.313
 6721SOL    HW121062   6.343   6.310   0.242
 6721SOL    HW221063   6.404   6.451   0.296
 6722SOL     OW21064   6.708   3.097   1.548
 6722SOL    HW121065   6.806   3.101   1.571
 6722SOL    HW221066   6.684   3.003   1.524
 6723SOL     OW21067   1.847   6.657   4.912
 6723SOL    HW121068   1.829   6.621   4.821
 6723SOL    HW221069   1.909   6.596   4.961
 6724SOL     OW21070   2.221   3.904   5.823
 6724SOL    HW121071   2.129   3.875   5.796
 6724SOL    HW221072   2.287   3.877   5.753
 6725SOL     OW21073   0.424   3.633   1.421
 6725SOL    HW121074   0.454   3.727   1.438
 6725SOL    HW221075   0.476   3.594   1.345
 6726SOL     OW21076   1.197   2.437   4.929
 6726SOL    HW121077   1.134   2.378   4.878
 6726SOL    HW221078   1.171   2.532   4.916
 6727SOL     OW21079   0.783   4.439   5.197
 6727SOL    HW121080   0.827   4.439   5.287
 6727SOL    HW221081   0.688   4.469   5.206
 6728SOL     OW21082   3.433   2.032   2.219
 6728SOL    HW121083   3.457   2.025   2.316
 6728SOL    HW221084   3.513   2.061   2.167
 6729SOL     OW21085   6.013   0.622   2.155
 6729SOL    HW121086   6.082   0.682   2.113
 6729SOL    HW221087   5.924   0.638   2.111
 6730SOL     OW21088   1.810   6.616   1.572
 6730SOL    HW121089   1.832   6.532   1.620
 6730SOL    HW221090   1.895   6.666   1.551
 6731SOL     OW21091   1.309   6.431   1.148
 6731SOL    HW121092   1.254   6.426   1.064
 6731SOL    HW221093   1.361   6.347   1.160
 6732SOL     OW21094   5.613   4.409   5.475
 6732SOL    HW121095   5.587   4.504   5.463
 6732SOL    HW221096   5.635   4.393   5.572
 6733SOL     OW21097   3.470   5.519   6.509
 6733SOL    HW121098   3.547   5.461   6.537
 6733SOL    HW221099   3.503   5.609   6.481
 6734SOL     OW21100   5.785   2.309   3.942
 6734SOL    HW121101   5.793   2.353   3.853
 6734SOL    HW221102   5.796   2.210   3.932
 6735SOL     OW21103   6.509   4.172   4.885
 6735SOL    HW121104   6.580   4.235   4.855
 6735SOL    HW221105   6.439   4.163   4.815
 6736SOL     OW21106   3.038   3.825   0.303
 6736SOL    HW121107   2.953   3.810   0.252
 6736SOL    HW221108   3.116   3.810   0.242
 6737SOL     OW21109   1.439   2.748   0.878
 6737SOL    HW121110   1.380   2.673   0.907
 6737SOL    HW221111   1.527   2.711   0.847
 6738SOL     OW21112   1.584   6.032   3.604
 6738SOL    HW121113   1.627   5.968   3.668
 6738SOL    HW221114   1.540   5.981   3.530
 6739SOL     OW21115   4.285   5.832   4.592
 6739SOL    HW121116   4.335   5.779   4.661
 6739SOL    HW221117   4.348   5.896   4.548
 6740SOL     OW21118   0.525   6.802   4.938
 6740SOL    HW121119   0.581   6.833   5.014
 6740SOL    HW221120   0.430   6.833   4.952
 6741SOL     OW21121   4.352   1.836   5.087
 6741SOL    HW121122   4.360   1.801   4.993
 6741SOL    HW221123   4.428   1.802   5.142
 6742SOL     OW21124   5.543   5.702   3.352
 6742SOL    HW121125   5.565   5.743   3.441
 6742SOL    HW221126   5.578   5.760   3.279
 6743SOL     OW21127   4.014   4.711   6.736
 6743SOL    HW121128   3.916   4.715   6.716
 6743SOL    HW221129   4.062   4.666   6.661
 6744SOL     OW21130   6.270   4.410   6.086
 6744SOL    HW121131   6.231   4.485   6.139
 6744SOL    HW221132   6.329   4.447   6.014
 6745SOL     OW21133   0.145   6.819   3.745
 6745SOL    HW121134   0.179   6.801   3.652
 6745SOL    HW221135   0.088   6.901   3.744
 6746SOL     OW21136   0.745   1.044   3.731
 6746SOL    HW121137   0.761   1.142   3.736
 6746SOL    HW221138   0.727   1.018   3.636
 6747SOL     OW21139   5.495   1.544   4.649
 6747SOL    HW121140   5.519   1.597   4.730
 6747SOL    HW221141   5.417   1.486   4.669
 6748SOL     OW21142   3.112   1.776   3.958
 6748SOL    HW121143   3.018   1.773   3.923
 6748SOL    HW221144   3.176   1.760   3.883
 6749SOL     OW21145   3.504   4.603   0.402
 6749SOL    HW121146   3.552   4.557   0.477
 6749SOL    HW221147   3.425   4.652   0.438
 6750SOL     OW21148   3.423   1.825   4.464
 6750SOL    HW121149   3.326   1.816   4.442
 6750SOL    HW221150   3.445   1.766   4.542
 6751SOL     OW21151   4.893   7.005   3.070
 6751SOL    HW121152   4.927   6.991   3.163
 6751SOL    HW221153   4.961   6.972   3.005
 6752SOL     OW21154   1.521   0.868   3.027
 6752SOL    HW121155   1.503   0.785   3.079
 6752SOL    HW221156   1.582   0.928   3.080
 6753SOL     OW21157   3.031   0.667   6.383
 6753SOL    HW121158   3.063   0.759   6.402
 6753SOL    HW221159   3.109   0.604   6.384
 6754SOL     OW21160   6.832   1.923   0.727
 6754SOL    HW121161   6.908   1.937   0.790
 6754SOL    HW221162   6.747   1.913   0.779
 6755SOL     OW21163   4.121   0.907   2.478
 6755SOL    HW121164   4.162   0.832   2.530
 6755SOL    HW221165   4.139   0.894   2.381
 6756SOL     OW21166   3.789   5.900   5.370
 6756SOL    HW121167   3.723   5.879   5.298
 6756SOL    HW221168   3.872   5.844   5.357
 6757SOL     OW21169   3.814   2.323   0.665
 6757SOL    HW121170   3.909   2.351   0.677
 6757SOL    HW221171   3.811   2.233   0.621
 6758SOL     OW21172   6.263   1.902   2.411
 6758SOL    HW121173   6.329   1.879   2.340
 6758SOL    HW221174   6.309   1.908   2.499
 6759SOL     OW21175   1.163   4.276   4.559
 6759SOL    HW121176   1.242   4.309   4.507
 6759SOL    HW221177   1.106   4.218   4.500
 6760SOL     OW21178   6.528   4.414   2.559
 6760SOL    HW121179   6.513   4.366   2.473
 6760SOL    HW221180   6.540   4.348   2.633
 6761SOL     OW21181   6.601   2.393   5.456
 6761SOL    HW121182   6.525   2.360   5.400
 6761SOL    HW221183   6.566   2.436   5.539
 6762SOL     OW21184   0.874   4.975   4.834
 6762SOL    HW121185   0.782   4.937   4.818
 6762SOL    HW221186   0.943   4.906   4.812
 6763SOL     OW21187   0.271   5.377   3.654
 6763SOL    HW121188   0.199   5.342   3.714
 6763SOL    HW221189   0.231   5.411   3.570
 6764SOL     OW21190   1.351   5.915   0.940
 6764SOL    HW121191   1.377   6.006   0.907
 6764SOL    HW221192   1.424   5.850   0.920
 6765SOL     OW21193   5.271   4.607   3.714
 6765SOL    HW121194   5.368   4.611   3.734
 6765SOL    HW221195   5.219   4.626   3.798
 6766SOL     OW21196   5.092   6.552   6.098
 6766SOL    HW121197   5.148   6.631   6.075
 6766SOL    HW221198   5.029   6.576   6.172
 6767SOL     OW21199   2.319   1.667   0.995
 6767SOL    HW121200   2.351   1.743   1.050
 6767SOL    HW221201   2.396   1.627   0.945
 6768SOL     OW21202   1.287   6.611   4.555
 6768SOL    HW121203   1.272   6.669   4.475
 6768SOL    HW221204   1.385   6.594   4.567
 6769SOL     OW21205   2.472   0.411   6.065
 6769SOL    HW121206   2.392   0.465   6.037
 6769SOL    HW221207   2.503   0.356   5.988
 6770SOL     OW21208   5.701   1.746   3.605
 6770SOL    HW121209   5.666   1.770   3.514
 6770SOL    HW221210   5.780   1.686   3.596
 6771SOL     OW21211   3.527   1.303   2.651
 6771SOL    HW121212   3.460   1.254   2.707
 6771SOL    HW221213   3.613   1.253   2.652
 6772SOL     OW21214   4.505   2.533   2.600
 6772SOL    HW121215   4.432   2.467   2.618
 6772SOL    HW221216   4.501   2.606   2.669
 6773SOL     OW21217   0.031   5.781   1.598
 6773SOL    HW121218   0.056   5.871   1.562
 6773SOL    HW221219   0.112   5.738   1.639
 6774SOL     OW21220   1.040   3.864   5.391
 6774SOL    HW121221   1.108   3.925   5.351
 6774SOL    HW221222   1.061   3.770   5.366
 6775SOL     OW21223   2.725   2.315   2.278
 6775SOL    HW121224   2.728   2.415   2.276
 6775SOL    HW221225   2.803   2.278   2.229
 6776SOL     OW21226   4.516   3.699   0.242
 6776SOL    HW121227   4.580   3.696   0.165
 6776SOL    HW221228   4.521   3.613   0.293
 6777SOL     OW21229   4.918   4.705   0.759
 6777SOL    HW121230   4.862   4.751   0.690
 6777SOL    HW221231   5.015   4.714   0.734
 6778SOL     OW21232   6.465   5.791   2.136
 6778SOL    HW121233   6.465   5.853   2.059
 6778SOL    HW221234   6.557   5.754   2.150
 6779SOL     OW21235   5.427   5.942   5.717
 6779SOL    HW121236   5.362   5.882   5.764
 6779SOL    HW221237   5.483   5.990   5.785
 6780SOL     OW21238   1.721   2.651   2.373
 6780SOL    HW121239   1.721   2.567   2.428
 6780SOL    HW221240   1.641   2.707   2.398
 6781SOL     OW21241   6.787   2.357   4.079
 6781SOL    HW121242   6.860   2.385   4.141
 6781SOL    HW221243   6.755   2.436   4.027
 6782SOL     OW21244   0.739   0.793   2.879
 6782SOL    HW121245   0.792   0.810   2.962
 6782SOL    HW221246   0.661   0.857   2.876
 6783SOL     OW21247   6.623   1.033   5.872
 6783SOL    HW121248   6.526   1.051   5.859
 6783SOL    HW221249   6.636   0.971   5.949
 6784SOL     OW21250   1.850   3.353   1.016
 6784SOL    HW121251   1.805   3.441   0.996
 6784SOL    HW221252   1.943   3.370   1.047
 6785SOL     OW21253   6.217   5.781   4.771
 6785SOL    HW121254   6.182   5.772   4.864
 6785SOL    HW221255   6.175   5.711   4.713
 6786SOL     OW21256   1.807   2.055   0.679
 6786SOL    HW121257   1.902   2.086   0.676
 6786SOL    HW221258   1.805   1.958   0.700
 6787SOL     OW21259   2.626   2.457   0.200
 6787SOL    HW121260   2.530   2.443   0.223
 6787SOL    HW221261   2.632   2.502   0.111
 6788SOL     OW21262   1.526   4.362   1.445
 6788SOL    HW121263   1.458   4.316   1.503
 6788SOL    HW221264   1.480   4.420   1.379
 6789SOL     OW21265   0.876   4.991   3.360
 6789SOL    HW121266   0.893   4.931   3.438
 6789SOL    HW221267   0.895   5.086   3.387
 6790SOL     OW21268   0.672   3.772   0.677
 6790SOL    HW121269   0.697   3.853   0.623
 6790SOL    HW221270   0.727   3.770   0.761
 6791SOL     OW21271   3.573   1.961   1.950
 6791SOL    HW121272   3.616   2.047   1.978
 6791SOL    HW221273   3.602   1.938   1.857
 6792SOL     OW21274   5.822   6.829   4.458
 6792SOL    HW121275   5.866   6.771   4.390
 6792SOL    HW221276   5.724   6.810   4.462
 6793SOL     OW21277   2.139   1.274   0.346
 6793SOL    HW121278   2.130   1.337   0.270
 6793SOL    HW221279   2.163   1.183   0.311
 6794SOL     OW21280   5.048   0.969   5.476
 6794SOL    HW121281   5.064   0.921   5.390
 6794SOL    HW221282   5.066   0.908   5.553
 6795SOL     OW21283   1.542   6.506   0.846
 6795SOL    HW121284   1.484   6.552   0.913
 6795SOL    HW221285   1.491   6.491   0.761
 6796SOL     OW21286   5.726   1.300   3.346
 6796SOL    HW121287   5.745   1.283   3.249
 6796SOL    HW221288   5.629   1.282   3.365
 6797SOL     OW21289   6.646   2.348   1.669
 6797SOL    HW121290   6.664   2.410   1.746
 6797SOL    HW221291   6.707   2.269   1.675
 6798SOL     OW21292   6.264   6.476   2.135
 6798SOL    HW121293   6.335   6.484   2.205
 6798SOL    HW221294   6.285   6.397   2.076
 6799SOL     OW21295   6.951   0.372   1.894
 6799SOL    HW121296   6.851   0.383   1.900
 6799SOL    HW221297   6.995   0.454   1.929
 6800SOL     OW21298   2.066   2.549   2.041
 6800SOL    HW121299   2.028   2.522   1.952
 6800SOL    HW221300   2.135   2.619   2.027
 6801SOL     OW21301   0.826   0.169   3.023
 6801SOL    HW121302   0.857   0.075   3.009
 6801SOL    HW221303   0.864   0.204   3.109
 6802SOL     OW21304   3.719   6.039   1.668
 6802SOL    HW121305   3.668   5.999   1.592
 6802SOL    HW221306   3.807   5.993   1.677
 6803SOL     OW21307   4.111   3.421   5.567
 6803SOL    HW121308   4.082   3.410   5.662
 6803SOL    HW221309   4.152   3.511   5.554
 6804SOL     OW21310   3.333   5.315   3.655
 6804SOL    HW121311   3.247   5.322   3.705
 6804SOL    HW221312   3.328   5.236   3.593
 6805SOL     OW21313   0.464   4.762   6.287
 6805SOL    HW121314   0.506   4.776   6.197
 6805SOL    HW221315   0.488   4.672   6.323
 6806SOL     OW21316   6.520   0.792   2.848
 6806SOL    HW121317   6.486   0.716   2.903
 6806SOL    HW221318   6.598   0.835   2.895
 6807SOL     OW21319   3.094   3.339   1.212
 6807SOL    HW121320   3.100   3.380   1.303
 6807SOL    HW221321   3.096   3.411   1.143
 6808SOL     OW21322   6.765   1.958   6.375
 6808SOL    HW121323   6.687   1.943   6.314
 6808SOL    HW221324   6.750   1.911   6.461
 6809SOL     OW21325   0.768   3.205   1.203
 6809SOL    HW121326   0.828   3.267   1.252
 6809SOL    HW221327   0.776   3.220   1.105
 6810SOL     OW21328   2.194   1.121   2.208
 6810SOL    HW121329   2.186   1.220   2.217
 6810SOL    HW221330   2.152   1.092   2.121
 6811SOL     OW21331   5.597   3.791   1.694
 6811SOL    HW121332   5.531   3.867   1.694
 6811SOL    HW221333   5.555   3.711   1.738
 6812SOL     OW21334   3.151   3.533   4.485
 6812SOL    HW121335   3.071   3.580   4.521
 6812SOL    HW221336   3.177   3.459   4.547
 6813SOL     OW21337   5.692   3.756   3.024
 6813SOL    HW121338   5.783   3.722   2.999
 6813SOL    HW221339   5.658   3.705   3.103
 6814SOL     OW21340   3.807   1.958   6.092
 6814SOL    HW121341   3.791   2.043   6.040
 6814SOL    HW221342   3.905   1.939   6.095
 6815SOL     OW21343   3.428   6.000   0.625
 6815SOL    HW121344   3.404   6.065   0.697
 6815SOL    HW221345   3.409   5.907   0.656
 6816SOL     OW21346   6.647   0.875   6.117
 6816SOL    HW121347   6.645   0.776   6.102
 6816SOL    HW221348   6.652   0.894   6.215
 6817SOL     OW21349   2.068   2.484   2.734
 6817SOL    HW121350   2.006   2.423   2.785
 6817SOL    HW221351   2.104   2.553   2.796
 6818SOL     OW21352   2.717   6.590   1.171
 6818SOL    HW121353   2.622   6.602   1.199
 6818SOL    HW221354   2.754   6.505   1.209
 6819SOL     OW21355   3.965   1.612   2.968
 6819SOL    HW121356   3.891   1.679   2.975
 6819SOL    HW221357   3.953   1.557   2.885
 6820SOL     OW21358   2.148   6.260   1.288
 6820SOL    HW121359   2.215   6.265   1.214
 6820SOL    HW221360   2.180   6.196   1.358
 6821SOL     OW21361   4.021   2.143   5.219
 6821SOL    HW121362   3.931   2.175   5.188
 6821SOL    HW221363   4.014   2.046   5.244
 6822SOL     OW21364   5.838   2.446   5.701
 6822SOL    HW121365   5.859   2.433   5.798
 6822SOL    HW221366   5.751   2.401   5.679
 6823SOL     OW21367   5.391   3.585   5.741
 6823SOL    HW121368   5.483   3.546   5.736
 6823SOL    HW221369   5.387   3.666   5.682
 6824SOL     OW21370   1.227   1.713   0.098
 6824SOL    HW121371   1.174   1.645   0.149
 6824SOL    HW221372   1.277   1.770   0.162
 6825SOL     OW21373   5.479   0.161   0.431
 6825SOL    HW121374   5.468   0.224   0.508
 6825SOL    HW221375   5.413   0.183   0.359
 6826SOL     OW21376   2.101   3.468   3.398
 6826SOL    HW121377   2.039   3.493   3.324
 6826SOL    HW221378   2.180   3.419   3.361
 6827SOL     OW21379   4.531   4.978   6.260
 6827SOL    HW121380   4.535   5.074   6.230
 6827SOL    HW221381   4.522   4.975   6.360
 6828SOL     OW21382   3.373   1.214   1.902
 6828SOL    HW121383   3.365   1.154   1.822
 6828SOL    HW221384   3.314   1.180   1.975
 6829SOL     OW21385   4.944   5.818   4.649
 6829SOL    HW121386   4.881   5.892   4.624
 6829SOL    HW221387   4.936   5.799   4.746
 6830SOL     OW21388   5.032   0.612   3.122
 6830SOL    HW121389   5.045   0.541   3.052
 6830SOL    HW221390   5.034   0.570   3.213
 6831SOL     OW21391   1.178   0.415   6.742
 6831SOL    HW121392   1.163   0.495   6.684
 6831SOL    HW221393   1.111   0.344   6.719
 6832SOL     OW21394   2.308   4.424   0.748
 6832SOL    HW121395   2.294   4.417   0.649
 6832SOL    HW221396   2.265   4.345   0.792
 6833SOL     OW21397   3.344   4.740   6.065
 6833SOL    HW121398   3.282   4.739   5.986
 6833SOL    HW221399   3.438   4.726   6.034
 6834SOL     OW21400   4.906   6.991   0.674
 6834SOL    HW121401   4.909   6.933   0.593
 6834SOL    HW221402   4.967   6.955   0.744
 6835SOL     OW21403   4.372   0.517   4.661
 6835SOL    HW121404   4.325   0.428   4.658
 6835SOL    HW221405   4.310   0.589   4.632
 6836SOL     OW21406   2.798   4.338   0.477
 6836SOL    HW121407   2.813   4.407   0.548
 6836SOL    HW221408   2.752   4.380   0.399
 6837SOL     OW21409   0.623   2.388   2.487
 6837SOL    HW121410   0.629   2.292   2.511
 6837SOL    HW221411   0.616   2.444   2.570
 6838SOL     OW21412   3.537   6.317   0.184
 6838SOL    HW121413   3.530   6.230   0.135
 6838SOL    HW221414   3.460   6.326   0.247
 6839SOL     OW21415   5.921   1.389   6.486
 6839SOL    HW121416   5.946   1.483   6.511
 6839SOL    HW221417   5.830   1.389   6.445
 6840SOL     OW21418   3.303   0.753   4.380
 6840SOL    HW121419   3.367   0.822   4.414
 6840SOL    HW221420   3.345   0.701   4.306
 6841SOL     OW21421   4.405   4.767   0.487
 6841SOL    HW121422   4.329   4.750   0.425
 6841SOL    HW221423   4.487   4.722   0.452
 6842SOL     OW21424   2.774   3.905   0.758
 6842SOL    HW121425   2.831   3.895   0.677
 6842SOL    HW221426   2.773   3.819   0.810
 6843SOL     OW21427   6.075   6.641   2.022
 6843SOL    HW121428   6.145   6.582   2.063
 6843SOL    HW221429   5.991   6.590   2.008
 6844SOL     OW21430   4.599   0.276   3.679
 6844SOL    HW121431   4.598   0.183   3.643
 6844SOL    HW221432   4.518   0.292   3.734
 6845SOL     OW21433   6.095   4.717   3.919
 6845SOL    HW121434   6.151   4.770   3.982
 6845SOL    HW221435   6.154   4.671   3.852
 6846SOL     OW21436   3.918   3.057   0.527
 6846SOL    HW121437   3.853   3.079   0.454
 6846SOL    HW221438   4.007   3.097   0.506
 6847SOL     OW21439   0.320   4.153   3.539
 6847SOL    HW121440   0.240   4.203   3.504
 6847SOL    HW221441   0.347   4.191   3.627
 6848SOL     OW21442   4.508   6.737   3.715
 6848SOL    HW121443   4.435   6.724   3.648
 6848SOL    HW221444   4.518   6.654   3.770
 6849SOL     OW21445   4.158   4.880   5.005
 6849SOL    HW121446   4.174   4.843   4.914
 6849SOL    HW221447   4.060   4.895   5.018
 6850SOL     OW21448   6.142   4.337   2.497
 6850SOL    HW121449   6.069   4.381   2.446
 6850SOL    HW221450   6.229   4.350   2.450
 6851SOL     OW21451   0.828   2.403   2.840
 6851SOL    HW121452   0.823   2.455   2.926
 6851SOL    HW221453   0.784   2.456   2.767
 6852SOL     OW21454   2.754   4.998   0.160
 6852SOL    HW121455   2.727   5.088   0.193
 6852SOL    HW221456   2.782   5.004   0.064
 6853SOL     OW21457   6.368   3.977   0.364
 6853SOL    HW121458   6.330   4.069   0.352
 6853SOL    HW221459   6.321   3.913   0.304
 6854SOL     OW21460   4.753   2.153   6.461
 6854SOL    HW121461   4.852   2.145   6.470
 6854SOL    HW221462   4.732   2.202   6.376
 6855SOL     OW21463   3.873   5.556   3.252
 6855SOL    HW121464   3.922   5.479   3.210
 6855SOL    HW221465   3.802   5.588   3.189
 6856SOL     OW21466   5.558   3.467   5.371
 6856SOL    HW121467   5.539   3.426   5.282
 6856SOL    HW221468   5.477   3.517   5.403
 6857SOL     OW21469   3.330   2.744   0.101
 6857SOL    HW121470   3.331   2.680   0.025
 6857SOL    HW221471   3.259   2.813   0.086
 6858SOL     OW21472   4.049   3.747   3.446
 6858SOL    HW121473   3.958   3.760   3.406
 6858SOL    HW221474   4.059   3.807   3.525
 6859SOL     OW21475   7.018   1.024   1.052
 6859SOL    HW121476   6.931   1.043   1.008
 6859SOL    HW221477   7.016   0.934   1.094
 6860SOL     OW21478   0.050   4.879   1.131
 6860SOL    HW121479   0.104   4.856   1.050
 6860SOL    HW221480   0.048   4.801   1.193
 6861SOL     OW21481   4.644   4.954   0.082
 6861SOL    HW121482   4.596   5.042   0.084
 6861SOL    HW221483   4.595   4.888   0.139
 6862SOL     OW21484   1.571   4.863   5.570
 6862SOL    HW121485   1.536   4.775   5.541
 6862SOL    HW221486   1.576   4.925   5.492
 6863SOL     OW21487   5.955   6.973   5.966
 6863SOL    HW121488   5.913   6.933   6.048
 6863SOL    HW221489   5.971   0.045   5.981
 6864SOL     OW21490   2.758   5.443   4.390
 6864SOL    HW121491   2.752   5.369   4.322
 6864SOL    HW221492   2.715   5.413   4.475
 6865SOL     OW21493   1.396   6.301   3.859
 6865SOL    HW121494   1.313   6.246   3.865
 6865SOL    HW221495   1.477   6.242   3.862
 6866SOL     OW21496   5.947   5.091   3.655
 6866SOL    HW121497   5.984   5.098   3.562
 6866SOL    HW221498   5.891   5.171   3.675
 6867SOL     OW21499   2.410   3.915   1.538
 6867SOL    HW121500   2.484   3.963   1.585
 6867SOL    HW221501   2.363   3.979   1.477
 6868SOL     OW21502   1.019   5.500   6.071
 6868SOL    HW121503   0.985   5.593   6.080
 6868SOL    HW221504   1.083   5.494   5.995
 6869SOL     OW21505   6.158   1.526   5.779
 6869SOL    HW121506   6.203   1.450   5.827
 6869SOL    HW221507   6.121   1.590   5.846
 6870SOL     OW21508   0.743   5.046   1.711
 6870SOL    HW121509   0.706   4.987   1.639
 6870SOL    HW221510   0.805   5.114   1.670
 6871SOL     OW21511   6.088   4.470   3.442
 6871SOL    HW121512   6.164   4.481   3.379
 6871SOL    HW221513   6.080   4.552   3.499
 6872SOL     OW21514   0.260   2.449   1.343
 6872SOL    HW121515   0.335   2.469   1.280
 6872SOL    HW221516   0.172   2.466   1.298
 6873SOL     OW21517   6.625   3.584   5.083
 6873SOL    HW121518   6.541   3.585   5.138
 6873SOL    HW221519   6.626   3.502   5.025
 6874SOL     OW21520   0.408   5.734   2.747
 6874SOL    HW121521   0.357   5.786   2.814
 6874SOL    HW221522   0.469   5.795   2.696
 6875SOL     OW21523   2.473   2.574   2.840
 6875SOL    HW121524   2.376   2.597   2.844
 6875SOL    HW221525   2.513   2.611   2.757
 6876SOL     OW21526   3.483   6.667   3.668
 6876SOL    HW121527   3.408   6.700   3.610
 6876SOL    HW221528   3.518   6.743   3.723
 6877SOL     OW21529   2.962   3.949   0.952
 6877SOL    HW121530   2.874   3.930   0.908
 6877SOL    HW221531   3.000   3.865   0.990
 6878SOL     OW21532   3.166   1.096   4.720
 6878SOL    HW121533   3.263   1.074   4.722
 6878SOL    HW221534   3.121   1.046   4.646
 6879SOL     OW21535   0.801   2.418   0.681
 6879SOL    HW121536   0.840   2.411   0.772
 6879SOL    HW221537   0.871   2.447   0.616
 6880SOL     OW21538   1.656   5.004   4.841
 6880SOL    HW121539   1.741   5.015   4.790
 6880SOL    HW221540   1.644   4.907   4.865
 6881SOL     OW21541   1.612   4.502   0.634
 6881SOL    HW121542   1.711   4.492   0.636
 6881SOL    HW221543   1.580   4.505   0.539
 6882SOL     OW21544   2.750   0.425   0.013
 6882SOL    HW121545   2.753   0.416   6.939
 6882SOL    HW221546   2.657   0.411   0.046
 6883SOL     OW21547   4.924   1.233   0.410
 6883SOL    HW121548   4.838   1.185   0.389
 6883SOL    HW221549   4.990   1.217   0.337
 6884SOL     OW21550   2.024   4.376   3.732
 6884SOL    HW121551   1.961   4.301   3.710
 6884SOL    HW221552   2.020   4.445   3.660
 6885SOL     OW21553   4.075   5.000   3.965
 6885SOL    HW121554   4.082   5.092   4.004
 6885SOL    HW221555   4.165   4.956   3.969
 6886SOL     OW21556   6.990   0.992   4.147
 6886SOL    HW121557   6.912   0.974   4.207
 6886SOL    HW221558   7.001   1.091   4.137
 6887SOL     OW21559   4.929   5.839   6.365
 6887SOL    HW121560   4.878   5.857   6.281
 6887SOL    HW221561   4.966   5.924   6.401
 6888SOL     OW21562   5.231   6.162   6.997
 6888SOL    HW121563   5.221   6.209   6.909
 6888SOL    HW221564   5.191   6.217   0.044
 6889SOL     OW21565   2.086   2.309   4.974
 6889SOL    HW121566   2.072   2.371   4.897
 6889SOL    HW221567   2.008   2.317   5.037
 6890SOL     OW21568   4.633   6.284   1.938
 6890SOL    HW121569   4.719   6.260   1.891
 6890SOL    HW221570   4.598   6.369   1.899
 6891SOL     OW21571   2.412   4.743   3.298
 6891SOL    HW121572   2.376   4.690   3.222
 6891SOL    HW221573   2.344   4.748   3.371
 6892SOL     OW21574   3.191   2.217   3.295
 6892SOL    HW121575   3.186   2.202   3.393
 6892SOL    HW221576   3.125   2.287   3.268
 6893SOL     OW21577   4.455   4.400   0.124
 6893SOL    HW121578   4.503   4.312   0.122
 6893SOL    HW221579   4.458   4.438   0.216
 6894SOL     OW21580   6.710   4.575   0.962
 6894SOL    HW121581   6.633   4.630   0.994
 6894SOL    HW221582   6.754   4.621   0.885
 6895SOL     OW21583   3.271   4.739   0.222
 6895SOL    HW121584   3.257   4.807   0.150
 6895SOL    HW221585   3.295   4.786   0.308
 6896SOL     OW21586   2.325   6.795   4.280
 6896SOL    HW121587   2.244   6.808   4.221
 6896SOL    HW221588   2.369   6.708   4.258
 6897SOL     OW21589   5.069   3.738   5.853
 6897SOL    HW121590   5.049   3.677   5.776
 6897SOL    HW221591   5.070   3.685   5.938
 6898SOL     OW21592   3.526   1.478   1.605
 6898SOL    HW121593   3.524   1.380   1.625
 6898SOL    HW221594   3.502   1.529   1.687
 6899SOL     OW21595   5.283   6.255   1.313
 6899SOL    HW121596   5.280   6.320   1.390
 6899SOL    HW221597   5.239   6.169   1.341
 6900SOL     OW21598   6.317   6.255   5.316
 6900SOL    HW121599   6.240   6.291   5.264
 6900SOL    HW221600   6.339   6.163   5.283
 6901SOL     OW21601   6.936   6.423   6.252
 6901SOL    HW121602   6.894   6.385   6.170
 6901SOL    HW221603   6.901   6.376   6.332
 6902SOL     OW21604   5.707   5.948   6.551
 6902SOL    HW121605   5.660   5.909   6.472
 6902SOL    HW221606   5.671   5.906   6.634
 6903SOL     OW21607   2.687   5.373   4.678
 6903SOL    HW121608   2.747   5.419   4.744
 6903SOL    HW221609   2.673   5.278   4.706
 6904SOL     OW21610   5.771   1.071   4.871
 6904SOL    HW121611   5.683   1.072   4.918
 6904SOL    HW221612   5.763   1.120   4.784
 6905SOL     OW21613   6.097   6.836   6.318
 6905SOL    HW121614   6.145   6.922   6.332
 6905SOL    HW221615   6.108   6.779   6.400
 6906SOL     OW21616   4.428   1.212   4.164
 6906SOL    HW121617   4.419   1.238   4.068
 6906SOL    HW221618   4.338   1.190   4.201
 6907SOL     OW21619   5.129   2.951   1.642
 6907SOL    HW121620   5.155   3.025   1.703
 6907SOL    HW221621   5.120   2.986   1.549
 6908SOL     OW21622   0.838   5.501   6.279
 6908SOL    HW121623   0.888   5.491   6.193
 6908SOL    HW221624   0.816   5.410   6.315
 6909SOL     OW21625   5.198   4.374   1.374
 6909SOL    HW121626   5.117   4.428   1.395
 6909SOL    HW221627   5.171   4.281   1.351
 6910SOL     OW21628   0.443   2.420   3.442
 6910SOL    HW121629   0.532   2.401   3.401
 6910SOL    HW221630   0.374   2.429   3.371
 6911SOL     OW21631   4.426   5.822   3.788
 6911SOL    HW121632   4.372   5.761   3.730
 6911SOL    HW221633   4.422   5.915   3.752
 6912SOL     OW21634   4.013   3.928   6.509
 6912SOL    HW121635   3.922   3.889   6.524
 6912SOL    HW221636   4.044   3.903   6.417
 6913SOL     OW21637   5.337   5.881   3.995
 6913SOL    HW121638   5.285   5.917   4.072
 6913SOL    HW221639   5.434   5.879   4.019
 6914SOL     OW21640   5.820   3.744   4.428
 6914SOL    HW121641   5.727   3.778   4.414
 6914SOL    HW221642   5.886   3.814   4.400
 6915SOL     OW21643   6.011   2.792   2.149
 6915SOL    HW121644   5.931   2.737   2.171
 6915SOL    HW221645   6.015   2.807   2.050
 6916SOL     OW21646   6.000   2.665   0.007
 6916SOL    HW121647   6.080   2.627   0.054
 6916SOL    HW221648   5.994   2.626   6.941
 6917SOL     OW21649   3.543   6.407   1.007
 6917SOL    HW121650   3.521   6.503   0.988
 6917SOL    HW221651   3.636   6.400   1.044
 6918SOL     OW21652   0.391   2.860   3.995
 6918SOL    HW121653   0.344   2.921   4.059
 6918SOL    HW221654   0.485   2.844   4.027
 6919SOL     OW21655   6.987   5.923   3.221
 6919SOL    HW121656   6.956   5.828   3.226
 6919SOL    HW221657   6.927   5.980   3.278
 6920SOL     OW21658   4.293   6.225   5.563
 6920SOL    HW121659   4.292   6.178   5.651
 6920SOL    HW221660   4.335   6.166   5.494
 6921SOL     OW21661   5.329   5.189   3.730
 6921SOL    HW121662   5.360   5.181   3.824
 6921SOL    HW221663   5.394   5.244   3.678
 6922SOL     OW21664   1.961   6.109   5.145
 6922SOL    HW121665   1.968   6.015   5.114
 6922SOL    HW221666   2.051   6.151   5.147
 6923SOL     OW21667   4.641   5.457   3.070
 6923SOL    HW121668   4.607   5.363   3.074
 6923SOL    HW221669   4.741   5.457   3.081
 6924SOL     OW21670   2.716   3.897   6.821
 6924SOL    HW121671   2.748   3.848   6.740
 6924SOL    HW221672   2.791   3.952   6.858
 6925SOL     OW21673   5.195   6.349   3.809
 6925SOL    HW121674   5.112   6.383   3.854
 6925SOL    HW221675   5.196   6.249   3.814
 6926SOL     OW21676   3.468   2.774   0.852
 6926SOL    HW121677   3.556   2.761   0.898
 6926SOL    HW221678   3.425   2.857   0.887
 6927SOL     OW21679   4.219   2.816   5.992
 6927SOL    HW121680   4.164   2.894   6.023
 6927SOL    HW221681   4.187   2.733   6.038
 6928SOL     OW21682   5.964   5.500   0.678
 6928SOL    HW121683   5.901   5.430   0.644
 6928SOL    HW221684   5.934   5.530   0.768
 6929SOL     OW21685   5.839   5.513   1.207
 6929SOL    HW121686   5.912   5.450   1.232
 6929SOL    HW221687   5.814   5.569   1.287
 6930SOL     OW21688   0.642   0.229   2.390
 6930SOL    HW121689   0.611   0.146   2.345
 6930SOL    HW221690   0.642   0.305   2.325
 6931SOL     OW21691   2.206   0.855   2.282
 6931SOL    HW121692   2.227   0.949   2.256
 6931SOL    HW221693   2.291   0.805   2.299
 6932SOL     OW21694   4.592   6.609   0.305
 6932SOL    HW121695   4.553   6.606   0.397
 6932SOL    HW221696   4.550   6.537   0.249
 6933SOL     OW21697   3.393   6.162   4.917
 6933SOL    HW121698   3.427   6.140   4.826
 6933SOL    HW221699   3.402   6.082   4.976
 6934SOL     OW21700   4.854   3.501   6.225
 6934SOL    HW121701   4.918   3.473   6.297
 6934SOL    HW221702   4.902   3.556   6.157
 6935SOL     OW21703   4.771   5.444   2.430
 6935SOL    HW121704   4.838   5.412   2.363
 6935SOL    HW221705   4.815   5.453   2.519
 6936SOL     OW21706   6.135   1.508   3.310
 6936SOL    HW121707   6.223   1.548   3.335
 6936SOL    HW221708   6.086   1.569   3.248
 6937SOL     OW21709   6.581   6.180   0.013
 6937SOL    HW121710   6.661   6.227   0.050
 6937SOL    HW221711   6.609   6.091   7.001
 6938SOL     OW21712   5.333   3.287   5.124
 6938SOL    HW121713   5.291   3.305   5.213
 6938SOL    HW221714   5.308   3.196   5.094
 6939SOL     OW21715   1.698   4.879   1.700
 6939SOL    HW121716   1.601   4.890   1.681
 6939SOL    HW221717   1.711   4.859   1.798
 6940SOL     OW21718   4.119   0.382   6.311
 6940SOL    HW121719   4.173   0.465   6.297
 6940SOL    HW221720   4.165   0.305   6.267
 6941SOL     OW21721   3.410   3.788   1.581
 6941SOL    HW121722   3.464   3.719   1.533
 6941SOL    HW221723   3.452   3.809   1.669
 6942SOL     OW21724   5.741   0.068   1.073
 6942SOL    HW121725   5.799   0.117   1.008
 6942SOL    HW221726   5.686   0.134   1.124
 6943SOL     OW21727   3.702   5.660   0.277
 6943SOL    HW121728   3.704   5.560   0.287
 6943SOL    HW221729   3.618   5.687   0.231
 6944SOL     OW21730   0.704   4.211   6.328
 6944SOL    HW121731   0.632   4.178   6.268
 6944SOL    HW221732   0.689   4.178   6.421
 6945SOL     OW21733   6.276   1.128   6.945
 6945SOL    HW121734   6.350   1.060   6.945
 6945SOL    HW221735   6.272   1.173   6.856
 6946SOL     OW21736   5.363   6.504   0.939
 6946SOL    HW121737   5.290   6.462   0.886
 6946SOL    HW221738   5.402   6.436   1.001
 6947SOL     OW21739   3.441   6.123   6.494
 6947SOL    HW121740   3.387   6.075   6.424
 6947SOL    HW221741   3.413   6.092   6.585
 6948SOL     OW21742   0.524   0.013   1.004
 6948SOL    HW121743   0.613   0.056   1.022
 6948SOL    HW221744   0.454   0.084   0.997
 6949SOL     OW21745   3.994   6.987   3.271
 6949SOL    HW121746   4.042   0.021   3.206
 6949SOL    HW221747   3.917   0.011   3.310
 6950SOL     OW21748   1.885   2.120   4.817
 6950SOL    HW121749   1.901   2.041   4.759
 6950SOL    HW221750   1.972   2.153   4.853
 6951SOL     OW21751   6.299   5.768   6.066
 6951SOL    HW121752   6.256   5.854   6.096
 6951SOL    HW221753   6.321   5.712   6.146
 6952SOL     OW21754   0.973   6.241   3.350
 6952SOL    HW121755   0.915   6.159   3.352
 6952SOL    HW221756   1.052   6.224   3.291
 6953SOL     OW21757   4.333   6.751   0.850
 6953SOL    HW121758   4.402   6.822   0.861
 6953SOL    HW221759   4.357   6.672   0.908
 6954SOL     OW21760   0.140   3.839   2.661
 6954SOL    HW121761   0.131   3.739   2.657
 6954SOL    HW221762   0.050   3.879   2.681
 6955SOL     OW21763   6.158   0.260   2.196
 6955SOL    HW121764   6.201   0.223   2.114
 6955SOL    HW221765   6.069   0.217   2.210
 6956SOL     OW21766   5.862   5.612   3.561
 6956SOL    HW121767   5.767   5.644   3.570
 6956SOL    HW221768   5.898   5.588   3.651
 6957SOL     OW21769   6.467   5.005   0.750
 6957SOL    HW121770   6.375   4.999   0.789
 6957SOL    HW221771   6.524   4.934   0.791
 6958SOL     OW21772   3.612   2.886   4.352
 6958SOL    HW121773   3.649   2.970   4.312
 6958SOL    HW221774   3.649   2.807   4.302
 6959SOL     OW21775   1.924   2.254   4.140
 6959SOL    HW121776   1.952   2.167   4.182
 6959SOL    HW221777   1.846   2.239   4.080
 6960SOL     OW21778   2.535   4.204   1.333
 6960SOL    HW121779   2.616   4.184   1.278
 6960SOL    HW221780   2.454   4.169   1.287
 6961SOL     OW21781   6.290   1.558   3.846
 6961SOL    HW121782   6.309   1.642   3.896
 6961SOL    HW221783   6.296   1.480   3.907
 6962SOL     OW21784   5.182   6.076   1.771
 6962SOL    HW121785   5.150   6.169   1.793
 6962SOL    HW221786   5.261   6.054   1.829
 6963SOL     OW21787   5.251   6.005   0.979
 6963SOL    HW121788   5.192   6.085   0.993
 6963SOL    HW221789   5.275   5.966   1.068
 6964SOL     OW21790   3.103   1.186   5.166
 6964SOL    HW121791   3.110   1.112   5.098
 6964SOL    HW221792   3.056   1.264   5.125
 6965SOL     OW21793   0.905   1.649   0.762
 6965SOL    HW121794   0.932   1.737   0.800
 6965SOL    HW221795   0.805   1.646   0.753
 6966SOL     OW21796   0.849   2.290   3.379
 6966SOL    HW121797   0.934   2.321   3.336
 6966SOL    HW221798   0.770   2.326   3.328
 6967SOL     OW21799   2.505   1.080   5.525
 6967SOL    HW121800   2.582   1.020   5.548
 6967SOL    HW221801   2.457   1.043   5.445
 6968SOL     OW21802   3.760   6.903   3.026
 6968SOL    HW121803   3.711   6.859   3.101
 6968SOL    HW221804   3.841   6.849   3.003
 6969SOL     OW21805   3.753   2.596   1.416
 6969SOL    HW121806   3.842   2.635   1.440
 6969SOL    HW221807   3.724   2.533   1.488
 6970SOL     OW21808   4.408   4.358   5.464
 6970SOL    HW121809   4.454   4.276   5.430
 6970SOL    HW221810   4.309   4.348   5.455
 6971SOL     OW21811   6.739   4.274   1.716
 6971SOL    HW121812   6.814   4.337   1.732
 6971SOL    HW221813   6.733   4.208   1.791
 6972SOL     OW21814   5.231   4.367   3.030
 6972SOL    HW121815   5.318   4.397   2.990
 6972SOL    HW221816   5.155   4.403   2.976
 6973SOL     OW21817   1.267   2.822   3.993
 6973SOL    HW121818   1.271   2.725   3.971
 6973SOL    HW221819   1.289   2.876   3.912
 6974SOL     OW21820   2.920   3.694   3.055
 6974SOL    HW121821   2.824   3.702   3.028
 6974SOL    HW221822   2.973   3.767   3.012
 6975SOL     OW21823   1.972   6.460   6.481
 6975SOL    HW121824   2.025   6.497   6.558
 6975SOL    HW221825   2.028   6.392   6.433
 6976SOL     OW21826   5.152   5.488   5.004
 6976SOL    HW121827   5.197   5.404   5.037
 6976SOL    HW221828   5.092   5.465   4.927
 6977SOL     OW21829   3.857   2.916   1.793
 6977SOL    HW121830   3.945   2.875   1.769
 6977SOL    HW221831   3.826   2.877   1.880
 6978SOL     OW21832   5.661   1.502   2.171
 6978SOL    HW121833   5.750   1.536   2.140
 6978SOL    HW221834   5.591   1.525   2.103
 6979SOL     OW21835   0.942   4.573   1.376
 6979SOL    HW121836   1.038   4.562   1.348
 6979SOL    HW221837   0.924   4.518   1.457
 6980SOL     OW21838   1.813   0.530   4.135
 6980SOL    HW121839   1.810   0.450   4.076
 6980SOL    HW221840   1.903   0.574   4.128
 6981SOL     OW21841   3.656   2.930   5.824
 6981SOL    HW121842   3.747   2.956   5.857
 6981SOL    HW221843   3.662   2.900   5.729
 6982SOL     OW21844   1.409   0.594   5.032
 6982SOL    HW121845   1.464   0.677   5.039
 6982SOL    HW221846   1.334   0.608   4.968
 6983SOL     OW21847   3.608   2.118   3.728
 6983SOL    HW121848   3.653   2.156   3.647
 6983SOL    HW221849   3.509   2.123   3.715
 6984SOL     OW21850   2.250   2.130   3.239
 6984SOL    HW121851   2.295   2.075   3.168
 6984SOL    HW221852   2.309   2.208   3.262
 6985SOL     OW21853   6.117   5.568   1.424
 6985SOL    HW121854   6.204   5.519   1.428
 6985SOL    HW221855   6.050   5.513   1.375
 6986SOL     OW21856   2.427   0.083   5.776
 6986SOL    HW121857   2.507   0.122   5.822
 6986SOL    HW221858   2.349   0.145   5.786
 6987SOL     OW21859   6.249   1.080   6.043
 6987SOL    HW121860   6.304   1.006   6.007
 6987SOL    HW221861   6.183   1.044   6.109
 6988SOL     OW21862   0.701   0.448   5.574
 6988SOL    HW121863   0.781   0.495   5.610
 6988SOL    HW221864   0.663   0.500   5.497
 6989SOL     OW21865   0.835   3.714   3.156
 6989SOL    HW121866   0.776   3.772   3.212
 6989SOL    HW221867   0.921   3.698   3.205
 6990SOL     OW21868   4.713   2.298   1.413
 6990SOL    HW121869   4.699   2.396   1.421
 6990SOL    HW221870   4.631   2.255   1.375
 6991SOL     OW21871   3.986   4.848   3.021
 6991SOL    HW121872   4.037   4.932   3.002
 6991SOL    HW221873   3.918   4.832   2.949
 6992SOL     OW21874   5.305   6.545   6.361
 6992SOL    HW121875   5.376   6.608   6.392
 6992SOL    HW221876   5.217   6.592   6.356
 6993SOL     OW21877   5.415   0.639   3.104
 6993SOL    HW121878   5.341   0.704   3.122
 6993SOL    HW221879   5.445   0.649   3.009
 6994SOL     OW21880   0.012   2.363   4.225
 6994SOL    HW121881   0.051   2.443   4.270
 6994SOL    HW221882   0.053   2.280   4.264
 6995SOL     OW21883   7.012   4.631   6.204
 6995SOL    HW121884   6.995   4.567   6.129
 6995SOL    HW221885   6.995   4.725   6.173
 6996SOL     OW21886   1.407   6.786   7.004
 6996SOL    HW121887   1.483   6.770   6.941
 6996SOL    HW221888   1.343   6.709   7.000
 6997SOL     OW21889   7.016   5.924   5.067
 6997SOL    HW121890   0.036   6.014   5.070
 6997SOL    HW221891   0.048   5.860   5.016
 6998SOL     OW21892   2.113   0.979   1.602
 6998SOL    HW121893   2.156   0.948   1.687
 6998SOL    HW221894   2.107   1.079   1.602
 6999SOL     OW21895   2.497   1.998   6.934
 6999SOL    HW121896   2.545   1.911   6.942
 6999SOL    HW221897   2.558   2.067   6.894
 7000SOL     OW21898   4.456   6.996   0.869
 7000SOL    HW121899   4.381   0.002   0.927
 7000SOL    HW221900   4.471   0.035   0.795
 7001SOL     OW21901   1.508   3.260   5.483
 7001SOL    HW121902   1.580   3.320   5.517
 7001SOL    HW221903   1.522   3.242   5.386
 7002SOL     OW21904   1.625   5.440   3.881
 7002SOL    HW121905   1.680   5.436   3.797
 7002SOL    HW221906   1.535   5.400   3.863
 7003SOL     OW21907   3.798   5.009   0.491
 7003SOL    HW121908   3.825   5.081   0.428
 7003SOL    HW221909   3.781   4.924   0.440
 7004SOL     OW21910   1.310   5.242   2.363
 7004SOL    HW121911   1.225   5.294   2.377
 7004SOL    HW221912   1.294   5.172   2.293
 7005SOL     OW21913   1.261   0.298   0.878
 7005SOL    HW121914   1.305   0.327   0.794
 7005SOL    HW221915   1.288   0.358   0.953
 7006SOL     OW21916   5.225   4.920   3.977
 7006SOL    HW121917   5.173   4.877   4.051
 7006SOL    HW221918   5.211   5.019   3.981
 7007SOL     OW21919   4.041   1.152   3.625
 7007SOL    HW121920   4.069   1.143   3.720
 7007SOL    HW221921   3.942   1.162   3.620
 7008SOL     OW21922   0.618   4.136   4.714
 7008SOL    HW121923   0.662   4.185   4.790
 7008SOL    HW221924   0.524   4.113   4.739
 7009SOL     OW21925   5.808   5.764   2.415
 7009SOL    HW121926   5.709   5.759   2.433
 7009SOL    HW221927   5.840   5.857   2.431
 7010SOL     OW21928   5.334   4.097   4.009
 7010SOL    HW121929   5.279   4.152   4.072
 7010SOL    HW221930   5.390   4.032   4.061
 7011SOL     OW21931   3.043   6.622   6.848
 7011SOL    HW121932   2.970   6.556   6.832
 7011SOL    HW221933   3.003   6.712   6.863
 7012SOL     OW21934   0.053   1.744   1.779
 7012SOL    HW121935   0.144   1.703   1.783
 7012SOL    HW221936   7.013   1.676   1.745
 7013SOL     OW21937   0.352   0.247   0.700
 7013SOL    HW121938   0.314   0.333   0.666
 7013SOL    HW221939   0.429   0.266   0.762
 7014SOL     OW21940   4.534   3.516   1.083
 7014SOL    HW121941   4.613   3.534   1.140
 7014SOL    HW221942   4.516   3.418   1.079
 7015SOL     OW21943   6.472   4.587   1.859
 7015SOL    HW121944   6.424   4.655   1.915
 7015SOL    HW221945   6.425   4.499   1.865
 7016SOL     OW21946   3.209   5.058   1.110
 7016SOL    HW121947   3.207   5.031   1.206
 7016SOL    HW221948   3.176   5.151   1.100
 7017SOL     OW21949   2.289   5.147   2.850
 7017SOL    HW121950   2.321   5.178   2.761
 7017SOL    HW221951   2.254   5.054   2.843
 7018SOL     OW21952   5.539   3.121   4.254
 7018SOL    HW121953   5.451   3.167   4.252
 7018SOL    HW221954   5.552   3.068   4.170
 7019SOL     OW21955   3.996   4.118   0.391
 7019SOL    HW121956   3.930   4.192   0.401
 7019SOL    HW221957   4.062   4.141   0.319
 7020SOL     OW21958   6.582   5.024   6.575
 7020SOL    HW121959   6.496   5.057   6.614
 7020SOL    HW221960   6.628   4.966   6.642
 7021SOL     OW21961   1.488   2.002   5.894
 7021SOL    HW121962   1.489   1.988   5.993
 7021SOL    HW221963   1.415   1.947   5.854
 7022SOL     OW21964   4.652   6.655   5.699
 7022SOL    HW121965   4.728   6.625   5.641
 7022SOL    HW221966   4.589   6.578   5.713
 7023SOL     OW21967   6.911   2.461   3.580
 7023SOL    HW121968   6.880   2.532   3.643
 7023SOL    HW221969   6.939   2.380   3.632
 7024SOL     OW21970   2.933   4.011   5.223
 7024SOL    HW121971   2.977   3.955   5.293
 7024SOL    HW221972   2.843   4.040   5.254
 7025SOL     OW21973   3.403   0.689   0.722
 7025SOL    HW121974   3.347   0.768   0.695
 7025SOL    HW221975   3.404   0.681   0.821
 7026SOL     OW21976   3.160   1.981   2.275
 7026SOL    HW121977   3.169   1.894   2.226
 7026SOL    HW221978   3.250   2.024   2.283
 7027SOL     OW21979   2.663   5.475   4.040
 7027SOL    HW121980   2.671   5.548   3.972
 7027SOL    HW221981   2.589   5.497   4.103
 7028SOL     OW21982   2.995   2.121   3.898
 7028SOL    HW121983   3.026   2.027   3.884
 7028SOL    HW221984   2.919   2.122   3.963
 7029SOL     OW21985   5.164   4.959   4.920
 7029SOL    HW121986   5.123   5.025   4.858
 7029SOL    HW221987   5.209   4.887   4.868
 7030SOL     OW21988   1.210   0.569   4.842
 7030SOL    HW121989   1.182   0.656   4.881
 7030SOL    HW221990   1.169   0.494   4.894
 7031SOL     OW21991   3.874   5.767   5.757
 7031SOL    HW121992   3.896   5.838   5.691
 7031SOL    HW221993   3.838   5.809   5.840
 7032SOL     OW21994   4.051   1.381   3.956
 7032SOL    HW121995   4.047   1.437   3.873
 7032SOL    HW221996   4.140   1.334   3.960
 7033SOL     OW21997   1.577   2.107   3.357
 7033SOL    HW121998   1.481   2.110   3.331
 7033SOL    HW221999   1.586   2.126   3.455
 7034SOL     OW22000   6.646   0.685   3.377
 7034SOL    HW122001   6.597   0.623   3.439
 7034SOL    HW222002   6.609   0.778   3.388
 7035SOL     OW22003   1.601   0.049   0.849
 7035SOL    HW122004   1.605   7.008   0.774
 7035SOL    HW222005   1.527   0.113   0.832
 7036SOL     OW22006   0.002   0.240   3.084
 7036SOL    HW122007   6.987   0.149   3.083
 7036SOL    HW222008   0.098   0.233   3.114
 7037SOL     OW22009   1.526   1.304   6.573
 7037SOL    HW122010   1.570   1.352   6.649
 7037SOL    HW222011   1.582   1.314   6.491
 7038SOL     OW22012   2.372   3.239   5.348
 7038SOL    HW122013   2.420   3.165   5.301
 7038SOL    HW222014   2.437   3.312   5.369
 7039SOL     OW22015   2.243   5.229   2.024
 7039SOL    HW122016   2.209   5.153   1.969
 7039SOL    HW222017   2.313   5.196   2.086
 7040SOL     OW22018   5.430   2.294   5.941
 7040SOL    HW122019   5.347   2.311   5.889
 7040SOL    HW222020   5.437   2.361   6.015
 7041SOL     OW22021   6.070   1.076   1.944
 7041SOL    HW122022   6.086   0.978   1.933
 7041SOL    HW222023   6.158   1.124   1.949
 7042SOL     OW22024   4.381   4.974   5.143
 7042SOL    HW122025   4.382   4.905   5.214
 7042SOL    HW222026   4.302   4.961   5.083
 7043SOL     OW22027   2.458   4.546   2.518
 7043SOL    HW122028   2.402   4.490   2.578
 7043SOL    HW222029   2.519   4.603   2.574
 7044SOL     OW22030   5.563   5.005   4.447
 7044SOL    HW122031   5.632   4.936   4.421
 7044SOL    HW222032   5.503   4.967   4.517
 7045SOL     OW22033   4.893   5.456   3.349
 7045SOL    HW122034   4.943   5.435   3.434
 7045SOL    HW222035   4.795   5.449   3.366
 7046SOL     OW22036   2.782   0.944   3.492
 7046SOL    HW122037   2.704   0.888   3.464
 7046SOL    HW222038   2.759   1.041   3.481
 7047SOL     OW22039   6.168   0.962   2.359
 7047SOL    HW122040   6.088   0.959   2.300
 7047SOL    HW222041   6.250   0.973   2.303
 7048SOL     OW22042   4.988   0.213   3.494
 7048SOL    HW122043   4.948   0.263   3.571
 7048SOL    HW222044   5.082   0.188   3.515
 7049SOL     OW22045   3.199   1.594   0.631
 7049SOL    HW122046   3.205   1.520   0.698
 7049SOL    HW222047   3.255   1.572   0.551
 7050SOL     OW22048   4.174   3.529   1.791
 7050SOL    HW122049   4.166   3.504   1.887
 7050SOL    HW222050   4.261   3.497   1.754
 7051SOL     OW22051   6.215   6.429   0.931
 7051SOL    HW122052   6.273   6.477   0.865
 7051SOL    HW222053   6.162   6.496   0.983
 7052SOL     OW22054   6.217   1.870   3.368
 7052SOL    HW122055   6.198   1.909   3.458
 7052SOL    HW222056   6.289   1.922   3.323
 7053SOL     OW22057   1.915   2.866   5.676
 7053SOL    HW122058   1.984   2.847   5.605
 7053SOL    HW222059   1.831   2.817   5.654
 7054SOL     OW22060   6.588   6.768   0.553
 7054SOL    HW122061   6.666   6.724   0.598
 7054SOL    HW222062   6.593   6.867   0.566
 7055SOL     OW22063   2.894   6.622   6.321
 7055SOL    HW122064   2.933   6.692   6.381
 7055SOL    HW222065   2.841   6.666   6.249
 7056SOL     OW22066   0.455   4.344   1.713
 7056SOL    HW122067   0.534   4.307   1.665
 7056SOL    HW222068   0.478   4.434   1.751
 7057SOL     OW22069   2.632   4.676   4.338
 7057SOL    HW122070   2.549   4.732   4.344
 7057SOL    HW222071   2.657   4.664   4.242
 7058SOL     OW22072   5.502   4.144   5.767
 7058SOL    HW122073   5.436   4.149   5.692
 7058SOL    HW222074   5.461   4.095   5.844
 7059SOL     OW22075   0.553   1.516   3.761
 7059SOL    HW122076   0.639   1.469   3.740
 7059SOL    HW222077   0.492   1.454   3.810
 7060SOL     OW22078   3.471   0.099   1.750
 7060SOL    HW122079   3.501   0.090   1.845
 7060SOL    HW222080   3.441   0.010   1.716
 7061SOL     OW22081   0.077   3.263   3.639
 7061SOL    HW122082   7.018   3.262   3.585
 7061SOL    HW222083   0.141   3.194   3.602
 7062SOL     OW22084   3.876   1.364   5.605
 7062SOL    HW122085   3.867   1.330   5.511
 7062SOL    HW222086   3.943   1.438   5.608
 7063SOL     OW22087   1.167   6.860   2.195
 7063SOL    HW122088   1.132   6.771   2.163
 7063SOL    HW222089   1.182   6.856   2.293
 7064SOL     OW22090   4.112   2.274   0.207
 7064SOL    HW122091   4.094   2.237   0.116
 7064SOL    HW222092   4.036   2.334   0.234
 7065SOL     OW22093   5.100   3.694   6.149
 7065SOL    HW122094   5.125   3.672   6.243
 7065SOL    HW222095   5.177   3.672   6.089
 7066SOL     OW22096   4.418   7.014   6.981
 7066SOL    HW122097   4.329   7.002   0.000
 7066SOL    HW222098   4.479   0.041   0.015
 7067SOL     OW22099   1.814   2.831   5.914
 7067SOL    HW122100   1.727   2.790   5.889
 7067SOL    HW222101   1.866   2.853   5.831
 7068SOL     OW22102   6.374   4.640   4.686
 7068SOL    HW122103   6.451   4.659   4.626
 7068SOL    HW222104   6.377   4.701   4.765
 7069SOL     OW22105   5.586   2.301   4.632
 7069SOL    HW122106   5.581   2.310   4.533
 7069SOL    HW222107   5.537   2.219   4.661
 7070SOL     OW22108   0.012   7.015   4.934
 7070SOL    HW122109   0.100   6.998   4.979
 7070SOL    HW222110   0.010   0.083   4.899
 7071SOL     OW22111   3.497   6.050   5.438
 7071SOL    HW122112   3.517   6.146   5.418
 7071SOL    HW222113   3.583   6.000   5.449
 7072SOL     OW22114   1.304   6.192   6.965
 7072SOL    HW122115   1.307   6.113   6.904
 7072SOL    HW222116   1.239   6.259   6.930
 7073SOL     OW22117   5.386   0.018   3.901
 7073SOL    HW122118   5.401   0.112   3.930
 7073SOL    HW222119   5.374   6.985   3.982
 7074SOL     OW22120   5.451   2.653   2.124
 7074SOL    HW122121   5.481   2.656   2.029
 7074SOL    HW222122   5.443   2.558   2.154
 7075SOL     OW22123   1.973   4.315   4.997
 7075SOL    HW122124   1.948   4.276   4.909
 7075SOL    HW222125   2.017   4.245   5.053
 7076SOL     OW22126   5.383   2.861   6.757
 7076SOL    HW122127   5.393   2.960   6.749
 7076SOL    HW222128   5.472   2.817   6.749
 7077SOL     OW22129   2.067   4.792   3.740
 7077SOL    HW122130   1.973   4.795   3.776
 7077SOL    HW222131   2.097   4.697   3.734
 7078SOL     OW22132   6.662   6.543   2.053
 7078SOL    HW122133   6.715   6.477   2.107
 7078SOL    HW222134   6.659   6.630   2.101
 7079SOL     OW22135   0.363   6.740   4.569
 7079SOL    HW122136   0.373   6.696   4.480
 7079SOL    HW222137   0.451   6.778   4.597
 7080SOL     OW22138   3.726   0.922   4.920
 7080SOL    HW122139   3.675   0.954   5.000
 7080SOL    HW222140   3.791   0.992   4.892
 7081SOL     OW22141   1.990   6.212   0.026
 7081SOL    HW122142   1.921   6.225   0.097
 7081SOL    HW222143   1.981   6.284   6.983
 7082SOL     OW22144   6.560   4.557   0.041
 7082SOL    HW122145   6.518   4.467   0.054
 7082SOL    HW222146   6.648   4.547   7.020
 7083SOL     OW22147   1.632   0.249   1.430
 7083SOL    HW122148   1.715   0.234   1.376
 7083SOL    HW222149   1.586   0.162   1.446
 7084SOL     OW22150   0.503   5.047   5.398
 7084SOL    HW122151   0.456   5.011   5.317
 7084SOL    HW222152   0.580   5.104   5.369
 7085SOL     OW22153   0.322   1.513   2.429
 7085SOL    HW122154   0.302   1.514   2.331
 7085SOL    HW222155   0.237   1.524   2.481
 7086SOL     OW22156   6.246   0.262   6.061
 7086SOL    HW122157   6.261   0.166   6.037
 7086SOL    HW222158   6.278   0.278   6.154
 7087SOL     OW22159   6.372   3.948   3.743
 7087SOL    HW122160   6.391   3.922   3.837
 7087SOL    HW222161   6.335   4.041   3.741
 7088SOL     OW22162   5.201   2.672   4.001
 7088SOL    HW122163   5.289   2.628   4.018
 7088SOL    HW222164   5.174   2.657   3.906
 7089SOL     OW22165   2.468   2.360   4.662
 7089SOL    HW122166   2.486   2.439   4.603
 7089SOL    HW222167   2.517   2.280   4.626
 7090SOL     OW22168   1.970   0.894   0.045
 7090SOL    HW122169   1.878   0.856   0.052
 7090SOL    HW222170   2.007   0.876   6.979
 7091SOL     OW22171   0.418   2.077   1.155
 7091SOL    HW122172   0.347   2.111   1.217
 7091SOL    HW222173   0.478   2.152   1.129
 7092SOL     OW22174   4.184   2.861   5.579
 7092SOL    HW122175   4.103   2.919   5.575
 7092SOL    HW222176   4.189   2.803   5.498
 7093SOL     OW22177   3.554   3.805   2.144
 7093SOL    HW122178   3.579   3.901   2.135
 7093SOL    HW222179   3.503   3.791   2.228
 7094SOL     OW22180   0.117   6.035   5.914
 7094SOL    HW122181   0.204   6.056   5.869
 7094SOL    HW222182   0.071   5.961   5.865
 7095SOL     OW22183   3.688   4.893   5.708
 7095SOL    HW122184   3.668   4.807   5.755
 7095SOL    HW222185   3.682   4.879   5.609
 7096SOL     OW22186   6.563   1.260   2.459
 7096SOL    HW122187   6.585   1.195   2.532
 7096SOL    HW222188   6.616   1.237   2.377
 7097SOL     OW22189   4.740   1.168   1.667
 7097SOL    HW122190   4.734   1.146   1.569
 7097SOL    HW222191   4.648   1.182   1.703
 7098SOL     OW22192   2.315   5.414   5.536
 7098SOL    HW122193   2.370   5.469   5.473
 7098SOL    HW222194   2.224   5.399   5.496
 7099SOL     OW22195   3.776   1.344   5.169
 7099SOL    HW122196   3.855   1.397   5.139
 7099SOL    HW222197   3.706   1.405   5.205
 7100SOL     OW22198   6.892   3.502   0.068
 7100SOL    HW122199   6.804   3.469   0.034
 7100SOL    HW222200   6.901   3.480   0.165
 7101SOL     OW22201   2.562   1.867   5.621
 7101SOL    HW122202   2.660   1.861   5.642
 7101SOL    HW222203   2.534   1.963   5.620
 7102SOL     OW22204   4.931   0.048   1.064
 7102SOL    HW122205   4.925   7.012   1.143
 7102SOL    HW222206   4.979   0.002   0.990
 7103SOL     OW22207   5.627   5.267   1.811
 7103SOL    HW122208   5.550   5.204   1.804
 7103SOL    HW222209   5.695   5.229   1.874
 7104SOL     OW22210   6.489   3.881   2.691
 7104SOL    HW122211   6.497   3.888   2.791
 7104SOL    HW222212   6.401   3.838   2.669
 7105SOL     OW22213   2.744   3.388   5.336
 7105SOL    HW122214   2.740   3.420   5.241
 7105SOL    HW222215   2.728   3.290   5.338
 7106SOL     OW22216   3.725   3.330   1.956
 7106SOL    HW122217   3.785   3.341   1.877
 7106SOL    HW222218   3.683   3.417   1.978
 7107SOL     OW22219   5.370   0.900   0.533
 7107SOL    HW122220   5.403   0.805   0.541
 7107SOL    HW222221   5.399   0.937   0.445
 7108SOL     OW22222   2.984   6.188   2.715
 7108SOL    HW122223   2.906   6.180   2.653
 7108SOL    HW222224   2.985   6.280   2.755
 7109SOL     OW22225   2.069   6.966   5.788
 7109SOL    HW122226   2.094   6.966   5.885
 7109SOL    HW222227   2.133   6.908   5.737
 7110SOL     OW22228   2.567   5.798   4.366
 7110SOL    HW122229   2.518   5.812   4.280
 7110SOL    HW222230   2.662   5.771   4.346
 7111SOL     OW22231   1.011   2.766   5.100
 7111SOL    HW122232   1.048   2.753   5.192
 7111SOL    HW222233   1.084   2.798   5.039
 7112SOL     OW22234   1.959   5.025   4.310
 7112SOL    HW122235   2.016   5.106   4.298
 7112SOL    HW222236   1.865   5.053   4.327
 7113SOL     OW22237   3.295   4.114   4.459
 7113SOL    HW122238   3.252   4.204   4.450
 7113SOL    HW222239   3.344   4.092   4.375
 7114SOL     OW22240   5.395   5.498   0.482
 7114SOL    HW122241   5.314   5.486   0.539
 7114SOL    HW222242   5.448   5.576   0.515
 7115SOL     OW22243   5.225   3.113   7.005
 7115SOL    HW122244   5.305   3.126   6.948
 7115SOL    HW222245   5.165   3.044   6.965
 7116SOL     OW22246   5.630   4.443   3.130
 7116SOL    HW122247   5.681   4.529   3.123
 7116SOL    HW222248   5.690   4.372   3.167
 7117SOL     OW22249   0.899   6.340   4.614
 7117SOL    HW122250   0.925   6.243   4.604
 7117SOL    HW222251   0.805   6.346   4.647
 7118SOL     OW22252   2.922   5.078   6.568
 7118SOL    HW122253   2.955   5.115   6.481
 7118SOL    HW222254   3.000   5.056   6.627
 7119SOL     OW22255   4.987   1.592   4.292
 7119SOL    HW122256   4.941   1.531   4.357
 7119SOL    HW222257   5.009   1.678   4.338
 7120SOL     OW22258   3.288   2.098   1.792
 7120SOL    HW122259   3.191   2.076   1.782
 7120SOL    HW222260   3.301   2.148   1.878
 7121SOL     OW22261   0.425   7.005   3.877
 7121SOL    HW122262   0.449   6.909   3.889
 7121SOL    HW222263   0.500   0.027   3.831
 7122SOL     OW22264   1.877   0.831   5.907
 7122SOL    HW122265   1.961   0.776   5.907
 7122SOL    HW222266   1.876   0.890   5.988
 7123SOL     OW22267   1.513   4.695   3.618
 7123SOL    HW122268   1.475   4.665   3.705
 7123SOL    HW222269   1.612   4.704   3.625
 7124SOL     OW22270   0.093   1.829   1.352
 7124SOL    HW122271   0.193   1.835   1.351
 7124SOL    HW222272   0.059   1.839   1.258
 7125SOL     OW22273   0.798   0.135   1.013
 7125SOL    HW122274   0.874   0.094   0.962
 7125SOL    HW222275   0.756   0.207   0.956
 7126SOL     OW22276   3.641   5.003   0.184
 7126SOL    HW122277   3.620   4.918   0.233
 7126SOL    HW222278   3.580   5.075   0.215
 7127SOL     OW22279   2.093   5.644   6.394
 7127SOL    HW122280   2.168   5.664   6.331
 7127SOL    HW222281   2.013   5.614   6.342
 7128SOL     OW22282   3.465   3.986   6.479
 7128SOL    HW122283   3.385   3.995   6.419
 7128SOL    HW222284   3.545   4.024   6.432
 7129SOL     OW22285   2.679   1.204   0.294
 7129SOL    HW122286   2.633   1.268   0.233
 7129SOL    HW222287   2.766   1.176   0.254
 7130SOL     OW22288   3.686   5.836   4.177
 7130SOL    HW122289   3.758   5.782   4.134
 7130SOL    HW222290   3.602   5.827   4.124
 7131SOL     OW22291   2.538   0.837   1.615
 7131SOL    HW122292   2.620   0.839   1.673
 7131SOL    HW222293   2.507   0.930   1.597
 7132SOL     OW22294   3.639   4.004   0.570
 7132SOL    HW122295   3.580   4.029   0.647
 7132SOL    HW222296   3.730   4.042   0.585
 7133SOL     OW22297   4.320   4.812   5.368
 7133SOL    HW122298   4.336   4.869   5.449
 7133SOL    HW222299   4.354   4.720   5.384
 7134SOL     OW22300   4.640   6.918   1.498
 7134SOL    HW122301   4.645   7.015   1.522
 7134SOL    HW222302   4.545   6.887   1.501
 7135SOL     OW22303   1.463   2.636   3.287
 7135SOL    HW122304   1.511   2.673   3.366
 7135SOL    HW222305   1.524   2.572   3.239
 7136SOL     OW22306   2.983   1.392   0.226
 7136SOL    HW122307   3.028   1.309   0.259
 7136SOL    HW222308   3.052   1.462   0.206
 7137SOL     OW22309   2.889   1.078   0.173
 7137SOL    HW122310   2.818   1.041   0.113
 7137SOL    HW222311   2.967   1.108   0.117
 7138SOL     OW22312   2.149   2.139   0.193
 7138SOL    HW122313   2.209   2.148   0.272
 7138SOL    HW222314   2.056   2.119   0.223
 7139SOL     OW22315   5.834   4.870   1.712
 7139SOL    HW122316   5.750   4.885   1.765
 7139SOL    HW222317   5.888   4.953   1.711
 7140SOL     OW22318   6.995   4.503   1.500
 7140SOL    HW122319   6.919   4.525   1.561
 7140SOL    HW222320   6.962   4.450   1.422
 7141SOL     OW22321   3.852   6.371   0.629
 7141SOL    HW122322   3.786   6.297   0.619
 7141SOL    HW222323   3.803   6.456   0.649
 7142SOL     OW22324   4.231   6.726   3.080
 7142SOL    HW122325   4.263   6.632   3.066
 7142SOL    HW222326   4.246   6.753   3.175
 7143SOL     OW22327   1.622   2.864   6.471
 7143SOL    HW122328   1.600   2.771   6.500
 7143SOL    HW222329   1.674   2.910   6.543
 7144SOL     OW22330   1.663   1.866   2.829
 7144SOL    HW122331   1.579   1.848   2.777
 7144SOL    HW222332   1.644   1.859   2.927
 7145SOL     OW22333   3.818   0.034   6.378
 7145SOL    HW122334   3.865   0.070   6.459
 7145SOL    HW222335   3.847   0.085   6.297
 7146SOL     OW22336   1.660   6.816   6.431
 7146SOL    HW122337   1.584   6.881   6.425
 7146SOL    HW222338   1.657   6.769   6.519
 7147SOL     OW22339   0.079   6.729   2.797
 7147SOL    HW122340   0.119   6.658   2.855
 7147SOL    HW222341   7.006   6.732   2.810
 7148SOL     OW22342   6.325   6.200   1.510
 7148SOL    HW122343   6.375   6.256   1.576
 7148SOL    HW222344   6.297   6.256   1.432
 7149SOL     OW22345   0.247   6.323   4.213
 7149SOL    HW122346   0.286   6.388   4.148
 7149SOL    HW222347   0.218   6.371   4.296
 7150SOL     OW22348   3.683   3.250   0.707
 7150SOL    HW122349   3.630   3.188   0.648
 7150SOL    HW222350   3.663   3.344   0.683
 7151SOL     OW22351   3.416   6.600   0.718
 7151SOL    HW122352   3.414   6.670   0.647
 7151SOL    HW222353   3.336   6.611   0.778
 7152SOL     OW22354   6.706   0.957   5.175
 7152SOL    HW122355   6.725   1.029   5.242
 7152SOL    HW222356   6.791   0.934   5.127
 7153SOL     OW22357   3.796   5.099   1.298
 7153SOL    HW122358   3.745   5.095   1.212
 7153SOL    HW222359   3.813   5.194   1.323
 7154SOL     OW22360   4.993   6.323   3.154
 7154SOL    HW122361   5.051   6.286   3.082
 7154SOL    HW222362   4.973   6.420   3.135
 7155SOL     OW22363   3.053   3.081   1.141
 7155SOL    HW122364   3.076   3.063   1.045
 7155SOL    HW222365   3.090   3.170   1.168
 7156SOL     OW22366   0.116   3.582   2.733
 7156SOL    HW122367   0.189   3.527   2.774
 7156SOL    HW222368   0.027   3.543   2.756
 7157SOL     OW22369   0.585   4.259   1.306
 7157SOL    HW122370   0.519   4.188   1.282
 7157SOL    HW222371   0.567   4.341   1.253
 7158SOL     OW22372   0.905   0.437   4.607
 7158SOL    HW122373   0.877   0.506   4.674
 7158SOL    HW222374   0.936   0.354   4.654
 7159SOL     OW22375   0.802   4.783   3.857
 7159SOL    HW122376   0.835   4.815   3.946
 7159SOL    HW222377   0.739   4.850   3.818
 7160SOL     OW22378   5.635   0.324   2.635
 7160SOL    HW122379   5.649   0.370   2.548
 7160SOL    HW222380   5.545   0.348   2.671
 7161SOL     OW22381   3.153   3.997   3.127
 7161SOL    HW122382   3.101   3.957   3.051
 7161SOL    HW222383   3.221   4.061   3.091
 7162SOL     OW22384   1.164   5.417   6.290
 7162SOL    HW122385   1.107   5.459   6.220
 7162SOL    HW222386   1.178   5.320   6.267
 7163SOL     OW22387   2.711   0.161   2.737
 7163SOL    HW122388   2.720   0.252   2.698
 7163SOL    HW222389   2.624   0.121   2.710
 7164SOL     OW22390   2.936   0.432   4.776
 7164SOL    HW122391   2.876   0.377   4.718
 7164SOL    HW222392   2.883   0.477   4.847
 7165SOL     OW22393   6.157   6.987   2.316
 7165SOL    HW122394   6.137   6.902   2.364
 7165SOL    HW222395   6.253   6.988   2.288
 7166SOL     OW22396   4.597   1.820   1.311
 7166SOL    HW122397   4.536   1.746   1.342
 7166SOL    HW222398   4.635   1.866   1.391
 7167SOL     OW22399   5.098   3.214   4.440
 7167SOL    HW122400   4.999   3.221   4.455
 7167SOL    HW222401   5.144   3.289   4.489
 7168SOL     OW22402   2.064   2.418   3.024
 7168SOL    HW122403   2.159   2.387   3.029
 7168SOL    HW222404   2.017   2.369   2.951
 7169SOL     OW22405   6.999   3.971   5.612
 7169SOL    HW122406   0.069   3.950   5.591
 7169SOL    HW222407   6.943   3.952   5.532
 7170SOL     OW22408   4.588   6.747   2.429
 7170SOL    HW122409   4.494   6.732   2.458
 7170SOL    HW222410   4.639   6.793   2.502
 7171SOL     OW22411   6.343   4.046   0.047
 7171SOL    HW122412   6.275   3.992   7.023
 7171SOL    HW222413   6.433   4.004   0.036
 7172SOL     OW22414   2.114   7.025   4.815
 7172SOL    HW122415   2.030   6.978   4.845
 7172SOL    HW222416   2.140   0.068   4.884
 7173SOL     OW22417   6.438   4.314   0.080
 7173SOL    HW122418   6.521   4.322   0.136
 7173SOL    HW222419   6.402   4.221   0.087
 7174SOL     OW22420   1.396   3.903   0.644
 7174SOL    HW122421   1.489   3.932   0.669
 7174SOL    HW222422   1.336   3.982   0.639
 7175SOL     OW22423   5.914   2.687   5.171
 7175SOL    HW122424   5.961   2.773   5.194
 7175SOL    HW222425   5.978   2.611   5.177
 7176SOL     OW22426   0.049   1.268   3.623
 7176SOL    HW122427   0.107   1.223   3.555
 7176SOL    HW222428   7.009   1.201   3.660
 7177SOL     OW22429   1.281   4.598   4.974
 7177SOL    HW122430   1.224   4.599   4.891
 7177SOL    HW222431   1.229   4.558   5.049
 7178SOL     OW22432   6.752   1.750   5.540
 7178SOL    HW122433   6.688   1.760   5.464
 7178SOL    HW222434   6.708   1.699   5.614
 7179SOL     OW22435   1.838   3.507   4.549
 7179SOL    HW122436   1.761   3.571   4.550
 7179SOL    HW222437   1.924   3.558   4.541
 7180SOL     OW22438   2.488   5.260   0.422
 7180SOL    HW122439   2.559   5.229   0.359
 7180SOL    HW222440   2.478   5.359   0.415
 7181SOL     OW22441   2.223   0.479   0.218
 7181SOL    HW122442   2.139   0.514   0.175
 7181SOL    HW222443   2.203   0.394   0.266
 7182SOL     OW22444   0.122   3.480   4.275
 7182SOL    HW122445   0.136   3.496   4.177
 7182SOL    HW222446   0.067   3.553   4.313
 7183SOL     OW22447   1.561   5.932   1.375
 7183SOL    HW122448   1.605   6.012   1.415
 7183SOL    HW222449   1.483   5.961   1.319
 7184SOL     OW22450   6.781   0.977   4.325
 7184SOL    HW122451   6.697   1.015   4.288
 7184SOL    HW222452   6.771   0.878   4.336
 7185SOL     OW22453   5.709   0.909   5.400
 7185SOL    HW122454   5.781   0.903   5.469
 7185SOL    HW222455   5.747   0.944   5.315
 7186SOL     OW22456   6.358   1.799   2.090
 7186SOL    HW122457   6.265   1.766   2.101
 7186SOL    HW222458   6.357   1.892   2.054
 7187SOL     OW22459   3.130   4.194   5.167
 7187SOL    HW122460   3.074   4.112   5.176
 7187SOL    HW222461   3.191   4.201   5.246
 7188SOL     OW22462   5.043   6.528   6.837
 7188SOL    HW122463   5.005   6.473   6.762
 7188SOL    HW222464   5.108   6.594   6.801
 7189SOL     OW22465   6.148   1.488   5.335
 7189SOL    HW122466   6.149   1.394   5.302
 7189SOL    HW222467   6.084   1.497   5.411
 7190SOL     OW22468   6.745   5.173   1.611
 7190SOL    HW122469   6.714   5.087   1.651
 7190SOL    HW222470   6.769   5.159   1.515
 7191SOL     OW22471   1.407   4.675   2.511
 7191SOL    HW122472   1.323   4.688   2.564
 7191SOL    HW222473   1.461   4.759   2.512
 7192SOL     OW22474   2.030   4.145   5.562
 7192SOL    HW122475   2.022   4.050   5.530
 7192SOL    HW222476   2.071   4.201   5.490
 7193SOL     OW22477   1.590   2.309   2.121
 7193SOL    HW122478   1.636   2.397   2.109
 7193SOL    HW222479   1.645   2.237   2.078
 7194SOL     OW22480   2.052   2.689   0.719
 7194SOL    HW122481   1.955   2.667   0.724
 7194SOL    HW222482   2.063   2.784   0.692
 7195SOL     OW22483   0.802   3.989   6.877
 7195SOL    HW122484   0.814   4.079   6.921
 7195SOL    HW222485   0.892   3.948   6.863
 7196SOL     OW22486   2.135   3.495   1.723
 7196SOL    HW122487   2.206   3.538   1.668
 7196SOL    HW222488   2.176   3.449   1.801
 7197SOL     OW22489   0.549   3.145   5.419
 7197SOL    HW122490   0.606   3.138   5.501
 7197SOL    HW222491   0.592   3.094   5.345
 7198SOL     OW22492   0.728   0.681   0.580
 7198SOL    HW122493   0.691   0.773   0.570
 7198SOL    HW222494   0.731   0.656   0.676
 7199SOL     OW22495   1.362   7.011   2.095
 7199SOL    HW122496   1.347   0.083   2.113
 7199SOL    HW222497   1.285   6.959   2.131
 7200SOL     OW22498   1.980   2.710   6.831
 7200SOL    HW122499   1.888   2.712   6.792
 7200SOL    HW222500   1.974   2.729   6.929
 7201SOL     OW22501   1.037   5.971   4.077
 7201SOL    HW122502   1.074   5.926   4.158
 7201SOL    HW222503   0.944   6.003   4.096
 7202SOL     OW22504   5.108   6.779   0.182
 7202SOL    HW122505   5.208   6.784   0.179
 7202SOL    HW222506   5.079   6.685   0.167
 7203SOL     OW22507   6.744   1.053   0.933
 7203SOL    HW122508   6.682   1.092   0.865
 7203SOL    HW222509   6.690   1.001   1.000
 7204SOL     OW22510   0.577   0.857   6.037
 7204SOL    HW122511   0.505   0.869   5.968
 7204SOL    HW222512   0.594   0.759   6.050
 7205SOL     OW22513   1.582   3.971   4.739
 7205SOL    HW122514   1.526   3.957   4.820
 7205SOL    HW222515   1.672   4.004   4.766
 7206SOL     OW22516   1.460   0.161   2.409
 7206SOL    HW122517   1.468   0.220   2.490
 7206SOL    HW222518   1.416   0.213   2.335
 7207SOL     OW22519   3.331   0.575   3.653
 7207SOL    HW122520   3.265   0.614   3.718
 7207SOL    HW222521   3.295   0.585   3.560
 7208SOL     OW22522   4.049   0.164   3.871
 7208SOL    HW122523   4.087   0.151   3.779
 7208SOL    HW222524   4.064   0.258   3.901
 7209SOL     OW22525   2.737   3.224   1.662
 7209SOL    HW122526   2.789   3.177   1.734
 7209SOL    HW222527   2.702   3.311   1.698
 7210SOL     OW22528   4.324   1.070   2.738
 7210SOL    HW122529   4.340   0.972   2.746
 7210SOL    HW222530   4.393   1.110   2.677
 7211SOL     OW22531   1.709   6.366   4.989
 7211SOL    HW122532   1.671   6.441   5.042
 7211SOL    HW222533   1.800   6.391   4.955
 7212SOL     OW22534   0.317   6.208   5.044
 7212SOL    HW122535   0.261   6.289   5.031
 7212SOL    HW222536   0.302   6.171   5.136
 7213SOL     OW22537   3.965   6.084   6.416
 7213SOL    HW122538   3.978   5.985   6.409
 7213SOL    HW222539   4.029   6.121   6.484
 7214SOL     OW22540   6.945   0.285   4.552
 7214SOL    HW122541   0.017   0.296   4.531
 7214SOL    HW222542   6.928   0.191   4.582
 7215SOL     OW22543   6.853   3.336   3.528
 7215SOL    HW122544   6.780   3.329   3.596
 7215SOL    HW222545   6.830   3.280   3.449
 7216SOL     OW22546   3.104   0.265   0.578
 7216SOL    HW122547   3.083   0.241   0.673
 7216SOL    HW222548   3.158   0.349   0.575
 7217SOL     OW22549   1.864   3.968   3.410
 7217SOL    HW122550   1.769   3.938   3.422
 7217SOL    HW222551   1.924   3.888   3.404
 7218SOL     OW22552   6.507   2.589   4.346
 7218SOL    HW122553   6.449   2.609   4.267
 7218SOL    HW222554   6.484   2.499   4.382
 7219SOL     OW22555   3.744   0.167   3.095
 7219SOL    HW122556   3.650   0.200   3.081
 7219SOL    HW222557   3.747   0.069   3.079
 7220SOL     OW22558   7.025   4.157   4.632
 7220SOL    HW122559   0.022   4.161   4.535
 7220SOL    HW222560   7.024   4.062   4.663
 7221SOL     OW22561   3.630   5.657   4.716
 7221SOL    HW122562   3.628   5.562   4.746
 7221SOL    HW222563   3.648   5.661   4.618
 7222SOL     OW22564   6.104   6.884   3.489
 7222SOL    HW122565   6.198   6.854   3.503
 7222SOL    HW222566   6.071   6.852   3.400
 7223SOL     OW22567   3.344   1.393   0.816
 7223SOL    HW122568   3.420   1.438   0.861
 7223SOL    HW222569   3.276   1.365   0.884
 7224SOL     OW22570   5.460   2.076   4.183
 7224SOL    HW122571   5.542   2.034   4.222
 7224SOL    HW222572   5.391   2.005   4.166
 7225SOL     OW22573   1.222   6.055   0.659
 7225SOL    HW122574   1.212   6.144   0.614
 7225SOL    HW222575   1.295   6.060   0.727
 7226SOL     OW22576   5.740   0.624   2.056
 7226SOL    HW122577   5.660   0.604   2.113
 7226SOL    HW222578   5.709   0.656   1.966
 7227SOL     OW22579   2.905   1.937   0.938
 7227SOL    HW122580   2.895   1.910   1.033
 7227SOL    HW222581   2.991   1.902   0.901
 7228SOL     OW22582   1.079   2.123   2.542
 7228SOL    HW122583   1.105   2.220   2.542
 7228SOL    HW222584   0.984   2.114   2.512
 7229SOL     OW22585   0.960   5.843   6.061
 7229SOL    HW122586   0.993   5.936   6.046
 7229SOL    HW222587   0.966   5.791   5.976
 7230SOL     OW22588   3.473   5.373   5.173
 7230SOL    HW122589   3.519   5.353   5.259
 7230SOL    HW222590   3.406   5.445   5.187
 7231SOL     OW22591   3.966   0.411   6.563
 7231SOL    HW122592   3.982   0.359   6.648
 7231SOL    HW222593   3.987   0.353   6.485
 7232SOL     OW22594   5.134   5.550   3.225
 7232SOL    HW122595   5.144   5.548   3.126
 7232SOL    HW222596   5.050   5.501   3.251
 7233SOL     OW22597   1.018   1.299   3.750
 7233SOL    HW122598   1.091   1.341   3.696
 7233SOL    HW222599   1.056   1.260   3.833
 7234SOL     OW22600   5.137   2.386   3.814
 7234SOL    HW122601   5.196   2.348   3.886
 7234SOL    HW222602   5.049   2.339   3.815
 7235SOL     OW22603   6.989   4.881   2.870
 7235SOL    HW122604   7.000   4.925   2.781
 7235SOL    HW222605   6.891   4.869   2.889
 7236SOL     OW22606   2.619   1.813   1.682
 7236SOL    HW122607   2.640   1.890   1.742
 7236SOL    HW222608   2.660   1.828   1.592
 7237SOL     OW22609   3.898   0.289   4.258
 7237SOL    HW122610   3.929   0.228   4.185
 7237SOL    HW222611   3.805   0.263   4.285
 7238SOL     OW22612   4.380   1.462   6.975
 7238SOL    HW122613   4.389   1.378   0.003
 7238SOL    HW222614   4.283   1.484   6.963
 7239SOL     OW22615   0.976   1.981   2.130
 7239SOL    HW122616   1.055   1.922   2.147
 7239SOL    HW222617   0.988   2.067   2.178
 7240SOL     OW22618   1.352   0.874   6.134
 7240SOL    HW122619   1.348   0.972   6.153
 7240SOL    HW222620   1.262   0.833   6.150
 7241SOL     OW22621   1.886   0.418   0.992
 7241SOL    HW122622   1.874   0.517   1.000
 7241SOL    HW222623   1.977   0.399   0.955
 7242SOL     OW22624   6.810   6.023   6.690
 7242SOL    HW122625   6.823   5.995   6.596
 7242SOL    HW222626   6.895   6.063   6.725
 7243SOL     OW22627   6.464   4.389   6.274
 7243SOL    HW122628   6.519   4.306   6.281
 7243SOL    HW222629   6.389   4.374   6.209
 7244SOL     OW22630   6.623   0.636   1.868
 7244SOL    HW122631   6.595   0.732   1.865
 7244SOL    HW222632   6.559   0.584   1.925
 7245SOL     OW22633   1.464   2.886   5.256
 7245SOL    HW122634   1.464   2.982   5.229
 7245SOL    HW222635   1.442   2.828   5.178
 7246SOL     OW22636   0.687   7.012   4.106
 7246SOL    HW122637   0.667   0.072   4.057
 7246SOL    HW222638   0.752   0.006   4.180
 7247SOL     OW22639   2.639   1.262   4.271
 7247SOL    HW122640   2.694   1.178   4.272
 7247SOL    HW222641   2.595   1.272   4.183
 7248SOL     OW22642   2.716   1.413   3.111
 7248SOL    HW122643   2.633   1.406   3.056
 7248SOL    HW222644   2.755   1.505   3.103
 7249SOL     OW22645   6.410   5.198   2.420
 7249SOL    HW122646   6.472   5.120   2.424
 7249SOL    HW222647   6.438   5.259   2.345
 7250SOL     OW22648   5.321   6.378   6.074
 7250SOL    HW122649   5.370   6.407   6.156
 7250SOL    HW222650   5.238   6.433   6.064
 7251SOL     OW22651   0.424   6.241   5.389
 7251SOL    HW122652   0.393   6.169   5.326
 7251SOL    HW222653   0.344   6.282   5.433
 7252SOL     OW22654   3.903   2.974   2.409
 7252SOL    HW122655   3.948   3.061   2.389
 7252SOL    HW222656   3.954   2.899   2.366
 7253SOL     OW22657   1.495   6.013   6.808
 7253SOL    HW122658   1.522   5.937   6.749
 7253SOL    HW222659   1.544   6.007   6.895
 7254SOL     OW22660   4.922   5.034   4.031
 7254SOL    HW122661   4.950   4.939   4.020
 7254SOL    HW222662   4.972   5.091   3.966
 7255SOL     OW22663   3.542   3.893   1.055
 7255SOL    HW122664   3.589   3.812   1.090
 7255SOL    HW222665   3.494   3.869   0.971
 7256SOL     OW22666   3.052   5.554   4.659
 7256SOL    HW122667   3.056   5.491   4.581
 7256SOL    HW222668   3.145   5.583   4.683
 7257SOL     OW22669   5.972   2.092   3.262
 7257SOL    HW122670   6.050   2.034   3.284
 7257SOL    HW222671   5.926   2.120   3.346
 7258SOL     OW22672   4.915   1.664   2.882
 7258SOL    HW122673   4.923   1.708   2.971
 7258SOL    HW222674   4.960   1.575   2.885
 7259SOL     OW22675   2.169   3.685   0.935
 7259SOL    HW122676   2.137   3.696   0.841
 7259SOL    HW222677   2.094   3.707   0.998
 7260SOL     OW22678   4.196   1.754   1.351
 7260SOL    HW122679   4.099   1.779   1.353
 7260SOL    HW222680   4.251   1.836   1.334
 7261SOL     OW22681   1.145   2.730   1.162
 7261SOL    HW122682   1.093   2.769   1.087
 7261SOL    HW222683   1.203   2.800   1.204
 7262SOL     OW22684   5.013   2.391   6.081
 7262SOL    HW122685   5.021   2.488   6.106
 7262SOL    HW222686   4.952   2.383   6.002
 7263SOL     OW22687   1.162   0.122   0.482
 7263SOL    HW122688   1.195   0.058   0.413
 7263SOL    HW222689   1.076   0.162   0.452
 7264SOL     OW22690   5.099   2.080   6.761
 7264SOL    HW122691   5.033   2.012   6.793
 7264SOL    HW222692   5.058   2.171   6.765
 7265SOL     OW22693   5.659   5.295   5.621
 7265SOL    HW122694   5.680   5.296   5.719
 7265SOL    HW222695   5.599   5.372   5.599
 7266SOL     OW22696   5.563   6.267   1.999
 7266SOL    HW122697   5.638   6.227   1.947
 7266SOL    HW222698   5.599   6.314   2.080
 7267SOL     OW22699   6.305   6.401   5.076
 7267SOL    HW122700   6.384   6.343   5.055
 7267SOL    HW222701   6.242   6.400   4.998
 7268SOL     OW22702   6.119   5.260   3.253
 7268SOL    HW122703   6.100   5.206   3.171
 7268SOL    HW222704   6.045   5.325   3.268
 7269SOL     OW22705   6.818   6.445   6.558
 7269SOL    HW122706   6.829   6.345   6.556
 7269SOL    HW222707   6.900   6.486   6.599
 7270SOL     OW22708   1.929   3.461   5.727
 7270SOL    HW122709   1.949   3.382   5.669
 7270SOL    HW222710   1.946   3.438   5.822
 7271SOL     OW22711   0.535   6.408   3.264
 7271SOL    HW122712   0.628   6.417   3.300
 7271SOL    HW222713   0.533   6.437   3.168
 7272SOL     OW22714   6.100   5.551   2.215
 7272SOL    HW122715   6.028   5.595   2.162
 7272SOL    HW222716   6.188   5.564   2.169
 7273SOL     OW22717   6.304   4.723   2.007
 7273SOL    HW122718   6.227   4.659   2.001
 7273SOL    HW222719   6.270   4.816   2.019
 7274SOL     OW22720   0.269   5.275   6.730
 7274SOL    HW122721   0.281   5.195   6.789
 7274SOL    HW222722   0.175   5.277   6.697
 7275SOL     OW22723   0.327   6.569   2.471
 7275SOL    HW122724   0.311   6.651   2.525
 7275SOL    HW222725   0.385   6.506   2.522
 7276SOL     OW22726   3.967   0.949   3.033
 7276SOL    HW122727   4.005   0.912   2.948
 7276SOL    HW222728   3.892   1.011   3.012
 7277SOL     OW22729   4.388   0.859   3.909
 7277SOL    HW122730   4.395   0.760   3.919
 7277SOL    HW222731   4.291   0.885   3.901
 7278SOL     OW22732   3.333   2.910   1.244
 7278SOL    HW122733   3.358   2.828   1.295
 7278SOL    HW222734   3.239   2.935   1.264
 7279SOL     OW22735   3.980   4.208   6.217
 7279SOL    HW122736   4.050   4.177   6.282
 7279SOL    HW222737   3.925   4.129   6.189
 7280SOL     OW22738   0.316   1.559   3.513
 7280SOL    HW122739   0.243   1.492   3.503
 7280SOL    HW222740   0.368   1.541   3.596
 7281SOL     OW22741   2.099   1.066   0.535
 7281SOL    HW122742   2.110   1.137   0.466
 7281SOL    HW222743   2.075   0.980   0.491
 7282SOL     OW22744   6.439   5.859   1.603
 7282SOL    HW122745   6.431   5.799   1.683
 7282SOL    HW222746   6.522   5.915   1.611
 7283SOL     OW22747   4.875   0.236   2.677
 7283SOL    HW122748   4.820   0.183   2.742
 7283SOL    HW222749   4.816   0.300   2.628
 7284SOL     OW22750   0.325   2.242   5.771
 7284SOL    HW122751   0.317   2.195   5.683
 7284SOL    HW222752   0.258   2.316   5.775
 7285SOL     OW22753   5.462   2.961   2.293
 7285SOL    HW122754   5.405   3.040   2.314
 7285SOL    HW222755   5.446   2.933   2.198
 7286SOL     OW22756   1.335   1.233   0.848
 7286SOL    HW122757   1.418   1.261   0.799
 7286SOL    HW222758   1.334   1.276   0.938
 7287SOL     OW22759   0.752   2.505   5.310
 7287SOL    HW122760   0.658   2.528   5.285
 7287SOL    HW222761   0.790   2.442   5.243
 7288SOL     OW22762   1.712   1.704   2.085
 7288SOL    HW122763   1.634   1.641   2.091
 7288SOL    HW222764   1.795   1.653   2.063
 7289SOL     OW22765   5.955   1.473   3.681
 7289SOL    HW122766   6.048   1.492   3.652
 7289SOL    HW222767   5.941   1.506   3.774
 7290SOL     OW22768   3.508   1.772   5.468
 7290SOL    HW122769   3.490   1.858   5.515
 7290SOL    HW222770   3.422   1.726   5.447
 7291SOL     OW22771   0.720   6.872   7.011
 7291SOL    HW122772   0.771   6.927   0.051
 7291SOL    HW222773   0.719   6.919   6.922
 7292SOL     OW22774   3.142   0.261   3.161
 7292SOL    HW122775   3.135   0.298   3.069
 7292SOL    HW222776   3.067   0.296   3.217
 7293SOL     OW22777   1.680   1.782   4.884
 7293SOL    HW122778   1.674   1.749   4.978
 7293SOL    HW222779   1.595   1.828   4.859
 7294SOL     OW22780   2.437   4.402   0.149
 7294SOL    HW122781   2.517   4.454   0.179
 7294SOL    HW222782   2.459   4.304   0.151
 7295SOL     OW22783   6.064   4.096   1.087
 7295SOL    HW122784   6.143   4.152   1.109
 7295SOL    HW222785   6.091   4.025   1.021
 7296SOL     OW22786   3.570   6.452   1.585
 7296SOL    HW122787   3.513   6.420   1.661
 7296SOL    HW222788   3.522   6.439   1.499
 7297SOL     OW22789   3.678   6.982   1.458
 7297SOL    HW122790   3.730   0.018   1.517
 7297SOL    HW222791   3.603   0.007   1.415
 7298SOL     OW22792   4.927   5.335   6.024
 7298SOL    HW122793   4.883   5.348   5.935
 7298SOL    HW222794   4.880   5.262   6.073
 7299SOL     OW22795   0.893   2.464   1.173
 7299SOL    HW122796   0.977   2.467   1.229
 7299SOL    HW222797   0.836   2.388   1.202
 7300SOL     OW22798   0.593   7.016   2.252
 7300SOL    HW122799   0.559   6.933   2.295
 7300SOL    HW222800   0.674   6.995   2.197
 7301SOL     OW22801   6.328   1.786   4.634
 7301SOL    HW122802   6.380   1.815   4.554
 7301SOL    HW222803   6.383   1.797   4.716
 7302SOL     OW22804   0.950   2.453   5.608
 7302SOL    HW122805   0.858   2.419   5.625
 7302SOL    HW222806   0.980   2.509   5.685
 7303SOL     OW22807   4.191   0.662   6.889
 7303SOL    HW122808   4.272   0.705   6.930
 7303SOL    HW222809   4.160   0.588   6.948
 7304SOL     OW22810   2.862   5.633   1.449
 7304SOL    HW122811   2.832   5.571   1.377
 7304SOL    HW222812   2.911   5.582   1.519
 7305SOL     OW22813   5.221   1.674   1.159
 7305SOL    HW122814   5.313   1.713   1.167
 7305SOL    HW222815   5.221   1.603   1.088
 7306SOL     OW22816   4.130   1.525   1.700
 7306SOL    HW122817   4.208   1.519   1.637
 7306SOL    HW222818   4.056   1.575   1.656
 7307SOL     OW22819   2.321   6.456   2.737
 7307SOL    HW122820   2.273   6.469   2.650
 7307SOL    HW222821   2.419   6.454   2.721
 7308SOL     OW22822   0.129   2.759   5.173
 7308SOL    HW122823   0.222   2.780   5.142
 7308SOL    HW222824   0.079   2.715   5.098
 7309SOL     OW22825   3.926   5.003   0.728
 7309SOL    HW122826   4.026   4.999   0.734
 7309SOL    HW222827   3.898   5.012   0.633
 7310SOL     OW22828   2.275   4.021   0.270
 7310SOL    HW122829   2.363   4.067   0.256
 7310SOL    HW222830   2.247   4.031   0.366
 7311SOL     OW22831   1.970   1.833   1.259
 7311SOL    HW122832   2.038   1.777   1.306
 7311SOL    HW222833   2.005   1.860   1.169
 7312SOL     OW22834   0.885   3.179   4.575
 7312SOL    HW122835   0.971   3.220   4.603
 7312SOL    HW222836   0.890   3.080   4.585
 7313SOL     OW22837   2.227   1.057   0.992
 7313SOL    HW122838   2.131   1.054   1.020
 7313SOL    HW222839   2.243   0.990   0.919
 7314SOL     OW22840   0.025   4.976   6.370
 7314SOL    HW122841   7.010   4.930   6.292
 7314SOL    HW222842   0.046   5.071   6.345
 7315SOL     OW22843   5.874   5.692   2.111
 7315SOL    HW122844   5.863   5.736   2.200
 7315SOL    HW222845   5.817   5.609   2.108
 7316SOL     OW22846   3.794   3.314   6.772
 7316SOL    HW122847   3.893   3.326   6.781
 7316SOL    HW222848   3.769   3.221   6.797
 7317SOL     OW22849   4.452   1.395   2.137
 7317SOL    HW122850   4.441   1.463   2.064
 7317SOL    HW222851   4.445   1.440   2.226
 7318SOL     OW22852   2.471   0.429   1.832
 7318SOL    HW122853   2.525   0.505   1.868
 7318SOL    HW222854   2.425   0.382   1.907
 7319SOL     OW22855   6.989   3.922   6.957
 7319SOL    HW122856   7.014   4.005   6.907
 7319SOL    HW222857   6.950   3.946   0.020
 7320SOL     OW22858   0.916   3.446   2.283
 7320SOL    HW122859   0.880   3.384   2.214
 7320SOL    HW222860   0.906   3.540   2.253
 7321SOL     OW22861   1.153   6.346   6.136
 7321SOL    HW122862   1.081   6.416   6.138
 7321SOL    HW222863   1.209   6.354   6.218
 7322SOL     OW22864   6.856   2.973   2.778
 7322SOL    HW122865   6.955   2.969   2.793
 7322SOL    HW222866   6.825   3.068   2.787
 7323SOL     OW22867   2.062   2.593   1.408
 7323SOL    HW122868   2.138   2.614   1.469
 7323SOL    HW222869   1.996   2.534   1.455
 7324SOL     OW22870   5.711   6.104   1.083
 7324SOL    HW122871   5.771   6.184   1.075
 7324SOL    HW222872   5.639   6.108   1.014
 7325SOL     OW22873   2.671   0.167   6.525
 7325SOL    HW122874   2.658   0.260   6.490
 7325SOL    HW222875   2.644   0.101   6.456
 7326SOL     OW22876   2.795   6.486   6.839
 7326SOL    HW122877   2.744   6.501   6.924
 7326SOL    HW222878   2.731   6.479   6.762
 7327SOL     OW22879   6.092   2.154   5.831
 7327SOL    HW122880   6.052   2.116   5.747
 7327SOL    HW222881   6.038   2.125   5.910
 7328SOL     OW22882   4.217   7.018   6.426
 7328SOL    HW122883   4.302   7.018   6.372
 7328SOL    HW222884   4.139   7.024   6.364
 7329SOL     OW22885   1.061   3.698   0.979
 7329SOL    HW122886   1.135   3.765   0.972
 7329SOL    HW222887   1.069   3.633   0.904
 7330SOL     OW22888   1.717   2.796   7.021
 7330SOL    HW122889   1.620   2.817   7.005
 7330SOL    HW222890   1.725   2.706   0.038
 7331SOL     OW22891   5.659   6.447   1.215
 7331SOL    HW122892   5.575   6.422   1.166
 7331SOL    HW222893   5.656   6.409   1.308
 7332SOL     OW22894   3.170   5.607   6.966
 7332SOL    HW122895   3.226   5.625   6.885
 7332SOL    HW222896   3.116   5.687   6.989
 7333SOL     OW22897   6.580   3.234   3.001
 7333SOL    HW122898   6.487   3.265   2.981
 7333SOL    HW222899   6.592   3.227   3.100
 7334SOL     OW22900   1.864   5.951   6.248
 7334SOL    HW122901   1.804   6.004   6.188
 7334SOL    HW222902   1.898   5.871   6.198
 7335SOL     OW22903   0.428   2.851   3.386
 7335SOL    HW122904   0.499   2.829   3.319
 7335SOL    HW222905   0.461   2.925   3.446
 7336SOL     OW22906   1.725   6.571   2.530
 7336SOL    HW122907   1.794   6.640   2.507
 7336SOL    HW222908   1.752   6.523   2.613
 7337SOL     OW22909   0.755   2.924   1.109
 7337SOL    HW122910   0.807   2.979   1.045
 7337SOL    HW222911   0.699   2.984   1.166
 7338SOL     OW22912   4.841   1.452   2.141
 7338SOL    HW122913   4.868   1.519   2.073
 7338SOL    HW222914   4.803   1.498   2.221
 7339SOL     OW22915   6.043   1.068   4.863
 7339SOL    HW122916   5.953   1.040   4.898
 7339SOL    HW222917   6.033   1.106   4.772
 7340SOL     OW22918   3.163   1.233   0.356
 7340SOL    HW122919   3.188   1.153   0.301
 7340SOL    HW222920   3.151   1.204   0.451
 7341SOL     OW22921   0.522   4.419   5.629
 7341SOL    HW122922   0.582   4.420   5.709
 7341SOL    HW222923   0.458   4.497   5.634
 7342SOL     OW22924   0.264   0.319   0.247
 7342SOL    HW122925   0.220   0.370   0.173
 7342SOL    HW222926   0.282   0.381   0.324
 7343SOL     OW22927   6.063   4.816   2.386
 7343SOL    HW122928   6.097   4.817   2.480
 7343SOL    HW222929   6.110   4.886   2.332
 7344SOL     OW22930   0.618   1.119   5.955
 7344SOL    HW122931   0.577   1.044   6.007
 7344SOL    HW222932   0.709   1.138   5.990
 7345SOL     OW22933   4.878   5.389   5.240
 7345SOL    HW122934   4.819   5.318   5.202
 7345SOL    HW222935   4.914   5.446   5.165
 7346SOL     OW22936   4.545   5.092   1.521
 7346SOL    HW122937   4.595   5.176   1.543
 7346SOL    HW222938   4.451   5.113   1.496
 7347SOL     OW22939   0.237   2.467   1.020
 7347SOL    HW122940   0.314   2.404   1.019
 7347SOL    HW222941   0.182   2.454   0.937
 7348SOL     OW22942   1.360   3.984   4.194
 7348SOL    HW122943   1.369   3.897   4.146
 7348SOL    HW222944   1.378   3.971   4.292
 7349SOL     OW22945   4.801   1.911   1.498
 7349SOL    HW122946   4.884   1.862   1.470
 7349SOL    HW222947   4.814   2.009   1.480
 7350SOL     OW22948   1.939   3.328   5.999
 7350SOL    HW122949   1.841   3.343   5.985
 7350SOL    HW222950   1.953   3.268   6.078
 7351SOL     OW22951   4.977   6.905   4.693
 7351SOL    HW122952   5.052   6.964   4.726
 7351SOL    HW222953   4.940   6.943   4.608
 7352SOL     OW22954   1.862   2.420   3.238
 7352SOL    HW122955   1.939   2.475   3.206
 7352SOL    HW222956   1.896   2.333   3.274
 7353SOL     OW22957   1.008   0.847   6.372
 7353SOL    HW122958   0.968   0.796   6.448
 7353SOL    HW222959   1.068   0.786   6.319
 7354SOL     OW22960   0.023   1.617   5.564
 7354SOL    HW122961   7.016   1.583   5.652
 7354SOL    HW222962   0.122   1.628   5.567
 7355SOL     OW22963   2.221   0.921   0.753
 7355SOL    HW122964   2.143   0.857   0.757
 7355SOL    HW222965   2.207   0.985   0.677
 7356SOL     OW22966   3.910   3.985   6.037
 7356SOL    HW122967   3.828   3.937   6.005
 7356SOL    HW222968   3.967   4.010   5.958
 7357SOL     OW22969   4.265   6.754   1.767
 7357SOL    HW122970   4.324   6.759   1.687
 7357SOL    HW222971   4.227   6.662   1.775
 7358SOL     OW22972   6.423   3.794   3.206
 7358SOL    HW122973   6.423   3.874   3.265
 7358SOL    HW222974   6.419   3.711   3.261
 7359SOL     OW22975   2.539   1.926   6.624
 7359SOL    HW122976   2.522   1.992   6.551
 7359SOL    HW222977   2.612   1.864   6.596
 7360SOL     OW22978   3.137   3.873   5.389
 7360SOL    HW122979   3.211   3.886   5.455
 7360SOL    HW222980   3.144   3.782   5.348
 7361SOL     OW22981   4.558   6.963   2.073
 7361SOL    HW122982   4.591   6.879   2.030
 7361SOL    HW222983   4.617   0.014   2.047
 7362SOL     OW22984   1.496   5.224   4.931
 7362SOL    HW122985   1.569   5.162   4.904
 7362SOL    HW222986   1.523   5.274   5.013
 7363SOL     OW22987   4.474   1.991   1.943
 7363SOL    HW122988   4.446   1.992   1.847
 7363SOL    HW222989   4.392   1.988   2.001
 7364SOL     OW22990   4.304   0.475   1.458
 7364SOL    HW122991   4.375   0.523   1.406
 7364SOL    HW222992   4.233   0.540   1.486
 7365SOL     OW22993   1.090   5.451   2.001
 7365SOL    HW122994   1.175   5.406   1.973
 7365SOL    HW222995   1.106   5.549   2.012
 7366SOL     OW22996   2.155   5.701   6.640
 7366SOL    HW122997   2.133   5.697   6.543
 7366SOL    HW222998   2.171   5.609   6.675
 7367SOL     OW22999   5.285   2.409   1.115
 7367SOL    HW123000   5.189   2.393   1.137
 7367SOL    HW223001   5.298   2.403   1.016
 7368SOL     OW23002   3.831   2.937   2.758
 7368SOL    HW123003   3.887   2.857   2.741
 7368SOL    HW223004   3.831   2.958   2.856
 7369SOL     OW23005   4.063   3.035   0.192
 7369SOL    HW123006   4.086   2.966   0.123
 7369SOL    HW223007   4.145   3.057   0.245
 7370SOL     OW23008   2.155   0.750   4.413
 7370SOL    HW123009   2.115   0.717   4.327
 7370SOL    HW223010   2.091   0.735   4.488
 7371SOL     OW23011   1.759   6.486   3.855
 7371SOL    HW123012   1.673   6.489   3.803
 7371SOL    HW223013   1.748   6.425   3.934
 7372SOL     OW23014   4.491   1.206   4.520
 7372SOL    HW123015   4.473   1.253   4.607
 7372SOL    HW223016   4.486   1.272   4.445
 7373SOL     OW23017   6.227   2.149   3.854
 7373SOL    HW123018   6.166   2.222   3.822
 7373SOL    HW223019   6.322   2.178   3.842
 7374SOL     OW23020   2.504   1.602   5.607
 7374SOL    HW123021   2.500   1.564   5.514
 7374SOL    HW223022   2.511   1.702   5.601
 7375SOL     OW23023   2.014   2.639   3.152
 7375SOL    HW123024   2.084   2.692   3.200
 7375SOL    HW223025   2.058   2.566   3.099
 7376SOL     OW23026   2.612   0.919   0.456
 7376SOL    HW123027   2.566   0.945   0.371
 7376SOL    HW223028   2.708   0.946   0.452
 7377SOL     OW23029   5.713   4.608   0.411
 7377SOL    HW123030   5.806   4.588   0.379
 7377SOL    HW223031   5.654   4.529   0.393
 7378SOL     OW23032   6.968   0.860   6.016
 7378SOL    HW123033   0.038   0.861   5.985
 7378SOL    HW223034   6.964   0.892   6.110
 7379SOL     OW23035   3.040   1.478   3.058
 7379SOL    HW123036   2.983   1.451   3.136
 7379SOL    HW223037   3.013   1.426   2.977
 7380SOL     OW23038   6.680   4.377   4.794
 7380SOL    HW123039   6.776   4.368   4.768
 7380SOL    HW223040   6.623   4.367   4.713
 7381SOL     OW23041   4.507   3.823   1.241
 7381SOL    HW123042   4.407   3.828   1.246
 7381SOL    HW223043   4.546   3.884   1.310
 7382SOL     OW23044   6.818   6.296   5.995
 7382SOL    HW123045   6.899   6.325   5.944
 7382SOL    HW223046   6.776   6.218   5.949
 7383SOL     OW23047   1.750   6.981   1.470
 7383SOL    HW123048   1.820   0.026   1.484
 7383SOL    HW223049   1.740   6.963   1.373
 7384SOL     OW23050   6.000   0.269   2.934
 7384SOL    HW123051   5.917   0.234   2.978
 7384SOL    HW223052   5.980   0.356   2.890
 7385SOL     OW23053   4.161   6.054   2.106
 7385SOL    HW123054   4.222   6.108   2.163
 7385SOL    HW223055   4.186   5.958   2.112
 7386SOL     OW23056   1.019   1.824   5.995
 7386SOL    HW123057   1.079   1.843   6.073
 7386SOL    HW223058   0.964   1.905   5.975
 7387SOL     OW23059   5.496   6.237   4.298
 7387SOL    HW123060   5.461   6.181   4.373
 7387SOL    HW223061   5.559   6.306   4.334
 7388SOL     OW23062   0.250   5.048   2.384
 7388SOL    HW123063   0.286   5.024   2.294
 7388SOL    HW223064   0.281   5.140   2.408
 7389SOL     OW23065   6.797   3.996   6.627
 7389SOL    HW123066   6.895   4.013   6.618
 7389SOL    HW223067   6.779   3.936   6.704
 7390SOL     OW23068   0.904   1.626   6.848
 7390SOL    HW123069   0.938   1.534   6.869
 7390SOL    HW223070   0.980   1.690   6.848
 7391SOL     OW23071   4.108   3.648   4.234
 7391SOL    HW123072   4.063   3.735   4.256
 7391SOL    HW223073   4.129   3.600   4.319
 7392SOL     OW23074   2.364   6.089   0.087
 7392SOL    HW123075   2.460   6.088   0.117
 7392SOL    HW223076   2.308   6.134   0.156
 7393SOL     OW23077   5.955   4.706   3.092
 7393SOL    HW123078   5.862   4.701   3.130
 7393SOL    HW223079   6.009   4.770   3.147
 7394SOL     OW23080   2.432   2.843   6.167
 7394SOL    HW123081   2.458   2.791   6.085
 7394SOL    HW223082   2.467   2.936   6.160
 7395SOL     OW23083   1.659   2.586   0.804
 7395SOL    HW123084   1.676   2.494   0.838
 7395SOL    HW223085   1.715   2.652   0.856
 7396SOL     OW23086   0.830   6.903   0.847
 7396SOL    HW123087   0.922   6.903   0.807
 7396SOL    HW223088   0.835   6.873   0.942
 7397SOL     OW23089   4.282   5.335   4.698
 7397SOL    HW123090   4.337   5.253   4.685
 7397SOL    HW223091   4.333   5.415   4.667
 7398SOL     OW23092   2.372   4.755   4.469
 7398SOL    HW123093   2.351   4.821   4.542
 7398SOL    HW223094   2.303   4.762   4.397
 7399SOL     OW23095   1.432   2.431   5.305
 7399SOL    HW123096   1.484   2.395   5.383
 7399SOL    HW223097   1.335   2.435   5.328
 7400SOL     OW23098   3.744   2.049   5.452
 7400SOL    HW123099   3.646   2.026   5.449
 7400SOL    HW223100   3.759   2.136   5.405
 7401SOL     OW23101   1.427   1.517   4.771
 7401SOL    HW123102   1.444   1.615   4.767
 7401SOL    HW223103   1.408   1.483   4.678
 7402SOL     OW23104   2.667   5.982   6.665
 7402SOL    HW123105   2.569   5.996   6.650
 7402SOL    HW223106   2.719   6.024   6.591
 7403SOL     OW23107   2.118   3.771   2.305
 7403SOL    HW123108   2.022   3.744   2.305
 7403SOL    HW223109   2.155   3.764   2.212
 7404SOL     OW23110   2.721   5.311   1.594
 7404SOL    HW123111   2.766   5.330   1.507
 7404SOL    HW223112   2.625   5.340   1.589
 7405SOL     OW23113   3.771   4.912   4.444
 7405SOL    HW123114   3.749   5.002   4.406
 7405SOL    HW223115   3.826   4.861   4.379
 7406SOL     OW23116   0.040   2.717   3.197
 7406SOL    HW123117   0.090   2.738   3.113
 7406SOL    HW223118   0.091   2.751   3.276
 7407SOL     OW23119   0.930   0.104   5.058
 7407SOL    HW123120   1.021   0.099   5.099
 7407SOL    HW223121   0.932   0.060   4.968
 7408SOL     OW23122   3.355   3.841   6.901
 7408SOL    HW123123   3.355   3.789   6.816
 7408SOL    HW223124   3.401   3.929   6.885
 7409SOL     OW23125   6.261   2.509   0.054
 7409SOL    HW123126   6.341   2.531   7.025
 7409SOL    HW223127   6.284   2.512   0.151
 7410SOL     OW23128   6.828   6.875   0.774
 7410SOL    HW123129   6.854   6.947   0.709
 7410SOL    HW223130   6.846   6.906   0.867
 7411SOL     OW23131   2.148   6.931   6.059
 7411SOL    HW123132   2.212   6.855   6.047
 7411SOL    HW223133   2.193   7.005   6.110
 7412SOL     OW23134   5.012   0.255   2.311
 7412SOL    HW123135   4.915   0.243   2.334
 7412SOL    HW223136   5.069   0.208   2.378
 7413SOL     OW23137   5.538   5.614   3.734
 7413SOL    HW123138   5.582   5.531   3.769
 7413SOL    HW223139   5.444   5.618   3.767
 7414SOL     OW23140   0.491   0.801   3.969
 7414SOL    HW123141   0.416   0.814   4.034
 7414SOL    HW223142   0.455   0.805   3.876
 7415SOL     OW23143   1.987   5.026   3.586
 7415SOL    HW123144   2.003   5.050   3.490
 7415SOL    HW223145   2.025   4.935   3.604
 7416SOL     OW23146   1.818   1.439   2.699
 7416SOL    HW123147   1.742   1.452   2.635
 7416SOL    HW223148   1.853   1.528   2.728
 7417SOL     OW23149   1.736   0.925   0.297
 7417SOL    HW123150   1.658   0.888   0.247
 7417SOL    HW223151   1.719   1.020   0.322
 7418SOL     OW23152   2.260   5.861   0.438
 7418SOL    HW123153   2.270   5.953   0.476
 7418SOL    HW223154   2.236   5.867   0.341
 7419SOL     OW23155   6.459   2.922   4.746
 7419SOL    HW123156   6.417   2.841   4.707
 7419SOL    HW223157   6.534   2.953   4.687
 7420SOL     OW23158   0.555   0.078   1.364
 7420SOL    HW123159   0.488   0.130   1.311
 7420SOL    HW223160   0.510   0.004   1.413
 7421SOL     OW23161   3.970   4.341   0.736
 7421SOL    HW123162   4.050   4.302   0.782
 7421SOL    HW223163   3.907   4.268   0.710
 7422SOL     OW23164   0.177   3.196   2.016
 7422SOL    HW123165   0.223   3.136   2.081
 7422SOL    HW223166   0.079   3.176   2.017
 7423SOL     OW23167   5.513   2.992   5.691
 7423SOL    HW123168   5.557   2.992   5.781
 7423SOL    HW223169   5.551   2.918   5.635
 7424SOL     OW23170   6.454   6.548   5.530
 7424SOL    HW123171   6.406   6.463   5.548
 7424SOL    HW223172   6.393   6.625   5.546
 7425SOL     OW23173   4.192   5.799   6.795
 7425SOL    HW123174   4.135   5.881   6.798
 7425SOL    HW223175   4.195   5.757   6.886
 7426SOL     OW23176   3.368   1.561   5.660
 7426SOL    HW123177   3.278   1.530   5.629
 7426SOL    HW223178   3.438   1.498   5.624
 7427SOL     OW23179   4.253   0.608   3.543
 7427SOL    HW123180   4.256   0.597   3.642
 7427SOL    HW223181   4.346   0.605   3.506
 7428SOL     OW23182   4.209   1.644   5.352
 7428SOL    HW123183   4.119   1.633   5.396
 7428SOL    HW223184   4.272   1.687   5.417
 7429SOL     OW23185   0.448   6.401   4.452
 7429SOL    HW123186   0.440   6.467   4.377
 7429SOL    HW223187   0.363   6.398   4.503
 7430SOL     OW23188   1.230   2.962   0.192
 7430SOL    HW123189   1.166   3.032   0.157
 7430SOL    HW223190   1.183   2.874   0.197
 7431SOL     OW23191   1.611   2.767   3.494
 7431SOL    HW123192   1.661   2.852   3.507
 7431SOL    HW223193   1.561   2.744   3.578
 7432SOL     OW23194   0.745   1.076   3.041
 7432SOL    HW123195   0.659   1.096   2.993
 7432SOL    HW223196   0.773   1.156   3.094
 7433SOL     OW23197   4.360   6.239   5.915
 7433SOL    HW123198   4.300   6.271   5.990
 7433SOL    HW223199   4.419   6.167   5.949
 7434SOL     OW23200   5.156   6.198   5.714
 7434SOL    HW123201   5.208   6.147   5.783
 7434SOL    HW223202   5.177   6.161   5.623
 7435SOL     OW23203   3.349   5.738   0.709
 7435SOL    HW123204   3.256   5.756   0.677
 7435SOL    HW223205   3.363   5.640   0.718
 7436SOL     OW23206   5.308   3.869   5.834
 7436SOL    HW123207   5.219   3.824   5.839
 7436SOL    HW223208   5.350   3.851   5.745
 7437SOL     OW23209   1.821   6.203   0.235
 7437SOL    HW123210   1.725   6.202   0.263
 7437SOL    HW223211   1.858   6.110   0.238
 7438SOL     OW23212   1.052   5.866   0.009
 7438SOL    HW123213   1.145   5.830   0.022
 7438SOL    HW223214   1.019   5.844   6.943
 7439SOL     OW23215   2.171   6.166   5.747
 7439SOL    HW123216   2.133   6.167   5.654
 7439SOL    HW223217   2.211   6.255   5.767
 7440SOL     OW23218   7.011   2.726   4.176
 7440SOL    HW123219   6.988   2.809   4.125
 7440SOL    HW223220   6.932   2.698   4.230
 7441SOL     OW23221   5.127   6.695   3.963
 7441SOL    HW123222   5.087   6.701   3.872
 7441SOL    HW223223   5.198   6.765   3.973
 7442SOL     OW23224   6.274   1.321   5.912
 7442SOL    HW123225   6.265   1.235   5.962
 7442SOL    HW223226   6.351   1.374   5.950
 7443SOL     OW23227   0.174   6.167   1.795
 7443SOL    HW123228   0.222   6.213   1.720
 7443SOL    HW223229   0.079   6.199   1.799
 7444SOL     OW23230   5.571   2.229   5.717
 7444SOL    HW123231   5.552   2.233   5.815
 7444SOL    HW223232   5.507   2.167   5.673
 7445SOL     OW23233   4.130   0.718   1.173
 7445SOL    HW123234   4.216   0.711   1.124
 7445SOL    HW223235   4.069   0.782   1.127
 7446SOL     OW23236   6.059   3.511   0.852
 7446SOL    HW123237   6.007   3.448   0.794
 7446SOL    HW223238   6.000   3.586   0.882
 7447SOL     OW23239   0.040   3.337   6.934
 7447SOL    HW123240   0.113   3.383   6.884
 7447SOL    HW223241   0.007   3.397   7.007
 7448SOL     OW23242   6.337   6.824   4.946
 7448SOL    HW123243   6.274   6.760   4.902
 7448SOL    HW223244   6.391   6.775   5.015
 7449SOL     OW23245   0.720   4.222   1.974
 7449SOL    HW123246   0.631   4.226   2.019
 7449SOL    HW223247   0.753   4.127   1.973
 7450SOL     OW23248   5.443   2.484   4.819
 7450SOL    HW123249   5.488   2.451   4.736
 7450SOL    HW223250   5.344   2.486   4.804
 7451SOL     OW23251   6.899   0.011   2.934
 7451SOL    HW123252   6.974   7.010   2.996
 7451SOL    HW223253   6.938   0.050   2.851
 7452SOL     OW23254   6.623   6.456   4.756
 7452SOL    HW123255   6.542   6.490   4.710
 7452SOL    HW223256   6.694   6.527   4.756
 7453SOL     OW23257   4.986   6.890   5.846
 7453SOL    HW123258   4.913   6.889   5.778
 7453SOL    HW223259   4.946   6.908   5.936
 7454SOL     OW23260   0.837   2.531   1.847
 7454SOL    HW123261   0.914   2.475   1.879
 7454SOL    HW223262   0.767   2.536   1.918
 7455SOL     OW23263   6.728   2.595   2.166
 7455SOL    HW123264   6.689   2.621   2.078
 7455SOL    HW223265   6.753   2.678   2.217
 7456SOL     OW23266   0.833   1.195   4.010
 7456SOL    HW123267   0.845   1.287   4.048
 7456SOL    HW223268   0.744   1.159   4.038
 7457SOL     OW23269   3.802   0.137   5.897
 7457SOL    HW123270   3.727   0.072   5.912
 7457SOL    HW223271   3.853   0.149   5.983
 7458SOL     OW23272   1.235   6.372   5.692
 7458SOL    HW123273   1.244   6.323   5.779
 7458SOL    HW223274   1.322   6.370   5.643
 7459SOL     OW23275   4.445   0.501   2.275
 7459SOL    HW123276   4.451   0.402   2.260
 7459SOL    HW223277   4.537   0.538   2.291
 7460SOL     OW23278   1.069   5.457   0.771
 7460SOL    HW123279   0.975   5.487   0.785
 7460SOL    HW223280   1.112   5.438   0.860
 7461SOL     OW23281   5.656   0.867   6.178
 7461SOL    HW123282   5.630   0.951   6.225
 7461SOL    HW223283   5.701   0.889   6.092
 7462SOL     OW23284   1.835   3.989   2.306
 7462SOL    HW123285   1.857   3.972   2.210
 7462SOL    HW223286   1.757   3.933   2.333
 7463SOL     OW23287   2.720   4.910   0.671
 7463SOL    HW123288   2.718   4.829   0.730
 7463SOL    HW223289   2.646   4.972   0.698
 7464SOL     OW23290   5.454   7.006   5.829
 7464SOL    HW123291   5.444   0.008   5.924
 7464SOL    HW223292   5.538   6.953   5.818
 7465SOL     OW23293   1.749   5.656   0.075
 7465SOL    HW123294   1.759   5.674   7.003
 7465SOL    HW223295   1.653   5.644   0.097
 7466SOL     OW23296   6.910   0.820   5.038
 7466SOL    HW123297   6.956   0.757   5.100
 7466SOL    HW223298   6.966   0.833   4.956
 7467SOL     OW23299   0.843   1.516   1.057
 7467SOL    HW123300   0.743   1.517   1.070
 7467SOL    HW223301   0.865   1.557   0.968
 7468SOL     OW23302   6.079   2.710   3.344
 7468SOL    HW123303   6.136   2.758   3.410
 7468SOL    HW223304   6.136   2.644   3.293
 7469SOL     OW23305   6.322   0.602   0.764
 7469SOL    HW123306   6.341   0.531   0.831
 7469SOL    HW223307   6.237   0.649   0.788
 7470SOL     OW23308   6.552   3.863   2.965
 7470SOL    HW123309   6.519   3.817   3.047
 7470SOL    HW223310   6.550   3.962   2.979
 7471SOL     OW23311   5.413   6.687   5.788
 7471SOL    HW123312   5.391   6.738   5.705
 7471SOL    HW223313   5.380   6.593   5.778
 7472SOL     OW23314   5.922   6.942   5.216
 7472SOL    HW123315   5.914   0.011   5.187
 7472SOL    HW223316   5.831   6.902   5.227
 7473SOL     OW23317   6.096   5.388   3.861
 7473SOL    HW123318   6.192   5.416   3.865
 7473SOL    HW223319   6.078   5.320   3.932
 7474SOL     OW23320   0.875   1.614   5.894
 7474SOL    HW123321   0.933   1.683   5.936
 7474SOL    HW223322   0.782   1.621   5.931
 7475SOL     OW23323   5.248   2.367   2.479
 7475SOL    HW123324   5.223   2.345   2.385
 7475SOL    HW223325   5.198   2.449   2.508
 7476SOL     OW23326   3.222   0.604   4.072
 7476SOL    HW123327   3.189   0.689   4.111
 7476SOL    HW223328   3.164   0.577   3.995
 7477SOL     OW23329   0.476   1.273   5.517
 7477SOL    HW123330   0.376   1.276   5.516
 7477SOL    HW223331   0.512   1.344   5.456
 7478SOL     OW23332   5.533   4.533   5.781
 7478SOL    HW123333   5.605   4.602   5.774
 7478SOL    HW223334   5.536   4.492   5.873
 7479SOL     OW23335   3.693   2.113   2.348
 7479SOL    HW123336   3.670   2.147   2.257
 7479SOL    HW223337   3.609   2.087   2.396
 7480SOL     OW23338   0.988   4.107   2.307
 7480SOL    HW123339   0.955   4.037   2.370
 7480SOL    HW223340   0.913   4.135   2.246
 7481SOL     OW23341   6.273   5.563   1.142
 7481SOL    HW123342   6.364   5.521   1.133
 7481SOL    HW223343   6.207   5.493   1.170
 7482SOL     OW23344   4.826   2.809   3.144
 7482SOL    HW123345   4.807   2.762   3.231
 7482SOL    HW223346   4.798   2.750   3.068
 7483SOL     OW23347   4.725   2.905   4.452
 7483SOL    HW123348   4.777   2.923   4.368
 7483SOL    HW223349   4.672   2.821   4.440
 7484SOL     OW23350   1.576   0.011   4.530
 7484SOL    HW123351   1.633   6.984   4.468
 7484SOL    HW223352   1.497   0.046   4.480
 7485SOL     OW23353   3.414   6.950   4.540
 7485SOL    HW123354   3.332   7.000   4.512
 7485SOL    HW223355   3.477   7.012   4.586
 7486SOL     OW23356   1.818   6.500   0.569
 7486SOL    HW123357   1.799   6.442   0.648
 7486SOL    HW223358   1.876   6.451   0.504
 7487SOL     OW23359   1.995   6.916   3.508
 7487SOL    HW123360   2.033   6.935   3.417
 7487SOL    HW223361   1.904   6.876   3.498
 7488SOL     OW23362   2.627   6.292   4.230
 7488SOL    HW123363   2.622   6.352   4.310
 7488SOL    HW223364   2.705   6.230   4.238
 7489SOL     OW23365   5.496   2.523   5.455
 7489SOL    HW123366   5.415   2.489   5.406
 7489SOL    HW223367   5.573   2.528   5.392
 7490SOL     OW23368   1.487   0.312   2.629
 7490SOL    HW123369   1.422   0.273   2.695
 7490SOL    HW223370   1.558   0.361   2.679
 7491SOL     OW23371   5.268   2.784   6.985
 7491SOL    HW123372   5.337   2.815   6.920
 7491SOL    HW223373   5.196   2.735   6.936
 7492SOL     OW23374   1.895   0.506   3.309
 7492SOL    HW123375   1.863   0.503   3.214
 7492SOL    HW223376   1.995   0.502   3.310
 7493SOL     OW23377   0.253   3.750   6.782
 7493SOL    HW123378   0.325   3.717   6.843
 7493SOL    HW223379   0.164   3.727   6.821
 7494SOL     OW23380   5.121   1.461   2.874
 7494SOL    HW123381   5.145   1.486   2.968
 7494SOL    HW223382   5.139   1.364   2.860
 7495SOL     OW23383   1.559   1.920   6.539
 7495SOL    HW123384   1.484   1.881   6.485
 7495SOL    HW223385   1.522   1.986   6.604
 7496SOL     OW23386   6.417   3.389   4.437
 7496SOL    HW123387   6.353   3.393   4.513
 7496SOL    HW223388   6.441   3.294   4.418
 7497SOL     OW23389   2.309   4.429   6.404
 7497SOL    HW123390   2.309   4.518   6.449
 7497SOL    HW223391   2.243   4.368   6.448
 7498SOL     OW23392   3.376   0.679   4.984
 7498SOL    HW123393   3.291   0.626   4.987
 7498SOL    HW223394   3.425   0.669   5.071
 7499SOL     OW23395   3.288   1.361   3.050
 7499SOL    HW123396   3.353   1.377   3.123
 7499SOL    HW223397   3.207   1.417   3.064
 7500SOL     OW23398   3.383   5.973   2.962
 7500SOL    HW123399   3.453   5.994   3.030
 7500SOL    HW223400   3.426   5.938   2.879
 7501SOL     OW23401   5.319   3.600   4.953
 7501SOL    HW123402   5.251   3.600   5.026
 7501SOL    HW223403   5.395   3.540   4.977
 7502SOL     OW23404   3.092   0.652   4.753
 7502SOL    HW123405   3.039   0.568   4.741
 7502SOL    HW223406   3.044   0.713   4.817
 7503SOL     OW23407   1.654   0.353   1.109
 7503SOL    HW123408   1.754   0.360   1.100
 7503SOL    HW223409   1.613   0.443   1.097
 7504SOL     OW23410   0.886   6.742   3.195
 7504SOL    HW123411   0.971   6.774   3.237
 7504SOL    HW223412   0.808   6.781   3.244
 7505SOL     OW23413   1.814   3.074   6.081
 7505SOL    HW123414   1.720   3.105   6.094
 7505SOL    HW223415   1.814   2.988   6.030
 7506SOL     OW23416   4.677   1.276   3.694
 7506SOL    HW123417   4.628   1.217   3.758
 7506SOL    HW223418   4.701   1.225   3.612
 7507SOL     OW23419   6.948   1.393   2.963
 7507SOL    HW123420   0.017   1.366   2.980
 7507SOL    HW223421   6.886   1.330   3.009
 7508SOL     OW23422   1.106   0.134   1.529
 7508SOL    HW123423   1.175   0.065   1.551
 7508SOL    HW223424   1.025   0.089   1.490
 7509SOL     OW23425   6.059   4.190   0.571
 7509SOL    HW123426   6.091   4.216   0.480
 7509SOL    HW223427   6.121   4.226   0.640
 7510SOL     OW23428   3.842   3.409   5.425
 7510SOL    HW123429   3.800   3.490   5.467
 7510SOL    HW223430   3.939   3.406   5.447
 7511SOL     OW23431   2.536   6.269   3.948
 7511SOL    HW123432   2.462   6.271   4.014
 7511SOL    HW223433   2.512   6.207   3.873
 7512SOL     OW23434   2.606   6.503   6.583
 7512SOL    HW123435   2.661   6.585   6.595
 7512SOL    HW223436   2.566   6.502   6.491
 7513SOL     OW23437   1.784   0.933   1.650
 7513SOL    HW123438   1.863   0.934   1.588
 7513SOL    HW223439   1.715   0.869   1.614
 7514SOL     OW23440   2.700   5.622   1.789
 7514SOL    HW123441   2.773   5.571   1.743
 7514SOL    HW223442   2.685   5.708   1.741
 7515SOL     OW23443   6.938   5.508   4.678
 7515SOL    HW123444   6.892   5.444   4.617
 7515SOL    HW223445   6.947   5.597   4.634
 7516SOL     OW23446   6.734   5.953   5.555
 7516SOL    HW123447   6.725   6.000   5.467
 7516SOL    HW223448   6.830   5.953   5.583
 7517SOL     OW23449   0.427   2.231   0.556
 7517SOL    HW123450   0.462   2.325   0.553
 7517SOL    HW223451   0.436   2.195   0.649
 7518SOL     OW23452   4.229   4.767   3.834
 7518SOL    HW123453   4.210   4.832   3.761
 7518SOL    HW223454   4.270   4.815   3.912
 7519SOL     OW23455   0.314   6.258   3.658
 7519SOL    HW123456   0.404   6.225   3.688
 7519SOL    HW223457   0.300   6.234   3.562
 7520SOL     OW23458   2.042   6.902   2.411
 7520SOL    HW123459   1.950   6.868   2.393
 7520SOL    HW223460   2.081   6.940   2.327
 7521SOL     OW23461   4.686   3.682   5.860
 7521SOL    HW123462   4.778   3.654   5.832
 7521SOL    HW223463   4.622   3.608   5.840
 7522SOL     OW23464   1.600   1.382   5.600
 7522SOL    HW123465   1.606   1.442   5.680
 7522SOL    HW223466   1.513   1.396   5.553
 7523SOL     OW23467   6.038   0.214   6.636
 7523SOL    HW123468   6.020   0.305   6.599
 7523SOL    HW223469   5.967   0.151   6.605
 7524SOL     OW23470   1.458   2.653   5.093
 7524SOL    HW123471   1.427   2.578   5.152
 7524SOL    HW223472   1.558   2.653   5.089
 7525SOL     OW23473   3.619   0.812   6.408
 7525SOL    HW123474   3.617   0.716   6.381
 7525SOL    HW223475   3.570   0.866   6.340
 7526SOL     OW23476   3.593   3.264   1.681
 7526SOL    HW123477   3.561   3.178   1.721
 7526SOL    HW223478   3.674   3.295   1.730
 7527SOL     OW23479   3.057   5.945   3.439
 7527SOL    HW123480   2.966   5.931   3.399
 7527SOL    HW223481   3.086   6.040   3.423
 7528SOL     OW23482   6.290   2.395   0.771
 7528SOL    HW123483   6.196   2.404   0.739
 7528SOL    HW223484   6.310   2.299   0.790
 7529SOL     OW23485   5.220   1.731   4.565
 7529SOL    HW123486   5.161   1.811   4.562
 7529SOL    HW223487   5.299   1.745   4.506
 7530SOL     OW23488   0.257   2.941   2.071
 7530SOL    HW123489   0.345   2.900   2.094
 7530SOL    HW223490   0.225   2.906   1.983
 7531SOL     OW23491   5.651   3.385   4.721
 7531SOL    HW123492   5.583   3.368   4.792
 7531SOL    HW223493   5.675   3.299   4.676
 7532SOL     OW23494   4.815   5.728   6.985
 7532SOL    HW123495   4.851   5.819   6.965
 7532SOL    HW223496   4.739   5.708   6.923
 7533SOL     OW23497   3.311   1.121   1.667
 7533SOL    HW123498   3.381   1.147   1.600
 7533SOL    HW223499   3.222   1.153   1.636
 7534SOL     OW23500   4.166   6.655   5.293
 7534SOL    HW123501   4.103   6.616   5.227
 7534SOL    HW223502   4.243   6.698   5.244
 7535SOL     OW23503   2.069   0.906   4.780
 7535SOL    HW123504   2.154   0.944   4.742
 7535SOL    HW223505   2.028   0.844   4.713
 7536SOL     OW23506   5.053   4.607   3.882
 7536SOL    HW123507   5.005   4.527   3.845
 7536SOL    HW223508   5.013   4.690   3.845
 7537SOL     OW23509   2.802   5.853   1.651
 7537SOL    HW123510   2.891   5.899   1.650
 7537SOL    HW223511   2.806   5.772   1.592
 7538SOL     OW23512   1.796   2.532   1.043
 7538SOL    HW123513   1.877   2.543   1.101
 7538SOL    HW223514   1.808   2.452   0.984
 7539SOL     OW23515   1.841   3.788   4.020
 7539SOL    HW123516   1.802   3.777   3.929
 7539SOL    HW223517   1.780   3.845   4.076
 7540SOL     OW23518   3.965   0.557   4.545
 7540SOL    HW123519   3.981   0.645   4.500
 7540SOL    HW223520   4.025   0.487   4.504
 7541SOL     OW23521   0.503   4.576   5.115
 7541SOL    HW123522   0.451   4.661   5.111
 7541SOL    HW223523   0.469   4.520   5.191
 7542SOL     OW23524   1.263   4.954   6.824
 7542SOL    HW123525   1.302   4.875   6.871
 7542SOL    HW223526   1.328   4.986   6.754
 7543SOL     OW23527   4.082   1.381   5.920
 7543SOL    HW123528   4.109   1.300   5.971
 7543SOL    HW223529   4.145   1.456   5.940
 7544SOL     OW23530   6.775   2.180   2.651
 7544SOL    HW123531   6.712   2.119   2.603
 7544SOL    HW223532   6.747   2.275   2.636
 7545SOL     OW23533   0.231   5.151   0.393
 7545SOL    HW123534   0.302   5.154   0.323
 7545SOL    HW223535   0.150   5.199   0.361
 7546SOL     OW23536   3.373   2.212   1.050
 7546SOL    HW123537   3.420   2.285   1.101
 7546SOL    HW223538   3.319   2.157   1.113
 7547SOL     OW23539   4.868   1.810   0.705
 7547SOL    HW123540   4.957   1.817   0.752
 7547SOL    HW223541   4.816   1.734   0.744
 7548SOL     OW23542   4.649   1.659   6.973
 7548SOL    HW123543   4.655   1.694   0.041
 7548SOL    HW223544   4.603   1.570   6.974
 7549SOL     OW23545   3.779   3.013   6.511
 7549SOL    HW123546   3.828   3.008   6.598
 7549SOL    HW223547   3.682   2.993   6.525
 7550SOL     OW23548   2.352   5.089   3.548
 7550SOL    HW123549   2.331   4.994   3.571
 7550SOL    HW223550   2.324   5.148   3.624
 7551SOL     OW23551   5.688   3.547   6.508
 7551SOL    HW123552   5.630   3.577   6.584
 7551SOL    HW223553   5.678   3.448   6.497
 7552SOL     OW23554   1.418   5.903   2.824
 7552SOL    HW123555   1.384   5.912   2.731
 7552SOL    HW223556   1.452   5.810   2.838
 7553SOL     OW23557   4.014   6.589   5.035
 7553SOL    HW123558   3.998   6.587   4.936
 7553SOL    HW223559   3.981   6.504   5.076
 7554SOL     OW23560   5.018   1.140   0.074
 7554SOL    HW123561   5.048   1.196   7.023
 7554SOL    HW223562   4.920   1.151   0.087
 7555SOL     OW23563   2.172   4.854   6.262
 7555SOL    HW123564   2.103   4.918   6.295
 7555SOL    HW223565   2.260   4.901   6.253
 7556SOL     OW23566   2.378   2.798   0.590
 7556SOL    HW123567   2.341   2.763   0.504
 7556SOL    HW223568   2.375   2.725   0.660
 7557SOL     OW23569   5.381   0.677   5.672
 7557SOL    HW123570   5.285   0.679   5.647
 7557SOL    HW223571   5.414   0.582   5.671
 7558SOL     OW23572   2.012   2.547   4.159
 7558SOL    HW123573   1.992   2.449   4.159
 7558SOL    HW223574   1.977   2.588   4.243
 7559SOL     OW23575   4.844   3.535   0.774
 7559SOL    HW123576   4.829   3.502   0.681
 7559SOL    HW223577   4.809   3.467   0.839
 7560SOL     OW23578   5.448   6.313   1.121
 7560SOL    HW123579   5.374   6.281   1.181
 7560SOL    HW223580   5.466   6.245   1.050
 7561SOL     OW23581   0.620   2.841   6.626
 7561SOL    HW123582   0.648   2.937   6.622
 7561SOL    HW223583   0.698   2.782   6.605
 7562SOL     OW23584   0.675   5.780   4.590
 7562SOL    HW123585   0.606   5.834   4.638
 7562SOL    HW223586   0.654   5.682   4.600
 7563SOL     OW23587   3.199   0.379   1.359
 7563SOL    HW123588   3.177   0.284   1.383
 7563SOL    HW223589   3.297   0.394   1.367
 7564SOL     OW23590   3.744   7.007   3.405
 7564SOL    HW123591   3.653   6.976   3.380
 7564SOL    HW223592   3.781   6.948   3.477
 7565SOL     OW23593   5.462   3.096   6.900
 7565SOL    HW123594   5.536   3.041   6.937
 7565SOL    HW223595   5.497   3.184   6.870
 7566SOL     OW23596   6.756   4.643   3.334
 7566SOL    HW123597   6.760   4.742   3.320
 7566SOL    HW223598   6.813   4.597   3.266
 7567SOL     OW23599   1.766   1.774   5.364
 7567SOL    HW123600   1.752   1.694   5.423
 7567SOL    HW223601   1.823   1.841   5.412
 7568SOL     OW23602   5.276   5.350   3.314
 7568SOL    HW123603   5.240   5.442   3.299
 7568SOL    HW223604   5.222   5.303   3.384
 7569SOL     OW23605   3.684   5.171   5.985
 7569SOL    HW123606   3.665   5.254   6.037
 7569SOL    HW223607   3.613   5.159   5.915
 7570SOL     OW23608   5.379   3.702   5.345
 7570SOL    HW123609   5.289   3.669   5.318
 7570SOL    HW223610   5.421   3.751   5.269
 7571SOL     OW23611   4.193   4.743   2.869
 7571SOL    HW123612   4.140   4.727   2.952
 7571SOL    HW223613   4.240   4.831   2.876
 7572SOL     OW23614   4.381   1.093   1.799
 7572SOL    HW123615   4.449   1.035   1.843
 7572SOL    HW223616   4.410   1.188   1.803
 7573SOL     OW23617   0.247   0.377   5.428
 7573SOL    HW123618   0.322   0.313   5.423
 7573SOL    HW223619   0.235   0.408   5.523
 7574SOL     OW23620   5.146   0.602   5.172
 7574SOL    HW123621   5.176   0.593   5.077
 7574SOL    HW223622   5.159   0.514   5.219
 7575SOL     OW23623   5.502   1.146   6.173
 7575SOL    HW123624   5.485   1.119   6.268
 7575SOL    HW223625   5.495   1.245   6.165
 7576SOL     OW23626   5.320   2.922   0.561
 7576SOL    HW123627   5.333   2.844   0.499
 7576SOL    HW223628   5.377   2.998   0.531
 7577SOL     OW23629   0.560   6.690   6.684
 7577SOL    HW123630   0.514   6.638   6.613
 7577SOL    HW223631   0.502   6.766   6.714
 7578SOL     OW23632   2.985   5.514   1.669
 7578SOL    HW123633   3.012   5.610   1.678
 7578SOL    HW223634   3.037   5.458   1.734
 7579SOL     OW23635   0.172   0.874   2.650
 7579SOL    HW123636   0.114   0.843   2.574
 7579SOL    HW223637   0.185   0.799   2.714
 7580SOL     OW23638   0.814   4.023   4.269
 7580SOL    HW123639   0.808   4.027   4.369
 7580SOL    HW223640   0.749   3.956   4.234
 7581SOL     OW23641   0.113   1.851   2.338
 7581SOL    HW123642   0.094   1.942   2.375
 7581SOL    HW223643   0.198   1.816   2.377
 7582SOL     OW23644   3.788   1.466   1.884
 7582SOL    HW123645   3.856   1.392   1.887
 7582SOL    HW223646   3.810   1.528   1.808
 7583SOL     OW23647   5.748   2.674   2.206
 7583SOL    HW123648   5.722   2.770   2.205
 7583SOL    HW223649   5.700   2.627   2.280
 7584SOL     OW23650   3.200   0.519   2.721
 7584SOL    HW123651   3.155   0.471   2.646
 7584SOL    HW223652   3.204   0.617   2.701
 7585SOL     OW23653   1.734   2.676   6.732
 7585SOL    HW123654   1.660   2.686   6.799
 7585SOL    HW223655   1.696   2.645   6.645
 7586SOL     OW23656   2.743   0.322   3.837
 7586SOL    HW123657   2.773   0.329   3.932
 7586SOL    HW223658   2.823   0.311   3.777
 7587SOL     OW23659   2.154   2.125   6.700
 7587SOL    HW123660   2.207   2.045   6.728
 7587SOL    HW223661   2.136   2.183   6.779
 7588SOL     OW23662   1.226   2.842   3.725
 7588SOL    HW123663   1.153   2.795   3.675
 7588SOL    HW223664   1.297   2.775   3.750
 7589SOL     OW23665   0.335   0.405   2.431
 7589SOL    HW123666   0.408   0.363   2.377
 7589SOL    HW223667   0.257   0.426   2.372
 7590SOL     OW23668   4.021   2.669   6.860
 7590SOL    HW123669   4.041   2.697   6.954
 7590SOL    HW223670   3.964   2.588   6.860
 7591SOL     OW23671   6.594   3.801   0.810
 7591SOL    HW123672   6.557   3.849   0.730
 7591SOL    HW223673   6.569   3.850   0.893
 7592SOL     OW23674   6.907   5.439   5.132
 7592SOL    HW123675   6.956   5.526   5.130
 7592SOL    HW223676   6.959   5.374   5.188
 7593SOL     OW23677   6.364   2.790   0.230
 7593SOL    HW123678   6.408   2.710   0.188
 7593SOL    HW223679   6.330   2.765   0.321
 7594SOL     OW23680   1.476   4.393   2.489
 7594SOL    HW123681   1.549   4.356   2.432
 7594SOL    HW223682   1.461   4.489   2.466
 7595SOL     OW23683   6.039   2.655   5.927
 7595SOL    HW123684   5.955   2.694   5.890
 7595SOL    HW223685   6.110   2.726   5.929
 7596SOL     OW23686   3.871   6.327   3.312
 7596SOL    HW123687   3.899   6.422   3.322
 7596SOL    HW223688   3.914   6.272   3.383
 7597SOL     OW23689   2.044   6.697   3.191
 7597SOL    HW123690   2.050   6.642   3.274
 7597SOL    HW223691   2.088   6.648   3.116
 7598SOL     OW23692   6.500   0.915   3.107
 7598SOL    HW123693   6.413   0.879   3.139
 7598SOL    HW223694   6.484   0.996   3.050
 7599SOL     OW23695   5.514   1.859   2.413
 7599SOL    HW123696   5.476   1.910   2.336
 7599SOL    HW223697   5.613   1.857   2.406
 7600SOL     OW23698   1.224   1.644   3.342
 7600SOL    HW123699   1.268   1.703   3.410
 7600SOL    HW223700   1.278   1.561   3.329
 7601SOL     OW23701   1.858   4.534   2.346
 7601SOL    HW123702   1.876   4.599   2.420
 7601SOL    HW223703   1.792   4.465   2.378
 7602SOL     OW23704   2.583   3.493   6.925
 7602SOL    HW123705   2.539   3.408   6.896
 7602SOL    HW223706   2.527   3.571   6.896
 7603SOL     OW23707   1.326   5.835   6.362
 7603SOL    HW123708   1.357   5.922   6.323
 7603SOL    HW223709   1.400   5.768   6.357
 7604SOL     OW23710   1.822   3.330   4.326
 7604SOL    HW123711   1.817   3.407   4.390
 7604SOL    HW223712   1.917   3.314   4.301
 7605SOL     OW23713   1.190   1.042   1.370
 7605SOL    HW123714   1.190   0.998   1.280
 7605SOL    HW223715   1.203   0.974   1.441
 7606SOL     OW23716   5.884   4.033   4.768
 7606SOL    HW123717   5.940   3.952   4.787
 7606SOL    HW223718   5.917   4.110   4.823
 7607SOL     OW23719   3.485   4.890   6.977
 7607SOL    HW123720   3.510   4.902   6.880
 7607SOL    HW223721   3.556   4.931   0.009
 7608SOL     OW23722   3.874   4.161   1.313
 7608SOL    HW123723   3.792   4.217   1.324
 7608SOL    HW223724   3.876   4.090   1.384
 7609SOL     OW23725   1.853   2.656   4.369
 7609SOL    HW123726   1.766   2.693   4.400
 7609SOL    HW223727   1.844   2.558   4.350
 7610SOL     OW23728   4.162   4.615   6.183
 7610SOL    HW123729   4.231   4.670   6.135
 7610SOL    HW223730   4.126   4.546   6.120
 7611SOL     OW23731   5.952   4.162   1.852
 7611SOL    HW123732   6.011   4.239   1.829
 7611SOL    HW223733   5.892   4.142   1.774
 7612SOL     OW23734   5.035   3.252   2.240
 7612SOL    HW123735   5.023   3.243   2.141
 7612SOL    HW223736   5.034   3.348   2.265
 7613SOL     OW23737   0.065   2.586   1.221
 7613SOL    HW123738   0.091   2.674   1.259
 7613SOL    HW223739   0.104   2.577   1.129
 7614SOL     OW23740   5.611   3.296   0.883
 7614SOL    HW123741   5.511   3.304   0.883
 7614SOL    HW223742   5.643   3.285   0.977
 7615SOL     OW23743   3.957   4.791   0.148
 7615SOL    HW123744   3.979   4.721   0.080
 7615SOL    HW223745   3.989   4.880   0.116
 7616SOL     OW23746   6.293   6.273   4.548
 7616SOL    HW123747   6.313   6.371   4.540
 7616SOL    HW223748   6.253   6.255   4.638
 7617SOL     OW23749   3.846   6.465   3.062
 7617SOL    HW123750   3.915   6.453   2.991
 7617SOL    HW223751   3.870   6.409   3.141
 7618SOL     OW23752   6.924   2.459   6.003
 7618SOL    HW123753   6.989   2.388   5.977
 7618SOL    HW223754   6.974   2.542   6.029
 7619SOL     OW23755   0.077   3.333   4.671
 7619SOL    HW123756   0.158   3.348   4.615
 7619SOL    HW223757   0.017   3.267   4.626
 7620SOL     OW23758   3.992   5.867   1.609
 7620SOL    HW123759   4.047   5.874   1.693
 7620SOL    HW223760   4.052   5.873   1.529
 7621SOL     OW23761   6.550   1.141   0.747
 7621SOL    HW123762   6.526   1.198   0.668
 7621SOL    HW223763   6.488   1.063   0.753
 7622SOL     OW23764   4.098   4.976   6.797
 7622SOL    HW123765   4.104   4.876   6.795
 7622SOL    HW223766   4.074   5.010   6.706
 7623SOL     OW23767   5.031   3.359   6.363
 7623SOL    HW123768   5.069   3.266   6.364
 7623SOL    HW223769   5.004   3.385   6.456
 7624SOL     OW23770   0.017   3.855   5.112
 7624SOL    HW123771   6.986   3.773   5.114
 7624SOL    HW223772   0.047   3.871   5.018
 7625SOL     OW23773   5.175   1.081   0.582
 7625SOL    HW123774   5.084   1.042   0.571
 7625SOL    HW223775   5.244   1.012   0.560
 7626SOL     OW23776   6.120   0.166   4.633
 7626SOL    HW123777   6.045   0.103   4.614
 7626SOL    HW223778   6.180   0.126   4.702
 7627SOL     OW23779   5.029   2.967   0.166
 7627SOL    HW123780   5.066   2.879   0.198
 7627SOL    HW223781   5.105   3.030   0.150
 7628SOL     OW23782   3.374   2.399   1.625
 7628SOL    HW123783   3.284   2.379   1.664
 7628SOL    HW223784   3.440   2.329   1.655
 7629SOL     OW23785   0.295   4.856   3.693
 7629SOL    HW123786   0.351   4.897   3.621
 7629SOL    HW223787   0.323   4.893   3.782
 7630SOL     OW23788   0.747   0.304   1.389
 7630SOL    HW123789   0.675   0.241   1.361
 7630SOL    HW223790   0.835   0.271   1.356
 7631SOL     OW23791   0.617   1.558   5.989
 7631SOL    HW123792   0.626   1.483   6.055
 7631SOL    HW223793   0.597   1.643   6.037
 7632SOL     OW23794   4.906   4.195   1.138
 7632SOL    HW123795   4.858   4.148   1.213
 7632SOL    HW223796   4.970   4.131   1.095
 7633SOL     OW23797   5.332   0.143   1.825
 7633SOL    HW123798   5.416   0.134   1.879
 7633SOL    HW223799   5.256   0.100   1.874
 7634SOL     OW23800   1.973   1.513   2.097
 7634SOL    HW123801   1.934   1.442   2.038
 7634SOL    HW223802   2.034   1.471   2.163
 7635SOL     OW23803   3.705   4.923   5.212
 7635SOL    HW123804   3.692   4.896   5.307
 7635SOL    HW223805   3.626   4.895   5.157
 7636SOL     OW23806   1.770   3.221   3.984
 7636SOL    HW123807   1.820   3.143   4.020
 7636SOL    HW223808   1.763   3.292   4.055
 7637SOL     OW23809   3.076   6.379   2.158
 7637SOL    HW123810   3.069   6.280   2.164
 7637SOL    HW223811   3.052   6.409   2.065
 7638SOL     OW23812   2.182   6.029   1.479
 7638SOL    HW123813   2.169   5.986   1.389
 7638SOL    HW223814   2.101   6.016   1.535
 7639SOL     OW23815   0.349   1.927   1.409
 7639SOL    HW123816   0.379   1.956   1.319
 7639SOL    HW223817   0.337   2.007   1.468
 7640SOL     OW23818   3.206   1.711   5.803
 7640SOL    HW123819   3.282   1.666   5.758
 7640SOL    HW223820   3.230   1.806   5.824
 7641SOL     OW23821   1.566   3.866   2.320
 7641SOL    HW123822   1.477   3.889   2.283
 7641SOL    HW223823   1.611   3.799   2.261
 7642SOL     OW23824   3.668   2.154   2.696
 7642SOL    HW123825   3.727   2.076   2.718
 7642SOL    HW223826   3.709   2.206   2.621
 7643SOL     OW23827   4.801   2.253   3.268
 7643SOL    HW123828   4.817   2.190   3.191
 7643SOL    HW223829   4.887   2.300   3.290
 7644SOL     OW23830   4.261   2.531   1.778
 7644SOL    HW123831   4.189   2.513   1.711
 7644SOL    HW223832   4.339   2.574   1.732
 7645SOL     OW23833   5.176   3.547   5.234
 7645SOL    HW123834   5.083   3.567   5.265
 7645SOL    HW223835   5.204   3.457   5.267
 7646SOL     OW23836   1.988   2.900   3.667
 7646SOL    HW123837   1.983   2.807   3.705
 7646SOL    HW223838   1.902   2.922   3.621
 7647SOL     OW23839   0.132   2.558   3.486
 7647SOL    HW123840   0.125   2.655   3.463
 7647SOL    HW223841   0.041   2.522   3.508
 7648SOL     OW23842   2.690   1.762   2.921
 7648SOL    HW123843   2.747   1.835   2.884
 7648SOL    HW223844   2.608   1.751   2.864
 7649SOL     OW23845   0.827   0.760   3.655
 7649SOL    HW123846   0.897   0.698   3.691
 7649SOL    HW223847   0.831   0.847   3.704
 7650SOL     OW23848   5.719   1.308   0.817
 7650SOL    HW123849   5.714   1.274   0.724
 7650SOL    HW223850   5.750   1.403   0.816
 7651SOL     OW23851   2.061   0.449   3.968
 7651SOL    HW123852   2.119   0.410   3.897
 7651SOL    HW223853   2.024   0.375   4.026
 7652SOL     OW23854   6.401   3.163   4.844
 7652SOL    HW123855   6.393   3.145   4.942
 7652SOL    HW223856   6.421   3.077   4.796
 7653SOL     OW23857   0.304   1.815   6.937
 7653SOL    HW123858   0.207   1.807   6.914
 7653SOL    HW223859   0.346   1.884   6.878
 7654SOL     OW23860   4.859   3.118   4.570
 7654SOL    HW123861   4.892   3.061   4.645
 7654SOL    HW223862   4.797   3.064   4.512
 7655SOL     OW23863   4.602   6.498   3.018
 7655SOL    HW123864   4.644   6.589   3.017
 7655SOL    HW223865   4.657   6.437   3.075
 7656SOL     OW23866   3.934   3.799   6.910
 7656SOL    HW123867   3.885   3.885   6.898
 7656SOL    HW223868   3.885   3.742   6.976
 7657SOL     OW23869   1.165   1.967   3.464
 7657SOL    HW123870   1.247   1.917   3.493
 7657SOL    HW223871   1.089   1.944   3.524
 7658SOL     OW23872   3.007   0.361   6.710
 7658SOL    HW123873   3.048   0.272   6.728
 7658SOL    HW223874   2.951   0.357   6.628
 7659SOL     OW23875   5.406   4.819   6.500
 7659SOL    HW123876   5.330   4.829   6.565
 7659SOL    HW223877   5.399   4.730   6.454
 7660SOL     OW23878   0.395   5.756   3.258
 7660SOL    HW123879   0.380   5.712   3.346
 7660SOL    HW223880   0.348   5.705   3.186
 7661SOL     OW23881   5.671   2.237   5.448
 7661SOL    HW123882   5.616   2.253   5.530
 7661SOL    HW223883   5.610   2.218   5.371
 7662SOL     OW23884   1.933   3.084   4.632
 7662SOL    HW123885   1.883   3.139   4.699
 7662SOL    HW223886   2.016   3.132   4.604
 7663SOL     OW23887   6.253   5.260   5.939
 7663SOL    HW123888   6.204   5.347   5.925
 7663SOL    HW223889   6.351   5.275   5.929
 7664SOL     OW23890   4.113   0.584   1.880
 7664SOL    HW123891   4.140   0.576   1.784
 7664SOL    HW223892   4.194   0.604   1.935
 7665SOL     OW23893   5.849   0.989   4.578
 7665SOL    HW123894   5.862   0.940   4.492
 7665SOL    HW223895   5.751   1.005   4.593
 7666SOL     OW23896   0.915   5.009   2.333
 7666SOL    HW123897   0.918   5.057   2.245
 7666SOL    HW223898   0.913   4.910   2.318
 7667SOL     OW23899   4.320   0.160   2.481
 7667SOL    HW123900   4.387   0.095   2.519
 7667SOL    HW223901   4.319   0.243   2.537
 7668SOL     OW23902   3.107   5.015   0.561
 7668SOL    HW123903   3.120   4.966   0.647
 7668SOL    HW223904   3.039   4.967   0.506
 7669SOL     OW23905   4.838   0.940   5.046
 7669SOL    HW123906   4.888   0.991   4.976
 7669SOL    HW223907   4.761   0.892   5.004
 7670SOL     OW23908   0.744   4.601   0.398
 7670SOL    HW123909   0.720   4.513   0.356
 7670SOL    HW223910   0.692   4.613   0.482
 7671SOL     OW23911   3.504   1.479   1.887
 7671SOL    HW123912   3.603   1.471   1.897
 7671SOL    HW223913   3.462   1.389   1.896
 7672SOL     OW23914   0.288   6.235   2.785
 7672SOL    HW123915   0.194   6.207   2.766
 7672SOL    HW223916   0.308   6.220   2.881
 7673SOL     OW23917   1.586   6.578   1.286
 7673SOL    HW123918   1.593   6.659   1.344
 7673SOL    HW223919   1.506   6.525   1.312
 7674SOL     OW23920   4.533   0.891   3.411
 7674SOL    HW123921   4.617   0.850   3.376
 7674SOL    HW223922   4.459   0.825   3.406
 7675SOL     OW23923   6.272   6.918   2.767
 7675SOL    HW123924   6.201   6.976   2.727
 7675SOL    HW223925   6.343   6.975   2.807
 7676SOL     OW23926   2.565   1.862   0.359
 7676SOL    HW123927   2.662   1.871   0.338
 7676SOL    HW223928   2.512   1.920   0.297
 7677SOL     OW23929   1.206   4.500   1.353
 7677SOL    HW123930   1.238   4.494   1.448
 7677SOL    HW223931   1.279   4.536   1.295
 7678SOL     OW23932   2.455   2.825   5.342
 7678SOL    HW123933   2.454   2.901   5.276
 7678SOL    HW223934   2.378   2.765   5.324
 7679SOL     OW23935   3.157   6.579   5.900
 7679SOL    HW123936   3.238   6.535   5.862
 7679SOL    HW223937   3.124   6.650   5.838
 7680SOL     OW23938   1.694   0.585   0.713
 7680SOL    HW123939   1.655   0.585   0.621
 7680SOL    HW223940   1.713   0.679   0.741
 7681SOL     OW23941   2.701   0.657   1.086
 7681SOL    HW123942   2.642   0.582   1.057
 7681SOL    HW223943   2.662   0.701   1.167
 7682SOL     OW23944   3.470   0.348   2.403
 7682SOL    HW123945   3.533   0.271   2.399
 7682SOL    HW223946   3.508   0.425   2.352
 7683SOL     OW23947   6.179   2.224   4.274
 7683SOL    HW123948   6.105   2.291   4.274
 7683SOL    HW223949   6.229   2.229   4.187
 7684SOL     OW23950   3.929   1.838   1.335
 7684SOL    HW123951   3.897   1.743   1.339
 7684SOL    HW223952   3.903   1.885   1.419
 7685SOL     OW23953   3.010   1.387   5.896
 7685SOL    HW123954   3.039   1.443   5.974
 7685SOL    HW223955   2.922   1.420   5.862
 7686SOL     OW23956   0.247   6.114   3.437
 7686SOL    HW123957   0.176   6.170   3.394
 7686SOL    HW223958   0.212   6.021   3.450
 7687SOL     OW23959   6.155   5.543   4.174
 7687SOL    HW123960   6.065   5.549   4.218
 7687SOL    HW223961   6.144   5.512   4.080
 7688SOL     OW23962   0.865   5.920   5.327
 7688SOL    HW123963   0.889   6.012   5.360
 7688SOL    HW223964   0.944   5.880   5.281
 7689SOL     OW23965   5.815   6.426   2.505
 7689SOL    HW123966   5.910   6.410   2.529
 7689SOL    HW223967   5.809   6.503   2.441
 7690SOL     OW23968   5.721   4.185   6.975
 7690SOL    HW123969   5.724   4.113   0.019
 7690SOL    HW223970   5.626   4.211   6.959
 7691SOL     OW23971   4.844   3.686   3.703
 7691SOL    HW123972   4.907   3.682   3.625
 7691SOL    HW223973   4.883   3.634   3.779
 7692SOL     OW23974   0.888   5.963   1.756
 7692SOL    HW123975   0.844   5.881   1.793
 7692SOL    HW223976   0.862   5.974   1.660
 7693SOL     OW23977   3.106   0.067   1.800
 7693SOL    HW123978   3.185   0.120   1.831
 7693SOL    HW223979   3.034   0.130   1.771
 7694SOL     OW23980   5.007   3.903   4.184
 7694SOL    HW123981   5.051   3.814   4.168
 7694SOL    HW223982   5.014   3.959   4.102
 7695SOL     OW23983   4.222   0.035   1.013
 7695SOL    HW123984   4.177   6.981   0.971
 7695SOL    HW223985   4.192   0.045   1.107
 7696SOL     OW23986   0.222   0.969   6.053
 7696SOL    HW123987   0.273   0.962   5.968
 7696SOL    HW223988   0.283   0.954   6.130
 7697SOL     OW23989   2.555   0.099   3.557
 7697SOL    HW123990   2.651   0.074   3.542
 7697SOL    HW223991   2.497   0.019   3.539
 7698SOL     OW23992   5.387   2.078   3.685
 7698SOL    HW123993   5.417   2.151   3.624
 7698SOL    HW223994   5.464   2.017   3.703
 7699SOL     OW23995   3.425   6.382   6.052
 7699SOL    HW123996   3.485   6.420   6.122
 7699SOL    HW223997   3.342   6.348   6.095
 7700SOL     OW23998   4.945   5.716   3.032
 7700SOL    HW123999   5.010   5.716   2.957
 7700SOL    HW224000   4.931   5.622   3.064
 7701SOL     OW24001   6.269   2.097   6.785
 7701SOL    HW124002   6.234   2.182   6.827
 7701SOL    HW224003   6.276   2.110   6.686
 7702SOL     OW24004   3.649   6.324   4.906
 7702SOL    HW124005   3.714   6.254   4.937
 7702SOL    HW224006   3.562   6.280   4.883
 7703SOL     OW24007   6.205   6.571   6.124
 7703SOL    HW124008   6.109   6.597   6.109
 7703SOL    HW224009   6.220   6.556   6.221
 7704SOL     OW24010   5.825   0.485   4.216
 7704SOL    HW124011   5.819   0.452   4.310
 7704SOL    HW224012   5.921   0.499   4.191
 7705SOL     OW24013   2.711   6.339   0.653
 7705SOL    HW124014   2.697   6.316   0.749
 7705SOL    HW224015   2.644   6.409   0.625
 7706SOL     OW24016   3.350   3.920   5.158
 7706SOL    HW124017   3.330   3.953   5.066
 7706SOL    HW224018   3.279   3.953   5.221
 7707SOL     OW24019   0.240   4.379   6.090
 7707SOL    HW124020   0.228   4.299   6.150
 7707SOL    HW224021   0.300   4.445   6.134
 7708SOL     OW24022   0.570   6.858   5.575
 7708SOL    HW124023   0.539   6.936   5.629
 7708SOL    HW224024   0.513   6.850   5.492
 7709SOL     OW24025   6.635   5.032   2.458
 7709SOL    HW124026   6.696   5.075   2.391
 7709SOL    HW224027   6.650   4.933   2.457
 7710SOL     OW24028   3.476   2.647   0.570
 7710SOL    HW124029   3.451   2.687   0.658
 7710SOL    HW224030   3.403   2.664   0.504
 7711SOL     OW24031   5.507   6.622   6.081
 7711SOL    HW124032   5.464   6.546   6.032
 7711SOL    HW224033   5.568   6.586   6.151
 7712SOL     OW24034   6.972   5.269   1.433
 7712SOL    HW124035   6.998   5.272   1.530
 7712SOL    HW224036   6.961   5.362   1.398
 7713SOL     OW24037   1.613   4.119   0.464
 7713SOL    HW124038   1.693   4.178   0.462
 7713SOL    HW224039   1.599   4.079   0.373
 7714SOL     OW24040   0.222   4.642   5.576
 7714SOL    HW124041   0.218   4.562   5.636
 7714SOL    HW224042   0.232   4.613   5.481
 7715SOL     OW24043   2.986   2.695   0.422
 7715SOL    HW124044   3.062   2.635   0.446
 7715SOL    HW224045   2.967   2.688   0.324
 7716SOL     OW24046   0.262   4.919   1.721
 7716SOL    HW124047   0.305   4.941   1.634
 7716SOL    HW224048   0.167   4.952   1.721
 7717SOL     OW24049   1.629   0.930   5.665
 7717SOL    HW124050   1.551   0.926   5.603
 7717SOL    HW224051   1.638   1.023   5.700
 7718SOL     OW24052   6.691   4.270   3.643
 7718SOL    HW124053   6.758   4.249   3.715
 7718SOL    HW224054   6.695   4.368   3.622
 7719SOL     OW24055   0.222   4.120   5.214
 7719SOL    HW124056   0.219   4.020   5.221
 7719SOL    HW224057   0.180   4.148   5.128
 7720SOL     OW24058   6.703   2.643   6.521
 7720SOL    HW124059   6.735   2.622   6.428
 7720SOL    HW224060   6.630   2.579   6.546
 7721SOL     OW24061   0.536   5.262   2.423
 7721SOL    HW124062   0.519   5.295   2.515
 7721SOL    HW224063   0.461   5.289   2.363
 7722SOL     OW24064   1.330   3.957   3.593
 7722SOL    HW124065   1.416   3.991   3.631
 7722SOL    HW224066   1.318   3.994   3.501
 7723SOL     OW24067   4.625   3.360   6.450
 7723SOL    HW124068   4.628   3.459   6.437
 7723SOL    HW224069   4.550   3.322   6.396
 7724SOL     OW24070   2.756   3.656   0.895
 7724SOL    HW124071   2.841   3.603   0.891
 7724SOL    HW224072   2.732   3.674   0.991
 7725SOL     OW24073   6.123   1.446   2.653
 7725SOL    HW124074   6.114   1.492   2.565
 7725SOL    HW224075   6.176   1.362   2.642
 7726SOL     OW24076   1.811   5.200   5.730
 7726SOL    HW124077   1.839   5.281   5.781
 7726SOL    HW224078   1.891   5.142   5.713
 7727SOL     OW24079   6.516   2.457   2.666
 7727SOL    HW124080   6.417   2.444   2.660
 7727SOL    HW224081   6.556   2.451   2.575
 7728SOL     OW24082   2.186   2.920   5.257
 7728SOL    HW124083   2.244   2.980   5.312
 7728SOL    HW224084   2.206   2.934   5.160
 7729SOL     OW24085   6.114   1.864   1.150
 7729SOL    HW124086   6.133   1.926   1.225
 7729SOL    HW224087   6.029   1.890   1.105
 7730SOL     OW24088   6.569   4.995   6.952
 7730SOL    HW124089   6.645   4.977   6.890
 7730SOL    HW224090   6.574   5.090   6.986
 7731SOL     OW24091   6.052   1.029   0.017
 7731SOL    HW124092   6.062   0.931   0.031
 7731SOL    HW224093   6.139   1.069   7.015
 7732SOL     OW24094   4.504   6.620   0.567
 7732SOL    HW124095   4.601   6.615   0.591
 7732SOL    HW224096   4.453   6.657   0.645
 7733SOL     OW24097   5.638   6.246   2.432
 7733SOL    HW124098   5.671   6.225   2.340
 7733SOL    HW224099   5.702   6.309   2.477
 7734SOL     OW24100   1.508   4.679   4.146
 7734SOL    HW124101   1.565   4.686   4.228
 7734SOL    HW224102   1.433   4.744   4.152
 7735SOL     OW24103   5.115   6.332   6.387
 7735SOL    HW124104   5.178   6.410   6.386
 7735SOL    HW224105   5.038   6.352   6.326
 7736SOL     OW24106   2.494   2.795   0.075
 7736SOL    HW124107   2.558   2.834   0.141
 7736SOL    HW224108   2.543   2.743   0.006
 7737SOL     OW24109   2.754   6.877   2.807
 7737SOL    HW124110   2.784   6.826   2.726
 7737SOL    HW224111   2.832   6.927   2.845
 7738SOL     OW24112   3.039   5.533   0.286
 7738SOL    HW124113   3.100   5.477   0.230
 7738SOL    HW224114   2.953   5.483   0.302
 7739SOL     OW24115   0.187   2.360   1.873
 7739SOL    HW124116   0.202   2.264   1.898
 7739SOL    HW224117   0.091   2.383   1.888
 7740SOL     OW24118   2.917   0.647   3.290
 7740SOL    HW124119   2.950   0.741   3.298
 7740SOL    HW224120   2.983   0.594   3.237
 7741SOL     OW24121   0.092   4.909   5.859
 7741SOL    HW124122   0.170   4.884   5.802
 7741SOL    HW224123   0.085   5.008   5.865
 7742SOL     OW24124   4.355   2.266   2.997
 7742SOL    HW124125   4.426   2.211   2.955
 7742SOL    HW224126   4.265   2.229   2.974
 7743SOL     OW24127   5.189   1.852   0.187
 7743SOL    HW124128   5.149   1.776   0.238
 7743SOL    HW224129   5.233   1.916   0.250
 7744SOL     OW24130   0.630   0.722   4.547
 7744SOL    HW124131   0.621   0.812   4.589
 7744SOL    HW224132   0.717   0.681   4.573
 7745SOL     OW24133   4.068   1.071   6.790
 7745SOL    HW124134   4.018   1.128   6.726
 7745SOL    HW224135   4.166   1.082   6.776
 7746SOL     OW24136   0.940   0.328   0.382
 7746SOL    HW124137   0.897   0.415   0.357
 7746SOL    HW224138   0.890   0.286   0.458
 7747SOL     OW24139   5.920   6.304   1.009
 7747SOL    HW124140   5.916   6.284   0.911
 7747SOL    HW224141   5.889   6.397   1.026
 7748SOL     OW24142   2.914   3.681   4.683
 7748SOL    HW124143   2.993   3.738   4.706
 7748SOL    HW224144   2.928   3.589   4.720
 7749SOL     OW24145   3.502   3.336   5.672
 7749SOL    HW124146   3.509   3.302   5.579
 7749SOL    HW224147   3.468   3.263   5.732
 7750SOL     OW24148   6.871   5.627   0.581
 7750SOL    HW124149   6.892   5.531   0.600
 7750SOL    HW224150   6.891   5.647   0.485
 7751SOL     OW24151   1.424   2.982   2.814
 7751SOL    HW124152   1.345   3.044   2.816
 7751SOL    HW224153   1.507   3.036   2.799
 7752SOL     OW24154   5.785   6.248   5.218
 7752SOL    HW124155   5.855   6.298   5.269
 7752SOL    HW224156   5.762   6.299   5.135
 7753SOL     OW24157   1.946   0.737   4.603
 7753SOL    HW124158   1.927   0.651   4.650
 7753SOL    HW224159   1.864   0.767   4.554
 7754SOL     OW24160   4.850   0.092   1.700
 7754SOL    HW124161   4.948   0.094   1.682
 7754SOL    HW224162   4.831   0.024   1.772
 7755SOL     OW24163   1.436   2.252   5.790
 7755SOL    HW124164   1.468   2.169   5.835
 7755SOL    HW224165   1.336   2.253   5.789
 7756SOL     OW24166   3.469   5.563   1.729
 7756SOL    HW124167   3.454   5.473   1.769
 7756SOL    HW224168   3.418   5.571   1.643
 7757SOL     OW24169   5.624   5.745   5.256
 7757SOL    HW124170   5.528   5.769   5.273
 7757SOL    HW224171   5.681   5.826   5.266
 7758SOL     OW24172   1.435   1.449   6.110
 7758SOL    HW124173   1.477   1.498   6.186
 7758SOL    HW224174   1.340   1.426   6.132
 7759SOL     OW24175   1.091   2.138   5.493
 7759SOL    HW124176   1.017   2.079   5.527
 7759SOL    HW224177   1.107   2.120   5.396
 7760SOL     OW24178   5.597   3.534   2.640
 7760SOL    HW124179   5.512   3.568   2.600
 7760SOL    HW224180   5.602   3.435   2.628
 7761SOL     OW24181   1.016   0.296   6.001
 7761SOL    HW124182   1.011   0.283   5.902
 7761SOL    HW224183   0.924   0.307   6.038
 7762SOL     OW24184   4.425   0.572   3.909
 7762SOL    HW124185   4.345   0.525   3.870
 7762SOL    HW224186   4.453   0.524   3.993
 7763SOL     OW24187   1.097   1.379   6.932
 7763SOL    HW124188   1.130   1.434   7.008
 7763SOL    HW224189   1.129   1.285   6.940
 7764SOL     OW24190   3.454   2.884   3.283
 7764SOL    HW124191   3.551   2.908   3.294
 7764SOL    HW224192   3.442   2.787   3.303
 7765SOL     OW24193   6.291   2.898   4.052
 7765SOL    HW124194   6.377   2.884   4.002
 7765SOL    HW224195   6.222   2.836   4.015
 7766SOL     OW24196   5.686   2.838   6.634
 7766SOL    HW124197   5.687   2.738   6.635
 7766SOL    HW224198   5.766   2.871   6.584
 7767SOL     OW24199   4.469   5.468   2.871
 7767SOL    HW124200   4.543   5.483   2.937
 7767SOL    HW224201   4.435   5.556   2.838
 7768SOL     OW24202   4.196   4.701   2.133
 7768SOL    HW124203   4.148   4.747   2.208
 7768SOL    HW224204   4.262   4.636   2.170
 7769SOL     OW24205   5.100   2.834   3.179
 7769SOL    HW124206   5.003   2.830   3.155
 7769SOL    HW224207   5.110   2.871   3.271
 7770SOL     OW24208   1.797   4.069   2.619
 7770SOL    HW124209   1.857   4.063   2.540
 7770SOL    HW224210   1.702   4.053   2.591
 7771SOL     OW24211   3.464   2.360   5.294
 7771SOL    HW124212   3.406   2.385   5.217
 7771SOL    HW224213   3.445   2.420   5.371
 7772SOL     OW24214   5.050   0.066   2.562
 7772SOL    HW124215   4.996   7.023   2.514
 7772SOL    HW224216   4.990   0.137   2.598
 7773SOL     OW24217   2.452   5.545   4.661
 7773SOL    HW124218   2.520   5.472   4.651
 7773SOL    HW224219   2.390   5.523   4.736
 7774SOL     OW24220   5.628   1.884   5.676
 7774SOL    HW124221   5.537   1.919   5.652
 7774SOL    HW224222   5.620   1.788   5.704
 7775SOL     OW24223   5.364   6.064   1.985
 7775SOL    HW124224   5.301   6.111   2.046
 7775SOL    HW224225   5.450   6.114   1.979
 7776SOL     OW24226   1.596   4.894   6.808
 7776SOL    HW124227   1.693   4.870   6.815
 7776SOL    HW224228   1.579   4.982   6.853
 7777SOL     OW24229   0.446   0.131   4.535
 7777SOL    HW124230   0.482   0.134   4.442
 7777SOL    HW224231   0.492   0.059   4.587
 7778SOL     OW24232   5.445   4.157   1.084
 7778SOL    HW124233   5.429   4.147   0.986
 7778SOL    HW224234   5.390   4.091   1.134
 7779SOL     OW24235   2.490   2.730   1.799
 7779SOL    HW124236   2.426   2.803   1.776
 7779SOL    HW224237   2.581   2.753   1.765
 7780SOL     OW24238   1.135   4.538   5.205
 7780SOL    HW124239   1.100   4.628   5.178
 7780SOL    HW224240   1.192   4.547   5.287
 7781SOL     OW24241   1.015   4.511   0.235
 7781SOL    HW124242   1.097   4.549   0.192
 7781SOL    HW224243   0.964   4.456   0.168
 7782SOL     OW24244   6.565   4.636   4.487
 7782SOL    HW124245   6.642   4.625   4.550
 7782SOL    HW224246   6.588   4.594   4.399
 7783SOL     OW24247   1.050   5.545   4.953
 7783SOL    HW124248   1.117   5.548   5.027
 7783SOL    HW224249   1.097   5.528   4.866
 7784SOL     OW24250   2.930   2.733   1.364
 7784SOL    HW124251   2.973   2.818   1.396
 7784SOL    HW224252   2.959   2.658   1.423
 7785SOL     OW24253   1.985   5.395   4.026
 7785SOL    HW124254   1.995   5.423   3.930
 7785SOL    HW224255   1.901   5.342   4.037
 7786SOL     OW24256   3.111   6.303   0.255
 7786SOL    HW124257   3.117   6.223   0.194
 7786SOL    HW224258   3.203   6.339   0.271
 7787SOL     OW24259   2.208   2.917   6.781
 7787SOL    HW124260   2.292   2.898   6.730
 7787SOL    HW224261   2.137   2.853   6.753
 7788SOL     OW24262   2.532   5.584   1.428
 7788SOL    HW124263   2.577   5.580   1.340
 7788SOL    HW224264   2.519   5.680   1.455
 7789SOL     OW24265   1.903   6.742   6.405
 7789SOL    HW124266   1.925   6.647   6.426
 7789SOL    HW224267   1.804   6.750   6.389
 7790SOL     OW24268   5.983   5.872   3.451
 7790SOL    HW124269   5.932   5.789   3.475
 7790SOL    HW224270   5.925   5.932   3.397
 7791SOL     OW24271   2.050   5.715   3.609
 7791SOL    HW124272   2.095   5.675   3.688
 7791SOL    HW224273   2.098   5.799   3.581
 7792SOL     OW24274   1.840   5.331   4.559
 7792SOL    HW124275   1.790   5.244   4.556
 7792SOL    HW224276   1.787   5.402   4.513
 7793SOL     OW24277   3.681   0.751   0.365
 7793SOL    HW124278   3.645   0.688   0.432
 7793SOL    HW224279   3.660   0.718   0.273
 7794SOL     OW24280   6.207   4.524   2.985
 7794SOL    HW124281   6.256   4.494   2.904
 7794SOL    HW224282   6.122   4.473   2.994
 7795SOL     OW24283   2.103   4.357   5.377
 7795SOL    HW124284   2.184   4.412   5.357
 7795SOL    HW224285   2.091   4.288   5.306
 7796SOL     OW24286   4.026   3.892   3.673
 7796SOL    HW124287   3.933   3.908   3.707
 7796SOL    HW224288   4.082   3.854   3.747
 7797SOL     OW24289   1.119   0.122   3.252
 7797SOL    HW124290   1.061   0.186   3.302
 7797SOL    HW224291   1.095   0.028   3.277
 7798SOL     OW24292   2.397   4.336   5.526
 7798SOL    HW124293   2.362   4.243   5.514
 7798SOL    HW224294   2.497   4.335   5.516
 7799SOL     OW24295   0.911   6.392   2.552
 7799SOL    HW124296   0.954   6.474   2.588
 7799SOL    HW224297   0.838   6.363   2.615
 7800SOL     OW24298   0.919   5.210   1.593
 7800SOL    HW124299   0.864   5.268   1.532
 7800SOL    HW224300   1.008   5.193   1.552
 7801SOL     OW24301   2.359   1.757   1.610
 7801SOL    HW124302   2.316   1.671   1.640
 7801SOL    HW224303   2.457   1.753   1.631
 7802SOL     OW24304   6.211   2.563   1.130
 7802SOL    HW124305   6.244   2.519   1.047
 7802SOL    HW224306   6.127   2.614   1.110
 7803SOL     OW24307   4.828   1.710   5.935
 7803SOL    HW124308   4.793   1.797   5.970
 7803SOL    HW224309   4.753   1.645   5.924
 7804SOL     OW24310   4.765   2.081   3.725
 7804SOL    HW124311   4.745   2.144   3.800
 7804SOL    HW224312   4.728   2.118   3.639
 7805SOL     OW24313   5.755   2.638   1.062
 7805SOL    HW124314   5.716   2.715   1.112
 7805SOL    HW224315   5.754   2.556   1.119
 7806SOL     OW24316   5.630   1.619   0.053
 7806SOL    HW124317   5.545   1.658   0.017
 7806SOL    HW224318   5.694   1.605   7.003
 7807SOL     OW24319   1.907   4.734   5.246
 7807SOL    HW124320   1.993   4.772   5.213
 7807SOL    HW224321   1.903   4.636   5.227
 7808SOL     OW24322   6.339   3.070   3.521
 7808SOL    HW124323   6.332   2.992   3.459
 7808SOL    HW224324   6.286   3.051   3.604
 7809SOL     OW24325   3.014   5.192   3.611
 7809SOL    HW124326   3.004   5.248   3.528
 7809SOL    HW224327   3.029   5.097   3.585
 7810SOL     OW24328   3.576   0.267   4.300
 7810SOL    HW124329   3.604   0.172   4.294
 7810SOL    HW224330   3.522   0.282   4.383
 7811SOL     OW24331   2.017   5.508   2.382
 7811SOL    HW124332   2.089   5.493   2.314
 7811SOL    HW224333   1.928   5.497   2.338
 7812SOL     OW24334   0.312   2.066   4.297
 7812SOL    HW124335   0.321   1.978   4.250
 7812SOL    HW224336   0.321   2.140   4.230
 7813SOL     OW24337   5.055   2.914   6.860
 7813SOL    HW124338   5.050   2.827   6.812
 7813SOL    HW224339   4.981   2.920   6.927
 7814SOL     OW24340   0.238   3.440   2.998
 7814SOL    HW124341   0.236   3.419   3.096
 7814SOL    HW224342   0.332   3.439   2.966
 7815SOL     OW24343   5.587   0.738   5.911
 7815SOL    HW124344   5.496   0.754   5.872
 7815SOL    HW224345   5.581   0.735   6.011
 7816SOL     OW24346   1.934   2.155   6.194
 7816SOL    HW124347   2.027   2.173   6.227
 7816SOL    HW224348   1.871   2.154   6.272
 7817SOL     OW24349   5.485   4.824   2.997
 7817SOL    HW124350   5.400   4.839   2.947
 7817SOL    HW224351   5.542   4.760   2.945
 7818SOL     OW24352   4.325   0.629   2.066
 7818SOL    HW124353   4.382   0.579   2.131
 7818SOL    HW224354   4.273   0.699   2.114
 7819SOL     OW24355   0.458   4.017   1.626
 7819SOL    HW124356   0.432   3.994   1.719
 7819SOL    HW224357   0.553   4.048   1.624
 7820SOL     OW24358   1.558   1.977   6.183
 7820SOL    HW124359   1.475   2.014   6.225
 7820SOL    HW224360   1.620   1.945   6.255
 7821SOL     OW24361   5.691   6.081   0.188
 7821SOL    HW124362   5.676   6.101   0.091
 7821SOL    HW224363   5.656   5.990   0.209
 7822SOL     OW24364   2.472   2.114   6.436
 7822SOL    HW124365   2.420   2.193   6.468
 7822SOL    HW224366   2.534   2.143   6.362
 7823SOL     OW24367   2.689   4.084   5.319
 7823SOL    HW124368   2.598   4.056   5.290
 7823SOL    HW224369   2.683   4.169   5.371
 7824SOL     OW24370   6.075   0.485   4.115
 7824SOL    HW124371   6.089   0.547   4.038
 7824SOL    HW224372   6.133   0.513   4.192
 7825SOL     OW24373   1.624   2.688   1.450
 7825SOL    HW124374   1.616   2.612   1.385
 7825SOL    HW224375   1.536   2.703   1.495
 7826SOL     OW24376   6.292   1.668   0.337
 7826SOL    HW124377   6.197   1.690   0.315
 7826SOL    HW224378   6.325   1.729   0.409
 7827SOL     OW24379   2.642   5.564   0.947
 7827SOL    HW124380   2.739   5.581   0.928
 7827SOL    HW224381   2.589   5.646   0.924
 7828SOL     OW24382   1.345   4.514   6.772
 7828SOL    HW124383   1.336   4.441   6.839
 7828SOL    HW224384   1.317   4.480   6.682
 7829SOL     OW24385   2.900   3.818   1.360
 7829SOL    HW124386   2.904   3.918   1.363
 7829SOL    HW224387   2.986   3.780   1.395
 7830SOL     OW24388   2.489   4.835   5.786
 7830SOL    HW124389   2.458   4.776   5.860
 7830SOL    HW224390   2.485   4.784   5.700
 7831SOL     OW24391   1.928   6.491   1.121
 7831SOL    HW124392   1.884   6.425   1.182
 7831SOL    HW224393   1.949   6.447   1.034
 7832SOL     OW24394   4.544   1.145   3.343
 7832SOL    HW124395   4.627   1.175   3.390
 7832SOL    HW224396   4.524   1.050   3.368
 7833SOL     OW24397   0.963   1.119   6.735
 7833SOL    HW124398   0.996   1.186   6.668
 7833SOL    HW224399   0.997   1.145   6.826
 7834SOL     OW24400   6.503   1.813   3.716
 7834SOL    HW124401   6.526   1.896   3.664
 7834SOL    HW224402   6.520   1.733   3.659
 7835SOL     OW24403   3.213   2.227   5.847
 7835SOL    HW124404   3.234   2.281   5.765
 7835SOL    HW224405   3.151   2.279   5.906
 7836SOL     OW24406   3.169   3.023   5.073
 7836SOL    HW124407   3.147   2.947   5.134
 7836SOL    HW224408   3.086   3.076   5.055
 7837SOL     OW24409   6.425   5.665   0.296
 7837SOL    HW124410   6.466   5.641   0.384
 7837SOL    HW224411   6.331   5.631   0.293
 7838SOL     OW24412   4.162   7.019   0.089
 7838SOL    HW124413   4.107   6.975   0.161
 7838SOL    HW224414   4.215   0.068   0.129
 7839SOL     OW24415   6.063   4.688   4.961
 7839SOL    HW124416   6.003   4.701   5.041
 7839SOL    HW224417   6.141   4.631   4.988
 7840SOL     OW24418   6.452   2.438   3.920
 7840SOL    HW124419   6.503   2.353   3.930
 7840SOL    HW224420   6.492   2.494   3.848
 7841SOL     OW24421   4.083   2.128   6.634
 7841SOL    HW124422   4.056   2.032   6.634
 7841SOL    HW224423   4.046   2.173   6.553
 7842SOL     OW24424   2.507   2.166   2.669
 7842SOL    HW124425   2.541   2.180   2.762
 7842SOL    HW224426   2.416   2.206   2.660
 7843SOL     OW24427   6.630   5.804   2.890
 7843SOL    HW124428   6.550   5.793   2.831
 7843SOL    HW224429   6.710   5.828   2.834
 7844SOL     OW24430   3.701   6.764   2.324
 7844SOL    HW124431   3.688   6.666   2.310
 7844SOL    HW224432   3.666   6.789   2.414
 7845SOL     OW24433   5.124   2.024   3.522
 7845SOL    HW124434   5.201   2.076   3.558
 7845SOL    HW224435   5.145   1.926   3.524
 7846SOL     OW24436   0.963   1.285   2.127
 7846SOL    HW124437   0.982   1.382   2.142
 7846SOL    HW224438   0.893   1.276   2.056
 7847SOL     OW24439   6.799   2.020   2.909
 7847SOL    HW124440   6.731   1.947   2.912
 7847SOL    HW224441   6.773   2.087   2.839
 7848SOL     OW24442   4.013   3.854   0.288
 7848SOL    HW124443   3.944   3.924   0.308
 7848SOL    HW224444   4.075   3.845   0.366
 7849SOL     OW24445   5.539   4.511   4.055
 7849SOL    HW124446   5.586   4.481   4.138
 7849SOL    HW224447   5.452   4.464   4.047
 7850SOL     OW24448   0.721   2.392   4.555
 7850SOL    HW124449   0.655   2.338   4.607
 7850SOL    HW224450   0.806   2.340   4.543
 7851SOL     OW24451   6.701   1.305   1.654
 7851SOL    HW124452   6.728   1.216   1.617
 7851SOL    HW224453   6.695   1.371   1.579
 7852SOL     OW24454   2.620   1.890   6.137
 7852SOL    HW124455   2.660   1.802   6.163
 7852SOL    HW224456   2.665   1.963   6.188
 7853SOL     OW24457   4.521   2.021   1.612
 7853SOL    HW124458   4.606   2.063   1.645
 7853SOL    HW224459   4.533   1.921   1.607
 7854SOL     OW24460   3.956   3.424   0.347
 7854SOL    HW124461   3.869   3.383   0.320
 7854SOL    HW224462   3.992   3.479   0.271
 7855SOL     OW24463   4.666   5.659   3.861
 7855SOL    HW124464   4.694   5.721   3.934
 7855SOL    HW224465   4.586   5.696   3.814
 7856SOL     OW24466   6.588   4.896   5.348
 7856SOL    HW124467   6.665   4.958   5.359
 7856SOL    HW224468   6.507   4.936   5.392
 7857SOL     OW24469   5.680   1.603   5.656
 7857SOL    HW124470   5.775   1.574   5.640
 7857SOL    HW224471   5.624   1.579   5.577
 7858SOL     OW24472   5.658   6.220   3.994
 7858SOL    HW124473   5.675   6.183   3.902
 7858SOL    HW224474   5.611   6.308   3.986
 7859SOL     OW24475   4.547   2.735   6.654
 7859SOL    HW124476   4.539   2.812   6.591
 7859SOL    HW224477   4.611   2.758   6.727
 7860SOL     OW24478   3.307   0.102   2.818
 7860SOL    HW124479   3.222   0.154   2.828
 7860SOL    HW224480   3.295   0.011   2.858
 7861SOL     OW24481   3.634   4.820   1.607
 7861SOL    HW124482   3.632   4.758   1.685
 7861SOL    HW224483   3.727   4.855   1.595
 7862SOL     OW24484   2.188   3.644   1.423
 7862SOL    HW124485   2.119   3.613   1.358
 7862SOL    HW224486   2.206   3.571   1.489
 7863SOL     OW24487   0.363   5.068   3.870
 7863SOL    HW124488   0.324   5.136   3.809
 7863SOL    HW224489   0.299   5.048   3.944
 7864SOL     OW24490   0.373   5.414   5.393
 7864SOL    HW124491   0.466   5.450   5.382
 7864SOL    HW224492   0.356   5.345   5.323
 7865SOL     OW24493   6.112   6.547   3.815
 7865SOL    HW124494   6.066   6.471   3.860
 7865SOL    HW224495   6.076   6.558   3.722
 7866SOL     OW24496   1.684   1.277   6.343
 7866SOL    HW124497   1.726   1.198   6.389
 7866SOL    HW224498   1.681   1.260   6.245
 7867SOL     OW24499   6.238   6.180   3.750
 7867SOL    HW124500   6.224   6.085   3.720
 7867SOL    HW224501   6.191   6.194   3.837
 7868SOL     OW24502   4.998   5.927   1.616
 7868SOL    HW124503   5.069   5.975   1.668
 7868SOL    HW224504   4.931   5.993   1.582
 7869SOL     OW24505   5.991   3.717   0.472
 7869SOL    HW124506   6.061   3.749   0.409
 7869SOL    HW224507   5.986   3.778   0.551
 7870SOL     OW24508   3.880   4.897   3.767
 7870SOL    HW124509   3.889   4.798   3.766
 7870SOL    HW224510   3.958   4.937   3.815
 7871SOL     OW24511   4.927   3.031   2.347
 7871SOL    HW124512   4.867   2.985   2.281
 7871SOL    HW224513   4.986   3.096   2.299
 7872SOL     OW24514   2.289   4.209   3.307
 7872SOL    HW124515   2.201   4.161   3.296
 7872SOL    HW224516   2.340   4.204   3.221
 7873SOL     OW24517   5.842   0.396   6.066
 7873SOL    HW124518   5.835   0.480   6.012
 7873SOL    HW224519   5.835   0.418   6.163
 7874SOL     OW24520   4.975   2.012   0.185
 7874SOL    HW124521   5.065   1.976   0.161
 7874SOL    HW224522   4.935   1.957   0.258
 7875SOL     OW24523   4.759   2.808   6.876
 7875SOL    HW124524   4.775   2.807   6.975
 7875SOL    HW224525   4.726   2.899   6.849
 7876SOL     OW24526   1.134   0.385   5.009
 7876SOL    HW124527   1.125   0.463   5.071
 7876SOL    HW224528   1.169   0.306   5.061
 7877SOL     OW24529   0.692   2.181   2.769
 7877SOL    HW124530   0.758   2.247   2.805
 7877SOL    HW224531   0.713   2.090   2.804
 7878SOL     OW24532   5.617   4.653   4.889
 7878SOL    HW124533   5.690   4.722   4.897
 7878SOL    HW224534   5.529   4.697   4.906
 7879SOL     OW24535   4.404   4.950   3.290
 7879SOL    HW124536   4.346   4.879   3.328
 7879SOL    HW224537   4.468   4.910   3.224
 7880SOL     OW24538   1.417   5.339   0.720
 7880SOL    HW124539   1.457   5.311   0.808
 7880SOL    HW224540   1.342   5.277   0.697
 7881SOL     OW24541   6.554   4.337   4.547
 7881SOL    HW124542   6.456   4.319   4.552
 7881SOL    HW224543   6.591   4.304   4.460
 7882SOL     OW24544   1.015   2.749   1.402
 7882SOL    HW124545   1.047   2.824   1.460
 7882SOL    HW224546   1.063   2.753   1.314
 7883SOL     OW24547   0.871   0.605   0.359
 7883SOL    HW124548   0.928   0.686   0.350
 7883SOL    HW224549   0.797   0.624   0.424
 7884SOL     OW24550   2.064   3.659   4.441
 7884SOL    HW124551   1.987   3.649   4.377
 7884SOL    HW224552   2.101   3.752   4.434
 7885SOL     OW24553   6.890   4.888   1.545
 7885SOL    HW124554   6.984   4.853   1.540
 7885SOL    HW224555   6.862   4.920   1.454
 7886SOL     OW24556   3.114   5.328   6.666
 7886SOL    HW124557   3.102   5.421   6.631
 7886SOL    HW224558   3.211   5.307   6.674
 7887SOL     OW24559   3.355   2.756   5.292
 7887SOL    HW124560   3.402   2.832   5.247
 7887SOL    HW224561   3.257   2.762   5.274
 7888SOL     OW24562   6.445   0.310   5.077
 7888SOL    HW124563   6.534   0.267   5.064
 7888SOL    HW224564   6.402   0.274   5.161
 7889SOL     OW24565   1.866   5.047   0.501
 7889SOL    HW124566   1.846   5.097   0.416
 7889SOL    HW224567   1.805   5.079   0.573
 7890SOL     OW24568   1.284   2.469   3.191
 7890SOL    HW124569   1.301   2.484   3.094
 7890SOL    HW224570   1.333   2.538   3.245
 7891SOL     OW24571   2.193   3.879   3.652
 7891SOL    HW124572   2.220   3.802   3.710
 7891SOL    HW224573   2.210   3.965   3.700
 7892SOL     OW24574   1.932   0.924   3.790
 7892SOL    HW124575   1.979   0.923   3.879
 7892SOL    HW224576   1.968   0.850   3.733
 7893SOL     OW24577   6.622   6.375   2.569
 7893SOL    HW124578   6.571   6.407   2.488
 7893SOL    HW224579   6.560   6.371   2.647
 7894SOL     OW24580   3.967   6.605   0.233
 7894SOL    HW124581   3.978   6.575   0.138
 7894SOL    HW224582   3.885   6.564   0.271
 7895SOL     OW24583   5.718   0.484   4.770
 7895SOL    HW124584   5.721   0.430   4.854
 7895SOL    HW224585   5.783   0.559   4.776
 7896SOL     OW24586   4.751   3.295   0.925
 7896SOL    HW124587   4.835   3.262   0.881
 7896SOL    HW224588   4.775   3.339   1.012
 7897SOL     OW24589   2.811   3.882   0.092
 7897SOL    HW124590   2.883   3.929   0.041
 7897SOL    HW224591   2.778   3.942   0.165
 7898SOL     OW24592   4.192   1.984   2.862
 7898SOL    HW124593   4.162   1.974   2.957
 7898SOL    HW224594   4.198   1.894   2.819
 7899SOL     OW24595   5.605   0.588   1.455
 7899SOL    HW124596   5.637   0.633   1.372
 7899SOL    HW224597   5.590   0.657   1.526
 7900SOL     OW24598   1.704   4.828   1.970
 7900SOL    HW124599   1.640   4.864   2.038
 7900SOL    HW224600   1.776   4.776   2.016
 7901SOL     OW24601   4.779   1.464   6.747
 7901SOL    HW124602   4.845   1.476   6.673
 7901SOL    HW224603   4.787   1.539   6.813
 7902SOL     OW24604   6.004   6.717   1.301
 7902SOL    HW124605   5.991   6.809   1.263
 7902SOL    HW224606   5.922   6.691   1.352
 7903SOL     OW24607   5.658   1.344   1.106
 7903SOL    HW124608   5.615   1.302   1.186
 7903SOL    HW224609   5.595   1.340   1.029
 7904SOL     OW24610   5.460   0.471   3.317
 7904SOL    HW124611   5.466   0.528   3.235
 7904SOL    HW224612   5.432   0.527   3.395
 7905SOL     OW24613   4.709   2.254   0.266
 7905SOL    HW124614   4.787   2.278   0.323
 7905SOL    HW224615   4.725   2.166   0.223
 7906SOL     OW24616   0.463   5.435   0.839
 7906SOL    HW124617   0.418   5.521   0.816
 7906SOL    HW224618   0.448   5.369   0.765
 7907SOL     OW24619   5.496   2.337   3.076
 7907SOL    HW124620   5.418   2.279   3.102
 7907SOL    HW224621   5.581   2.285   3.088
 7908SOL     OW24622   0.876   1.455   5.669
 7908SOL    HW124623   0.888   1.498   5.758
 7908SOL    HW224624   0.786   1.412   5.664
 7909SOL     OW24625   5.693   4.116   4.992
 7909SOL    HW124626   5.664   4.163   5.076
 7909SOL    HW224627   5.622   4.052   4.964
 7910SOL     OW24628   3.054   3.920   5.744
 7910SOL    HW124629   2.987   3.915   5.670
 7910SOL    HW224630   3.116   3.842   5.738
 7911SOL     OW24631   2.119   3.387   6.798
 7911SOL    HW124632   2.158   3.304   6.838
 7911SOL    HW224633   2.041   3.363   6.740
 7912SOL     OW24634   6.774   4.703   0.742
 7912SOL    HW124635   6.860   4.704   0.691
 7912SOL    HW224636   6.702   4.663   0.686
 7913SOL     OW24637   1.453   4.548   0.876
 7913SOL    HW124638   1.526   4.522   0.938
 7913SOL    HW224639   1.492   4.586   0.792
 7914SOL     OW24640   0.280   4.368   0.119
 7914SOL    HW124641   0.245   4.305   0.187
 7914SOL    HW224642   0.207   4.428   0.087
 7915SOL     OW24643   4.902   2.882   1.807
 7915SOL    HW124644   4.987   2.927   1.779
 7915SOL    HW224645   4.867   2.926   1.889
 7916SOL     OW24646   1.080   4.283   5.202
 7916SOL    HW124647   1.114   4.377   5.198
 7916SOL    HW224648   0.997   4.280   5.259
 7917SOL     OW24649   3.740   3.683   4.559
 7917SOL    HW124650   3.810   3.617   4.586
 7917SOL    HW224651   3.688   3.712   4.639
 7918SOL     OW24652   0.029   1.447   6.280
 7918SOL    HW124653   6.990   1.500   6.225
 7918SOL    HW224654   0.074   1.379   6.222
 7919SOL     OW24655   1.811   4.286   2.779
 7919SOL    HW124656   1.733   4.342   2.751
 7919SOL    HW224657   1.815   4.204   2.723
 7920SOL     OW24658   0.354   5.752   0.958
 7920SOL    HW124659   0.282   5.688   0.986
 7920SOL    HW224660   0.358   5.754   0.858
 7921SOL     OW24661   5.344   6.606   0.540
 7921SOL    HW124662   5.250   6.576   0.557
 7921SOL    HW224663   5.343   6.696   0.496
 7922SOL     OW24664   6.669   6.558   0.345
 7922SOL    HW124665   6.661   6.624   0.419
 7922SOL    HW224666   6.704   6.472   0.381
 7923SOL     OW24667   3.271   0.216   2.103
 7923SOL    HW124668   3.228   0.306   2.096
 7923SOL    HW224669   3.219   0.160   2.167
 7924SOL     OW24670   4.142   6.996   2.406
 7924SOL    HW124671   4.073   0.029   2.363
 7924SOL    HW224672   4.224   0.025   2.427
 7925SOL     OW24673   0.552   1.574   6.526
 7925SOL    HW124674   0.539   1.635   6.448
 7925SOL    HW224675   0.518   1.618   6.609
 7926SOL     OW24676   4.850   1.813   5.258
 7926SOL    HW124677   4.950   1.809   5.261
 7926SOL    HW224678   4.819   1.796   5.164
 7927SOL     OW24679   4.277   5.335   2.369
 7927SOL    HW124680   4.225   5.409   2.413
 7927SOL    HW224681   4.243   5.322   2.276
 7928SOL     OW24682   1.548   2.075   4.649
 7928SOL    HW124683   1.516   2.021   4.727
 7928SOL    HW224684   1.475   2.082   4.581
 7929SOL     OW24685   4.231   4.941   6.188
 7929SOL    HW124686   4.243   5.016   6.123
 7929SOL    HW224687   4.297   4.868   6.168
 7930SOL     OW24688   4.452   5.677   4.787
 7930SOL    HW124689   4.428   5.614   4.861
 7930SOL    HW224690   4.464   5.626   4.702
 7931SOL     OW24691   1.861   1.956   6.822
 7931SOL    HW124692   1.880   2.052   6.806
 7931SOL    HW224693   1.897   1.929   6.912
 7932SOL     OW24694   1.428   6.178   6.593
 7932SOL    HW124695   1.522   6.180   6.559
 7932SOL    HW224696   1.429   6.158   6.691
 7933SOL     OW24697   0.246   5.955   6.604
 7933SOL    HW124698   0.258   5.863   6.641
 7933SOL    HW224699   0.177   6.004   6.658
 7934SOL     OW24700   2.301   5.045   0.420
 7934SOL    HW124701   2.363   4.969   0.441
 7934SOL    HW224702   2.354   5.129   0.411
 7935SOL     OW24703   5.825   5.352   0.321
 7935SOL    HW124704   5.780   5.430   0.365
 7935SOL    HW224705   5.755   5.288   0.289
 7936SOL     OW24706   3.995   6.274   2.319
 7936SOL    HW124707   3.994   6.365   2.279
 7936SOL    HW224708   3.914   6.223   2.289
 7937SOL     OW24709   6.690   6.411   3.479
 7937SOL    HW124710   6.760   6.340   3.485
 7937SOL    HW224711   6.641   6.417   3.566
 7938SOL     OW24712   6.525   5.597   4.358
 7938SOL    HW124713   6.568   5.582   4.447
 7938SOL    HW224714   6.483   5.511   4.327
 7939SOL     OW24715   1.899   2.496   5.676
 7939SOL    HW124716   1.967   2.441   5.725
 7939SOL    HW224717   1.833   2.533   5.742
 7940SOL     OW24718   1.679   3.691   2.155
 7940SOL    HW124719   1.710   3.691   2.060
 7940SOL    HW224720   1.746   3.643   2.212
 7941SOL     OW24721   5.921   0.920   0.868
 7941SOL    HW124722   5.852   0.973   0.918
 7941SOL    HW224723   5.989   0.885   0.933
 7942SOL     OW24724   6.482   6.463   2.804
 7942SOL    HW124725   6.546   6.540   2.800
 7942SOL    HW224726   6.392   6.492   2.772
 7943SOL     OW24727   6.271   3.190   0.622
 7943SOL    HW124728   6.365   3.186   0.589
 7943SOL    HW224729   6.231   3.278   0.595
 7944SOL     OW24730   0.430   2.392   1.605
 7944SOL    HW124731   0.380   2.413   1.521
 7944SOL    HW224732   0.477   2.305   1.595
 7945SOL     OW24733   5.836   5.928   1.972
 7945SOL    HW124734   5.871   5.842   2.010
 7945SOL    HW224735   5.913   5.983   1.939
 7946SOL     OW24736   2.501   1.533   5.350
 7946SOL    HW124737   2.410   1.572   5.363
 7946SOL    HW224738   2.523   1.531   5.253
 7947SOL     OW24739   3.578   1.922   6.301
 7947SOL    HW124740   3.675   1.944   6.288
 7947SOL    HW224741   3.569   1.825   6.325
 7948SOL     OW24742   1.147   6.380   0.913
 7948SOL    HW124743   1.060   6.367   0.866
 7948SOL    HW224744   1.222   6.357   0.851
 7949SOL     OW24745   4.414   4.650   4.771
 7949SOL    HW124746   4.320   4.679   4.757
 7949SOL    HW224747   4.419   4.590   4.851
 7950SOL     OW24748   5.857   5.384   4.643
 7950SOL    HW124749   5.805   5.463   4.675
 7950SOL    HW224750   5.922   5.357   4.714
 7951SOL     OW24751   2.298   4.157   1.761
 7951SOL    HW124752   2.265   4.063   1.770
 7951SOL    HW224753   2.327   4.173   1.666
 7952SOL     OW24754   0.365   3.159   6.757
 7952SOL    HW124755   0.345   3.069   6.718
 7952SOL    HW224756   0.397   3.220   6.684
 7953SOL     OW24757   2.191   2.924   4.088
 7953SOL    HW124758   2.184   2.966   4.179
 7953SOL    HW224759   2.105   2.877   4.067
 7954SOL     OW24760   4.473   4.078   5.617
 7954SOL    HW124761   4.506   4.098   5.709
 7954SOL    HW224762   4.530   4.008   5.575
 7955SOL     OW24763   1.359   6.672   6.672
 7955SOL    HW124764   1.364   6.729   6.590
 7955SOL    HW224765   1.266   6.672   6.707
 7956SOL     OW24766   3.867   5.878   2.437
 7956SOL    HW124767   3.866   5.847   2.532
 7956SOL    HW224768   3.830   5.806   2.377
 7957SOL     OW24769   1.023   0.773   1.656
 7957SOL    HW124770   1.040   0.676   1.638
 7957SOL    HW224771   1.109   0.819   1.679
 7958SOL     OW24772   3.539   5.151   5.000
 7958SOL    HW124773   3.501   5.233   5.042
 7958SOL    HW224774   3.637   5.163   4.985
 7959SOL     OW24775   4.331   5.953   1.153
 7959SOL    HW124776   4.279   5.882   1.105
 7959SOL    HW224777   4.272   6.032   1.169
 7960SOL     OW24778   2.682   0.723   0.127
 7960SOL    HW124779   2.680   0.731   0.027
 7960SOL    HW224780   2.775   0.703   0.157
 7961SOL     OW24781   6.913   0.554   1.319
 7961SOL    HW124782   6.836   0.563   1.383
 7961SOL    HW224783   6.993   0.520   1.369
 7962SOL     OW24784   1.158   0.435   0.262
 7962SOL    HW124785   1.093   0.392   0.325
 7962SOL    HW224786   1.213   0.364   0.218
 7963SOL     OW24787   6.633   0.605   3.718
 7963SOL    HW124788   6.585   0.567   3.638
 7963SOL    HW224789   6.612   0.550   3.798
 7964SOL     OW24790   0.085   4.727   4.007
 7964SOL    HW124791   0.083   4.653   4.074
 7964SOL    HW224792   0.061   4.691   3.917
 7965SOL     OW24793   3.457   2.348   6.111
 7965SOL    HW124794   3.394   2.381   6.181
 7965SOL    HW224795   3.535   2.411   6.105
 7966SOL     OW24796   0.788   2.855   5.268
 7966SOL    HW124797   0.846   2.801   5.208
 7966SOL    HW224798   0.829   2.858   5.359
 7967SOL     OW24799   2.992   6.663   3.600
 7967SOL    HW124800   3.072   6.604   3.589
 7967SOL    HW224801   2.997   6.709   3.689
 7968SOL     OW24802   2.131   2.494   3.390
 7968SOL    HW124803   2.038   2.459   3.396
 7968SOL    HW224804   2.130   2.594   3.396
 7969SOL     OW24805   3.801   5.598   0.689
 7969SOL    HW124806   3.798   5.665   0.614
 7969SOL    HW224807   3.836   5.642   0.771
 7970SOL     OW24808   6.958   3.096   2.431
 7970SOL    HW124809   6.858   3.101   2.429
 7970SOL    HW224810   6.993   3.156   2.502
 7971SOL     OW24811   4.333   1.446   0.931
 7971SOL    HW124812   4.374   1.530   0.897
 7971SOL    HW224813   4.252   1.423   0.876
 7972SOL     OW24814   1.890   3.264   0.738
 7972SOL    HW124815   1.884   3.168   0.712
 7972SOL    HW224816   1.923   3.270   0.833
 7973SOL     OW24817   4.700   4.849   4.000
 7973SOL    HW124818   4.796   4.873   4.015
 7973SOL    HW224819   4.680   4.763   4.048
 7974SOL     OW24820   5.722   1.421   6.007
 7974SOL    HW124821   5.701   1.351   5.938
 7974SOL    HW224822   5.737   1.508   5.962
 7975SOL     OW24823   5.915   0.892   2.519
 7975SOL    HW124824   5.931   0.794   2.508
 7975SOL    HW224825   5.954   0.922   2.607
 7976SOL     OW24826   0.442   0.452   6.824
 7976SOL    HW124827   0.426   0.373   6.883
 7976SOL    HW224828   0.540   0.471   6.821
 7977SOL     OW24829   4.737   5.862   1.729
 7977SOL    HW124830   4.826   5.864   1.683
 7977SOL    HW224831   4.749   5.884   1.826
 7978SOL     OW24832   6.101   3.370   6.367
 7978SOL    HW124833   6.074   3.451   6.420
 7978SOL    HW224834   6.042   3.293   6.391
 7979SOL     OW24835   3.663   6.717   5.126
 7979SOL    HW124836   3.761   6.712   5.143
 7979SOL    HW224837   3.643   6.682   5.034
 7980SOL     OW24838   2.400   5.496   6.921
 7980SOL    HW124839   2.346   5.547   6.987
 7980SOL    HW224840   2.340   5.438   6.866
 7981SOL     OW24841   0.760   5.562   2.066
 7981SOL    HW124842   0.759   5.523   2.158
 7981SOL    HW224843   0.735   5.491   2.000
 7982SOL     OW24844   0.375   1.648   0.108
 7982SOL    HW124845   0.324   1.565   0.082
 7982SOL    HW224846   0.342   1.725   0.054
 7983SOL     OW24847   5.780   1.855   2.357
 7983SOL    HW124848   5.831   1.775   2.387
 7983SOL    HW224849   5.844   1.925   2.325
 7984SOL     OW24850   1.688   1.339   0.981
 7984SOL    HW124851   1.646   1.375   0.897
 7984SOL    HW224852   1.747   1.408   1.021
 7985SOL     OW24853   2.228   0.390   3.760
 7985SOL    HW124854   2.152   0.359   3.703
 7985SOL    HW224855   2.279   0.311   3.793
 7986SOL     OW24856   3.510   1.324   6.995
 7986SOL    HW124857   3.418   1.287   7.005
 7986SOL    HW224858   3.577   1.251   7.001
 7987SOL     OW24859   1.550   3.172   0.093
 7987SOL    HW124860   1.524   3.077   0.105
 7987SOL    HW224861   1.511   3.206   0.007
 7988SOL     OW24862   1.282   2.109   3.764
 7988SOL    HW124863   1.361   2.106   3.704
 7988SOL    HW224864   1.267   2.203   3.796
 7989SOL     OW24865   3.589   3.308   5.404
 7989SOL    HW124866   3.604   3.216   5.368
 7989SOL    HW224867   3.677   3.354   5.415
 7990SOL     OW24868   6.990   3.267   3.089
 7990SOL    HW124869   0.029   3.228   3.154
 7990SOL    HW224870   6.901   3.278   3.134
 7991SOL     OW24871   6.127   0.640   3.874
 7991SOL    HW124872   6.221   0.650   3.840
 7991SOL    HW224873   6.076   0.724   3.857
 7992SOL     OW24874   1.172   6.468   1.681
 7992SOL    HW124875   1.135   6.553   1.646
 7992SOL    HW224876   1.100   6.399   1.686
 7993SOL     OW24877   0.412   0.300   6.382
 7993SOL    HW124878   0.355   0.381   6.397
 7993SOL    HW224879   0.354   0.223   6.356
 7994SOL     OW24880   4.534   6.968   2.942
 7994SOL    HW124881   4.508   6.997   3.035
 7994SOL    HW224882   4.455   6.926   2.897
 7995SOL     OW24883   4.454   5.064   3.534
 7995SOL    HW124884   4.548   5.029   3.543
 7995SOL    HW224885   4.423   5.052   3.440
 7996SOL     OW24886   3.150   0.235   4.784
 7996SOL    HW124887   3.206   0.231   4.867
 7996SOL    HW224888   3.072   0.295   4.800
 7997SOL     OW24889   0.478   1.360   1.682
 7997SOL    HW124890   0.543   1.436   1.687
 7997SOL    HW224891   0.505   1.298   1.608
 7998SOL     OW24892   3.509   5.478   1.266
 7998SOL    HW124893   3.542   5.446   1.177
 7998SOL    HW224894   3.501   5.399   1.328
 7999SOL     OW24895   0.730   6.646   6.110
 7999SOL    HW124896   0.666   6.577   6.075
 7999SOL    HW224897   0.682   6.711   6.168
 8000SOL     OW24898   5.529   0.130   0.073
 8000SOL    HW124899   5.500   0.116   7.004
 8000SOL    HW224900   5.457   0.177   0.123
 8001SOL     OW24901   3.164   5.869   0.880
 8001SOL    HW124902   3.258   5.895   0.902
 8001SOL    HW224903   3.104   5.947   0.896
 8002SOL     OW24904   0.675   2.345   5.624
 8002SOL    HW124905   0.655   2.274   5.692
 8002SOL    HW224906   0.610   2.339   5.549
 8003SOL     OW24907   2.686   5.027   2.572
 8003SOL    HW124908   2.718   5.074   2.655
 8003SOL    HW224909   2.737   4.942   2.560
 8004SOL     OW24910   1.969   3.294   3.776
 8004SOL    HW124911   1.906   3.250   3.840
 8004SOL    HW224912   2.061   3.256   3.787
 8005SOL     OW24913   3.641   0.613   2.745
 8005SOL    HW124914   3.566   0.562   2.703
 8005SOL    HW224915   3.603   0.681   2.809
 8006SOL     OW24916   2.375   0.562   6.599
 8006SOL    HW124917   2.376   0.662   6.604
 8006SOL    HW224918   2.394   0.524   6.689
 8007SOL     OW24919   6.688   1.302   4.608
 8007SOL    HW124920   6.739   1.294   4.523
 8007SOL    HW224921   6.745   1.347   4.677
 8008SOL     OW24922   4.697   5.943   5.686
 8008SOL    HW124923   4.763   5.868   5.694
 8008SOL    HW224924   4.746   6.028   5.669
 8009SOL     OW24925   5.780   1.201   3.068
 8009SOL    HW124926   5.794   1.153   2.981
 8009SOL    HW224927   5.746   1.293   3.050
 8010SOL     OW24928   0.290   0.798   0.015
 8010SOL    HW124929   0.227   0.876   0.011
 8010SOL    HW224930   0.381   0.826   7.010
 8011SOL     OW24931   3.430   2.179   0.622
 8011SOL    HW124932   3.521   2.193   0.582
 8011SOL    HW224933   3.391   2.095   0.586
 8012SOL     OW24934   2.061   4.379   1.789
 8012SOL    HW124935   2.134   4.325   1.747
 8012SOL    HW224936   2.101   4.453   1.843
 8013SOL     OW24937   1.247   5.119   3.577
 8013SOL    HW124938   1.171   5.150   3.519
 8013SOL    HW224939   1.252   5.020   3.575
 8014SOL     OW24940   1.096   6.638   5.232
 8014SOL    HW124941   1.076   6.540   5.237
 8014SOL    HW224942   1.132   6.660   5.141
 8015SOL     OW24943   2.546   0.948   0.189
 8015SOL    HW124944   2.553   1.002   0.105
 8015SOL    HW224945   2.608   0.869   0.183
 8016SOL     OW24946   5.226   0.390   5.916
 8016SOL    HW124947   5.323   0.394   5.939
 8016SOL    HW224948   5.213   0.410   5.819
 8017SOL     OW24949   6.235   6.817   1.115
 8017SOL    HW124950   6.147   6.776   1.090
 8017SOL    HW224951   6.309   6.765   1.072
 8018SOL     OW24952   3.121   2.097   6.149
 8018SOL    HW124953   3.046   2.091   6.082
 8018SOL    HW224954   3.206   2.066   6.107
 8019SOL     OW24955   2.375   4.554   5.912
 8019SOL    HW124956   2.320   4.565   5.994
 8019SOL    HW224957   2.316   4.528   5.835
 8020SOL     OW24958   6.163   6.814   0.764
 8020SOL    HW124959   6.139   6.911   0.761
 8020SOL    HW224960   6.089   6.763   0.808
 8021SOL     OW24961   1.564   1.729   1.076
 8021SOL    HW124962   1.511   1.710   1.159
 8021SOL    HW224963   1.570   1.828   1.063
 8022SOL     OW24964   4.995   6.272   2.696
 8022SOL    HW124965   4.951   6.359   2.675
 8022SOL    HW224966   5.093   6.285   2.704
 8023SOL     OW24967   6.375   5.457   3.164
 8023SOL    HW124968   6.283   5.420   3.172
 8023SOL    HW224969   6.372   5.557   3.165
 8024SOL     OW24970   2.803   5.023   6.922
 8024SOL    HW124971   2.731   4.994   6.859
 8024SOL    HW224972   2.839   5.112   6.893
 8025SOL     OW24973   2.557   6.259   6.780
 8025SOL    HW124974   2.619   6.201   6.832
 8025SOL    HW224975   2.591   6.267   6.686
 8026SOL     OW24976   1.075   4.318   6.701
 8026SOL    HW124977   1.156   4.265   6.724
 8026SOL    HW224978   1.094   4.378   6.623
 8027SOL     OW24979   4.488   0.651   5.251
 8027SOL    HW124980   4.471   0.704   5.168
 8027SOL    HW224981   4.433   0.567   5.249
 8028SOL     OW24982   3.326   5.117   4.528
 8028SOL    HW124983   3.290   5.187   4.466
 8028SOL    HW224984   3.251   5.074   4.577
 8029SOL     OW24985   5.128   3.312   1.141
 8029SOL    HW124986   5.045   3.264   1.167
 8029SOL    HW224987   5.200   3.294   1.208
 8030SOL     OW24988   4.254   4.583   0.072
 8030SOL    HW124989   4.271   4.601   0.169
 8030SOL    HW224990   4.298   4.498   0.046
 8031SOL     OW24991   5.262   6.262   2.722
 8031SOL    HW124992   5.256   6.248   2.821
 8031SOL    HW224993   5.240   6.177   2.675
 8032SOL     OW24994   6.176   4.948   6.809
 8032SOL    HW124995   6.156   4.965   6.905
 8032SOL    HW224996   6.238   4.871   6.801
 8033SOL     OW24997   4.770   2.672   5.993
 8033SOL    HW124998   4.869   2.681   5.985
 8033SOL    HW224999   4.745   2.663   6.089
 8034SOL     OW25000   6.083   0.549   4.760
 8034SOL    HW125001   6.003   0.608   4.759
 8034SOL    HW225002   6.063   0.463   4.713
 8035SOL     OW25003   5.070   1.963   4.644
 8035SOL    HW125004   5.002   2.001   4.707
 8035SOL    HW225005   5.125   2.037   4.605
 8036SOL     OW25006   0.951   4.314   3.051
 8036SOL    HW125007   0.862   4.317   3.005
 8036SOL    HW225008   0.979   4.406   3.076
 8037SOL     OW25009   1.818   3.088   1.123
 8037SOL    HW125010   1.792   3.169   1.072
 8037SOL    HW225011   1.843   3.114   1.216
 8038SOL     OW25012   3.636   0.795   3.364
 8038SOL    HW125013   3.595   0.837   3.283
 8038SOL    HW225014   3.664   0.702   3.343
 8039SOL     OW25015   0.855   1.873   4.163
 8039SOL    HW125016   0.819   1.827   4.082
 8039SOL    HW225017   0.927   1.937   4.136
 8040SOL     OW25018   1.885   6.770   0.587
 8040SOL    HW125019   1.872   6.671   0.594
 8040SOL    HW225020   1.951   6.790   0.515
 8041SOL     OW25021   2.838   1.261   1.892
 8041SOL    HW125022   2.903   1.309   1.950
 8041SOL    HW225023   2.887   1.202   1.827
 8042SOL     OW25024   3.482   2.880   3.871
 8042SOL    HW125025   3.438   2.858   3.959
 8042SOL    HW225026   3.418   2.862   3.797
 8043SOL     OW25027   4.394   6.772   2.634
 8043SOL    HW125028   4.425   6.691   2.684
 8043SOL    HW225029   4.341   6.831   2.695
 8044SOL     OW25030   3.797   2.913   0.929
 8044SOL    HW125031   3.793   2.821   0.890
 8044SOL    HW225032   3.817   2.907   1.027
 8045SOL     OW25033   5.599   0.910   1.452
 8045SOL    HW125034   5.505   0.916   1.417
 8045SOL    HW225035   5.598   0.868   1.543
 8046SOL     OW25036   0.198   5.185   0.808
 8046SOL    HW125037   0.282   5.233   0.780
 8046SOL    HW225038   0.144   5.244   0.867
 8047SOL     OW25039   3.319   5.589   4.638
 8047SOL    HW125040   3.353   5.606   4.730
 8047SOL    HW225041   3.389   5.541   4.584
 8048SOL     OW25042   5.111   1.157   5.872
 8048SOL    HW125043   5.080   1.184   5.964
 8048SOL    HW225044   5.198   1.109   5.880
 8049SOL     OW25045   0.759   0.382   0.040
 8049SOL    HW125046   0.797   0.297   0.078
 8049SOL    HW225047   0.735   0.444   0.115
 8050SOL     OW25048   1.683   3.765   2.766
 8050SOL    HW125049   1.768   3.812   2.791
 8050SOL    HW225050   1.623   3.827   2.716
 8051SOL     OW25051   4.687   5.731   2.772
 8051SOL    HW125052   4.755   5.660   2.789
 8051SOL    HW225053   4.724   5.798   2.708
 8052SOL     OW25054   4.621   1.767   1.799
 8052SOL    HW125055   4.565   1.817   1.865
 8052SOL    HW225056   4.571   1.759   1.713
 8053SOL     OW25057   3.168   3.699   3.514
 8053SOL    HW125058   3.244   3.660   3.460
 8053SOL    HW225059   3.205   3.742   3.596
 8054SOL     OW25060   4.527   0.096   4.281
 8054SOL    HW125061   4.510   0.108   4.183
 8054SOL    HW225062   4.586   0.170   4.313
 8055SOL     OW25063   0.506   0.050   5.720
 8055SOL    HW125064   0.427   7.018   5.743
 8055SOL    HW225065   0.478   0.146   5.721
 8056SOL     OW25066   3.983   1.975   3.971
 8056SOL    HW125067   3.968   2.040   3.897
 8056SOL    HW225068   3.984   2.024   4.058
 8057SOL     OW25069   2.994   1.874   3.185
 8057SOL    HW125070   3.048   1.874   3.101
 8057SOL    HW225071   2.915   1.813   3.175
 8058SOL     OW25072   4.716   0.521   2.052
 8058SOL    HW125073   4.713   0.528   2.151
 8058SOL    HW225074   4.649   0.454   2.021
 8059SOL     OW25075   4.244   2.288   4.376
 8059SOL    HW125076   4.277   2.372   4.419
 8059SOL    HW225077   4.209   2.226   4.446
 8060SOL     OW25078   0.457   2.651   3.586
 8060SOL    HW125079   0.431   2.728   3.529
 8060SOL    HW225080   0.443   2.565   3.537
 8061SOL     OW25081   0.142   0.721   2.271
 8061SOL    HW125082   0.137   0.626   2.241
 8061SOL    HW225083   0.085   0.733   2.352
 8062SOL     OW25084   3.580   5.241   4.427
 8062SOL    HW125085   3.498   5.190   4.454
 8062SOL    HW225086   3.620   5.199   4.345
 8063SOL     OW25087   0.715   2.726   0.621
 8063SOL    HW125088   0.765   2.673   0.690
 8063SOL    HW225089   0.645   2.668   0.580
 8064SOL     OW25090   0.205   4.344   1.871
 8064SOL    HW125091   0.173   4.435   1.897
 8064SOL    HW225092   0.292   4.351   1.822
 8065SOL     OW25093   3.347   5.974   4.255
 8065SOL    HW125094   3.369   6.024   4.340
 8065SOL    HW225095   3.390   5.884   4.258
 8066SOL     OW25096   0.519   1.873   5.910
 8066SOL    HW125097   0.442   1.913   5.960
 8066SOL    HW225098   0.529   1.919   5.821
 8067SOL     OW25099   4.672   2.752   1.823
 8067SOL    HW125100   4.622   2.836   1.844
 8067SOL    HW225101   4.770   2.771   1.819
 8068SOL     OW25102   6.964   4.316   0.666
 8068SOL    HW125103   6.992   4.239   0.724
 8068SOL    HW225104   0.010   4.334   0.599
 8069SOL     OW25105   2.202   6.547   1.111
 8069SOL    HW125106   2.216   6.642   1.082
 8069SOL    HW225107   2.115   6.540   1.161
 8070SOL     OW25108   3.130   3.639   0.526
 8070SOL    HW125109   3.116   3.707   0.454
 8070SOL    HW225110   3.180   3.681   0.602
 8071SOL     OW25111   2.869   6.471   4.572
 8071SOL    HW125112   2.939   6.432   4.632
 8071SOL    HW225113   2.854   6.567   4.596
 8072SOL     OW25114   3.642   0.680   0.092
 8072SOL    HW125115   3.611   0.591   0.061
 8072SOL    HW225116   3.734   0.698   0.055
 8073SOL     OW25117   4.068   5.823   5.412
 8073SOL    HW125118   4.158   5.859   5.437
 8073SOL    HW225119   4.068   5.723   5.422
 8074SOL     OW25120   3.905   2.780   0.446
 8074SOL    HW125121   3.826   2.787   0.385
 8074SOL    HW225122   3.900   2.853   0.515
 8075SOL     OW25123   6.446   0.732   0.426
 8075SOL    HW125124   6.354   0.699   0.449
 8075SOL    HW225125   6.439   0.805   0.358
 8076SOL     OW25126   5.189   2.331   5.822
 8076SOL    HW125127   5.107   2.327   5.879
 8076SOL    HW225128   5.215   2.427   5.808
 8077SOL     OW25129   2.188   5.605   1.610
 8077SOL    HW125130   2.247   5.536   1.567
 8077SOL    HW225131   2.228   5.632   1.698
 8078SOL     OW25132   6.097   1.601   0.145
 8078SOL    HW125133   6.163   1.533   0.114
 8078SOL    HW225134   6.008   1.557   0.159
 8079SOL     OW25135   4.618   1.722   3.545
 8079SOL    HW125136   4.521   1.743   3.556
 8079SOL    HW225137   4.628   1.624   3.526
 8080SOL     OW25138   0.158   2.937   0.264
 8080SOL    HW125139   0.185   2.844   0.286
 8080SOL    HW225140   0.166   2.952   0.166
 8081SOL     OW25141   5.536   6.768   4.490
 8081SOL    HW125142   5.476   6.693   4.462
 8081SOL    HW225143   5.483   6.853   4.495
 8082SOL     OW25144   5.192   6.746   1.747
 8082SOL    HW125145   5.280   6.703   1.726
 8082SOL    HW225146   5.171   6.815   1.677
 8083SOL     OW25147   5.090   3.820   2.411
 8083SOL    HW125148   5.126   3.779   2.495
 8083SOL    HW225149   5.128   3.911   2.399
 8084SOL     OW25150   4.936   0.420   0.001
 8084SOL    HW125151   4.998   0.483   6.980
 8084SOL    HW225152   4.905   0.350   6.962
 8085SOL     OW25153   5.598   6.932   2.560
 8085SOL    HW125154   5.641   6.887   2.638
 8085SOL    HW225155   5.520   6.877   2.529
 8086SOL     OW25156   4.308   1.267   3.631
 8086SOL    HW125157   4.234   1.232   3.574
 8086SOL    HW225158   4.308   1.367   3.630
 8087SOL     OW25159   2.940   1.044   0.845
 8087SOL    HW125160   2.914   1.090   0.930
 8087SOL    HW225161   2.898   1.092   0.768
 8088SOL     OW25162   5.700   2.875   1.171
 8088SOL    HW125163   5.699   2.918   1.081
 8088SOL    HW225164   5.691   2.944   1.242
 8089SOL     OW25165   5.021   2.635   0.511
 8089SOL    HW125166   5.062   2.553   0.551
 8089SOL    HW225167   5.013   2.706   0.581
 8090SOL     OW25168   4.405   1.842   6.693
 8090SOL    HW125169   4.320   1.793   6.672
 8090SOL    HW225170   4.483   1.784   6.669
 8091SOL     OW25171   2.471   3.425   6.184
 8091SOL    HW125172   2.439   3.511   6.145
 8091SOL    HW225173   2.452   3.423   6.282
 8092SOL     OW25174   6.951   2.726   5.351
 8092SOL    HW125175   0.010   2.730   5.298
 8092SOL    HW225176   6.947   2.638   5.400
 8093SOL     OW25177   4.550   5.153   2.076
 8093SOL    HW125178   4.478   5.216   2.105
 8093SOL    HW225179   4.532   5.062   2.113
 8094SOL     OW25180   1.458   3.220   5.187
 8094SOL    HW125181   1.391   3.280   5.143
 8094SOL    HW225182   1.524   3.189   5.119
 8095SOL     OW25183   6.440   3.870   4.864
 8095SOL    HW125184   6.385   3.872   4.948
 8095SOL    HW225185   6.491   3.956   4.856
 8096SOL     OW25186   2.825   6.234   3.681
 8096SOL    HW125187   2.807   6.142   3.715
 8096SOL    HW225188   2.845   6.295   3.759
 8097SOL     OW25189   4.631   6.184   3.572
 8097SOL    HW125190   4.619   6.283   3.563
 8097SOL    HW225191   4.717   6.164   3.620
 8098SOL     OW25192   2.268   6.484   3.939
 8098SOL    HW125193   2.170   6.489   3.919
 8098SOL    HW225194   2.284   6.506   4.035
 8099SOL     OW25195   4.389   0.288   3.860
 8099SOL    HW125196   4.310   0.228   3.868
 8099SOL    HW225197   4.454   0.269   3.933
 8100SOL     OW25198   5.983   0.191   0.258
 8100SOL    HW125199   5.903   0.220   0.204
 8100SOL    HW225200   6.059   0.171   0.197
 8101SOL     OW25201   2.407   7.009   3.884
 8101SOL    HW125202   2.462   0.061   3.854
 8101SOL    HW225203   2.387   6.950   3.806
 8102SOL     OW25204   0.335   4.850   4.368
 8102SOL    HW125205   0.274   4.774   4.344
 8102SOL    HW225206   0.296   4.935   4.335
 8103SOL     OW25207   4.626   0.520   0.947
 8103SOL    HW125208   4.571   0.531   1.030
 8103SOL    HW225209   4.591   0.443   0.894
 8104SOL     OW25210   2.753   0.080   6.271
 8104SOL    HW125211   2.816   0.061   6.196
 8104SOL    HW225212   2.693   0.001   6.286
 8105SOL     OW25213   0.929   2.375   3.618
 8105SOL    HW125214   0.859   2.440   3.650
 8105SOL    HW225215   0.909   2.349   3.524
 8106SOL     OW25216   2.346   5.942   2.846
 8106SOL    HW125217   2.359   6.011   2.917
 8106SOL    HW225218   2.249   5.936   2.823
 8107SOL     OW25219   0.271   5.507   4.859
 8107SOL    HW125220   0.181   5.546   4.874
 8107SOL    HW225221   0.334   5.541   4.929
 8108SOL     OW25222   6.807   3.287   4.980
 8108SOL    HW125223   6.783   3.263   5.074
 8108SOL    HW225224   6.725   3.318   4.932
 8109SOL     OW25225   1.657   3.706   4.601
 8109SOL    HW125226   1.572   3.728   4.649
 8109SOL    HW225227   1.729   3.768   4.632
 8110SOL     OW25228   3.010   6.424   0.473
 8110SOL    HW125229   3.050   6.429   0.382
 8110SOL    HW225230   3.041   6.340   0.518
 8111SOL     OW25231   4.006   1.040   4.749
 8111SOL    HW125232   3.931   1.045   4.684
 8111SOL    HW225233   3.986   1.097   4.828
 8112SOL     OW25234   2.150   2.047   4.698
 8112SOL    HW125235   2.124   2.125   4.642
 8112SOL    HW225236   2.085   1.972   4.682
 8113SOL     OW25237   3.579   3.216   0.996
 8113SOL    HW125238   3.520   3.293   0.973
 8113SOL    HW225239   3.674   3.247   1.004
 8114SOL     OW25240   2.296   3.736   1.716
 8114SOL    HW125241   2.348   3.769   1.637
 8114SOL    HW225242   2.356   3.680   1.773
 8115SOL     OW25243   3.585   0.229   0.395
 8115SOL    HW125244   3.521   0.182   0.334
 8115SOL    HW225245   3.634   0.300   0.344
 8116SOL     OW25246   4.642   5.969   5.177
 8116SOL    HW125247   4.635   6.067   5.196
 8116SOL    HW225248   4.669   5.920   5.260
 8117SOL     OW25249   1.714   1.163   4.389
 8117SOL    HW125250   1.798   1.124   4.350
 8117SOL    HW225251   1.735   1.211   4.474
 8118SOL     OW25252   5.959   3.018   5.987
 8118SOL    HW125253   5.992   3.023   5.892
 8118SOL    HW225254   6.001   3.091   6.041
 8119SOL     OW25255   6.407   5.988   5.206
 8119SOL    HW125256   6.320   5.972   5.159
 8119SOL    HW225257   6.440   5.902   5.245
 8120SOL     OW25258   2.949   4.392   0.025
 8120SOL    HW125259   2.913   4.301   0.045
 8120SOL    HW225260   3.003   4.424   0.102
 8121SOL     OW25261   0.457   5.621   1.580
 8121SOL    HW125262   0.533   5.682   1.556
 8121SOL    HW225263   0.375   5.649   1.531
 8122SOL     OW25264   1.842   5.724   2.474
 8122SOL    HW125265   1.878   5.810   2.439
 8122SOL    HW225266   1.910   5.652   2.461
 8123SOL     OW25267   6.698   0.199   0.099
 8123SOL    HW125268   6.715   0.189   0.001
 8123SOL    HW225269   6.679   0.295   0.121
 8124SOL     OW25270   6.783   6.369   0.851
 8124SOL    HW125271   6.688   6.344   0.833
 8124SOL    HW225272   6.825   6.301   0.912
 8125SOL     OW25273   1.162   0.812   3.348
 8125SOL    HW125274   1.131   0.896   3.394
 8125SOL    HW225275   1.256   0.792   3.375
 8126SOL     OW25276   5.634   4.761   2.612
 8126SOL    HW125277   5.625   4.860   2.600
 8126SOL    HW225278   5.687   4.743   2.695
 8127SOL     OW25279   3.368   6.064   0.057
 8127SOL    HW125280   3.271   6.081   0.073
 8127SOL    HW225281   3.414   6.050   0.145
 8128SOL     OW25282   2.773   3.155   1.188
 8128SOL    HW125283   2.723   3.141   1.103
 8128SOL    HW225284   2.871   3.141   1.172
 8129SOL     OW25285   4.360   0.832   5.428
 8129SOL    HW125286   4.405   0.756   5.382
 8129SOL    HW225287   4.342   0.809   5.523
 8130SOL     OW25288   6.827   4.333   7.019
 8130SOL    HW125289   6.803   4.406   6.954
 8130SOL    HW225290   6.924   4.342   0.018
 8131SOL     OW25291   3.869   1.365   1.164
 8131SOL    HW125292   3.889   1.360   1.066
 8131SOL    HW225293   3.913   1.446   1.203
 8132SOL     OW25294   5.402   6.295   6.558
 8132SOL    HW125295   5.365   6.362   6.492
 8132SOL    HW225296   5.498   6.278   6.537
 8133SOL     OW25297   2.964   4.954   1.581
 8133SOL    HW125298   2.946   4.866   1.626
 8133SOL    HW225299   2.934   5.028   1.641
 8134SOL     OW25300   1.185   2.243   5.141
 8134SOL    HW125301   1.184   2.294   5.055
 8134SOL    HW225302   1.176   2.306   5.218
 8135SOL     OW25303   1.698   5.585   0.976
 8135SOL    HW125304   1.696   5.632   0.888
 8135SOL    HW225305   1.665   5.646   1.048
 8136SOL     OW25306   5.261   4.841   2.568
 8136SOL    HW125307   5.170   4.844   2.608
 8136SOL    HW225308   5.265   4.770   2.498
 8137SOL     OW25309   2.991   1.376   5.007
 8137SOL    HW125310   2.908   1.324   4.985
 8137SOL    HW225311   3.052   1.376   4.927
 8138SOL     OW25312   5.579   2.453   0.599
 8138SOL    HW125313   5.498   2.511   0.607
 8138SOL    HW225314   5.591   2.423   0.504
 8139SOL     OW25315   1.847   1.705   4.315
 8139SOL    HW125316   1.933   1.691   4.363
 8139SOL    HW225317   1.801   1.786   4.352
 8140SOL     OW25318   4.574   0.066   0.369
 8140SOL    HW125319   4.514   0.088   0.445
 8140SOL    HW225320   4.549   7.002   0.331
 8141SOL     OW25321   4.141   6.945   4.708
 8141SOL    HW125322   4.221   6.889   4.731
 8141SOL    HW225323   4.161   7.000   4.627
 8142SOL     OW25324   1.821   5.243   0.286
 8142SOL    HW125325   1.885   5.291   0.226
 8142SOL    HW225326   1.781   5.309   0.351
 8143SOL     OW25327   6.242   4.853   0.206
 8143SOL    HW125328   6.191   4.916   0.147
 8143SOL    HW225329   6.328   4.827   0.161
 8144SOL     OW25330   0.636   6.168   5.991
 8144SOL    HW125331   0.672   6.081   5.957
 8144SOL    HW225332   0.603   6.157   6.084
 8145SOL     OW25333   5.868   5.211   0.551
 8145SOL    HW125334   5.840   5.116   0.538
 8145SOL    HW225335   5.868   5.258   0.462
 8146SOL     OW25336   5.345   0.407   5.484
 8146SOL    HW125337   5.380   0.317   5.511
 8146SOL    HW225338   5.422   0.469   5.468
 8147SOL     OW25339   6.169   0.839   1.813
 8147SOL    HW125340   6.157   0.795   1.724
 8147SOL    HW225341   6.211   0.929   1.800
 8148SOL     OW25342   5.568   4.947   0.728
 8148SOL    HW125343   5.663   4.971   0.748
 8148SOL    HW225344   5.539   4.995   0.645
 8149SOL     OW25345   1.726   6.812   3.403
 8149SOL    HW125346   1.705   6.737   3.340
 8149SOL    HW225347   1.688   6.790   3.493
 8150SOL     OW25348   1.895   3.601   0.435
 8150SOL    HW125349   1.836   3.636   0.507
 8150SOL    HW225350   1.967   3.544   0.475
 8151SOL     OW25351   5.809   4.869   3.433
 8151SOL    HW125352   5.876   4.942   3.421
 8151SOL    HW225353   5.749   4.891   3.510
 8152SOL     OW25354   6.273   3.036   3.100
 8152SOL    HW125355   6.315   3.118   3.061
 8152SOL    HW225356   6.343   2.981   3.145
 8153SOL     OW25357   1.171   1.591   3.735
 8153SOL    HW125358   1.224   1.510   3.712
 8153SOL    HW225359   1.127   1.628   3.653
 8154SOL     OW25360   3.718   6.197   2.281
 8154SOL    HW125361   3.763   6.116   2.245
 8154SOL    HW225362   3.677   6.176   2.370
 8155SOL     OW25363   1.573   3.377   1.995
 8155SOL    HW125364   1.522   3.414   2.073
 8155SOL    HW225365   1.664   3.349   2.025
 8156SOL     OW25366   4.576   5.962   0.973
 8156SOL    HW125367   4.499   5.950   1.036
 8156SOL    HW225368   4.542   5.993   0.884
 8157SOL     OW25369   6.499   4.676   6.060
 8157SOL    HW125370   6.554   4.598   6.090
 8157SOL    HW225371   6.515   4.753   6.121
 8158SOL     OW25372   5.066   3.954   0.770
 8158SOL    HW125373   4.980   3.972   0.722
 8158SOL    HW225374   5.107   3.870   0.735
 8159SOL     OW25375   2.527   5.595   3.146
 8159SOL    HW125376   2.563   5.503   3.131
 8159SOL    HW225377   2.432   5.600   3.117
 8160SOL     OW25378   5.128   0.592   3.635
 8160SOL    HW125379   5.181   0.522   3.682
 8160SOL    HW225380   5.079   0.648   3.703
 8161SOL     OW25381   6.041   2.794   6.192
 8161SOL    HW125382   6.088   2.859   6.251
 8161SOL    HW225383   6.008   2.841   6.110
 8162SOL     OW25384   6.533   6.838   6.733
 8162SOL    HW125385   6.470   6.853   6.810
 8162SOL    HW225386   6.612   6.785   6.765
 8163SOL     OW25387   2.702   4.781   5.196
 8163SOL    HW125388   2.747   4.753   5.281
 8163SOL    HW225389   2.734   4.723   5.121
 8164SOL     OW25390   4.917   2.309   0.440
 8164SOL    HW125391   4.910   2.378   0.512
 8164SOL    HW225392   4.989   2.335   0.376
 8165SOL     OW25393   6.936   3.521   5.824
 8165SOL    HW125394   6.931   3.621   5.823
 8165SOL    HW225395   7.021   3.492   5.868
 8166SOL     OW25396   1.021   0.600   3.731
 8166SOL    HW125397   1.015   0.511   3.776
 8166SOL    HW225398   1.087   0.596   3.656
 8167SOL     OW25399   6.895   0.600   3.722
 8167SOL    HW125400   6.929   0.691   3.748
 8167SOL    HW225401   6.797   0.595   3.742
 8168SOL     OW25402   2.593   1.446   1.617
 8168SOL    HW125403   2.506   1.465   1.571
 8168SOL    HW225404   2.647   1.383   1.561
 8169SOL     OW25405   4.890   1.845   0.427
 8169SOL    HW125406   4.871   1.838   0.525
 8169SOL    HW225407   4.807   1.825   0.376
 8170SOL     OW25408   1.430   5.180   1.664
 8170SOL    HW125409   1.391   5.088   1.669
 8170SOL    HW225410   1.516   5.182   1.715
 8171SOL     OW25411   1.823   1.891   6.295
 8171SOL    HW125412   1.823   1.875   6.197
 8171SOL    HW225413   1.904   1.943   6.321
 8172SOL     OW25414   0.015   2.135   2.719
 8172SOL    HW125415   0.038   2.171   2.809
 8172SOL    HW225416   6.948   2.165   2.693
 8173SOL     OW25417   5.553   2.283   1.799
 8173SOL    HW125418   5.574   2.187   1.819
 8173SOL    HW225419   5.487   2.288   1.724
 8174SOL     OW25420   6.748   0.664   2.214
 8174SOL    HW125421   6.755   0.608   2.296
 8174SOL    HW225422   6.668   0.635   2.161
 8175SOL     OW25423   0.186   3.541   5.833
 8175SOL    HW125424   0.187   3.567   5.737
 8175SOL    HW225425   0.276   3.507   5.860
 8176SOL     OW25426   2.610   5.227   1.295
 8176SOL    HW125427   2.640   5.135   1.321
 8176SOL    HW225428   2.516   5.241   1.326
 8177SOL     OW25429   3.560   0.375   3.663
 8177SOL    HW125430   3.521   0.467   3.671
 8177SOL    HW225431   3.587   0.343   3.754
 8178SOL     OW25432   3.098   0.001   0.503
 8178SOL    HW125433   3.123   0.095   0.525
 8178SOL    HW225434   3.150   6.963   0.560
 8179SOL     OW25435   4.649   1.932   4.340
 8179SOL    HW125436   4.731   1.953   4.287
 8179SOL    HW225437   4.647   1.990   4.422
 8180SOL     OW25438   6.133   1.284   5.621
 8180SOL    HW125439   6.091   1.226   5.690
 8180SOL    HW225440   6.159   1.372   5.662
 8181SOL     OW25441   0.888   1.533   0.370
 8181SOL    HW125442   0.878   1.625   0.332
 8181SOL    HW225443   0.815   1.475   0.336
 8182SOL     OW25444   3.231   3.705   5.794
 8182SOL    HW125445   3.242   3.671   5.887
 8182SOL    HW225446   3.222   3.627   5.731
 8183SOL     OW25447   6.182   2.318   4.739
 8183SOL    HW125448   6.106   2.317   4.674
 8183SOL    HW225449   6.166   2.249   4.810
 8184SOL     OW25450   6.444   7.023   0.690
 8184SOL    HW125451   6.414   0.090   0.714
 8184SOL    HW225452   6.442   6.965   0.772
 8185SOL     OW25453   1.971   0.242   6.682
 8185SOL    HW125454   1.892   0.233   6.622
 8185SOL    HW225455   2.027   0.159   6.676
 8186SOL     OW25456   3.440   4.618   5.339
 8186SOL    HW125457   3.443   4.697   5.278
 8186SOL    HW225458   3.350   4.611   5.381
 8187SOL     OW25459   2.541   1.576   5.067
 8187SOL    HW125460   2.514   1.524   4.987
 8187SOL    HW225461   2.491   1.662   5.070
 8188SOL     OW25462   4.880   3.299   3.450
 8188SOL    HW125463   4.828   3.227   3.404
 8188SOL    HW225464   4.906   3.369   3.384
 8189SOL     OW25465   5.154   5.050   2.943
 8189SOL    HW125466   5.234   5.107   2.964
 8189SOL    HW225467   5.091   5.053   3.020
 8190SOL     OW25468   4.943   4.398   4.252
 8190SOL    HW125469   4.889   4.315   4.259
 8190SOL    HW225470   4.917   4.448   4.169
 8191SOL     OW25471   3.749   6.367   1.925
 8191SOL    HW125472   3.800   6.355   1.840
 8191SOL    HW225473   3.788   6.442   1.977
 8192SOL     OW25474   3.249   5.239   0.472
 8192SOL    HW125475   3.203   5.154   0.498
 8192SOL    HW225476   3.202   5.316   0.516
 8193SOL     OW25477   5.602   5.636   5.900
 8193SOL    HW125478   5.629   5.670   5.809
 8193SOL    HW225479   5.635   5.699   5.970
 8194SOL     OW25480   4.908   2.046   1.129
 8194SOL    HW125481   4.960   2.119   1.086
 8194SOL    HW225482   4.930   2.042   1.226
 8195SOL     OW25483   0.974   0.311   3.365
 8195SOL    HW125484   0.942   0.390   3.313
 8195SOL    HW225485   1.028   0.343   3.443
 8196SOL     OW25486   4.395   5.849   6.229
 8196SOL    HW125487   4.363   5.902   6.308
 8196SOL    HW225488   4.367   5.753   6.240
 8197SOL     OW25489   4.312   1.644   0.453
 8197SOL    HW125490   4.258   1.640   0.369
 8197SOL    HW225491   4.380   1.718   0.446
 8198SOL     OW25492   2.947   6.426   2.837
 8198SOL    HW125493   3.003   6.508   2.851
 8198SOL    HW225494   2.850   6.452   2.835
 8199SOL     OW25495   5.846   2.450   6.019
 8199SOL    HW125496   5.830   2.430   6.115
 8199SOL    HW225497   5.922   2.514   6.010
 8200SOL     OW25498   5.769   5.111   2.014
 8200SOL    HW125499   5.815   5.155   2.091
 8200SOL    HW225500   5.824   5.035   1.981
 8201SOL     OW25501   5.492   0.812   4.019
 8201SOL    HW125502   5.532   0.896   3.982
 8201SOL    HW225503   5.549   0.734   3.994
 8202SOL     OW25504   0.322   5.617   3.825
 8202SOL    HW125505   0.325   5.577   3.917
 8202SOL    HW225506   0.321   5.543   3.757
 8203SOL     OW25507   3.777   2.675   0.043
 8203SOL    HW125508   3.767   2.582   0.009
 8203SOL    HW225509   3.754   2.740   6.996
 8204SOL     OW25510   3.425   4.906   6.714
 8204SOL    HW125511   3.334   4.868   6.699
 8204SOL    HW225512   3.483   4.883   6.636
 8205SOL     OW25513   0.668   4.630   0.664
 8205SOL    HW125514   0.731   4.586   0.729
 8205SOL    HW225515   0.639   4.718   0.701
 8206SOL     OW25516   5.005   1.845   6.341
 8206SOL    HW125517   4.933   1.896   6.296
 8206SOL    HW225518   5.071   1.812   6.273
 8207SOL     OW25519   3.043   3.754   3.890
 8207SOL    HW125520   3.011   3.704   3.970
 8207SOL    HW225521   2.991   3.725   3.810
 8208SOL     OW25522   1.459   0.475   1.419
 8208SOL    HW125523   1.406   0.483   1.503
 8208SOL    HW225524   1.512   0.390   1.421
 8209SOL     OW25525   0.591   1.759   5.019
 8209SOL    HW125526   0.496   1.771   4.989
 8209SOL    HW225527   0.596   1.761   5.119
 8210SOL     OW25528   2.016   1.415   1.084
 8210SOL    HW125529   2.031   1.389   0.989
 8210SOL    HW225530   1.926   1.458   1.093
 8211SOL     OW25531   3.741   4.004   1.735
 8211SOL    HW125532   3.659   4.061   1.732
 8211SOL    HW225533   3.767   3.978   1.642
 8212SOL     OW25534   2.117   2.002   1.683
 8212SOL    HW125535   2.099   2.033   1.777
 8212SOL    HW225536   2.211   1.971   1.675
 8213SOL     OW25537   6.728   4.569   2.643
 8213SOL    HW125538   6.815   4.527   2.666
 8213SOL    HW225539   6.667   4.501   2.601
 8214SOL     OW25540   6.114   5.581   4.588
 8214SOL    HW125541   6.094   5.595   4.492
 8214SOL    HW225542   6.156   5.491   4.600
 8215SOL     OW25543   2.730   5.947   6.245
 8215SOL    HW125544   2.759   5.937   6.150
 8215SOL    HW225545   2.790   5.893   6.304
 8216SOL     OW25546   5.379   5.150   4.012
 8216SOL    HW125547   5.399   5.236   4.059
 8216SOL    HW225548   5.420   5.074   4.062
 8217SOL     OW25549   2.145   3.658   0.617
 8217SOL    HW125550   2.083   3.713   0.562
 8217SOL    HW225551   2.139   3.562   0.590
 8218SOL     OW25552   6.720   0.123   5.225
 8218SOL    HW125553   6.649   0.065   5.186
 8218SOL    HW225554   6.810   0.090   5.196
 8219SOL     OW25555   4.224   3.251   0.682
 8219SOL    HW125556   4.190   3.337   0.644
 8219SOL    HW225557   4.293   3.270   0.751
 8220SOL     OW25558   3.014   3.328   3.708
 8220SOL    HW125559   2.929   3.347   3.756
 8220SOL    HW225560   3.091   3.342   3.771
 8221SOL     OW25561   5.740   6.654   3.715
 8221SOL    HW125562   5.658   6.705   3.741
 8221SOL    HW225563   5.713   6.577   3.657
 8222SOL     OW25564   5.565   1.211   1.365
 8222SOL    HW125565   5.605   1.229   1.455
 8222SOL    HW225566   5.480   1.160   1.376
 8223SOL     OW25567   0.799   3.965   5.266
 8223SOL    HW125568   0.825   4.060   5.279
 8223SOL    HW225569   0.862   3.905   5.314
 8224SOL     OW25570   5.506   1.599   2.374
 8224SOL    HW125571   5.529   1.689   2.413
 8224SOL    HW225572   5.580   1.569   2.313
 8225SOL     OW25573   3.411   1.407   1.202
 8225SOL    HW125574   3.380   1.426   1.109
 8225SOL    HW225575   3.392   1.312   1.225
 8226SOL     OW25576   3.695   6.480   0.329
 8226SOL    HW125577   3.661   6.458   0.420
 8226SOL    HW225578   3.657   6.417   0.263
 8227SOL     OW25579   0.041   1.111   2.603
 8227SOL    HW125580   6.980   1.075   2.566
 8227SOL    HW225581   0.101   1.035   2.626
 8228SOL     OW25582   6.499   2.092   5.872
 8228SOL    HW125583   6.573   2.030   5.897
 8228SOL    HW225584   6.507   2.117   5.776
 8229SOL     OW25585   4.969   3.225   0.758
 8229SOL    HW125586   4.979   3.277   0.674
 8229SOL    HW225587   5.053   3.231   0.811
 8230SOL     OW25588   3.449   0.276   5.167
 8230SOL    HW125589   3.547   0.275   5.187
 8230SOL    HW225590   3.399   0.315   5.244
 8231SOL     OW25591   3.161   3.527   0.845
 8231SOL    HW125592   3.082   3.513   0.904
 8231SOL    HW225593   3.200   3.438   0.820
 8232SOL     OW25594   4.221   1.861   1.771
 8232SOL    HW125595   4.156   1.853   1.846
 8232SOL    HW225596   4.252   1.956   1.763
 8233SOL     OW25597   0.550   6.304   5.776
 8233SOL    HW125598   0.501   6.381   5.816
 8233SOL    HW225599   0.586   6.246   5.849
 8234SOL     OW25600   2.792   3.758   6.590
 8234SOL    HW125601   2.800   3.666   6.627
 8234SOL    HW225602   2.715   3.762   6.527
 8235SOL     OW25603   0.748   2.434   0.320
 8235SOL    HW125604   0.781   2.387   0.238
 8235SOL    HW225605   0.825   2.452   0.381
 8236SOL     OW25606   1.013   4.431   0.690
 8236SOL    HW125607   0.973   4.367   0.756
 8236SOL    HW225608   1.113   4.423   0.693
 8237SOL     OW25609   4.939   6.705   5.393
 8237SOL    HW125610   4.972   6.790   5.433
 8237SOL    HW225611   4.896   6.649   5.464
 8238SOL     OW25612   0.651   5.239   6.112
 8238SOL    HW125613   0.614   5.331   6.101
 8238SOL    HW225614   0.657   5.217   6.209
 8239SOL     OW25615   0.120   0.962   5.498
 8239SOL    HW125616   0.077   0.981   5.586
 8239SOL    HW225617   0.212   0.924   5.512
 8240SOL     OW25618   3.339   3.857   2.608
 8240SOL    HW125619   3.331   3.801   2.526
 8240SOL    HW225620   3.250   3.864   2.653
 8241SOL     OW25621   3.869   6.284   5.963
 8241SOL    HW125622   3.824   6.248   5.881
 8241SOL    HW225623   3.847   6.381   5.973
 8242SOL     OW25624   0.511   4.159   6.134
 8242SOL    HW125625   0.518   4.256   6.112
 8242SOL    HW225626   0.418   4.126   6.113
 8243SOL     OW25627   0.380   3.066   0.593
 8243SOL    HW125628   0.409   3.019   0.677
 8243SOL    HW225629   0.308   3.132   0.615
 8244SOL     OW25630   0.360   0.977   4.573
 8244SOL    HW125631   0.326   1.047   4.510
 8244SOL    HW225632   0.321   0.888   4.549
 8245SOL     OW25633   3.895   1.853   2.230
 8245SOL    HW125634   3.936   1.763   2.214
 8245SOL    HW225635   3.797   1.849   2.215
 8246SOL     OW25636   1.345   3.289   5.860
 8246SOL    HW125637   1.369   3.232   5.782
 8246SOL    HW225638   1.247   3.309   5.859
 8247SOL     OW25639   1.670   0.870   2.775
 8247SOL    HW125640   1.646   0.966   2.769
 8247SOL    HW225641   1.600   0.821   2.827
 8248SOL     OW25642   6.944   4.993   4.789
 8248SOL    HW125643   6.960   4.999   4.888
 8248SOL    HW225644   6.850   5.019   4.769
 8249SOL     OW25645   2.032   2.407   5.989
 8249SOL    HW125646   1.971   2.389   6.066
 8249SOL    HW225647   2.029   2.505   5.967
 8250SOL     OW25648   3.155   3.500   1.420
 8250SOL    HW125649   3.169   3.592   1.459
 8250SOL    HW225650   3.225   3.438   1.457
 8251SOL     OW25651   5.021   3.323   4.714
 8251SOL    HW125652   4.952   3.283   4.654
 8251SOL    HW225653   4.978   3.391   4.773
 8252SOL     OW25654   3.601   1.421   5.568
 8252SOL    HW125655   3.695   1.407   5.601
 8252SOL    HW225656   3.601   1.416   5.468
 8253SOL     OW25657   4.782   5.330   5.743
 8253SOL    HW125658   4.688   5.295   5.747
 8253SOL    HW225659   4.793   5.386   5.661
 8254SOL     OW25660   4.555   4.216   5.288
 8254SOL    HW125661   4.501   4.133   5.271
 8254SOL    HW225662   4.653   4.194   5.282
 8255SOL     OW25663   1.729   0.091   5.020
 8255SOL    HW125664   1.753   0.012   4.963
 8255SOL    HW225665   1.789   0.094   5.100
 8256SOL     OW25666   6.944   6.234   1.840
 8256SOL    HW125667   6.852   6.220   1.874
 8256SOL    HW225668   6.958   6.331   1.819
 8257SOL     OW25669   5.383   4.086   3.021
 8257SOL    HW125670   5.394   4.182   2.994
 8257SOL    HW225671   5.471   4.051   3.054
 8258SOL     OW25672   5.465   2.566   1.273
 8258SOL    HW125673   5.406   2.519   1.207
 8258SOL    HW225674   5.518   2.498   1.324
 8259SOL     OW25675   3.592   1.978   4.318
 8259SOL    HW125676   3.687   1.969   4.346
 8259SOL    HW225677   3.536   1.910   4.366
 8260SOL     OW25678   2.425   6.778   0.727
 8260SOL    HW125679   2.346   6.830   0.696
 8260SOL    HW225680   2.504   6.839   0.738
 8261SOL     OW25681   5.739   0.418   1.753
 8261SOL    HW125682   5.671   0.484   1.722
 8261SOL    HW225683   5.721   0.393   1.848
 8262SOL     OW25684   0.899   2.524   6.799
 8262SOL    HW125685   0.874   2.442   6.849
 8262SOL    HW225686   0.848   2.602   6.835
 8263SOL     OW25687   0.635   2.818   6.357
 8263SOL    HW125688   0.651   2.912   6.326
 8263SOL    HW225689   0.584   2.820   6.443
 8264SOL     OW25690   1.925   6.108   1.862
 8264SOL    HW125691   1.894   6.201   1.843
 8264SOL    HW225692   2.018   6.096   1.827
 8265SOL     OW25693   6.450   0.905   1.078
 8265SOL    HW125694   6.454   0.982   1.143
 8265SOL    HW225695   6.354   0.886   1.057
 8266SOL     OW25696   2.515   1.556   4.252
 8266SOL    HW125697   2.425   1.515   4.252
 8266SOL    HW225698   2.578   1.501   4.197
 8267SOL     OW25699   1.999   3.547   1.254
 8267SOL    HW125700   1.929   3.480   1.281
 8267SOL    HW225701   2.070   3.501   1.200
 8268SOL     OW25702   1.886   6.629   5.853
 8268SOL    HW125703   1.811   6.636   5.918
 8268SOL    HW225704   1.879   6.702   5.785
 8269SOL     OW25705   4.643   1.183   2.129
 8269SOL    HW125706   4.728   1.234   2.122
 8269SOL    HW225707   4.567   1.247   2.142
 8270SOL     OW25708   3.075   6.088   5.101
 8270SOL    HW125709   3.063   6.057   5.006
 8270SOL    HW225710   3.012   6.163   5.120
 8271SOL     OW25711   0.376   6.547   3.724
 8271SOL    HW125712   0.373   6.621   3.657
 8271SOL    HW225713   0.333   6.466   3.685
 8272SOL     OW25714   6.594   1.769   2.696
 8272SOL    HW125715   6.497   1.786   2.683
 8272SOL    HW225716   6.608   1.718   2.781
 8273SOL     OW25717   2.403   0.964   1.215
 8273SOL    HW125718   2.392   0.870   1.181
 8273SOL    HW225719   2.344   1.026   1.163
 8274SOL     OW25720   4.462   5.244   4.054
 8274SOL    HW125721   4.473   5.186   3.973
 8274SOL    HW225722   4.390   5.206   4.112
 8275SOL     OW25723   6.037   1.178   4.614
 8275SOL    HW125724   6.065   1.223   4.529
 8275SOL    HW225725   5.993   1.091   4.592
 8276SOL     OW25726   0.667   2.441   4.309
 8276SOL    HW125727   0.605   2.518   4.301
 8276SOL    HW225728   0.692   2.428   4.405
 8277SOL     OW25729   0.593   6.081   6.271
 8277SOL    HW125730   0.586   6.108   6.367
 8277SOL    HW225731   0.507   6.102   6.224
 8278SOL     OW25732   3.302   1.219   6.583
 8278SOL    HW125733   3.313   1.153   6.508
 8278SOL    HW225734   3.290   1.310   6.545
 8279SOL     OW25735   1.066   6.145   4.441
 8279SOL    HW125736   1.002   6.215   4.406
 8279SOL    HW225737   1.158   6.182   4.443
 8280SOL     OW25738   2.678   2.908   0.761
 8280SOL    HW125739   2.681   2.999   0.719
 8280SOL    HW225740   2.708   2.840   0.693
 8281SOL     OW25741   2.822   4.316   1.623
 8281SOL    HW125742   2.824   4.379   1.545
 8281SOL    HW225743   2.854   4.363   1.705
 8282SOL     OW25744   4.884   3.962   0.093
 8282SOL    HW125745   4.940   3.880   0.107
 8282SOL    HW225746   4.883   4.016   0.176
 8283SOL     OW25747   1.216   5.297   5.278
 8283SOL    HW125748   1.120   5.278   5.298
 8283SOL    HW225749   1.268   5.299   5.363
 8284SOL     OW25750   1.020   3.614   1.433
 8284SOL    HW125751   1.110   3.602   1.391
 8284SOL    HW225752   1.029   3.611   1.533
 8285SOL     OW25753   3.210   4.126   4.889
 8285SOL    HW125754   3.168   4.170   4.969
 8285SOL    HW225755   3.142   4.070   4.842
 8286SOL     OW25756   5.507   1.797   5.333
 8286SOL    HW125757   5.529   1.854   5.413
 8286SOL    HW225758   5.413   1.762   5.342
 8287SOL     OW25759   1.324   4.853   4.600
 8287SOL    HW125760   1.419   4.884   4.610
 8287SOL    HW225761   1.318   4.793   4.520
 8288SOL     OW25762   2.931   2.161   2.227
 8288SOL    HW125763   3.015   2.109   2.240
 8288SOL    HW225764   2.933   2.209   2.139
 8289SOL     OW25765   0.790   6.437   6.485
 8289SOL    HW125766   0.755   6.345   6.503
 8289SOL    HW225767   0.713   6.497   6.462
 8290SOL     OW25768   5.238   1.518   0.941
 8290SOL    HW125769   5.204   1.575   0.866
 8290SOL    HW225770   5.186   1.432   0.943
 8291SOL     OW25771   4.227   5.614   5.127
 8291SOL    HW125772   4.247   5.555   5.048
 8291SOL    HW225773   4.241   5.563   5.211
 8292SOL     OW25774   3.111   6.606   6.567
 8292SOL    HW125775   3.107   6.692   6.516
 8292SOL    HW225776   3.056   6.614   6.650
 8293SOL     OW25777   1.909   5.550   0.737
 8293SOL    HW125778   1.872   5.464   0.772
 8293SOL    HW225779   2.004   5.536   0.709
 8294SOL     OW25780   5.684   3.865   5.262
 8294SOL    HW125781   5.714   3.816   5.344
 8294SOL    HW225782   5.764   3.887   5.206
 8295SOL     OW25783   5.002   5.259   1.506
 8295SOL    HW125784   4.909   5.291   1.524
 8295SOL    HW225785   5.003   5.160   1.498
 8296SOL     OW25786   1.854   4.845   6.849
 8296SOL    HW125787   1.938   4.899   6.849
 8296SOL    HW225788   1.862   4.771   6.916
 8297SOL     OW25789   0.202   2.980   2.616
 8297SOL    HW125790   0.196   2.894   2.565
 8297SOL    HW225791   0.138   3.046   2.577
 8298SOL     OW25792   6.184   1.576   0.863
 8298SOL    HW125793   6.254   1.513   0.826
 8298SOL    HW225794   6.103   1.572   0.805
 8299SOL     OW25795   0.444   2.332   2.174
 8299SOL    HW125796   0.359   2.377   2.146
 8299SOL    HW225797   0.423   2.258   2.237
 8300SOL     OW25798   0.013   5.613   4.063
 8300SOL    HW125799   6.947   5.604   4.024
 8300SOL    HW225800   0.068   5.676   4.008
 8301SOL     OW25801   3.824   1.459   0.815
 8301SOL    HW125802   3.854   1.364   0.823
 8301SOL    HW225803   3.904   1.519   0.822
 8302SOL     OW25804   5.739   0.078   6.550
 8302SOL    HW125805   5.687   0.041   6.472
 8302SOL    HW225806   5.702   0.041   6.635
 8303SOL     OW25807   5.744   0.658   4.005
 8303SOL    HW125808   5.776   0.614   3.921
 8303SOL    HW225809   5.766   0.602   4.084
 8304SOL     OW25810   5.966   3.097   1.401
 8304SOL    HW125811   5.987   3.001   1.385
 8304SOL    HW225812   6.037   3.137   1.460
 8305SOL     OW25813   4.366   4.642   3.328
 8305SOL    HW125814   4.272   4.670   3.308
 8305SOL    HW225815   4.395   4.572   3.262
 8306SOL     OW25816   5.619   1.687   4.864
 8306SOL    HW125817   5.697   1.729   4.817
 8306SOL    HW225818   5.652   1.614   4.923
 8307SOL     OW25819   3.378   4.916   1.606
 8307SOL    HW125820   3.310   4.864   1.554
 8307SOL    HW225821   3.464   4.865   1.608
 8308SOL     OW25822   2.314   5.682   0.999
 8308SOL    HW125823   2.337   5.640   1.087
 8308SOL    HW225824   2.216   5.675   0.984
 8309SOL     OW25825   6.870   5.643   3.254
 8309SOL    HW125826   6.854   5.546   3.238
 8309SOL    HW225827   6.792   5.683   3.300
 8310SOL     OW25828   0.679   5.777   1.540
 8310SOL    HW125829   0.736   5.842   1.490
 8310SOL    HW225830   0.729   5.745   1.621
 8311SOL     OW25831   0.508   2.308   5.386
 8311SOL    HW125832   0.459   2.370   5.324
 8311SOL    HW225833   0.580   2.260   5.335
 8312SOL     OW25834   4.637   0.050   6.734
 8312SOL    HW125835   4.551   0.077   6.777
 8312SOL    HW225836   4.710   0.110   6.766
 8313SOL     OW25837   5.357   0.082   6.904
 8313SOL    HW125838   5.372   0.039   6.815
 8313SOL    HW225839   5.292   0.026   6.957
 8314SOL     OW25840   5.251   0.005   0.566
 8314SOL    HW125841   5.255   0.006   0.666
 8314SOL    HW225842   5.182   0.070   0.535
 8315SOL     OW25843   4.425   3.207   1.482
 8315SOL    HW125844   4.341   3.252   1.454
 8315SOL    HW225845   4.408   3.150   1.562
 8316SOL     OW25846   1.773   2.122   2.022
 8316SOL    HW125847   1.823   2.049   2.069
 8316SOL    HW225848   1.741   2.090   1.933
 8317SOL     OW25849   1.490   2.793   2.428
 8317SOL    HW125850   1.429   2.871   2.416
 8317SOL    HW225851   1.447   2.710   2.390
 8318SOL     OW25852   4.468   1.598   5.729
 8318SOL    HW125853   4.510   1.507   5.726
 8318SOL    HW225854   4.384   1.594   5.783
 8319SOL     OW25855   1.343   1.733   0.495
 8319SOL    HW125856   1.253   1.690   0.507
 8319SOL    HW225857   1.414   1.663   0.504
 8320SOL     OW25858   3.201   3.421   2.524
 8320SOL    HW125859   3.162   3.371   2.447
 8320SOL    HW225860   3.283   3.374   2.557
 8321SOL     OW25861   6.817   0.051   6.453
 8321SOL    HW125862   6.752   0.049   6.378
 8321SOL    HW225863   6.811   6.991   6.505
 8322SOL     OW25864   6.119   0.056   0.764
 8322SOL    HW125865   6.031   0.087   0.726
 8322SOL    HW225866   6.193   0.109   0.724
 8323SOL     OW25867   5.480   5.512   1.900
 8323SOL    HW125868   5.523   5.588   1.948
 8323SOL    HW225869   5.538   5.431   1.907
 8324SOL     OW25870   5.792   6.618   1.701
 8324SOL    HW125871   5.802   6.637   1.604
 8324SOL    HW225872   5.838   6.532   1.724
 8325SOL     OW25873   2.378   3.637   5.339
 8325SOL    HW125874   2.339   3.683   5.259
 8325SOL    HW225875   2.443   3.698   5.384
 8326SOL     OW25876   4.767   3.275   6.055
 8326SOL    HW125877   4.788   3.356   6.110
 8326SOL    HW225878   4.728   3.204   6.114
 8327SOL     OW25879   6.902   0.374   5.790
 8327SOL    HW125880   6.806   0.346   5.787
 8327SOL    HW225881   6.918   0.448   5.725
 8328SOL     OW25882   2.366   6.015   6.533
 8328SOL    HW125883   2.270   6.036   6.513
 8328SOL    HW225884   2.372   5.965   6.619
 8329SOL     OW25885   1.172   2.938   5.926
 8329SOL    HW125886   1.174   2.946   5.826
 8329SOL    HW225887   1.265   2.938   5.962
 8330SOL     OW25888   2.957   1.438   6.340
 8330SOL    HW125889   2.978   1.381   6.260
 8330SOL    HW225890   2.906   1.384   6.406
 8331SOL     OW25891   3.442   0.724   1.423
 8331SOL    HW125892   3.514   0.684   1.366
 8331SOL    HW225893   3.386   0.786   1.368
 8332SOL     OW25894   5.506   5.196   2.787
 8332SOL    HW125895   5.558   5.276   2.757
 8332SOL    HW225896   5.411   5.221   2.802
 8333SOL     OW25897   0.125   5.302   6.279
 8333SOL    HW125898   0.149   5.327   6.373
 8333SOL    HW225899   0.208   5.286   6.226
 8334SOL     OW25900   3.942   1.314   4.215
 8334SOL    HW125901   3.851   1.353   4.226
 8334SOL    HW225902   3.983   1.349   4.131
 8335SOL     OW25903   5.486   0.805   0.259
 8335SOL    HW125904   5.513   0.901   0.251
 8335SOL    HW225905   5.406   0.788   0.202
 8336SOL     OW25906   0.293   4.611   3.325
 8336SOL    HW125907   0.339   4.624   3.412
 8336SOL    HW225908   0.199   4.645   3.331
 8337SOL     OW25909   1.841   6.338   3.390
 8337SOL    HW125910   1.812   6.289   3.473
 8337SOL    HW225911   1.847   6.273   3.314
 8338SOL     OW25912   3.709   5.185   1.680
 8338SOL    HW125913   3.711   5.190   1.780
 8338SOL    HW225914   3.782   5.125   1.648
 8339SOL     OW25915   6.727   0.289   1.622
 8339SOL    HW125916   6.630   0.305   1.608
 8339SOL    HW225917   6.767   0.249   1.539
 8340SOL     OW25918   5.233   3.306   0.887
 8340SOL    HW125919   5.186   3.305   0.976
 8340SOL    HW225920   5.213   3.392   0.840
 8341SOL     OW25921   3.128   6.781   0.171
 8341SOL    HW125922   3.040   6.814   0.207
 8341SOL    HW225923   3.171   6.721   0.239
 8342SOL     OW25924   4.493   6.349   0.776
 8342SOL    HW125925   4.590   6.325   0.770
 8342SOL    HW225926   4.478   6.406   0.857
 8343SOL     OW25927   0.813   5.372   4.856
 8343SOL    HW125928   0.832   5.302   4.926
 8343SOL    HW225929   0.890   5.435   4.850
 8344SOL     OW25930   4.939   5.758   4.955
 8344SOL    HW125931   4.844   5.777   4.930
 8344SOL    HW225932   4.956   5.790   5.048
 8345SOL     OW25933   3.831   1.562   2.691
 8345SOL    HW125934   3.752   1.604   2.646
 8345SOL    HW225935   3.910   1.566   2.630
 8346SOL     OW25936   4.168   4.704   0.335
 8346SOL    HW125937   4.101   4.738   0.269
 8346SOL    HW225938   4.157   4.605   0.346
 8347SOL     OW25939   3.841   5.833   3.620
 8347SOL    HW125940   3.892   5.869   3.541
 8347SOL    HW225941   3.820   5.737   3.606
 8348SOL     OW25942   1.976   1.453   1.400
 8348SOL    HW125943   2.011   1.364   1.369
 8348SOL    HW225944   2.013   1.525   1.340
 8349SOL     OW25945   6.282   6.940   1.857
 8349SOL    HW125946   6.242   6.864   1.806
 8349SOL    HW225947   6.356   6.906   1.915
 8350SOL     OW25948   3.267   6.751   6.146
 8350SOL    HW125949   3.215   6.688   6.087
 8350SOL    HW225950   3.296   6.702   6.229
 8351SOL     OW25951   5.807   5.117   4.537
 8351SOL    HW125952   5.809   5.205   4.583
 8351SOL    HW225953   5.728   5.114   4.475
 8352SOL     OW25954   0.269   0.135   4.016
 8352SOL    HW125955   0.330   0.066   3.978
 8352SOL    HW225956   0.197   0.156   3.949
 8353SOL     OW25957   0.032   3.675   1.418
 8353SOL    HW125958   0.014   3.667   1.516
 8353SOL    HW225959   0.087   3.757   1.401
 8354SOL     OW25960   4.325   6.797   5.123
 8354SOL    HW125961   4.420   6.791   5.093
 8354SOL    HW225962   4.269   6.835   5.049
 8355SOL     OW25963   2.559   0.676   6.170
 8355SOL    HW125964   2.548   0.759   6.225
 8355SOL    HW225965   2.507   0.601   6.212
 8356SOL     OW25966   0.519   6.793   0.937
 8356SOL    HW125967   0.543   6.775   0.841
 8356SOL    HW225968   0.502   6.891   0.949
 8357SOL     OW25969   3.349   6.938   4.998
 8357SOL    HW125970   3.429   6.996   4.983
 8357SOL    HW225971   3.315   6.904   4.910
 8358SOL     OW25972   1.426   4.348   4.462
 8358SOL    HW125973   1.453   4.255   4.489
 8358SOL    HW225974   1.436   4.358   4.363
 8359SOL     OW25975   2.800   0.909   5.107
 8359SOL    HW125976   2.830   0.960   5.187
 8359SOL    HW225977   2.879   0.881   5.053
 8360SOL     OW25978   4.123   6.033   0.827
 8360SOL    HW125979   4.173   5.968   0.885
 8360SOL    HW225980   4.186   6.099   0.788
 8361SOL     OW25981   3.094   0.367   2.523
 8361SOL    HW125982   3.007   0.321   2.537
 8361SOL    HW225983   3.166   0.299   2.506
 8362SOL     OW25984   4.009   1.911   1.087
 8362SOL    HW125985   3.980   1.858   1.167
 8362SOL    HW225986   3.990   2.008   1.103
 8363SOL     OW25987   5.497   3.080   6.511
 8363SOL    HW125988   5.566   3.149   6.490
 8363SOL    HW225989   5.535   3.012   6.573
 8364SOL     OW25990   0.942   2.764   3.559
 8364SOL    HW125991   0.852   2.794   3.591
 8364SOL    HW225992   0.947   2.773   3.459
 8365SOL     OW25993   1.520   2.982   2.108
 8365SOL    HW125994   1.547   3.054   2.172
 8365SOL    HW225995   1.448   3.017   2.047
 8366SOL     OW25996   2.263   5.861   2.009
 8366SOL    HW125997   2.343   5.913   2.039
 8366SOL    HW225998   2.180   5.914   2.026
 8367SOL     OW25999   4.494   5.512   4.011
 8367SOL    HW126000   4.551   5.538   3.933
 8367SOL    HW226001   4.479   5.413   4.011
 8368SOL     OW26002   1.692   6.241   6.521
 8368SOL    HW126003   1.711   6.323   6.575
 8368SOL    HW226004   1.683   6.266   6.425
 8369SOL     OW26005   1.122   6.797   6.262
 8369SOL    HW126006   1.202   6.804   6.202
 8369SOL    HW226007   1.071   6.714   6.239
 8370SOL     OW26008   3.364   1.247   6.069
 8370SOL    HW126009   3.422   1.303   6.011
 8370SOL    HW226010   3.299   1.196   6.013
 8371SOL     OW26011   2.102   4.626   0.765
 8371SOL    HW126012   2.166   4.553   0.741
 8371SOL    HW226013   2.117   4.653   0.860
 8372SOL     OW26014   2.027   5.060   1.575
 8372SOL    HW126015   2.009   5.064   1.674
 8372SOL    HW226016   2.116   5.018   1.560
 8373SOL     OW26017   1.879   0.231   4.836
 8373SOL    HW126018   1.861   0.183   4.751
 8373SOL    HW226019   1.809   0.208   4.903
 8374SOL     OW26020   0.118   1.004   5.242
 8374SOL    HW126021   0.191   0.960   5.188
 8374SOL    HW226022   0.134   0.988   5.339
 8375SOL     OW26023   3.005   6.688   5.227
 8375SOL    HW126024   2.949   6.646   5.155
 8375SOL    HW226025   3.095   6.643   5.229
 8376SOL     OW26026   1.097   1.266   4.176
 8376SOL    HW126027   1.090   1.212   4.092
 8376SOL    HW226028   1.027   1.236   4.241
 8377SOL     OW26029   5.245   5.809   0.525
 8377SOL    HW126030   5.297   5.814   0.440
 8377SOL    HW226031   5.307   5.813   0.603
 8378SOL     OW26032   4.653   5.159   2.486
 8378SOL    HW126033   4.623   5.198   2.399
 8378SOL    HW226034   4.636   5.224   2.560
 8379SOL     OW26035   5.587   3.237   1.170
 8379SOL    HW126036   5.565   3.159   1.228
 8379SOL    HW226037   5.663   3.289   1.209
 8380SOL     OW26038   0.406   0.489   2.682
 8380SOL    HW126039   0.502   0.510   2.700
 8380SOL    HW226040   0.396   0.460   2.587
 8381SOL     OW26041   0.314   2.974   5.370
 8381SOL    HW126042   0.391   3.036   5.359
 8381SOL    HW226043   0.241   3.000   5.306
 8382SOL     OW26044   2.823   0.238   2.967
 8382SOL    HW126045   2.768   0.282   3.038
 8382SOL    HW226046   2.763   0.208   2.893
 8383SOL     OW26047   2.576   6.958   6.064
 8383SOL    HW126048   2.652   7.002   6.018
 8383SOL    HW226049   2.503   6.940   5.997
 8384SOL     OW26050   6.142   0.732   1.553
 8384SOL    HW126051   6.138   0.764   1.458
 8384SOL    HW226052   6.226   0.679   1.566
 8385SOL     OW26053   5.724   2.359   1.189
 8385SOL    HW126054   5.818   2.344   1.158
 8385SOL    HW226055   5.665   2.369   1.109
 8386SOL     OW26056   2.425   5.433   1.914
 8386SOL    HW126057   2.348   5.376   1.945
 8386SOL    HW226058   2.390   5.523   1.888
 8387SOL     OW26059   1.139   1.449   1.548
 8387SOL    HW126060   1.117   1.364   1.595
 8387SOL    HW226061   1.184   1.429   1.461
 8388SOL     OW26062   1.977   6.287   0.440
 8388SOL    HW126063   1.911   6.258   0.370
 8388SOL    HW226064   1.967   6.231   0.521
 8389SOL     OW26065   0.452   3.360   2.613
 8389SOL    HW126066   0.425   3.356   2.517
 8389SOL    HW226067   0.503   3.278   2.638
 8390SOL     OW26068   4.681   1.116   0.355
 8390SOL    HW126069   4.654   1.078   0.444
 8390SOL    HW226070   4.677   1.044   0.286
 8391SOL     OW26071   6.327   4.997   1.156
 8391SOL    HW126072   6.257   5.010   1.086
 8391SOL    HW226073   6.287   5.014   1.246
 8392SOL     OW26074   6.528   4.489   5.024
 8392SOL    HW126075   6.576   4.454   5.104
 8392SOL    HW226076   6.587   4.480   4.944
 8393SOL     OW26077   0.627   6.427   2.533
 8393SOL    HW126078   0.627   6.334   2.496
 8393SOL    HW226079   0.620   6.492   2.458
 8394SOL     OW26080   6.453   2.988   2.165
 8394SOL    HW126081   6.404   2.960   2.082
 8394SOL    HW226082   6.468   3.087   2.163
 8395SOL     OW26083   1.961   6.497   5.111
 8395SOL    HW126084   2.051   6.465   5.139
 8395SOL    HW226085   1.895   6.480   5.184
 8396SOL     OW26086   4.942   5.351   2.225
 8396SOL    HW126087   5.015   5.318   2.166
 8396SOL    HW226088   4.895   5.428   2.181
 8397SOL     OW26089   1.831   0.405   2.802
 8397SOL    HW126090   1.913   0.348   2.792
 8397SOL    HW226091   1.838   0.485   2.742
 8398SOL     OW26092   4.004   1.868   6.738
 8398SOL    HW126093   3.979   1.913   6.824
 8398SOL    HW226094   3.972   1.773   6.741
 8399SOL     OW26095   5.978   6.142   6.875
 8399SOL    HW126096   6.018   6.181   6.958
 8399SOL    HW226097   5.954   6.046   6.891
 8400SOL     OW26098   1.612   1.306   4.755
 8400SOL    HW126099   1.579   1.400   4.750
 8400SOL    HW226100   1.689   1.294   4.692
 8401SOL     OW26101   2.487   1.416   6.423
 8401SOL    HW126102   2.432   1.422   6.341
 8401SOL    HW226103   2.490   1.505   6.468
 8402SOL     OW26104   4.440   1.780   5.512
 8402SOL    HW126105   4.462   1.710   5.580
 8402SOL    HW226106   4.412   1.864   5.559
 8403SOL     OW26107   1.199   2.446   4.597
 8403SOL    HW126108   1.167   2.358   4.560
 8403SOL    HW226109   1.261   2.430   4.673
 8404SOL     OW26110   4.562   6.883   5.575
 8404SOL    HW126111   4.581   6.795   5.619
 8404SOL    HW226112   4.465   6.887   5.548
 8405SOL     OW26113   1.984   0.830   5.454
 8405SOL    HW126114   1.913   0.793   5.513
 8405SOL    HW226115   2.061   0.861   5.511
 8406SOL     OW26116   5.027   0.177   0.535
 8406SOL    HW126117   5.016   0.272   0.563
 8406SOL    HW226118   4.971   0.118   0.593
 8407SOL     OW26119   3.528   6.322   3.854
 8407SOL    HW126120   3.469   6.253   3.813
 8407SOL    HW226121   3.601   6.345   3.790
 8408SOL     OW26122   6.212   3.745   1.920
 8408SOL    HW126123   6.151   3.807   1.870
 8408SOL    HW226124   6.163   3.706   1.998
 8409SOL     OW26125   5.644   2.637   3.468
 8409SOL    HW126126   5.707   2.681   3.531
 8409SOL    HW226127   5.550   2.657   3.496
 8410SOL     OW26128   4.868   0.907   2.103
 8410SOL    HW126129   4.938   0.863   2.160
 8410SOL    HW226130   4.888   1.005   2.095
 8411SOL     OW26131   0.334   4.776   0.152
 8411SOL    HW126132   0.433   4.783   0.141
 8411SOL    HW226133   0.311   4.778   0.250
 8412SOL     OW26134   3.121   1.377   1.489
 8412SOL    HW126135   3.089   1.462   1.446
 8412SOL    HW226136   3.139   1.309   1.419
 8413SOL     OW26137   4.507   5.338   0.004
 8413SOL    HW126138   4.588   5.315   6.977
 8413SOL    HW226139   4.427   5.291   6.990
 8414SOL     OW26140   3.454   4.974   3.228
 8414SOL    HW126141   3.381   4.965   3.160
 8414SOL    HW226142   3.543   4.965   3.184
 8415SOL     OW26143   0.081   6.210   4.025
 8415SOL    HW126144   0.078   6.269   3.945
 8415SOL    HW226145   0.148   6.245   4.090
 8416SOL     OW26146   5.526   3.959   2.362
 8416SOL    HW126147   5.595   4.027   2.337
 8416SOL    HW226148   5.565   3.867   2.352
 8417SOL     OW26149   1.689   4.106   5.337
 8417SOL    HW126150   1.778   4.063   5.323
 8417SOL    HW226151   1.677   4.127   5.433
 8418SOL     OW26152   5.951   5.261   1.023
 8418SOL    HW126153   5.932   5.170   1.059
 8418SOL    HW226154   6.001   5.253   0.936
 8419SOL     OW26155   5.631   6.887   1.752
 8419SOL    HW126156   5.634   6.898   1.851
 8419SOL    HW226157   5.703   6.825   1.723
 8420SOL     OW26158   4.287   0.205   0.221
 8420SOL    HW126159   4.202   0.247   0.253
 8420SOL    HW226160   4.332   0.158   0.297
 8421SOL     OW26161   1.674   5.312   6.975
 8421SOL    HW126162   1.698   5.267   0.036
 8421SOL    HW226163   1.753   5.362   6.941
 8422SOL     OW26164   3.874   1.044   1.550
 8422SOL    HW126165   3.920   1.119   1.597
 8422SOL    HW226166   3.891   1.051   1.452
 8423SOL     OW26167   3.275   4.864   5.631
 8423SOL    HW126168   3.241   4.810   5.708
 8423SOL    HW226169   3.208   4.861   5.557
 8424SOL     OW26170   2.645   2.050   2.316
 8424SOL    HW126171   2.605   2.018   2.402
 8424SOL    HW226172   2.676   2.144   2.327
 8425SOL     OW26173   4.875   5.040   5.854
 8425SOL    HW126174   4.868   5.136   5.829
 8425SOL    HW226175   4.923   4.990   5.781
 8426SOL     OW26176   3.383   3.589   3.421
 8426SOL    HW126177   3.405   3.499   3.384
 8426SOL    HW226178   3.356   3.650   3.347
 8427SOL     OW26179   3.747   4.154   4.938
 8427SOL    HW126180   3.839   4.192   4.945
 8427SOL    HW226181   3.738   4.104   4.852
 8428SOL     OW26182   0.771   5.394   1.473
 8428SOL    HW126183   0.746   5.441   1.388
 8428SOL    HW226184   0.691   5.390   1.533
 8429SOL     OW26185   1.297   5.752   4.033
 8429SOL    HW126186   1.318   5.844   4.066
 8429SOL    HW226187   1.204   5.749   3.997
 8430SOL     OW26188   3.669   5.222   3.384
 8430SOL    HW126189   3.738   5.206   3.314
 8430SOL    HW226190   3.601   5.149   3.382
 8431SOL     OW26191   3.047   4.594   0.480
 8431SOL    HW126192   2.986   4.571   0.556
 8431SOL    HW226193   3.085   4.685   0.493
 8432SOL     OW26194   5.715   6.770   6.032
 8432SOL    HW126195   5.695   6.856   6.078
 8432SOL    HW226196   5.637   6.708   6.040
 8433SOL     OW26197   5.284   2.376   0.382
 8433SOL    HW126198   5.363   2.321   0.354
 8433SOL    HW226199   5.242   2.417   0.302
 8434SOL     OW26200   2.662   6.475   4.879
 8434SOL    HW126201   2.672   6.401   4.813
 8434SOL    HW226202   2.585   6.533   4.853
 8435SOL     OW26203   6.334   0.504   1.892
 8435SOL    HW126204   6.341   0.405   1.904
 8435SOL    HW226205   6.340   0.548   1.981
 8436SOL     OW26206   3.616   6.515   3.473
 8436SOL    HW126207   3.579   6.570   3.548
 8436SOL    HW226208   3.610   6.567   3.388
 8437SOL     OW26209   2.472   1.256   4.499
 8437SOL    HW126210   2.533   1.227   4.573
 8437SOL    HW226211   2.524   1.260   4.413
 8438SOL     OW26212   2.374   4.499   2.246
 8438SOL    HW126213   2.414   4.528   2.333
 8438SOL    HW226214   2.420   4.546   2.171
 8439SOL     OW26215   6.722   4.896   2.907
 8439SOL    HW126216   6.721   4.990   2.941
 8439SOL    HW226217   6.666   4.889   2.824
 8440SOL     OW26218   1.523   2.187   3.619
 8440SOL    HW126219   1.466   2.268   3.634
 8440SOL    HW226220   1.552   2.150   3.708
 8441SOL     OW26221   6.297   6.399   0.593
 8441SOL    HW126222   6.218   6.356   0.637
 8441SOL    HW226223   6.299   6.372   0.496
 8442SOL     OW26224   2.980   2.211   4.831
 8442SOL    HW126225   3.048   2.216   4.904
 8442SOL    HW226226   2.888   2.216   4.871
 8443SOL     OW26227   2.218   4.714   3.500
 8443SOL    HW126228   2.118   4.711   3.493
 8443SOL    HW226229   2.246   4.675   3.587
 8444SOL     OW26230   3.038   5.975   4.224
 8444SOL    HW126231   3.031   6.042   4.150
 8444SOL    HW226232   3.135   5.958   4.243
 8445SOL     OW26233   3.826   6.574   1.187
 8445SOL    HW126234   3.828   6.474   1.191
 8445SOL    HW226235   3.835   6.611   1.280
 8446SOL     OW26236   4.730   4.705   6.694
 8446SOL    HW126237   4.697   4.611   6.696
 8446SOL    HW226238   4.667   4.763   6.745
 8447SOL     OW26239   4.714   1.295   2.417
 8447SOL    HW126240   4.774   1.374   2.428
 8447SOL    HW226241   4.769   1.211   2.417
 8448SOL     OW26242   4.387   5.530   4.256
 8448SOL    HW126243   4.291   5.503   4.251
 8448SOL    HW226244   4.429   5.523   4.165
 8449SOL     OW26245   6.890   3.014   3.631
 8449SOL    HW126246   6.989   3.007   3.640
 8449SOL    HW226247   6.864   2.996   3.536
 8450SOL     OW26248   0.261   6.554   1.331
 8450SOL    HW126249   0.281   6.646   1.297
 8450SOL    HW226250   0.201   6.507   1.266
 8451SOL     OW26251   4.020   1.723   0.365
 8451SOL    HW126252   3.988   1.643   0.416
 8451SOL    HW226253   3.997   1.806   0.416
 8452SOL     OW26254   5.897   1.877   2.843
 8452SOL    HW126255   5.859   1.908   2.756
 8452SOL    HW226256   5.997   1.887   2.842
 8453SOL     OW26257   0.560   4.079   6.776
 8453SOL    HW126258   0.561   4.177   6.794
 8453SOL    HW226259   0.631   4.035   6.831
 8454SOL     OW26260   6.652   6.626   1.804
 8454SOL    HW126261   6.679   6.582   1.889
 8454SOL    HW226262   6.552   6.629   1.799
 8455SOL     OW26263   6.250   2.494   2.337
 8455SOL    HW126264   6.208   2.577   2.373
 8455SOL    HW226265   6.346   2.490   2.364
 8456SOL     OW26266   3.830   5.853   2.992
 8456SOL    HW126267   3.927   5.828   2.985
 8456SOL    HW226268   3.776   5.770   3.008
 8457SOL     OW26269   6.267   6.915   4.449
 8457SOL    HW126270   6.302   7.005   4.477
 8457SOL    HW226271   6.228   6.923   4.357
 8458SOL     OW26272   3.313   0.912   6.742
 8458SOL    HW126273   3.223   0.918   6.785
 8458SOL    HW226274   3.329   0.818   6.710
 8459SOL     OW26275   3.050   5.774   2.026
 8459SOL    HW126276   3.084   5.800   2.116
 8459SOL    HW226277   3.020   5.678   2.029
 8460SOL     OW26278   4.148   4.270   5.356
 8460SOL    HW126279   4.167   4.331   5.279
 8460SOL    HW226280   4.112   4.183   5.321
 8461SOL     OW26281   0.523   4.125   4.348
 8461SOL    HW126282   0.502   4.070   4.267
 8461SOL    HW226283   0.579   4.071   4.411
 8462SOL     OW26284   2.658   2.861   6.795
 8462SOL    HW126285   2.648   2.922   6.874
 8462SOL    HW226286   2.754   2.858   6.767
 8463SOL     OW26287   6.557   0.041   1.417
 8463SOL    HW126288   6.566   6.992   1.351
 8463SOL    HW226289   6.493   0.110   1.382
 8464SOL     OW26290   5.470   3.532   4.218
 8464SOL    HW126291   5.413   3.465   4.170
 8464SOL    HW226292   5.479   3.506   4.314
 8465SOL     OW26293   1.045   2.889   0.640
 8465SOL    HW126294   1.016   2.980   0.669
 8465SOL    HW226295   1.025   2.823   0.712
 8466SOL     OW26296   0.268   6.476   3.982
 8466SOL    HW126297   0.303   6.509   3.894
 8466SOL    HW226298   0.240   6.555   4.038
 8467SOL     OW26299   4.583   0.139   0.094
 8467SOL    HW126300   4.624   0.223   0.058
 8467SOL    HW226301   4.604   0.131   0.192
 8468SOL     OW26302   3.784   2.452   6.858
 8468SOL    HW126303   3.804   2.450   6.760
 8468SOL    HW226304   3.753   2.362   6.887
 8469SOL     OW26305   3.626   2.009   6.772
 8469SOL    HW126306   3.540   2.045   6.736
 8469SOL    HW226307   3.654   2.063   6.851
 8470SOL     OW26308   1.560   3.852   7.008
 8470SOL    HW126309   1.659   3.859   7.017
 8470SOL    HW226310   1.530   3.763   0.017
 8471SOL     OW26311   2.877   0.936   3.780
 8471SOL    HW126312   2.915   1.028   3.795
 8471SOL    HW226313   2.863   0.922   3.682
 8472SOL     OW26314   6.757   0.848   4.670
 8472SOL    HW126315   6.729   0.823   4.763
 8472SOL    HW226316   6.703   0.926   4.639
 8473SOL     OW26317   6.532   6.242   6.463
 8473SOL    HW126318   6.493   6.300   6.535
 8473SOL    HW226319   6.536   6.293   6.377
 8474SOL     OW26320   3.262   2.952   1.645
 8474SOL    HW126321   3.277   2.854   1.659
 8474SOL    HW226322   3.346   3.002   1.663
 8475SOL     OW26323   0.162   2.809   3.426
 8475SOL    HW126324   0.138   2.841   3.518
 8475SOL    HW226325   0.259   2.826   3.409
 8476SOL     OW26326   6.913   2.368   1.013
 8476SOL    HW126327   6.827   2.360   0.962
 8476SOL    HW226328   6.893   2.395   1.107
 8477SOL     OW26329   4.797   6.898   1.230
 8477SOL    HW126330   4.765   6.946   1.311
 8477SOL    HW226331   4.736   6.917   1.153
 8478SOL     OW26332   1.200   6.689   5.835
 8478SOL    HW126333   1.239   6.717   5.747
 8478SOL    HW226334   1.122   6.629   5.820
 8479SOL     OW26335   0.482   2.730   1.364
 8479SOL    HW126336   0.581   2.733   1.378
 8479SOL    HW226337   0.459   2.649   1.309
 8480SOL     OW26338   4.772   1.306   0.113
 8480SOL    HW126339   4.731   1.261   0.192
 8480SOL    HW226340   4.781   1.404   0.131
 8481SOL     OW26341   4.126   2.266   3.669
 8481SOL    HW126342   4.199   2.206   3.701
 8481SOL    HW226343   4.057   2.274   3.740
 8482SOL     OW26344   4.414   5.686   1.610
 8482SOL    HW126345   4.384   5.779   1.590
 8482SOL    HW226346   4.474   5.686   1.690
 8483SOL     OW26347   4.306   6.246   2.266
 8483SOL    HW126348   4.250   6.322   2.234
 8483SOL    HW226349   4.310   6.246   2.366
 8484SOL     OW26350   0.835   5.987   3.417
 8484SOL    HW126351   0.914   5.960   3.472
 8484SOL    HW226352   0.834   5.935   3.332
 8485SOL     OW26353   3.728   3.307   0.276
 8485SOL    HW126354   3.632   3.331   0.275
 8485SOL    HW226355   3.738   3.207   0.270
 8486SOL     OW26356   3.931   0.704   3.161
 8486SOL    HW126357   3.834   0.680   3.156
 8486SOL    HW226358   3.949   0.782   3.102
 8487SOL     OW26359   5.385   2.008   5.629
 8487SOL    HW126360   5.322   2.077   5.595
 8487SOL    HW226361   5.336   1.923   5.648
 8488SOL     OW26362   5.960   5.633   6.761
 8488SOL    HW126363   5.897   5.627   6.684
 8488SOL    HW226364   5.913   5.602   6.844
 8489SOL     OW26365   6.119   1.515   1.120
 8489SOL    HW126366   6.140   1.549   1.029
 8489SOL    HW226367   6.123   1.591   1.186
 8490SOL     OW26368   4.231   6.494   3.877
 8490SOL    HW126369   4.176   6.499   3.794
 8490SOL    HW226370   4.245   6.397   3.901
 8491SOL     OW26371   2.290   6.385   0.622
 8491SOL    HW126372   2.243   6.443   0.556
 8491SOL    HW226373   2.389   6.397   0.611
 8492SOL     OW26374   4.518   3.884   6.177
 8492SOL    HW126375   4.459   3.895   6.097
 8492SOL    HW226376   4.598   3.943   6.169
 8493SOL     OW26377   2.835   2.730   6.192
 8493SOL    HW126378   2.789   2.817   6.213
 8493SOL    HW226379   2.787   2.684   6.117
 8494SOL     OW26380   3.016   5.459   1.101
 8494SOL    HW126381   2.950   5.394   1.138
 8494SOL    HW226382   3.089   5.474   1.168
 8495SOL     OW26383   6.663   4.865   2.001
 8495SOL    HW126384   6.702   4.832   2.087
 8495SOL    HW226385   6.659   4.790   1.936
 8496SOL     OW26386   0.704   2.057   2.131
 8496SOL    HW126387   0.679   2.121   2.058
 8496SOL    HW226388   0.803   2.055   2.141
 8497SOL     OW26389   5.961   0.882   3.960
 8497SOL    HW126390   5.915   0.833   4.034
 8497SOL    HW226391   5.913   0.865   3.874
 8498SOL     OW26392   0.388   6.779   2.876
 8498SOL    HW126393   0.328   6.842   2.826
 8498SOL    HW226394   0.350   6.687   2.872
 8499SOL     OW26395   2.102   4.516   6.593
 8499SOL    HW126396   2.152   4.600   6.615
 8499SOL    HW226397   2.143   4.439   6.642
 8500SOL     OW26398   2.231   6.454   5.077
 8500SOL    HW126399   2.207   6.493   4.988
 8500SOL    HW226400   2.260   6.527   5.139
 8501SOL     OW26401   0.401   1.333   6.885
 8501SOL    HW126402   0.474   1.265   6.880
 8501SOL    HW226403   0.431   1.419   6.843
 8502SOL     OW26404   1.818   4.748   1.224
 8502SOL    HW126405   1.722   4.725   1.209
 8502SOL    HW226406   1.824   4.825   1.287
 8503SOL     OW26407   1.676   6.826   4.373
 8503SOL    HW126408   1.707   6.772   4.296
 8503SOL    HW226409   1.727   6.800   4.455
 8504SOL     OW26410   2.446   5.163   2.596
 8504SOL    HW126411   2.439   5.254   2.555
 8504SOL    HW226412   2.540   5.130   2.588
 8505SOL     OW26413   4.856   3.346   3.725
 8505SOL    HW126414   4.872   3.254   3.762
 8505SOL    HW226415   4.862   3.343   3.625
 8506SOL     OW26416   6.635   1.548   6.864
 8506SOL    HW126417   6.649   1.496   6.780
 8506SOL    HW226418   6.714   1.608   6.879
 8507SOL     OW26419   3.234   0.687   5.617
 8507SOL    HW126420   3.268   0.780   5.609
 8507SOL    HW226421   3.304   0.630   5.661
 8508SOL     OW26422   6.204   2.069   4.878
 8508SOL    HW126423   6.247   1.980   4.891
 8508SOL    HW226424   6.105   2.058   4.876
 8509SOL     OW26425   4.324   1.699   3.628
 8509SOL    HW126426   4.337   1.677   3.725
 8509SOL    HW226427   4.256   1.637   3.589
 8510SOL     OW26428   6.126   3.912   3.238
 8510SOL    HW126429   6.096   3.832   3.186
 8510SOL    HW226430   6.107   3.898   3.335
 8511SOL     OW26431   6.819   3.884   1.120
 8511SOL    HW126432   6.818   3.801   1.175
 8511SOL    HW226433   6.730   3.895   1.075
 8512SOL     OW26434   3.352   2.307   1.338
 8512SOL    HW126435   3.358   2.320   1.437
 8512SOL    HW226436   3.364   2.395   1.292
 8513SOL     OW26437   4.977   4.253   1.553
 8513SOL    HW126438   4.977   4.232   1.651
 8513SOL    HW226439   5.024   4.180   1.503
 8514SOL     OW26440   2.465   2.529   3.725
 8514SOL    HW126441   2.490   2.521   3.628
 8514SOL    HW226442   2.413   2.613   3.739
 8515SOL     OW26443   5.633   1.795   0.542
 8515SOL    HW126444   5.724   1.819   0.575
 8515SOL    HW226445   5.585   1.741   0.611
 8516SOL     OW26446   6.459   1.810   1.316
 8516SOL    HW126447   6.414   1.754   1.246
 8516SOL    HW226448   6.472   1.755   1.399
 8517SOL     OW26449   1.843   3.133   6.458
 8517SOL    HW126450   1.852   3.066   6.531
 8517SOL    HW226451   1.747   3.157   6.445
 8518SOL     OW26452   5.320   4.264   0.591
 8518SOL    HW126453   5.286   4.187   0.538
 8518SOL    HW226454   5.247   4.331   0.603
 8519SOL     OW26455   1.445   4.202   1.668
 8519SOL    HW126456   1.442   4.193   1.768
 8519SOL    HW226457   1.485   4.120   1.628
 8520SOL     OW26458   3.466   3.269   0.161
 8520SOL    HW126459   3.397   3.271   0.233
 8520SOL    HW226460   3.455   3.186   0.106
 8521SOL     OW26461   1.601   5.629   5.864
 8521SOL    HW126462   1.640   5.570   5.933
 8521SOL    HW226463   1.631   5.723   5.879
 8522SOL     OW26464   0.974   6.313   1.783
 8522SOL    HW126465   0.935   6.282   1.870
 8522SOL    HW226466   0.917   6.280   1.708
 8523SOL     OW26467   1.954   6.421   6.886
 8523SOL    HW126468   2.003   6.446   6.802
 8523SOL    HW226469   1.857   6.446   6.877
 8524SOL     OW26470   0.417   2.552   5.277
 8524SOL    HW126471   0.333   2.552   5.330
 8524SOL    HW226472   0.428   2.640   5.231
 8525SOL     OW26473   6.486   4.197   2.734
 8525SOL    HW126474   6.517   4.122   2.675
 8525SOL    HW226475   6.386   4.205   2.727
 8526SOL     OW26476   4.074   6.061   6.135
 8526SOL    HW126477   4.102   6.144   6.184
 8526SOL    HW226478   4.151   6.026   6.081
 8527SOL     OW26479   2.801   0.974   6.316
 8527SOL    HW126480   2.866   0.920   6.262
 8527SOL    HW226481   2.850   1.028   6.384
 8528SOL     OW26482   3.878   1.162   6.576
 8528SOL    HW126483   3.794   1.205   6.608
 8528SOL    HW226484   3.900   1.194   6.484
 8529SOL     OW26485   0.724   0.665   0.853
 8529SOL    HW126486   0.784   0.736   0.891
 8529SOL    HW226487   0.760   0.575   0.875
 8530SOL     OW26488   3.803   4.131   5.545
 8530SOL    HW126489   3.861   4.206   5.514
 8530SOL    HW226490   3.859   4.049   5.557
 8531SOL     OW26491   6.284   5.274   2.643
 8531SOL    HW126492   6.197   5.226   2.637
 8531SOL    HW226493   6.339   5.253   2.563
 8532SOL     OW26494   4.217   4.844   4.752
 8532SOL    HW126495   4.280   4.915   4.721
 8532SOL    HW226496   4.131   4.851   4.702
 8533SOL     OW26497   1.132   0.009   6.722
 8533SOL    HW126498   1.074   0.049   6.793
 8533SOL    HW226499   1.216   0.064   6.713
 8534SOL     OW26500   6.684   3.048   3.797
 8534SOL    HW126501   6.764   3.023   3.742
 8534SOL    HW226502   6.637   3.126   3.755
 8535SOL     OW26503   6.271   2.014   4.446
 8535SOL    HW126504   6.219   2.068   4.380
 8535SOL    HW226505   6.365   2.005   4.414
 8536SOL     OW26506   0.410   2.828   5.085
 8536SOL    HW126507   0.378   2.852   4.993
 8536SOL    HW226508   0.467   2.902   5.121
 8537SOL     OW26509   4.969   1.189   2.135
 8537SOL    HW126510   4.936   1.282   2.120
 8537SOL    HW226511   4.955   1.164   2.230
 8538SOL     OW26512   0.543   0.804   0.238
 8538SOL    HW126513   0.474   0.816   0.166
 8538SOL    HW226514   0.633   0.829   0.202
 8539SOL     OW26515   5.121   0.657   2.828
 8539SOL    HW126516   5.129   0.664   2.728
 8539SOL    HW226517   5.207   0.621   2.866
 8540SOL     OW26518   4.499   0.434   6.496
 8540SOL    HW126519   4.451   0.503   6.551
 8540SOL    HW226520   4.597   0.447   6.505
 8541SOL     OW26521   2.746   1.500   4.113
 8541SOL    HW126522   2.806   1.579   4.124
 8541SOL    HW226523   2.792   1.419   4.150
 8542SOL     OW26524   4.000   5.011   6.542
 8542SOL    HW126525   3.940   5.065   6.482
 8542SOL    HW226526   3.986   4.914   6.523
 8543SOL     OW26527   3.369   0.680   0.990
 8543SOL    HW126528   3.310   0.761   0.987
 8543SOL    HW226529   3.323   0.608   1.042
 8544SOL     OW26530   5.292   3.351   4.712
 8544SOL    HW126531   5.318   3.441   4.678
 8544SOL    HW226532   5.193   3.343   4.712
 8545SOL     OW26533   4.763   6.707   5.062
 8545SOL    HW126534   4.728   6.789   5.107
 8545SOL    HW226535   4.755   6.629   5.124
 8546SOL     OW26536   6.931   1.504   3.676
 8546SOL    HW126537   6.833   1.486   3.664
 8546SOL    HW226538   6.982   1.418   3.665
 8547SOL     OW26539   1.372   0.026   6.218
 8547SOL    HW126540   1.274   0.013   6.206
 8547SOL    HW226541   1.418   0.019   6.129
 8548SOL     OW26542   5.764   3.212   5.564
 8548SOL    HW126543   5.786   3.166   5.478
 8548SOL    HW226544   5.696   3.158   5.615
 8549SOL     OW26545   1.581   2.470   4.177
 8549SOL    HW126546   1.584   2.563   4.213
 8549SOL    HW226547   1.629   2.409   4.240
 8550SOL     OW26548   1.634   4.762   0.302
 8550SOL    HW126549   1.717   4.779   0.354
 8550SOL    HW226550   1.656   4.748   0.206
 8551SOL     OW26551   3.307   3.436   6.795
 8551SOL    HW126552   3.328   3.462   6.889
 8551SOL    HW226553   3.215   3.466   6.772
 8552SOL     OW26554   2.471   0.687   4.147
 8552SOL    HW126555   2.512   0.678   4.057
 8552SOL    HW226556   2.499   0.611   4.205
 8553SOL     OW26557   4.183   4.204   6.896
 8553SOL    HW126558   4.199   4.300   6.873
 8553SOL    HW226559   4.130   4.160   6.824
 8554SOL     OW26560   1.021   4.705   0.504
 8554SOL    HW126561   0.994   4.756   0.423
 8554SOL    HW226562   1.039   4.768   0.579
 8555SOL     OW26563   1.663   1.381   3.554
 8555SOL    HW126564   1.602   1.460   3.544
 8555SOL    HW226565   1.669   1.333   3.466
 8556SOL     OW26566   1.498   6.194   5.078
 8556SOL    HW126567   1.576   6.239   5.034
 8556SOL    HW226568   1.426   6.262   5.094
 8557SOL     OW26569   5.569   6.934   3.113
 8557SOL    HW126570   5.540   6.958   3.021
 8557SOL    HW226571   5.613   7.013   3.156
 8558SOL     OW26572   2.951   4.946   3.258
 8558SOL    HW126573   2.910   4.914   3.344
 8558SOL    HW226574   2.880   4.954   3.188
 8559SOL     OW26575   1.018   0.340   2.857
 8559SOL    HW126576   0.954   0.269   2.885
 8559SOL    HW226577   0.980   0.392   2.781
 8560SOL     OW26578   6.675   6.254   1.938
 8560SOL    HW126579   6.666   6.227   2.034
 8560SOL    HW226580   6.640   6.347   1.925
 8561SOL     OW26581   3.038   0.964   2.818
 8561SOL    HW126582   3.043   1.042   2.880
 8561SOL    HW226583   3.116   0.903   2.834
 8562SOL     OW26584   4.051   6.301   5.414
 8562SOL    HW126585   4.001   6.217   5.433
 8562SOL    HW226586   4.141   6.296   5.458
 8563SOL     OW26587   1.835   4.458   6.641
 8563SOL    HW126588   1.811   4.372   6.596
 8563SOL    HW226589   1.932   4.476   6.628
 8564SOL     OW26590   3.008   1.448   5.360
 8564SOL    HW126591   2.931   1.469   5.300
 8564SOL    HW226592   3.092   1.487   5.322
 8565SOL     OW26593   3.796   5.616   1.276
 8565SOL    HW126594   3.748   5.640   1.361
 8565SOL    HW226595   3.895   5.629   1.289
 8566SOL     OW26596   2.127   0.447   1.263
 8566SOL    HW126597   2.031   0.469   1.280
 8566SOL    HW226598   2.184   0.527   1.281
 8567SOL     OW26599   0.238   2.451   2.588
 8567SOL    HW126600   0.298   2.493   2.520
 8567SOL    HW226601   0.293   2.404   2.657
 8568SOL     OW26602   5.158   1.310   6.356
 8568SOL    HW126603   5.202   1.377   6.416
 8568SOL    HW226604   5.084   1.264   6.405
 8569SOL     OW26605   4.948   0.979   6.159
 8569SOL    HW126606   4.999   0.938   6.234
 8569SOL    HW226607   4.855   0.941   6.157
 8570SOL     OW26608   1.598   2.069   5.514
 8570SOL    HW126609   1.653   2.147   5.545
 8570SOL    HW226610   1.546   2.032   5.591
 8571SOL     OW26611   1.302   5.918   5.177
 8571SOL    HW126612   1.381   5.865   5.206
 8571SOL    HW226613   1.297   5.919   5.077
 8572SOL     OW26614   2.907   4.702   6.681
 8572SOL    HW126615   2.880   4.733   6.590
 8572SOL    HW226616   2.848   4.626   6.709
 8573SOL     OW26617   3.199   6.028   6.262
 8573SOL    HW126618   3.121   6.079   6.297
 8573SOL    HW226619   3.214   5.947   6.320
 8574SOL     OW26620   6.590   5.743   5.836
 8574SOL    HW126621   6.560   5.667   5.893
 8574SOL    HW226622   6.686   5.763   5.856
 8575SOL     OW26623   2.356   2.706   4.817
 8575SOL    HW126624   2.437   2.661   4.855
 8575SOL    HW226625   2.290   2.724   4.890
 8576SOL     OW26626   1.771   5.505   6.589
 8576SOL    HW126627   1.680   5.464   6.596
 8576SOL    HW226628   1.774   5.567   6.511
 8577SOL     OW26629   6.995   6.721   4.641
 8577SOL    HW126630   0.029   6.792   4.603
 8577SOL    HW226631   6.987   6.646   4.575
 8578SOL     OW26632   5.231   0.702   4.055
 8578SOL    HW126633   5.318   0.730   4.016
 8578SOL    HW226634   5.186   0.780   4.098
 8579SOL     OW26635   1.861   0.372   2.141
 8579SOL    HW126636   1.941   0.404   2.090
 8579SOL    HW226637   1.840   0.278   2.114
 8580SOL     OW26638   1.779   6.854   1.978
 8580SOL    HW126639   1.835   6.921   1.929
 8580SOL    HW226640   1.725   6.801   1.913
 8581SOL     OW26641   3.416   4.087   1.961
 8581SOL    HW126642   3.331   4.039   1.982
 8581SOL    HW226643   3.464   4.109   2.046
 8582SOL     OW26644   4.528   4.472   3.179
 8582SOL    HW126645   4.592   4.414   3.229
 8582SOL    HW226646   4.540   4.459   3.081
 8583SOL     OW26647   5.408   0.560   4.370
 8583SOL    HW126648   5.419   0.541   4.468
 8583SOL    HW226649   5.419   0.659   4.355
 8584SOL     OW26650   1.348   4.315   5.628
 8584SOL    HW126651   1.374   4.293   5.534
 8584SOL    HW226652   1.431   4.331   5.682
 8585SOL     OW26653   0.458   5.847   6.107
 8585SOL    HW126654   0.532   5.812   6.050
 8585SOL    HW226655   0.430   5.937   6.075
 8586SOL     OW26656   2.505   0.039   2.550
 8586SOL    HW126657   2.502   0.090   2.464
 8586SOL    HW226658   2.538   6.972   2.533
 8587SOL     OW26659   1.250   6.687   4.213
 8587SOL    HW126660   1.176   6.752   4.230
 8587SOL    HW226661   1.213   6.603   4.174
 8588SOL     OW26662   2.924   0.968   0.435
 8588SOL    HW126663   2.931   0.988   0.337
 8588SOL    HW226664   2.935   0.870   0.450
 8589SOL     OW26665   4.930   3.113   5.267
 8589SOL    HW126666   5.009   3.113   5.329
 8589SOL    HW226667   4.857   3.169   5.307
 8590SOL     OW26668   6.903   6.095   4.238
 8590SOL    HW126669   6.896   6.038   4.156
 8590SOL    HW226670   6.992   6.079   4.281
 8591SOL     OW26671   0.595   4.000   0.083
 8591SOL    HW126672   0.595   3.917   0.139
 8591SOL    HW226673   0.657   3.989   0.005
 8592SOL     OW26674   0.060   2.779   6.306
 8592SOL    HW126675   0.023   2.753   6.217
 8592SOL    HW226676   0.063   2.879   6.312
 8593SOL     OW26677   2.528   0.451   1.047
 8593SOL    HW126678   2.478   0.411   0.970
 8593SOL    HW226679   2.501   0.405   1.132
 8594SOL     OW26680   4.273   2.171   5.453
 8594SOL    HW126681   4.213   2.237   5.497
 8594SOL    HW226682   4.359   2.216   5.427
 8595SOL     OW26683   0.690   2.797   3.288
 8595SOL    HW126684   0.731   2.707   3.304
 8595SOL    HW226685   0.698   2.821   3.191
 8596SOL     OW26686   0.541   5.522   3.461
 8596SOL    HW126687   0.460   5.578   3.480
 8596SOL    HW226688   0.514   5.426   3.449
 8597SOL     OW26689   4.332   1.449   1.193
 8597SOL    HW126690   4.253   1.410   1.240
 8597SOL    HW226691   4.324   1.433   1.095
 8598SOL     OW26692   5.976   6.766   0.997
 8598SOL    HW126693   5.915   6.687   0.996
 8598SOL    HW226694   5.957   6.822   1.078
 8599SOL     OW26695   1.150   2.899   4.412
 8599SOL    HW126696   1.176   2.897   4.509
 8599SOL    HW226697   1.231   2.911   4.356
 8600SOL     OW26698   4.500   5.254   5.102
 8600SOL    HW126699   4.599   5.243   5.113
 8600SOL    HW226700   4.455   5.167   5.124
 8601SOL     OW26701   0.664   1.044   4.935
 8601SOL    HW126702   0.762   1.048   4.912
 8601SOL    HW226703   0.642   1.120   4.996
 8602SOL     OW26704   2.815   5.436   2.308
 8602SOL    HW126705   2.818   5.341   2.276
 8602SOL    HW226706   2.817   5.437   2.408
 8603SOL     OW26707   3.824   5.784   0.491
 8603SOL    HW126708   3.786   5.877   0.487
 8603SOL    HW226709   3.791   5.730   0.414
 8604SOL     OW26710   0.250   2.568   4.744
 8604SOL    HW126711   0.230   2.553   4.647
 8604SOL    HW226712   0.300   2.489   4.780
 8605SOL     OW26713   2.818   5.695   4.285
 8605SOL    HW126714   2.818   5.600   4.315
 8605SOL    HW226715   2.844   5.700   4.189
 8606SOL     OW26716   1.470   3.602   6.300
 8606SOL    HW126717   1.543   3.595   6.232
 8606SOL    HW226718   1.392   3.548   6.270
 8607SOL     OW26719   3.689   6.181   0.657
 8607SOL    HW126720   3.624   6.105   0.651
 8607SOL    HW226721   3.781   6.145   0.674
 8608SOL     OW26722   4.116   5.169   2.721
 8608SOL    HW126723   4.037   5.157   2.662
 8608SOL    HW226724   4.142   5.266   2.722
 8609SOL     OW26725   4.985   1.199   3.141
 8609SOL    HW126726   5.028   1.128   3.084
 8609SOL    HW226727   5.009   1.184   3.237
 8610SOL     OW26728   1.878   2.334   2.824
 8610SOL    HW126729   1.866   2.237   2.801
 8610SOL    HW226730   1.804   2.388   2.782
 8611SOL     OW26731   3.049   1.708   4.779
 8611SOL    HW126732   2.999   1.782   4.824
 8611SOL    HW226733   2.986   1.634   4.755
 8612SOL     OW26734   3.589   3.036   1.227
 8612SOL    HW126735   3.498   2.997   1.241
 8612SOL    HW226736   3.590   3.091   1.144
 8613SOL     OW26737   2.422   1.859   1.155
 8613SOL    HW126738   2.497   1.911   1.114
 8613SOL    HW226739   2.424   1.871   1.254
 8614SOL     OW26740   1.211   2.709   2.156
 8614SOL    HW126741   1.163   2.625   2.130
 8614SOL    HW226742   1.310   2.694   2.150
 8615SOL     OW26743   4.613   1.348   5.272
 8615SOL    HW126744   4.541   1.346   5.342
 8615SOL    HW226745   4.674   1.270   5.286
 8616SOL     OW26746   3.119   4.686   1.759
 8616SOL    HW126747   3.186   4.742   1.807
 8616SOL    HW226748   3.039   4.671   1.817
 8617SOL     OW26749   6.639   1.144   6.771
 8617SOL    HW126750   6.656   1.116   6.677
 8617SOL    HW226751   6.726   1.155   6.819
 8618SOL     OW26752   6.120   5.617   0.445
 8618SOL    HW126753   6.085   5.561   0.520
 8618SOL    HW226754   6.156   5.558   0.373
 8619SOL     OW26755   3.793   4.971   1.960
 8619SOL    HW126756   3.888   4.940   1.958
 8619SOL    HW226757   3.733   4.891   1.960
 8620SOL     OW26758   1.439   0.262   4.188
 8620SOL    HW126759   1.372   0.272   4.262
 8620SOL    HW226760   1.445   0.166   4.161
 8621SOL     OW26761   5.752   1.863   3.120
 8621SOL    HW126762   5.810   1.935   3.083
 8621SOL    HW226763   5.663   1.864   3.073
 8622SOL     OW26764   5.272   3.455   0.213
 8622SOL    HW126765   5.235   3.459   0.120
 8622SOL    HW226766   5.279   3.359   0.242
 8623SOL     OW26767   0.835   3.474   4.092
 8623SOL    HW126768   0.867   3.501   4.001
 8623SOL    HW226769   0.866   3.381   4.112
 8624SOL     OW26770   1.110   3.853   4.855
 8624SOL    HW126771   1.054   3.834   4.774
 8624SOL    HW226772   1.159   3.940   4.842
 8625SOL     OW26773   4.500   0.277   5.969
 8625SOL    HW126774   4.583   0.330   5.987
 8625SOL    HW226775   4.494   0.258   5.871
 8626SOL     OW26776   3.986   3.067   5.531
 8626SOL    HW126777   4.028   3.156   5.515
 8626SOL    HW226778   3.899   3.080   5.579
 8627SOL     OW26779   0.677   1.386   3.442
 8627SOL    HW126780   0.597   1.330   3.462
 8627SOL    HW226781   0.653   1.482   3.447
 8628SOL     OW26782   6.547   6.157   0.464
 8628SOL    HW126783   6.493   6.169   0.381
 8628SOL    HW226784   6.549   6.060   0.489
 8629SOL     OW26785   1.244   5.191   5.039
 8629SOL    HW126786   1.230   5.251   5.118
 8629SOL    HW226787   1.340   5.196   5.010
 8630SOL     OW26788   5.177   4.229   3.766
 8630SOL    HW126789   5.246   4.229   3.837
 8630SOL    HW226790   5.220   4.213   3.677
 8631SOL     OW26791   1.448   5.091   6.141
 8631SOL    HW126792   1.433   5.023   6.069
 8631SOL    HW226793   1.360   5.126   6.173
 8632SOL     OW26794   3.704   5.353   4.034
 8632SOL    HW126795   3.779   5.305   3.989
 8632SOL    HW226796   3.721   5.451   4.030
 8633SOL     OW26797   4.811   1.248   5.489
 8633SOL    HW126798   4.837   1.182   5.418
 8633SOL    HW226799   4.828   1.207   5.579
 8634SOL     OW26800   5.500   3.373   0.436
 8634SOL    HW126801   5.458   3.464   0.434
 8634SOL    HW226802   5.530   3.347   0.344
 8635SOL     OW26803   5.659   4.463   6.366
 8635SOL    HW126804   5.663   4.558   6.335
 8635SOL    HW226805   5.724   4.408   6.313
 8636SOL     OW26806   5.025   5.915   1.342
 8636SOL    HW126807   4.994   5.833   1.294
 8636SOL    HW226808   5.023   5.898   1.441
 8637SOL     OW26809   2.123   1.025   0.253
 8637SOL    HW126810   2.167   0.938   0.279
 8637SOL    HW226811   2.043   1.006   0.196
 8638SOL     OW26812   2.463   3.100   6.433
 8638SOL    HW126813   2.474   3.020   6.493
 8638SOL    HW226814   2.391   3.159   6.469
 8639SOL     OW26815   5.317   2.447   1.559
 8639SOL    HW126816   5.402   2.452   1.506
 8639SOL    HW226817   5.271   2.535   1.556
 8640SOL     OW26818   4.873   4.145   0.327
 8640SOL    HW126819   4.784   4.186   0.307
 8640SOL    HW226820   4.861   4.057   0.372
 8641SOL     OW26821   5.220   4.891   4.330
 8641SOL    HW126822   5.238   4.925   4.422
 8641SOL    HW226823   5.245   4.795   4.325
 8642SOL     OW26824   2.429   6.585   3.194
 8642SOL    HW126825   2.477   6.644   3.259
 8642SOL    HW226826   2.379   6.640   3.128
 8643SOL     OW26827   2.850   6.977   6.619
 8643SOL    HW126828   2.890   6.907   6.561
 8643SOL    HW226829   2.770   7.018   6.574
 8644SOL     OW26830   5.094   1.880   5.465
 8644SOL    HW126831   5.020   1.928   5.512
 8644SOL    HW226832   5.105   1.918   5.373
 8645SOL     OW26833   4.583   4.844   1.617
 8645SOL    HW126834   4.649   4.793   1.562
 8645SOL    HW226835   4.574   4.937   1.581
 8646SOL     OW26836   6.757   1.077   1.472
 8646SOL    HW126837   6.673   1.073   1.417
 8646SOL    HW226838   6.759   1.001   1.536
 8647SOL     OW26839   2.800   5.969   5.966
 8647SOL    HW126840   2.723   6.002   5.911
 8647SOL    HW226841   2.820   5.874   5.940
 8648SOL     OW26842   6.089   0.709   3.377
 8648SOL    HW126843   6.033   0.778   3.423
 8648SOL    HW226844   6.057   0.617   3.403
 8649SOL     OW26845   5.179   5.327   6.159
 8649SOL    HW126846   5.216   5.236   6.144
 8649SOL    HW226847   5.096   5.338   6.104
 8650SOL     OW26848   2.494   5.285   4.880
 8650SOL    HW126849   2.423   5.343   4.920
 8650SOL    HW226850   2.581   5.303   4.925
 8651SOL     OW26851   3.353   0.540   0.195
 8651SOL    HW126852   3.290   0.614   0.173
 8651SOL    HW226853   3.301   0.455   0.207
 8652SOL     OW26854   1.706   4.205   4.205
 8652SOL    HW126855   1.761   4.201   4.289
 8652SOL    HW226856   1.657   4.292   4.202
 8653SOL     OW26857   6.114   0.440   6.292
 8653SOL    HW126858   6.126   0.529   6.247
 8653SOL    HW226859   6.024   0.404   6.270
 8654SOL     OW26860   1.517   4.714   1.465
 8654SOL    HW126861   1.422   4.747   1.468
 8654SOL    HW226862   1.536   4.662   1.548
 8655SOL     OW26863   6.411   1.456   3.608
 8655SOL    HW126864   6.352   1.485   3.683
 8655SOL    HW226865   6.389   1.508   3.526
 8656SOL     OW26866   6.419   0.456   0.967
 8656SOL    HW126867   6.507   0.413   0.988
 8656SOL    HW226868   6.397   0.523   1.037
 8657SOL     OW26869   5.191   4.693   0.697
 8657SOL    HW126870   5.189   4.684   0.597
 8657SOL    HW226871   5.263   4.634   0.733
 8658SOL     OW26872   4.959   6.720   0.602
 8658SOL    HW126873   4.878   6.724   0.660
 8658SOL    HW226874   5.009   6.635   0.619
 8659SOL     OW26875   4.569   1.698   2.719
 8659SOL    HW126876   4.552   1.600   2.713
 8659SOL    HW226877   4.577   1.725   2.815
 8660SOL     OW26878   6.450   4.602   1.585
 8660SOL    HW126879   6.443   4.503   1.583
 8660SOL    HW226880   6.468   4.633   1.679
 8661SOL     OW26881   5.793   3.958   0.992
 8661SOL    HW126882   5.719   3.986   0.931
 8661SOL    HW226883   5.838   4.040   1.029
 8662SOL     OW26884   4.417   6.258   1.253
 8662SOL    HW126885   4.319   6.245   1.237
 8662SOL    HW226886   4.455   6.178   1.299
 8663SOL     OW26887   3.536   5.880   1.533
 8663SOL    HW126888   3.598   5.804   1.554
 8663SOL    HW226889   3.461   5.848   1.475
 8664SOL     OW26890   1.689   6.101   1.005
 8664SOL    HW126891   1.708   6.054   0.918
 8664SOL    HW226892   1.771   6.099   1.062
 8665SOL     OW26893   4.950   6.415   4.899
 8665SOL    HW126894   4.963   6.498   4.844
 8665SOL    HW226895   5.040   6.380   4.927
 8666SOL     OW26896   5.160   1.972   4.048
 8666SOL    HW126897   5.110   1.983   3.962
 8666SOL    HW226898   5.206   1.883   4.050
 8667SOL     OW26899   4.527   2.467   2.955
 8667SOL    HW126900   4.453   2.406   2.982
 8667SOL    HW226901   4.545   2.532   3.029
 8668SOL     OW26902   5.449   3.670   3.442
 8668SOL    HW126903   5.383   3.599   3.468
 8668SOL    HW226904   5.522   3.630   3.387
 8669SOL     OW26905   1.663   6.485   6.841
 8669SOL    HW126906   1.590   6.474   6.909
 8669SOL    HW226907   1.630   6.457   6.751
 8670SOL     OW26908   4.059   4.049   5.218
 8670SOL    HW126909   3.960   4.056   5.231
 8670SOL    HW226910   4.078   4.011   5.127
 8671SOL     OW26911   5.177   1.763   3.536
 8671SOL    HW126912   5.100   1.700   3.528
 8671SOL    HW226913   5.217   1.755   3.628
 8672SOL     OW26914   1.885   4.779   4.163
 8672SOL    HW126915   1.953   4.816   4.226
 8672SOL    HW226916   1.861   4.848   4.095
 8673SOL     OW26917   5.839   3.036   0.295
 8673SOL    HW126918   5.887   2.991   0.370
 8673SOL    HW226919   5.869   2.998   0.208
 8674SOL     OW26920   6.194   5.937   3.635
 8674SOL    HW126921   6.237   5.848   3.648
 8674SOL    HW226922   6.117   5.928   3.572
 8675SOL     OW26923   2.694   2.380   4.089
 8675SOL    HW126924   2.759   2.313   4.124
 8675SOL    HW226925   2.603   2.363   4.128
 8676SOL     OW26926   4.250   0.434   2.469
 8676SOL    HW126927   4.235   0.527   2.502
 8676SOL    HW226928   4.324   0.434   2.402
 8677SOL     OW26929   2.102   5.899   5.444
 8677SOL    HW126930   2.057   5.855   5.521
 8677SOL    HW226931   2.161   5.832   5.397
 8678SOL     OW26932   6.357   0.633   1.153
 8678SOL    HW126933   6.380   0.725   1.121
 8678SOL    HW226934   6.427   0.601   1.217
 8679SOL     OW26935   0.263   2.476   3.218
 8679SOL    HW126936   0.257   2.381   3.188
 8679SOL    HW226937   0.174   2.504   3.256
 8680SOL     OW26938   1.233   3.717   1.301
 8680SOL    HW126939   1.329   3.690   1.292
 8680SOL    HW226940   1.226   3.816   1.295
 8681SOL     OW26941   5.446   5.385   0.216
 8681SOL    HW126942   5.531   5.333   0.221
 8681SOL    HW226943   5.429   5.430   0.304
 8682SOL     OW26944   5.213   6.689   2.321
 8682SOL    HW126945   5.245   6.619   2.256
 8682SOL    HW226946   5.267   6.684   2.405
 8683SOL     OW26947   1.130   2.096   3.045
 8683SOL    HW126948   1.221   2.075   3.008
 8683SOL    HW226949   1.110   2.032   3.119
 8684SOL     OW26950   0.094   3.082   5.248
 8684SOL    HW126951   0.068   3.142   5.323
 8684SOL    HW226952   0.022   3.015   5.232
 8685SOL     OW26953   0.241   1.821   5.846
 8685SOL    HW126954   0.197   1.859   5.764
 8685SOL    HW226955   0.318   1.763   5.818
 8686SOL     OW26956   0.258   1.773   2.076
 8686SOL    HW126957   0.207   1.783   2.161
 8686SOL    HW226958   0.344   1.824   2.082
 8687SOL     OW26959   4.800   5.338   1.871
 8687SOL    HW126960   4.709   5.297   1.871
 8687SOL    HW226961   4.868   5.268   1.846
 8688SOL     OW26962   2.512   5.806   6.956
 8688SOL    HW126963   2.435   5.816   6.894
 8688SOL    HW226964   2.479   5.798   0.025
 8689SOL     OW26965   3.892   3.944   1.502
 8689SOL    HW126966   3.981   3.936   1.545
 8689SOL    HW226967   3.879   3.869   1.436
 8690SOL     OW26968   1.556   3.202   2.939
 8690SOL    HW126969   1.618   3.265   2.986
 8690SOL    HW226970   1.482   3.176   3.001
 8691SOL     OW26971   3.011   1.782   6.081
 8691SOL    HW126972   3.004   1.879   6.055
 8691SOL    HW226973   3.076   1.736   6.020
 8692SOL     OW26974   2.337   1.755   4.532
 8692SOL    HW126975   2.391   1.774   4.614
 8692SOL    HW226976   2.338   1.656   4.515
 8693SOL     OW26977   5.847   1.087   0.360
 8693SOL    HW126978   5.882   1.125   0.445
 8693SOL    HW226979   5.894   1.129   0.282
 8694SOL     OW26980   4.752   1.107   5.235
 8694SOL    HW126981   4.662   1.072   5.262
 8694SOL    HW226982   4.795   1.042   5.173
 8695SOL     OW26983   4.379   2.763   5.760
 8695SOL    HW126984   4.308   2.785   5.827
 8695SOL    HW226985   4.347   2.788   5.668
 8696SOL     OW26986   1.932   5.464   6.889
 8696SOL    HW126987   2.003   5.460   6.818
 8696SOL    HW226988   1.885   5.552   6.884
 8697SOL     OW26989   6.820   2.883   6.537
 8697SOL    HW126990   6.798   2.955   6.472
 8697SOL    HW226991   6.768   2.800   6.513
 8698SOL     OW26992   5.190   6.578   5.401
 8698SOL    HW126993   5.158   6.507   5.465
 8698SOL    HW226994   5.114   6.608   5.344
 8699SOL     OW26995   2.228   2.483   5.695
 8699SOL    HW126996   2.250   2.398   5.742
 8699SOL    HW226997   2.279   2.488   5.609
 8700SOL     OW26998   0.610   0.966   4.659
 8700SOL    HW126999   0.514   0.981   4.634
 8700SOL    HW227000   0.623   0.990   4.756
 8701SOL     OW27001   0.571   1.430   0.794
 8701SOL    HW127002   0.579   1.476   0.883
 8701SOL    HW227003   0.482   1.384   0.788
 8702SOL     OW27004   5.678   5.446   1.601
 8702SOL    HW127005   5.673   5.400   1.690
 8702SOL    HW227006   5.640   5.386   1.530
 8703SOL     OW27007   2.471   5.130   0.030
 8703SOL    HW127008   2.533   5.197   0.072
 8703SOL    HW227009   2.524   5.059   7.011
 8704SOL     OW27010   0.485   3.676   2.966
 8704SOL    HW127011   0.543   3.621   3.026
 8704SOL    HW227012   0.481   3.635   2.875
 8705SOL     OW27013   5.162   1.558   6.174
 8705SOL    HW127014   5.168   1.502   6.257
 8705SOL    HW227015   5.193   1.651   6.194
 8706SOL     OW27016   4.987   2.331   6.703
 8706SOL    HW127017   4.888   2.342   6.688
 8706SOL    HW227018   5.010   2.361   6.795
 8707SOL     OW27019   6.964   2.062   6.533
 8707SOL    HW127020   6.964   2.156   6.499
 8707SOL    HW227021   6.903   2.006   6.477
 8708SOL     OW27022   4.460   2.021   2.836
 8708SOL    HW127023   4.364   2.006   2.860
 8708SOL    HW227024   4.495   1.941   2.788
 8709SOL     OW27025   0.020   6.662   0.213
 8709SOL    HW127026   0.052   6.754   0.194
 8709SOL    HW227027   6.956   6.649   0.170
 8710SOL     OW27028   2.012   3.398   4.059
 8710SOL    HW127029   2.021   3.358   3.968
 8710SOL    HW227030   2.069   3.347   4.124
 8711SOL     OW27031   1.502   6.999   3.323
 8711SOL    HW127032   1.594   6.961   3.335
 8711SOL    HW227033   1.436   6.925   3.317
 8712SOL     OW27034   4.158   2.282   4.818
 8712SOL    HW127035   4.178   2.352   4.887
 8712SOL    HW227036   4.076   2.232   4.844
 8713SOL     OW27037   6.782   2.633   4.300
 8713SOL    HW127038   6.682   2.633   4.299
 8713SOL    HW227039   6.814   2.651   4.393
 8714SOL     OW27040   1.047   1.128   6.395
 8714SOL    HW127041   1.028   1.030   6.397
 8714SOL    HW227042   1.145   1.143   6.406
 8715SOL     OW27043   5.090   0.272   0.837
 8715SOL    HW127044   5.140   0.193   0.802
 8715SOL    HW227045   4.995   0.246   0.854
 8716SOL     OW27046   6.922   6.758   1.788
 8716SOL    HW127047   6.839   6.709   1.759
 8716SOL    HW227048   6.902   6.812   1.870
 8717SOL     OW27049   3.689   3.493   4.243
 8717SOL    HW127050   3.658   3.532   4.330
 8717SOL    HW227051   3.615   3.441   4.201
 8718SOL     OW27052   1.195   3.615   5.341
 8718SOL    HW127053   1.270   3.650   5.285
 8718SOL    HW227054   1.117   3.594   5.282
 8719SOL     OW27055   3.565   6.990   6.300
 8719SOL    HW127056   3.511   0.048   6.284
 8719SOL    HW227057   3.660   7.015   6.319
 8720SOL     OW27058   6.724   5.388   5.950
 8720SOL    HW127059   6.681   5.311   5.903
 8720SOL    HW227060   6.786   5.353   6.020
 8721SOL     OW27061   6.929   3.210   2.150
 8721SOL    HW127062   6.833   3.238   2.153
 8721SOL    HW227063   6.959   3.184   2.242
 8722SOL     OW27064   3.834   1.548   0.088
 8722SOL    HW127065   3.923   1.503   0.076
 8722SOL    HW227066   3.798   1.528   0.179
 8723SOL     OW27067   5.372   5.776   0.832
 8723SOL    HW127068   5.317   5.839   0.887
 8723SOL    HW227069   5.346   5.682   0.853
 8724SOL     OW27070   4.785   0.068   5.306
 8724SOL    HW127071   4.765   0.140   5.241
 8724SOL    HW227072   4.725   7.015   5.289
 8725SOL     OW27073   1.719   6.182   5.950
 8725SOL    HW127074   1.814   6.156   5.967
 8725SOL    HW227075   1.716   6.267   5.898
 8726SOL     OW27076   6.984   0.790   2.482
 8726SOL    HW127077   6.962   0.727   2.557
 8726SOL    HW227078   6.902   0.841   2.456
 8727SOL     OW27079   6.870   6.258   2.555
 8727SOL    HW127080   6.904   6.325   2.489
 8727SOL    HW227081   6.771   6.270   2.566
 8728SOL     OW27082   5.692   0.460   2.408
 8728SOL    HW127083   5.663   0.533   2.346
 8728SOL    HW227084   5.710   0.376   2.355
 8729SOL     OW27085   4.610   6.203   4.729
 8729SOL    HW127086   4.534   6.265   4.712
 8729SOL    HW227087   4.659   6.231   4.812
 8730SOL     OW27088   0.027   3.859   1.924
 8730SOL    HW127089   0.104   3.808   1.962
 8730SOL    HW227090   6.994   3.892   1.998
 8731SOL     OW27091   2.025   2.787   2.435
 8731SOL    HW127092   1.998   2.717   2.501
 8731SOL    HW227093   2.040   2.743   2.346
 8732SOL     OW27094   6.211   5.204   1.417
 8732SOL    HW127095   6.248   5.247   1.499
 8732SOL    HW227096   6.187   5.109   1.437
 8733SOL     OW27097   1.213   5.551   1.024
 8733SOL    HW127098   1.240   5.568   1.118
 8733SOL    HW227099   1.176   5.635   0.984
 8734SOL     OW27100   1.639   3.940   1.814
 8734SOL    HW127101   1.573   4.002   1.855
 8734SOL    HW227102   1.607   3.846   1.825
 8735SOL     OW27103   1.370   2.308   0.697
 8735SOL    HW127104   1.443   2.249   0.663
 8735SOL    HW227105   1.292   2.252   0.725
 8736SOL     OW27106   0.209   5.711   6.743
 8736SOL    HW127107   0.137   5.642   6.737
 8736SOL    HW227108   0.296   5.671   6.716
 8737SOL     OW27109   2.092   6.559   6.694
 8737SOL    HW127110   2.181   6.519   6.672
 8737SOL    HW227111   2.104   6.654   6.722
 8738SOL     OW27112   2.239   5.324   4.441
 8738SOL    HW127113   2.317   5.378   4.407
 8738SOL    HW227114   2.227   5.244   4.383
 8739SOL     OW27115   5.288   5.595   6.443
 8739SOL    HW127116   5.200   5.555   6.466
 8739SOL    HW227117   5.353   5.522   6.421
 8740SOL     OW27118   5.038   1.045   4.520
 8740SOL    HW127119   4.979   1.117   4.483
 8740SOL    HW227120   4.982   0.968   4.551
 8741SOL     OW27121   2.532   1.470   2.195
 8741SOL    HW127122   2.565   1.376   2.191
 8741SOL    HW227123   2.516   1.496   2.290
 8742SOL     OW27124   6.101   6.208   1.219
 8742SOL    HW127125   6.024   6.184   1.160
 8742SOL    HW227126   6.186   6.174   1.178
 8743SOL     OW27127   1.116   0.189   2.524
 8743SOL    HW127128   1.116   0.103   2.574
 8743SOL    HW227129   1.088   0.173   2.429
 8744SOL     OW27130   3.574   2.643   6.457
 8744SOL    HW127131   3.599   2.547   6.468
 8744SOL    HW227132   3.559   2.662   6.360
 8745SOL     OW27133   5.784   2.558   6.627
 8745SOL    HW127134   5.831   2.605   6.552
 8745SOL    HW227135   5.769   2.463   6.603
 8746SOL     OW27136   4.910   4.901   4.528
 8746SOL    HW127137   4.958   4.877   4.444
 8746SOL    HW227138   4.907   4.822   4.589
 8747SOL     OW27139   0.705   2.884   2.990
 8747SOL    HW127140   0.740   2.831   2.912
 8747SOL    HW227141   0.608   2.864   3.003
 8748SOL     OW27142   6.888   1.430   4.833
 8748SOL    HW127143   6.900   1.457   4.929
 8748SOL    HW227144   6.969   1.456   4.780
 8749SOL     OW27145   2.565   0.870   5.795
 8749SOL    HW127146   2.593   0.786   5.841
 8749SOL    HW227147   2.514   0.927   5.859
 8750SOL     OW27148   3.735   3.667   5.524
 8750SOL    HW127149   3.764   3.751   5.571
 8750SOL    HW227150   3.656   3.628   5.573
 8751SOL     OW27151   5.643   1.225   2.190
 8751SOL    HW127152   5.732   1.183   2.171
 8751SOL    HW227153   5.656   1.321   2.214
 8752SOL     OW27154   2.819   3.387   0.644
 8752SOL    HW127155   2.916   3.407   0.640
 8752SOL    HW227156   2.767   3.464   0.607
 8753SOL     OW27157   3.928   2.069   5.656
 8753SOL    HW127158   3.995   2.135   5.621
 8753SOL    HW227159   3.860   2.050   5.586
 8754SOL     OW27160   1.683   3.612   6.059
 8754SOL    HW127161   1.637   3.560   5.988
 8754SOL    HW227162   1.705   3.704   6.025
 8755SOL     OW27163   2.179   0.557   0.848
 8755SOL    HW127164   2.255   0.619   0.869
 8755SOL    HW227165   2.187   0.474   0.904
 8756SOL     OW27166   1.137   3.275   3.508
 8756SOL    HW127167   1.176   3.366   3.492
 8756SOL    HW227168   1.208   3.215   3.544
 8757SOL     OW27169   4.061   5.827   6.331
 8757SOL    HW127170   4.080   5.913   6.284
 8757SOL    HW227171   4.091   5.750   6.274
 8758SOL     OW27172   4.893   5.824   2.553
 8758SOL    HW127173   4.886   5.777   2.465
 8758SOL    HW227174   4.926   5.917   2.539
 8759SOL     OW27175   4.589   2.515   0.517
 8759SOL    HW127176   4.523   2.440   0.524
 8759SOL    HW227177   4.623   2.521   0.423
 8760SOL     OW27178   2.097   1.105   5.101
 8760SOL    HW127179   2.034   1.034   5.071
 8760SOL    HW227180   2.057   1.195   5.082
 8761SOL     OW27181   6.096   2.029   1.804
 8761SOL    HW127182   6.051   1.963   1.863
 8761SOL    HW227183   6.166   1.984   1.750
 8762SOL     OW27184   1.938   3.662   2.610
 8762SOL    HW127185   1.924   3.576   2.659
 8762SOL    HW227186   1.902   3.738   2.664
 8763SOL     OW27187   0.274   0.304   6.101
 8763SOL    HW127188   0.205   0.287   6.171
 8763SOL    HW227189   0.277   0.402   6.081
 8764SOL     OW27190   4.804   0.238   4.633
 8764SOL    HW127191   4.761   0.193   4.711
 8764SOL    HW227192   4.733   0.274   4.572
 8765SOL     OW27193   5.447   6.415   3.853
 8765SOL    HW127194   5.442   6.499   3.799
 8765SOL    HW227195   5.355   6.374   3.858
 8766SOL     OW27196   4.633   4.371   3.504
 8766SOL    HW127197   4.539   4.404   3.501
 8766SOL    HW227198   4.642   4.290   3.446
 8767SOL     OW27199   5.249   6.021   2.564
 8767SOL    HW127200   5.160   6.038   2.520
 8767SOL    HW227201   5.243   5.941   2.623
 8768SOL     OW27202   1.246   2.422   0.472
 8768SOL    HW127203   1.288   2.373   0.548
 8768SOL    HW227204   1.274   2.518   0.475
 8769SOL     OW27205   0.308   0.711   4.527
 8769SOL    HW127206   0.244   0.643   4.490
 8769SOL    HW227207   0.399   0.670   4.535
 8770SOL     OW27208   4.758   4.275   2.381
 8770SOL    HW127209   4.765   4.218   2.299
 8770SOL    HW227210   4.785   4.222   2.461
 8771SOL     OW27211   0.663   1.242   6.784
 8771SOL    HW127212   0.732   1.172   6.765
 8771SOL    HW227213   0.603   1.251   6.705
 8772SOL     OW27214   5.088   0.541   6.316
 8772SOL    HW127215   5.027   0.464   6.332
 8772SOL    HW227216   5.127   0.533   6.224
 8773SOL     OW27217   4.589   2.573   3.211
 8773SOL    HW127218   4.669   2.513   3.223
 8773SOL    HW227219   4.548   2.592   3.300
 8774SOL     OW27220   1.099   1.066   6.962
 8774SOL    HW127221   1.099   0.966   6.961
 8774SOL    HW227222   1.107   1.099   0.031
 8775SOL     OW27223   5.718   6.845   5.034
 8775SOL    HW127224   5.669   6.821   4.950
 8775SOL    HW227225   5.815   6.853   5.015
 8776SOL     OW27226   3.530   2.885   6.546
 8776SOL    HW127227   3.444   2.918   6.508
 8776SOL    HW227228   3.544   2.790   6.519
 8777SOL     OW27229   0.008   4.229   1.701
 8777SOL    HW127230   0.011   4.274   1.612
 8777SOL    HW227231   0.069   4.277   1.764
 8778SOL     OW27232   6.024   2.661   4.873
 8778SOL    HW127233   6.080   2.661   4.956
 8778SOL    HW227234   5.996   2.567   4.852
 8779SOL     OW27235   2.870   5.368   2.573
 8779SOL    HW127236   2.928   5.429   2.628
 8779SOL    HW227237   2.815   5.311   2.634
 8780SOL     OW27238   0.863   6.429   2.273
 8780SOL    HW127239   0.850   6.410   2.370
 8780SOL    HW227240   0.798   6.374   2.219
 8781SOL     OW27241   5.108   1.456   3.196
 8781SOL    HW127242   5.157   1.543   3.191
 8781SOL    HW227243   5.022   1.464   3.146
 8782SOL     OW27244   6.127   6.252   1.820
 8782SOL    HW127245   6.145   6.186   1.893
 8782SOL    HW227246   6.177   6.225   1.738
 8783SOL     OW27247   6.434   4.336   3.326
 8783SOL    HW127248   6.387   4.256   3.289
 8783SOL    HW227249   6.528   4.311   3.350
 8784SOL     OW27250   6.117   4.231   6.220
 8784SOL    HW127251   6.188   4.197   6.283
 8784SOL    HW227252   6.157   4.300   6.159
 8785SOL     OW27253   5.857   3.410   0.045
 8785SOL    HW127254   5.879   3.454   0.133
 8785SOL    HW227255   5.778   3.456   0.005
 8786SOL     OW27256   2.009   0.608   0.151
 8786SOL    HW127257   1.943   0.571   0.086
 8786SOL    HW227258   2.046   0.695   0.115
 8787SOL     OW27259   3.159   2.077   1.438
 8787SOL    HW127260   3.228   2.148   1.455
 8787SOL    HW227261   3.205   1.992   1.414
 8788SOL     OW27262   6.698   1.933   5.932
 8788SOL    HW127263   6.656   1.845   5.957
 8788SOL    HW227264   6.796   1.929   5.950
 8789SOL     OW27265   6.134   0.130   5.022
 8789SOL    HW127266   6.208   0.118   4.956
 8789SOL    HW227267   6.052   0.085   4.988
 8790SOL     OW27268   0.506   0.250   7.023
 8790SOL    HW127269   0.600   0.282   7.025
 8790SOL    HW227270   0.455   0.289   0.074
 8791SOL     OW27271   5.256   0.363   4.627
 8791SOL    HW127272   5.310   0.300   4.683
 8791SOL    HW227273   5.297   0.454   4.631
 8792SOL     OW27274   2.598   6.719   3.360
 8792SOL    HW127275   2.638   6.806   3.332
 8792SOL    HW227276   2.671   6.660   3.396
 8793SOL     OW27277   1.671   4.218   3.302
 8793SOL    HW127278   1.746   4.283   3.288
 8793SOL    HW227279   1.688   4.164   3.385
 8794SOL     OW27280   4.712   6.578   2.233
 8794SOL    HW127281   4.644   6.506   2.219
 8794SOL    HW227282   4.680   6.642   2.303
 8795SOL     OW27283   1.335   5.335   5.560
 8795SOL    HW127284   1.405   5.272   5.593
 8795SOL    HW227285   1.353   5.427   5.594
 8796SOL     OW27286   3.686   2.076   4.656
 8796SOL    HW127287   3.601   2.093   4.606
 8796SOL    HW227288   3.710   1.979   4.649
 8797SOL     OW27289   6.758   6.709   6.822
 8797SOL    HW127290   6.779   6.772   6.896
 8797SOL    HW227291   6.748   6.617   6.859
 8798SOL     OW27292   4.921   5.774   5.711
 8798SOL    HW127293   4.991   5.765   5.640
 8798SOL    HW227294   4.957   5.742   5.798
 8799SOL     OW27295   2.782   4.805   3.488
 8799SOL    HW127296   2.719   4.883   3.485
 8799SOL    HW227297   2.860   4.828   3.546
 8800SOL     OW27298   6.412   3.712   5.410
 8800SOL    HW127299   6.353   3.697   5.489
 8800SOL    HW227300   6.500   3.667   5.425
 8801SOL     OW27301   0.391   1.911   5.217
 8801SOL    HW127302   0.363   1.835   5.158
 8801SOL    HW227303   0.310   1.949   5.263
 8802SOL     OW27304   1.821   7.009   0.379
 8802SOL    HW127305   1.868   6.921   0.384
 8802SOL    HW227306   1.831   0.032   0.466
 8803SOL     OW27307   6.526   6.186   6.764
 8803SOL    HW127308   6.575   6.192   6.850
 8803SOL    HW227309   6.579   6.133   6.698
 8804SOL     OW27310   2.648   0.025   1.837
 8804SOL    HW127311   2.655   0.079   1.753
 8804SOL    HW227312   2.553   7.023   1.851
 8805SOL     OW27313   2.896   6.904   4.313
 8805SOL    HW127314   2.812   6.916   4.260
 8805SOL    HW227315   2.891   6.959   4.396
 8806SOL     OW27316   3.062   5.879   2.293
 8806SOL    HW127317   3.093   5.946   2.360
 8806SOL    HW227318   2.972   5.844   2.321
 8807SOL     OW27319   5.023   0.627   6.878
 8807SOL    HW127320   5.009   0.709   6.933
 8807SOL    HW227321   5.120   0.619   6.854
 8808SOL     OW27322   5.694   2.914   6.997
 8808SOL    HW127323   5.751   2.996   7.002
 8808SOL    HW227324   5.713   2.865   6.911
 8809SOL     OW27325   4.794   5.265   3.547
 8809SOL    HW127326   4.719   5.331   3.536
 8809SOL    HW227327   4.784   5.217   3.634
 8810SOL     OW27328   5.272   0.788   5.957
 8810SOL    HW127329   5.262   0.809   5.860
 8810SOL    HW227330   5.311   0.867   6.004
 8811SOL     OW27331   2.990   0.511   2.984
 8811SOL    HW127332   2.945   0.520   2.895
 8811SOL    HW227333   2.923   0.482   3.052
 8812SOL     OW27334   2.161   0.319   1.022
 8812SOL    HW127335   2.168   0.374   1.106
 8812SOL    HW227336   2.099   0.242   1.038
 8813SOL     OW27337   2.547   4.483   1.363
 8813SOL    HW127338   2.630   4.504   1.414
 8813SOL    HW227339   2.537   4.384   1.355
 8814SOL     OW27340   5.417   7.002   1.625
 8814SOL    HW127341   5.485   6.957   1.682
 8814SOL    HW227342   5.370   0.047   1.678
 8815SOL     OW27343   5.566   6.832   0.666
 8815SOL    HW127344   5.554   6.752   0.726
 8815SOL    HW227345   5.525   6.813   0.577
 8816SOL     OW27346   1.009   6.747   0.002
 8816SOL    HW127347   0.972   6.814   0.066
 8816SOL    HW227348   0.963   6.659   0.016
 8817SOL     OW27349   0.546   5.031   4.389
 8817SOL    HW127350   0.637   4.997   4.411
 8817SOL    HW227351   0.484   4.955   4.372
 8818SOL     OW27352   0.266   4.477   4.894
 8818SOL    HW127353   0.327   4.477   4.974
 8818SOL    HW227354   0.175   4.449   4.923
 8819SOL     OW27355   5.563   5.238   4.908
 8819SOL    HW127356   5.636   5.264   4.971
 8819SOL    HW227357   5.511   5.162   4.946
 8820SOL     OW27358   2.138   1.118   5.369
 8820SOL    HW127359   2.125   1.095   5.273
 8820SOL    HW227360   2.127   1.217   5.382
 8821SOL     OW27361   1.994   6.112   0.637
 8821SOL    HW127362   1.977   6.015   0.619
 8821SOL    HW227363   1.946   6.138   0.721
 8822SOL     OW27364   0.129   6.925   4.582
 8822SOL    HW127365   0.150   6.966   4.493
 8822SOL    HW227366   0.213   6.888   4.622
 8823SOL     OW27367   2.208   0.770   1.404
 8823SOL    HW127368   2.248   0.857   1.431
 8823SOL    HW227369   2.247   0.741   1.317
 8824SOL     OW27370   1.162   2.196   0.354
 8824SOL    HW127371   1.077   2.166   0.396
 8824SOL    HW227372   1.198   2.275   0.404
 8825SOL     OW27373   2.412   1.147   1.583
 8825SOL    HW127374   2.319   1.174   1.558
 8825SOL    HW227375   2.430   1.173   1.678
 8826SOL     OW27376   6.683   3.305   0.713
 8826SOL    HW127377   6.621   3.382   0.701
 8826SOL    HW227378   6.773   3.339   0.741
 8827SOL     OW27379   3.906   1.865   2.515
 8827SOL    HW127380   3.890   1.886   2.419
 8827SOL    HW227381   3.850   1.786   2.541
 8828SOL     OW27382   4.847   6.183   5.729
 8828SOL    HW127383   4.850   6.238   5.813
 8828SOL    HW227384   4.935   6.189   5.682
 8829SOL     OW27385   5.383   2.640   0.639
 8829SOL    HW127386   5.361   2.676   0.548
 8829SOL    HW227387   5.380   2.714   0.706
 8830SOL     OW27388   1.348   1.639   2.510
 8830SOL    HW127389   1.340   1.659   2.412
 8830SOL    HW227390   1.376   1.722   2.559
 8831SOL     OW27391   3.940   2.142   4.182
 8831SOL    HW127392   3.854   2.138   4.131
 8831SOL    HW227393   3.922   2.128   4.279
 8832SOL     OW27394   0.223   5.972   3.156
 8832SOL    HW127395   0.129   5.937   3.150
 8832SOL    HW227396   0.279   5.907   3.208
 8833SOL     OW27397   2.519   5.253   6.027
 8833SOL    HW127398   2.453   5.255   5.952
 8833SOL    HW227399   2.576   5.171   6.019
 8834SOL     OW27400   5.325   3.890   4.903
 8834SOL    HW127401   5.254   3.826   4.874
 8834SOL    HW227402   5.391   3.842   4.961
 8835SOL     OW27403   4.966   0.866   5.905
 8835SOL    HW127404   4.974   0.775   5.944
 8835SOL    HW227405   4.967   0.934   5.979
 8836SOL     OW27406   5.493   2.826   0.159
 8836SOL    HW127407   5.568   2.852   0.098
 8836SOL    HW227408   5.412   2.805   0.105
 8837SOL     OW27409   0.038   6.101   2.759
 8837SOL    HW127410   7.009   6.161   2.701
 8837SOL    HW227411   7.013   6.081   2.844
 8838SOL     OW27412   2.036   5.627   3.314
 8838SOL    HW127413   1.979   5.556   3.273
 8838SOL    HW227414   2.016   5.634   3.411
 8839SOL     OW27415   6.054   5.172   2.986
 8839SOL    HW127416   6.030   5.098   2.923
 8839SOL    HW227417   5.996   5.252   2.967
 8840SOL     OW27418   6.837   2.196   2.300
 8840SOL    HW127419   6.857   2.191   2.202
 8840SOL    HW227420   6.904   2.254   2.346
 8841SOL     OW27421   0.774   1.209   5.476
 8841SOL    HW127422   0.743   1.233   5.568
 8841SOL    HW227423   0.814   1.290   5.432
 8842SOL     OW27424   3.610   3.016   2.264
 8842SOL    HW127425   3.692   3.071   2.282
 8842SOL    HW227426   3.592   2.957   2.343
 8843SOL     OW27427   1.717   3.440   5.536
 8843SOL    HW127428   1.800   3.390   5.560
 8843SOL    HW227429   1.709   3.520   5.595
 8844SOL     OW27430   6.727   2.264   6.284
 8844SOL    HW127431   6.727   2.164   6.292
 8844SOL    HW227432   6.717   2.304   6.375
 8845SOL     OW27433   4.186   3.847   0.499
 8845SOL    HW127434   4.259   3.915   0.495
 8845SOL    HW227435   4.180   3.809   0.591
 8846SOL     OW27436   3.479   5.212   4.023
 8846SOL    HW127437   3.574   5.245   4.022
 8846SOL    HW227438   3.462   5.159   3.940
 8847SOL     OW27439   2.564   0.716   3.289
 8847SOL    HW127440   2.473   0.720   3.246
 8847SOL    HW227441   2.589   0.621   3.306
 8848SOL     OW27442   2.746   1.593   1.791
 8848SOL    HW127443   2.701   1.522   1.737
 8848SOL    HW227444   2.723   1.683   1.754
 8849SOL     OW27445   3.028   6.237   3.472
 8849SOL    HW127446   2.943   6.239   3.524
 8849SOL    HW227447   3.091   6.306   3.506
 8850SOL     OW27448   1.111   2.090   7.009
 8850SOL    HW127449   1.194   2.139   0.011
 8850SOL    HW227450   1.133   1.996   6.986
 8851SOL     OW27451   1.194   4.035   3.301
 8851SOL    HW127452   1.192   4.084   3.213
 8851SOL    HW227453   1.107   4.049   3.349
 8852SOL     OW27454   6.915   2.835   4.838
 8852SOL    HW127455   6.972   2.912   4.866
 8852SOL    HW227456   6.955   2.750   4.873
 8853SOL     OW27457   2.928   0.970   1.406
 8853SOL    HW127458   2.839   0.991   1.366
 8853SOL    HW227459   2.962   0.884   1.369
 8854SOL     OW27460   3.180   2.543   5.891
 8854SOL    HW127461   3.158   2.486   5.971
 8854SOL    HW227462   3.113   2.617   5.884
 8855SOL     OW27463   0.137   5.441   1.608
 8855SOL    HW127464   0.079   5.375   1.655
 8855SOL    HW227465   0.222   5.452   1.660
 8856SOL     OW27466   0.166   6.822   6.175
 8856SOL    HW127467   0.076   6.838   6.216
 8856SOL    HW227468   0.182   6.889   6.102
 8857SOL     OW27469   6.700   1.667   3.934
 8857SOL    HW127470   6.799   1.657   3.934
 8857SOL    HW227471   6.669   1.694   3.843
 8858SOL     OW27472   1.006   3.499   5.182
 8858SOL    HW127473   1.026   3.427   5.116
 8858SOL    HW227474   0.965   3.578   5.135
 8859SOL     OW27475   0.456   0.495   4.121
 8859SOL    HW127476   0.523   0.541   4.178
 8859SOL    HW227477   0.434   0.551   4.041
 8860SOL     OW27478   6.779   2.829   2.262
 8860SOL    HW127479   6.772   2.893   2.338
 8860SOL    HW227480   6.778   2.880   2.176
 8861SOL     OW27481   4.138   1.194   6.104
 8861SOL    HW127482   4.065   1.215   6.168
 8861SOL    HW227483   4.225   1.227   6.140
 8862SOL     OW27484   4.987   0.544   3.385
 8862SOL    HW127485   4.910   0.499   3.430
 8862SOL    HW227486   5.042   0.593   3.453
 8863SOL     OW27487   2.331   4.857   3.847
 8863SOL    HW127488   2.410   4.835   3.789
 8863SOL    HW227489   2.247   4.841   3.795
 8864SOL     OW27490   2.648   5.047   6.549
 8864SOL    HW127491   2.619   5.143   6.542
 8864SOL    HW227492   2.747   5.044   6.565
 8865SOL     OW27493   3.120   0.632   5.062
 8865SOL    HW127494   3.055   0.557   5.080
 8865SOL    HW227495   3.070   0.709   5.024
 8866SOL     OW27496   5.102   6.959   2.892
 8866SOL    HW127497   5.170   6.924   2.956
 8866SOL    HW227498   5.096   6.897   2.813
 8867SOL     OW27499   5.939   4.937   2.905
 8867SOL    HW127500   5.928   4.852   2.956
 8867SOL    HW227501   5.853   4.988   2.906
 8868SOL     OW27502   6.979   3.099   1.617
 8868SOL    HW127503   7.001   3.196   1.621
 8868SOL    HW227504   0.028   3.049   1.573
 8869SOL     OW27505   3.985   5.958   5.077
 8869SOL    HW127506   4.001   5.883   5.141
 8869SOL    HW227507   4.062   5.965   5.014
 8870SOL     OW27508   2.651   0.196   0.971
 8870SOL    HW127509   2.605   0.277   0.935
 8870SOL    HW227510   2.725   0.169   0.909
 8871SOL     OW27511   2.086   1.209   3.773
 8871SOL    HW127512   2.157   1.198   3.703
 8871SOL    HW227513   2.033   1.124   3.781
 8872SOL     OW27514   1.609   4.569   5.268
 8872SOL    HW127515   1.566   4.538   5.184
 8872SOL    HW227516   1.706   4.544   5.267
 8873SOL     OW27517   0.412   6.452   1.997
 8873SOL    HW127518   0.386   6.507   2.077
 8873SOL    HW227519   0.394   6.355   2.016
 8874SOL     OW27520   2.224   6.254   2.886
 8874SOL    HW127521   2.172   6.182   2.840
 8874SOL    HW227522   2.238   6.330   2.823
 8875SOL     OW27523   0.358   3.762   5.004
 8875SOL    HW127524   0.377   3.678   4.954
 8875SOL    HW227525   0.436   3.784   5.063
 8876SOL     OW27526   2.080   6.556   5.542
 8876SOL    HW127527   1.995   6.507   5.562
 8876SOL    HW227528   2.108   6.538   5.448
 8877SOL     OW27529   2.765   2.058   4.057
 8877SOL    HW127530   2.674   2.018   4.071
 8877SOL    HW227531   2.805   2.083   4.145
 8878SOL     OW27532   6.208   5.034   0.900
 8878SOL    HW127533   6.157   4.960   0.856
 8878SOL    HW227534   6.169   5.122   0.872
 8879SOL     OW27535   5.125   4.338   2.622
 8879SOL    HW127536   5.072   4.398   2.563
 8879SOL    HW227537   5.114   4.243   2.591
 8880SOL     OW27538   4.331   6.506   4.991
 8880SOL    HW127539   4.286   6.460   5.067
 8880SOL    HW227540   4.349   6.440   4.918
 8881SOL     OW27541   5.097   6.555   3.471
 8881SOL    HW127542   5.088   6.488   3.397
 8881SOL    HW227543   5.029   6.535   3.542
 8882SOL     OW27544   5.033   0.740   1.201
 8882SOL    HW127545   5.125   0.744   1.163
 8882SOL    HW227546   4.987   0.656   1.171
 8883SOL     OW27547   1.652   6.228   6.227
 8883SOL    HW127548   1.626   6.325   6.233
 8883SOL    HW227549   1.652   6.200   6.131
 8884SOL     OW27550   6.372   4.168   5.114
 8884SOL    HW127551   6.397   4.083   5.159
 8884SOL    HW227552   6.422   4.176   5.028
 8885SOL     OW27553   6.106   4.348   1.743
 8885SOL    HW127554   6.145   4.313   1.658
 8885SOL    HW227555   6.055   4.432   1.725
 8886SOL     OW27556   2.973   5.789   4.527
 8886SOL    HW127557   2.911   5.762   4.454
 8886SOL    HW227558   3.013   5.708   4.569
 8887SOL     OW27559   3.891   0.393   0.411
 8887SOL    HW127560   3.890   0.312   0.470
 8887SOL    HW227561   3.933   0.470   0.459
 8888SOL     OW27562   1.891   1.555   5.804
 8888SOL    HW127563   1.919   1.536   5.710
 8888SOL    HW227564   1.943   1.498   5.867
 8889SOL     OW27565   6.641   6.970   0.181
 8889SOL    HW127566   6.647   0.035   0.137
 8889SOL    HW227567   6.635   6.982   0.280
 8890SOL     OW27568   0.203   6.308   5.529
 8890SOL    HW127569   0.199   6.388   5.589
 8890SOL    HW227570   0.122   6.306   5.470
 8891SOL     OW27571   4.067   3.284   6.819
 8891SOL    HW127572   4.052   3.190   6.788
 8891SOL    HW227573   4.049   3.291   6.917
 8892SOL     OW27574   3.610   5.220   2.334
 8892SOL    HW127575   3.694   5.173   2.307
 8892SOL    HW227576   3.622   5.319   2.321
 8893SOL     OW27577   0.904   5.582   4.055
 8893SOL    HW127578   0.831   5.514   4.055
 8893SOL    HW227579   0.899   5.636   4.139
 8894SOL     OW27580   3.310   2.598   6.914
 8894SOL    HW127581   3.400   2.613   6.874
 8894SOL    HW227582   3.248   2.562   6.843
 8895SOL     OW27583   6.696   3.039   2.393
 8895SOL    HW127584   6.623   3.047   2.461
 8895SOL    HW227585   6.668   3.085   2.309
 8896SOL     OW27586   2.365   2.987   5.830
 8896SOL    HW127587   2.325   2.903   5.793
 8896SOL    HW227588   2.294   3.042   5.872
 8897SOL     OW27589   2.390   2.746   3.368
 8897SOL    HW127590   2.423   2.656   3.397
 8897SOL    HW227591   2.374   2.804   3.448
 8898SOL     OW27592   4.893   3.520   2.484
 8898SOL    HW127593   4.954   3.580   2.537
 8898SOL    HW227594   4.919   3.523   2.388
 8899SOL     OW27595   1.166   5.221   1.457
 8899SOL    HW127596   1.155   5.145   1.393
 8899SOL    HW227597   1.258   5.260   1.447
 8900SOL     OW27598   5.724   2.837   2.773
 8900SOL    HW127599   5.702   2.843   2.675
 8900SOL    HW227600   5.816   2.799   2.784
 8901SOL     OW27601   1.297   0.934   5.002
 8901SOL    HW127602   1.320   0.966   4.910
 8901SOL    HW227603   1.204   0.898   5.002
 8902SOL     OW27604   0.780   6.061   0.483
 8902SOL    HW127605   0.716   6.015   0.544
 8902SOL    HW227606   0.808   5.999   0.410
 8903SOL     OW27607   0.679   2.038   4.341
 8903SOL    HW127608   0.668   2.117   4.282
 8903SOL    HW227609   0.741   1.972   4.298
 8904SOL     OW27610   6.493   1.053   4.846
 8904SOL    HW127611   6.551   0.978   4.879
 8904SOL    HW227612   6.515   1.072   4.750
 8905SOL     OW27613   2.032   3.799   3.124
 8905SOL    HW127614   2.009   3.702   3.116
 8905SOL    HW227615   2.043   3.823   3.220
 8906SOL     OW27616   0.570   6.177   0.073
 8906SOL    HW127617   0.644   6.232   0.033
 8906SOL    HW227618   0.482   6.220   0.053
 8907SOL     OW27619   2.910   2.964   5.648
 8907SOL    HW127620   2.941   2.989   5.556
 8907SOL    HW227621   2.814   2.935   5.644
 8908SOL     OW27622   1.068   5.024   7.000
 8908SOL    HW127623   1.130   4.983   6.933
 8908SOL    HW227624   0.985   5.054   6.955
 8909SOL     OW27625   2.305   1.466   5.748
 8909SOL    HW127626   2.319   1.399   5.675
 8909SOL    HW227627   2.373   1.539   5.740
 8910SOL     OW27628   0.635   3.077   5.665
 8910SOL    HW127629   0.601   3.146   5.729
 8910SOL    HW227630   0.582   2.993   5.675
 8911SOL     OW27631   4.579   2.656   4.445
 8911SOL    HW127632   4.585   2.642   4.346
 8911SOL    HW227633   4.661   2.618   4.489
 8912SOL     OW27634   3.699   3.583   6.852
 8912SOL    HW127635   3.622   3.581   6.915
 8912SOL    HW227636   3.729   3.489   6.834
 8913SOL     OW27637   4.467   5.512   5.904
 8913SOL    HW127638   4.489   5.419   5.877
 8913SOL    HW227639   4.530   5.542   5.975
 8914SOL     OW27640   4.264   6.641   4.312
 8914SOL    HW127641   4.198   6.711   4.338
 8914SOL    HW227642   4.328   6.626   4.388
 8915SOL     OW27643   1.045   2.310   3.894
 8915SOL    HW127644   0.957   2.268   3.914
 8915SOL    HW227645   1.044   2.347   3.801
 8916SOL     OW27646   6.751   3.192   1.113
 8916SOL    HW127647   6.826   3.140   1.073
 8916SOL    HW227648   6.751   3.284   1.075
 8917SOL     OW27649   6.532   3.174   0.522
 8917SOL    HW127650   6.587   3.103   0.478
 8917SOL    HW227651   6.591   3.230   0.581
 8918SOL     OW27652   0.011   3.851   0.934
 8918SOL    HW127653   6.996   3.809   0.853
 8918SOL    HW227654   6.977   3.835   1.013
 8919SOL     OW27655   4.505   4.141   0.691
 8919SOL    HW127656   4.458   4.225   0.667
 8919SOL    HW227657   4.489   4.072   0.620
 8920SOL     OW27658   6.994   1.501   6.639
 8920SOL    HW127659   0.011   1.414   6.615
 8920SOL    HW227660   0.039   1.568   6.661
 8921SOL     OW27661   1.963   2.499   1.791
 8921SOL    HW127662   1.877   2.541   1.761
 8921SOL    HW227663   1.977   2.413   1.743
 8922SOL     OW27664   4.349   4.858   1.263
 8922SOL    HW127665   4.266   4.815   1.228
 8922SOL    HW227666   4.353   4.953   1.233
 8923SOL     OW27667   2.295   1.890   6.748
 8923SOL    HW127668   2.368   1.895   6.680
 8923SOL    HW227669   2.323   1.940   6.830
 8924SOL     OW27670   4.404   6.032   5.373
 8924SOL    HW127671   4.396   5.980   5.288
 8924SOL    HW227672   4.472   6.105   5.361
 8925SOL     OW27673   1.137   0.846   3.067
 8925SOL    HW127674   1.041   0.833   3.041
 8925SOL    HW227675   1.149   0.824   3.164
 8926SOL     OW27676   7.001   2.715   6.021
 8926SOL    HW127677   0.023   2.731   5.934
 8926SOL    HW227678   6.923   2.777   6.028
 8927SOL     OW27679   7.019   0.892   4.628
 8927SOL    HW127680   6.920   0.876   4.622
 8927SOL    HW227681   0.032   0.899   4.536
 8928SOL     OW27682   1.325   6.753   6.104
 8928SOL    HW127683   1.288   6.746   6.011
 8928SOL    HW227684   1.418   6.791   6.099
 8929SOL     OW27685   5.952   1.736   5.078
 8929SOL    HW127686   5.916   1.785   5.158
 8929SOL    HW227687   5.965   1.801   5.003
 8930SOL     OW27688   1.854   2.672   4.792
 8930SOL    HW127689   1.777   2.612   4.771
 8930SOL    HW227690   1.940   2.625   4.773
 8931SOL     OW27691   3.273   3.278   0.837
 8931SOL    HW127692   3.210   3.213   0.878
 8931SOL    HW227693   3.280   3.260   0.739
 8932SOL     OW27694   6.294   1.981   1.623
 8932SOL    HW127695   6.356   2.026   1.687
 8932SOL    HW227696   6.343   1.909   1.573
 8933SOL     OW27697   2.457   2.857   6.584
 8933SOL    HW127698   2.531   2.850   6.651
 8933SOL    HW227699   2.459   2.778   6.524
 8934SOL     OW27700   2.740   5.204   4.240
 8934SOL    HW127701   2.719   5.189   4.144
 8934SOL    HW227702   2.688   5.139   4.296
 8935SOL     OW27703   0.575   4.292   0.559
 8935SOL    HW127704   0.652   4.296   0.497
 8935SOL    HW227705   0.501   4.238   0.518
 8936SOL     OW27706   1.192   3.375   2.282
 8936SOL    HW127707   1.237   3.457   2.246
 8936SOL    HW227708   1.093   3.384   2.270
 8937SOL     OW27709   0.610   0.341   5.867
 8937SOL    HW127710   0.666   0.318   5.787
 8937SOL    HW227711   0.514   0.346   5.840
 8938SOL     OW27712   0.572   6.316   0.616
 8938SOL    HW127713   0.516   6.241   0.650
 8938SOL    HW227714   0.585   6.307   0.517
 8939SOL     OW27715   5.190   4.259   4.181
 8939SOL    HW127716   5.099   4.295   4.203
 8939SOL    HW227717   5.241   4.243   4.265
 8940SOL     OW27718   0.461   0.990   2.117
 8940SOL    HW127719   0.434   1.029   2.029
 8940SOL    HW227720   0.427   0.896   2.124
 8941SOL     OW27721   5.880   2.741   5.540
 8941SOL    HW127722   5.864   2.645   5.562
 8941SOL    HW227723   5.793   2.784   5.515
 8942SOL     OW27724   5.994   5.360   5.622
 8942SOL    HW127725   6.027   5.437   5.678
 8942SOL    HW227726   5.986   5.279   5.680
 8943SOL     OW27727   3.701   5.415   6.710
 8943SOL    HW127728   3.773   5.459   6.657
 8943SOL    HW227729   3.703   5.316   6.694
 8944SOL     OW27730   5.399   5.342   5.877
 8944SOL    HW127731   5.426   5.295   5.961
 8944SOL    HW227732   5.474   5.402   5.847
 8945SOL     OW27733   0.986   0.854   2.775
 8945SOL    HW127734   0.905   0.877   2.829
 8945SOL    HW227735   1.068   0.884   2.824
 8946SOL     OW27736   3.043   1.967   5.166
 8946SOL    HW127737   3.135   1.929   5.153
 8946SOL    HW227738   3.048   2.066   5.164
 8947SOL     OW27739   2.046   2.871   6.510
 8947SOL    HW127740   2.097   2.788   6.486
 8947SOL    HW227741   1.994   2.903   6.431
 8948SOL     OW27742   5.923   5.951   4.848
 8948SOL    HW127743   5.947   6.032   4.903
 8948SOL    HW227744   5.955   5.964   4.754
 8949SOL     OW27745   2.918   6.114   0.641
 8949SOL    HW127746   3.012   6.149   0.633
 8949SOL    HW227747   2.856   6.176   0.593
 8950SOL     OW27748   4.852   4.108   6.514
 8950SOL    HW127749   4.789   4.159   6.456
 8950SOL    HW227750   4.880   4.024   6.468
 8951SOL     OW27751   1.519   1.365   5.210
 8951SOL    HW127752   1.507   1.298   5.283
 8951SOL    HW227753   1.508   1.321   5.121
 8952SOL     OW27754   1.527   6.280   2.531
 8952SOL    HW127755   1.603   6.344   2.546
 8952SOL    HW227756   1.495   6.245   2.619
 8953SOL     OW27757   1.561   4.048   6.819
 8953SOL    HW127758   1.564   3.963   6.872
 8953SOL    HW227759   1.510   4.032   6.734
 8954SOL     OW27760   0.771   6.691   4.343
 8954SOL    HW127761   0.758   6.679   4.441
 8954SOL    HW227762   0.848   6.753   4.327
 8955SOL     OW27763   0.038   5.190   2.626
 8955SOL    HW127764   0.097   5.209   2.547
 8955SOL    HW227765   0.094   5.188   2.709
 8956SOL     OW27766   1.827   1.109   6.514
 8956SOL    HW127767   1.898   1.043   6.490
 8956SOL    HW227768   1.869   1.191   6.553
 8957SOL     OW27769   2.694   4.784   0.956
 8957SOL    HW127770   2.625   4.712   0.962
 8957SOL    HW227771   2.652   4.872   0.977
 8958SOL     OW27772   0.177   1.919   4.594
 8958SOL    HW127773   0.255   1.918   4.657
 8958SOL    HW227774   0.154   1.825   4.569
 8959SOL     OW27775   1.670   4.319   2.323
 8959SOL    HW127776   1.666   4.222   2.346
 8959SOL    HW227777   1.684   4.329   2.224
 8960SOL     OW27778   4.576   4.905   2.497
 8960SOL    HW127779   4.487   4.905   2.542
 8960SOL    HW227780   4.608   4.999   2.486
 8961SOL     OW27781   2.676   0.951   4.095
 8961SOL    HW127782   2.626   0.928   4.179
 8961SOL    HW227783   2.647   0.890   4.022
 8962SOL     OW27784   0.111   5.765   2.584
 8962SOL    HW127785   0.066   5.846   2.544
 8962SOL    HW227786   0.210   5.782   2.590
 8963SOL     OW27787   3.941   6.254   4.314
 8963SOL    HW127788   3.864   6.228   4.373
 8963SOL    HW227789   3.965   6.176   4.255
 8964SOL     OW27790   5.149   3.687   3.093
 8964SOL    HW127791   5.215   3.736   3.151
 8964SOL    HW227792   5.139   3.736   3.006
 8965SOL     OW27793   2.679   4.648   0.451
 8965SOL    HW127794   2.733   4.654   0.367
 8965SOL    HW227795   2.614   4.723   0.456
 8966SOL     OW27796   0.112   4.465   0.495
 8966SOL    HW127797   0.147   4.505   0.410
 8966SOL    HW227798   0.179   4.478   0.569
 8967SOL     OW27799   3.982   0.189   1.277
 8967SOL    HW127800   3.985   0.091   1.296
 8967SOL    HW227801   4.073   0.229   1.287
 8968SOL     OW27802   4.602   5.313   2.692
 8968SOL    HW127803   4.548   5.374   2.750
 8968SOL    HW227804   4.697   5.344   2.691
 8969SOL     OW27805   6.591   1.045   4.570
 8969SOL    HW127806   6.554   1.040   4.478
 8969SOL    HW227807   6.609   1.140   4.594
 8970SOL     OW27808   2.773   2.887   0.236
 8970SOL    HW127809   2.845   2.955   0.230
 8970SOL    HW227810   2.731   2.890   0.326
 8971SOL     OW27811   6.107   5.368   1.235
 8971SOL    HW127812   6.086   5.319   1.151
 8971SOL    HW227813   6.139   5.302   1.304
 8972SOL     OW27814   5.185   4.215   0.033
 8972SOL    HW127815   5.123   4.167   6.997
 8972SOL    HW227816   5.133   4.275   0.094
 8973SOL     OW27817   0.638   2.763   2.471
 8973SOL    HW127818   0.576   2.816   2.529
 8973SOL    HW227819   0.674   2.686   2.523
 8974SOL     OW27820   1.536   4.523   4.985
 8974SOL    HW127821   1.438   4.507   4.968
 8974SOL    HW227822   1.581   4.548   4.900
 8975SOL     OW27823   1.448   6.562   5.822
 8975SOL    HW127824   1.499   6.631   5.770
 8975SOL    HW227825   1.350   6.581   5.817
 8976SOL     OW27826   6.954   5.439   5.636
 8976SOL    HW127827   6.918   5.436   5.730
 8976SOL    HW227828   6.900   5.504   5.582
 8977SOL     OW27829   6.282   2.940   0.012
 8977SOL    HW127830   6.353   3.010   0.006
 8977SOL    HW227831   6.303   2.878   0.088
 8978SOL     OW27832   5.469   6.699   3.724
 8978SOL    HW127833   5.388   6.689   3.666
 8978SOL    HW227834   5.452   6.769   3.793
 8979SOL     OW27835   1.193   3.963   4.486
 8979SOL    HW127836   1.140   4.023   4.425
 8979SOL    HW227837   1.269   4.015   4.524
 8980SOL     OW27838   3.809   2.653   5.576
 8980SOL    HW127839   3.734   2.718   5.571
 8980SOL    HW227840   3.883   2.692   5.631
 8981SOL     OW27841   3.862   0.858   5.998
 8981SOL    HW127842   3.859   0.790   6.072
 8981SOL    HW227843   3.781   0.916   6.004
 8982SOL     OW27844   0.615   2.049   1.794
 8982SOL    HW127845   0.643   2.135   1.836
 8982SOL    HW227846   0.685   1.979   1.809
 8983SOL     OW27847   0.930   5.485   6.605
 8983SOL    HW127848   0.898   5.551   6.537
 8983SOL    HW227849   1.029   5.494   6.616
 8984SOL     OW27850   6.496   0.078   3.563
 8984SOL    HW127851   6.411   0.086   3.615
 8984SOL    HW227852   6.474   0.056   3.468
 8985SOL     OW27853   2.723   1.839   0.765
 8985SOL    HW127854   2.778   1.851   0.848
 8985SOL    HW227855   2.729   1.921   0.709
 8986SOL     OW27856   4.388   5.093   1.832
 8986SOL    HW127857   4.435   5.146   1.903
 8986SOL    HW227858   4.437   5.007   1.817
 8987SOL     OW27859   5.299   6.760   0.947
 8987SOL    HW127860   5.320   6.663   0.939
 8987SOL    HW227861   5.380   6.814   0.923
 8988SOL     OW27862   1.148   3.714   6.326
 8988SOL    HW127863   1.102   3.765   6.253
 8988SOL    HW227864   1.174   3.623   6.292
 8989SOL     OW27865   4.872   4.192   1.855
 8989SOL    HW127866   4.905   4.267   1.913
 8989SOL    HW227867   4.941   4.120   1.851
 8990SOL     OW27868   2.028   5.735   2.950
 8990SOL    HW127869   1.979   5.651   2.929
 8990SOL    HW227870   1.986   5.779   3.029
 8991SOL     OW27871   1.787   1.757   6.539
 8991SOL    HW127872   1.799   1.779   6.442
 8991SOL    HW227873   1.707   1.805   6.575
 8992SOL     OW27874   6.492   2.111   0.204
 8992SOL    HW127875   6.441   2.041   0.153
 8992SOL    HW227876   6.561   2.152   0.144
 8993SOL     OW27877   4.437   2.464   2.259
 8993SOL    HW127878   4.419   2.367   2.247
 8993SOL    HW227879   4.366   2.504   2.318
 8994SOL     OW27880   1.415   5.214   4.646
 8994SOL    HW127881   1.424   5.297   4.701
 8994SOL    HW227882   1.505   5.171   4.635
 8995SOL     OW27883   0.768   2.318   6.917
 8995SOL    HW127884   0.830   2.281   6.986
 8995SOL    HW227885   0.675   2.323   6.955
 8996SOL     OW27886   6.556   4.923   1.340
 8996SOL    HW127887   6.646   4.963   1.322
 8996SOL    HW227888   6.498   4.935   1.259
 8997SOL     OW27889   4.496   1.241   6.092
 8997SOL    HW127890   4.525   1.152   6.126
 8997SOL    HW227891   4.465   1.233   5.997
 8998SOL     OW27892   6.758   3.785   4.923
 8998SOL    HW127893   6.703   3.726   4.982
 8998SOL    HW227894   6.812   3.730   4.860
 8999SOL     OW27895   4.982   6.150   0.114
 8999SOL    HW127896   5.042   6.192   0.182
 8999SOL    HW227897   4.902   6.209   0.100
 9000SOL     OW27898   2.241   3.991   0.812
 9000SOL    HW127899   2.161   3.934   0.834
 9000SOL    HW227900   2.311   3.978   0.882
 9001SOL     OW27901   1.172   5.120   2.689
 9001SOL    HW127902   1.095   5.182   2.705
 9001SOL    HW227903   1.258   5.168   2.705
 9002SOL     OW27904   0.280   5.166   5.188
 9002SOL    HW127905   0.294   5.067   5.192
 9002SOL    HW227906   0.301   5.200   5.097
 9003SOL     OW27907   5.093   2.907   1.078
 9003SOL    HW127908   5.131   2.894   0.987
 9003SOL    HW227909   5.032   2.831   1.101
 9004SOL     OW27910   4.333   6.517   1.239
 9004SOL    HW127911   4.373   6.431   1.271
 9004SOL    HW227912   4.397   6.592   1.255
 9005SOL     OW27913   5.223   2.409   4.459
 9005SOL    HW127914   5.203   2.346   4.533
 9005SOL    HW227915   5.226   2.502   4.494
 9006SOL     OW27916   2.809   6.702   0.760
 9006SOL    HW127917   2.768   6.738   0.843
 9006SOL    HW227918   2.889   6.646   0.783
 9007SOL     OW27919   3.734   1.035   4.265
 9007SOL    HW127920   3.804   0.965   4.280
 9007SOL    HW227921   3.647   0.990   4.244
 9008SOL     OW27922   1.075   5.967   3.187
 9008SOL    HW127923   1.009   5.926   3.124
 9008SOL    HW227924   1.082   5.912   3.270
 9009SOL     OW27925   3.036   0.695   0.483
 9009SOL    HW127926   3.041   0.604   0.523
 9009SOL    HW227927   3.126   0.738   0.484
 9010SOL     OW27928   1.443   6.681   3.868
 9010SOL    HW127929   1.357   6.728   3.848
 9010SOL    HW227930   1.427   6.582   3.869
 9011SOL     OW27931   4.886   2.456   2.016
 9011SOL    HW127932   4.925   2.539   2.056
 9011SOL    HW227933   4.786   2.462   2.018
 9012SOL     OW27934   2.896   4.095   1.376
 9012SOL    HW127935   2.950   4.179   1.367
 9012SOL    HW227936   2.850   4.094   1.465
 9013SOL     OW27937   6.962   6.185   5.453
 9013SOL    HW127938   6.912   6.253   5.508
 9013SOL    HW227939   6.897   6.134   5.398
 9014SOL     OW27940   6.913   2.081   0.286
 9014SOL    HW127941   6.944   2.159   0.341
 9014SOL    HW227942   6.990   2.023   0.262
 9015SOL     OW27943   5.438   1.821   1.132
 9015SOL    HW127944   5.461   1.908   1.175
 9015SOL    HW227945   5.513   1.755   1.146
 9016SOL     OW27946   0.952   6.973   6.420
 9016SOL    HW127947   1.036   6.930   6.387
 9016SOL    HW227948   0.901   6.908   6.476
 9017SOL     OW27949   4.332   2.004   2.468
 9017SOL    HW127950   4.421   2.050   2.461
 9017SOL    HW227951   4.263   2.058   2.421
 9018SOL     OW27952   4.072   1.907   0.036
 9018SOL    HW127953   4.153   1.870   7.016
 9018SOL    HW227954   4.016   1.832   0.070
 9019SOL     OW27955   1.305   0.228   2.184
 9019SOL    HW127956   1.326   0.314   2.138
 9019SOL    HW227957   1.207   0.223   2.203
 9020SOL     OW27958   0.973   4.125   1.575
 9020SOL    HW127959   0.997   4.153   1.668
 9020SOL    HW227960   1.048   4.147   1.512
 9021SOL     OW27961   6.545   0.133   4.283
 9021SOL    HW127962   6.597   0.080   4.350
 9021SOL    HW227963   6.483   0.195   4.331
 9022SOL     OW27964   3.006   2.129   0.230
 9022SOL    HW127965   3.021   2.197   0.302
 9022SOL    HW227966   2.921   2.149   0.182
 9023SOL     OW27967   2.976   3.138   2.584
 9023SOL    HW127968   2.920   3.211   2.623
 9023SOL    HW227969   3.054   3.119   2.643
 9024SOL     OW27970   0.293   4.769   4.971
 9024SOL    HW127971   0.298   4.859   4.926
 9024SOL    HW227972   0.279   4.698   4.902
 9025SOL     OW27973   0.430   5.108   0.180
 9025SOL    HW127974   0.507   5.171   0.186
 9025SOL    HW227975   0.459   5.023   0.137
 9026SOL     OW27976   4.630   3.366   1.440
 9026SOL    HW127977   4.683   3.383   1.523
 9026SOL    HW227978   4.553   3.306   1.462
 9027SOL     OW27979   0.934   2.331   4.282
 9027SOL    HW127980   0.967   2.273   4.207
 9027SOL    HW227981   0.861   2.391   4.247
 9028SOL     OW27982   2.546   3.400   5.741
 9028SOL    HW127983   2.539   3.301   5.730
 9028SOL    HW227984   2.641   3.426   5.755
 9029SOL     OW27985   3.351   5.962   5.105
 9029SOL    HW127986   3.277   6.029   5.107
 9029SOL    HW227987   3.340   5.901   5.027
 9030SOL     OW27988   1.912   1.780   3.296
 9030SOL    HW127989   2.005   1.787   3.330
 9030SOL    HW227990   1.889   1.861   3.243
 9031SOL     OW27991   4.177   5.958   4.865
 9031SOL    HW127992   4.185   5.944   4.766
 9031SOL    HW227993   4.267   5.978   4.903
 9032SOL     OW27994   4.265   3.541   0.423
 9032SOL    HW127995   4.197   3.537   0.497
 9032SOL    HW227996   4.278   3.636   0.395
 9033SOL     OW27997   0.966   3.623   3.665
 9033SOL    HW127998   0.890   3.677   3.700
 9033SOL    HW227999   0.983   3.546   3.726
 9034SOL     OW28000   2.828   0.190   5.899
 9034SOL    HW128001   2.862   0.176   5.992
 9034SOL    HW228002   2.814   0.101   5.855
 9035SOL     OW28003   1.325   4.974   5.921
 9035SOL    HW128004   1.237   5.012   5.892
 9035SOL    HW228005   1.331   4.878   5.893
 9036SOL     OW28006   1.857   1.240   5.600
 9036SOL    HW128007   1.765   1.276   5.613
 9036SOL    HW228008   1.923   1.315   5.600
 9037SOL     OW28009   1.557   3.913   5.161
 9037SOL    HW128010   1.600   3.985   5.216
 9037SOL    HW228011   1.497   3.955   5.094
 9038SOL     OW28012   4.264   6.783   5.818
 9038SOL    HW128013   4.283   6.766   5.721
 9038SOL    HW228014   4.305   6.710   5.873
 9039SOL     OW28015   2.982   5.085   4.942
 9039SOL    HW128016   2.892   5.128   4.940
 9039SOL    HW228017   2.976   4.991   4.908
 9040SOL     OW28018   3.203   1.672   2.978
 9040SOL    HW128019   3.159   1.753   2.937
 9040SOL    HW228020   3.133   1.602   2.995
 9041SOL     OW28021   1.081   2.470   1.448
 9041SOL    HW128022   1.033   2.546   1.405
 9041SOL    HW228023   1.104   2.495   1.543
 9042SOL     OW28024   2.809   0.367   4.123
 9042SOL    HW128025   2.765   0.279   4.136
 9042SOL    HW228026   2.908   0.357   4.135
 9043SOL     OW28027   1.209   1.182   0.148
 9043SOL    HW128028   1.125   1.216   0.191
 9043SOL    HW228029   1.280   1.171   0.218
 9044SOL     OW28030   6.061   1.180   0.798
 9044SOL    HW128031   5.999   1.131   0.859
 9044SOL    HW228032   6.123   1.237   0.852
 9045SOL     OW28033   2.202   1.547   2.878
 9045SOL    HW128034   2.146   1.505   2.949
 9045SOL    HW228035   2.277   1.598   2.920
 9046SOL     OW28036   3.788   3.703   3.444
 9046SOL    HW128037   3.848   3.638   3.491
 9046SOL    HW228038   3.694   3.690   3.476
 9047SOL     OW28039   1.357   3.106   5.649
 9047SOL    HW128040   1.413   3.145   5.577
 9047SOL    HW228041   1.260   3.120   5.628
 9048SOL     OW28042   5.400   2.762   6.293
 9048SOL    HW128043   5.342   2.794   6.368
 9048SOL    HW228044   5.447   2.679   6.321
 9049SOL     OW28045   3.639   6.951   5.996
 9049SOL    HW128046   3.645   6.916   6.089
 9049SOL    HW228047   3.700   6.898   5.936
 9050SOL     OW28048   0.350   3.318   0.201
 9050SOL    HW128049   0.364   3.280   0.109
 9050SOL    HW228050   0.417   3.279   0.264
 9051SOL     OW28051   4.294   6.194   0.687
 9051SOL    HW128052   4.372   6.250   0.716
 9051SOL    HW228053   4.265   6.223   0.596
 9052SOL     OW28054   2.103   2.372   3.776
 9052SOL    HW128055   2.156   2.301   3.730
 9052SOL    HW228056   2.160   2.418   3.843
 9053SOL     OW28057   2.193   1.432   3.169
 9053SOL    HW128058   2.113   1.396   3.218
 9053SOL    HW228059   2.230   1.360   3.110
 9054SOL     OW28060   2.556   5.786   2.809
 9054SOL    HW128061   2.518   5.695   2.791
 9054SOL    HW228062   2.482   5.851   2.823
 9055SOL     OW28063   5.638   2.918   4.066
 9055SOL    HW128064   5.607   2.862   4.143
 9055SOL    HW228065   5.738   2.913   4.059
 9056SOL     OW28066   0.395   1.141   2.367
 9056SOL    HW128067   0.409   1.064   2.304
 9056SOL    HW228068   0.305   1.181   2.352
 9057SOL     OW28069   5.547   5.034   5.644
 9057SOL    HW128070   5.592   5.119   5.615
 9057SOL    HW228071   5.609   4.957   5.629
 9058SOL     OW28072   2.834   1.961   2.789
 9058SOL    HW128073   2.813   1.919   2.701
 9058SOL    HW228074   2.767   2.034   2.808
 9059SOL     OW28075   1.326   2.076   4.507
 9059SOL    HW128076   1.229   2.074   4.530
 9059SOL    HW228077   1.341   2.025   4.422
 9060SOL     OW28078   6.264   2.786   3.555
 9060SOL    HW128079   6.311   2.703   3.585
 9060SOL    HW228080   6.167   2.781   3.580
 9061SOL     OW28081   2.731   5.780   2.022
 9061SOL    HW128082   2.790   5.857   1.998
 9061SOL    HW228083   2.717   5.723   1.941
 9062SOL     OW28084   1.649   6.052   1.897
 9062SOL    HW128085   1.624   6.031   1.992
 9062SOL    HW228086   1.743   6.085   1.894
 9063SOL     OW28087   1.855   0.144   3.216
 9063SOL    HW128088   1.860   0.200   3.133
 9063SOL    HW228089   1.821   0.053   3.193
 9064SOL     OW28090   6.407   2.228   4.983
 9064SOL    HW128091   6.472   2.169   5.031
 9064SOL    HW228092   6.345   2.172   4.928
 9065SOL     OW28093   3.161   7.024   5.737
 9065SOL    HW128094   3.230   6.985   5.797
 9065SOL    HW228095   3.173   0.098   5.732
 9066SOL     OW28096   4.918   6.178   0.518
 9066SOL    HW128097   5.012   6.209   0.505
 9066SOL    HW228098   4.871   6.179   0.429
 9067SOL     OW28099   6.521   0.590   4.195
 9067SOL    HW128100   6.497   0.652   4.270
 9067SOL    HW228101   6.605   0.541   4.217
 9068SOL     OW28102   2.360   6.310   4.754
 9068SOL    HW128103   2.386   6.292   4.659
 9068SOL    HW228104   2.326   6.404   4.762
 9069SOL     OW28105   1.904   3.139   1.846
 9069SOL    HW128106   1.831   3.135   1.778
 9069SOL    HW228107   1.962   3.058   1.838
 9070SOL     OW28108   1.404   4.054   4.963
 9070SOL    HW128109   1.452   4.129   5.007
 9070SOL    HW228110   1.335   4.090   4.899
 9071SOL     OW28111   5.194   0.468   1.691
 9071SOL    HW128112   5.269   0.422   1.644
 9071SOL    HW228113   5.120   0.486   1.626
 9072SOL     OW28114   0.532   1.393   2.088
 9072SOL    HW128115   0.436   1.418   2.080
 9072SOL    HW228116   0.555   1.376   2.184
 9073SOL     OW28117   3.020   6.851   2.485
 9073SOL    HW128118   2.977   6.937   2.513
 9073SOL    HW228119   2.956   6.798   2.429
 9074SOL     OW28120   1.826   1.646   1.794
 9074SOL    HW128121   1.800   1.725   1.849
 9074SOL    HW228122   1.792   1.657   1.701
 9075SOL     OW28123   0.896   1.228   2.418
 9075SOL    HW128124   0.980   1.246   2.367
 9075SOL    HW228125   0.817   1.241   2.358
 9076SOL     OW28126   6.317   2.215   5.675
 9076SOL    HW128127   6.344   2.311   5.671
 9076SOL    HW228128   6.254   2.201   5.751
 9077SOL     OW28129   4.815   0.346   0.236
 9077SOL    HW128130   4.837   0.254   0.268
 9077SOL    HW228131   4.865   0.365   0.152
 9078SOL     OW28132   4.210   3.823   5.964
 9078SOL    HW128133   4.304   3.845   5.940
 9078SOL    HW228134   4.201   3.725   5.980
 9079SOL     OW28135   2.919   0.413   4.440
 9079SOL    HW128136   2.977   0.494   4.447
 9079SOL    HW228137   2.960   0.348   4.375
 9080SOL     OW28138   4.698   2.539   6.904
 9080SOL    HW128139   4.623   2.524   6.968
 9080SOL    HW228140   4.723   2.636   6.904
 9081SOL     OW28141   3.680   6.489   2.353
 9081SOL    HW128142   3.606   6.486   2.421
 9081SOL    HW228143   3.698   6.396   2.320
 9082SOL     OW28144   2.257   0.328   5.776
 9082SOL    HW128145   2.180   0.329   5.840
 9082SOL    HW228146   2.223   0.326   5.682
 9083SOL     OW28147   3.055   6.263   6.332
 9083SOL    HW128148   3.104   6.314   6.262
 9083SOL    HW228149   2.959   6.292   6.335
 9084SOL     OW28150   3.093   3.895   4.395
 9084SOL    HW128151   3.146   3.980   4.400
 9084SOL    HW228152   3.155   3.819   4.375
 9085SOL     OW28153   2.630   6.296   1.488
 9085SOL    HW128154   2.657   6.231   1.559
 9085SOL    HW228155   2.560   6.358   1.524
 9086SOL     OW28156   1.103   4.249   0.442
 9086SOL    HW128157   1.045   4.183   0.490
 9086SOL    HW228158   1.176   4.201   0.394
 9087SOL     OW28159   4.402   2.327   1.633
 9087SOL    HW128160   4.376   2.422   1.650
 9087SOL    HW228161   4.500   2.316   1.651
 9088SOL     OW28162   6.727   6.602   1.036
 9088SOL    HW128163   6.739   6.531   0.967
 9088SOL    HW228164   6.659   6.571   1.103
 9089SOL     OW28165   4.938   5.839   5.251
 9089SOL    HW128166   5.020   5.785   5.270
 9089SOL    HW228167   4.869   5.821   5.322
 9090SOL     OW28168   0.050   1.244   4.135
 9090SOL    HW128169   0.096   1.320   4.183
 9090SOL    HW228170   0.074   1.247   4.038
 9091SOL     OW28171   3.242   4.239   6.896
 9091SOL    HW128172   3.295   4.324   6.896
 9091SOL    HW228173   3.152   4.255   6.935
 9092SOL     OW28174   6.907   0.924   0.271
 9092SOL    HW128175   6.848   0.935   0.351
 9092SOL    HW228176   6.852   0.932   0.188
 9093SOL     OW28177   1.037   6.084   5.960
 9093SOL    HW128178   1.099   6.157   5.930
 9093SOL    HW228179   0.986   6.116   6.040
 9094SOL     OW28180   6.736   5.172   2.937
 9094SOL    HW128181   6.813   5.234   2.951
 9094SOL    HW228182   6.661   5.222   2.894
 9095SOL     OW28183   4.993   4.388   5.888
 9095SOL    HW128184   4.978   4.484   5.864
 9095SOL    HW228185   4.956   4.330   5.815
 9096SOL     OW28186   5.794   5.033   2.589
 9096SOL    HW128187   5.884   5.075   2.592
 9096SOL    HW228188   5.741   5.062   2.669
 9097SOL     OW28189   1.271   1.775   0.846
 9097SOL    HW128190   1.314   1.824   0.770
 9097SOL    HW228191   1.317   1.687   0.859
 9098SOL     OW28192   3.086   2.039   4.635
 9098SOL    HW128193   3.034   2.081   4.709
 9098SOL    HW228194   3.072   1.940   4.635
 9099SOL     OW28195   3.465   3.102   5.883
 9099SOL    HW128196   3.394   3.061   5.825
 9099SOL    HW228197   3.550   3.051   5.872
 9100SOL     OW28198   0.279   3.128   3.499
 9100SOL    HW128199   0.289   3.033   3.530
 9100SOL    HW228200   0.364   3.157   3.455
 9101SOL     OW28201   2.685   2.271   1.898
 9101SOL    HW128202   2.629   2.350   1.926
 9101SOL    HW228203   2.781   2.289   1.921
 9102SOL     OW28204   3.447   6.309   1.771
 9102SOL    HW128205   3.492   6.278   1.855
 9102SOL    HW228206   3.348   6.311   1.785
 9103SOL     OW28207   5.987   2.842   6.617
 9103SOL    HW128208   6.027   2.886   6.698
 9103SOL    HW228209   6.043   2.764   6.590
 9104SOL     OW28210   0.166   5.945   1.968
 9104SOL    HW128211   0.213   5.870   1.920
 9104SOL    HW228212   0.140   6.016   1.902
 9105SOL     OW28213   0.337   1.186   6.366
 9105SOL    HW128214   0.341   1.087   6.351
 9105SOL    HW228215   0.321   1.233   6.279
 9106SOL     OW28216   5.912   4.145   1.459
 9106SOL    HW128217   6.011   4.130   1.457
 9106SOL    HW228218   5.875   4.135   1.366
 9107SOL     OW28219   2.670   0.475   6.773
 9107SOL    HW128220   2.690   0.490   6.677
 9107SOL    HW228221   2.590   0.414   6.782
 9108SOL     OW28222   5.324   4.674   5.037
 9108SOL    HW128223   5.330   4.744   5.109
 9108SOL    HW228224   5.312   4.584   5.079
 9109SOL     OW28225   6.645   3.469   3.146
 9109SOL    HW128226   6.628   3.390   3.088
 9109SOL    HW228227   6.732   3.511   3.120
 9110SOL     OW28228   2.103   4.801   4.325
 9110SOL    HW128229   2.046   4.747   4.387
 9110SOL    HW228230   2.083   4.898   4.336
 9111SOL     OW28231   5.114   2.682   0.261
 9111SOL    HW128232   5.056   2.659   0.182
 9111SOL    HW228233   5.068   2.655   0.345
 9112SOL     OW28234   1.755   5.872   2.800
 9112SOL    HW128235   1.843   5.833   2.770
 9112SOL    HW228236   1.689   5.867   2.726
 9113SOL     OW28237   5.152   2.580   2.600
 9113SOL    HW128238   5.136   2.676   2.575
 9113SOL    HW228239   5.113   2.562   2.691
 9114SOL     OW28240   0.177   5.497   3.419
 9114SOL    HW128241   0.178   5.483   3.320
 9114SOL    HW228242   0.093   5.546   3.444
 9115SOL     OW28243   6.438   5.567   4.995
 9115SOL    HW128244   6.423   5.494   4.928
 9115SOL    HW228245   6.352   5.589   5.040
 9116SOL     OW28246   0.569   0.029   3.063
 9116SOL    HW128247   0.651   0.080   3.091
 9116SOL    HW228248   0.590   6.998   2.984
 9117SOL     OW28249   3.585   2.690   5.911
 9117SOL    HW128250   3.578   2.636   5.827
 9117SOL    HW228251   3.597   2.787   5.887
 9118SOL     OW28252   6.738   3.825   6.824
 9118SOL    HW128253   6.814   3.853   6.882
 9118SOL    HW228254   6.656   3.812   6.881
 9119SOL     OW28255   3.429   0.903   2.144
 9119SOL    HW128256   3.354   0.966   2.163
 9119SOL    HW228257   3.515   0.954   2.142
 9120SOL     OW28258   0.027   2.219   5.961
 9120SOL    HW128259   0.126   2.206   5.955
 9120SOL    HW228260   7.006   2.131   5.954
 9121SOL     OW28261   3.176   6.321   4.913
 9121SOL    HW128262   3.118   6.275   4.981
 9121SOL    HW228263   3.267   6.279   4.913
 9122SOL     OW28264   2.348   4.342   1.995
 9122SOL    HW128265   2.356   4.274   1.921
 9122SOL    HW228266   2.414   4.415   1.980
 9123SOL     OW28267   1.742   0.799   4.439
 9123SOL    HW128268   1.713   0.704   4.434
 9123SOL    HW228269   1.753   0.835   4.347
 9124SOL     OW28270   3.768   5.349   0.325
 9124SOL    HW128271   3.685   5.296   0.343
 9124SOL    HW228272   3.798   5.394   0.409
 9125SOL     OW28273   4.332   4.745   0.959
 9125SOL    HW128274   4.405   4.813   0.954
 9125SOL    HW228275   4.274   4.765   1.039
 9126SOL     OW28276   5.770   4.051   1.702
 9126SOL    HW128277   5.800   4.066   1.607
 9126SOL    HW228278   5.729   3.960   1.709
 9127SOL     OW28279   6.528   1.698   5.978
 9127SOL    HW128280   6.535   1.605   6.014
 9127SOL    HW228281   6.454   1.747   6.025
 9128SOL     OW28282   6.341   2.401   5.340
 9128SOL    HW128283   6.297   2.311   5.342
 9128SOL    HW228284   6.301   2.460   5.410
 9129SOL     OW28285   6.484   2.310   0.421
 9129SOL    HW128286   6.502   2.234   0.358
 9129SOL    HW228287   6.560   2.317   0.486
 9130SOL     OW28288   1.524   4.443   6.527
 9130SOL    HW128289   1.573   4.528   6.507
 9130SOL    HW228290   1.546   4.375   6.457
 9131SOL     OW28291   5.520   3.298   6.226
 9131SOL    HW128292   5.443   3.282   6.288
 9131SOL    HW228293   5.594   3.344   6.275
 9132SOL     OW28294   0.996   5.141   4.206
 9132SOL    HW128295   0.896   5.131   4.198
 9132SOL    HW228296   1.026   5.217   4.149
 9133SOL     OW28297   3.647   6.944   0.972
 9133SOL    HW128298   3.639   6.856   1.019
 9133SOL    HW228299   3.729   6.992   1.005
 9134SOL     OW28300   3.965   5.475   0.954
 9134SOL    HW128301   3.880   5.425   0.936
 9134SOL    HW228302   3.942   5.567   0.988
 9135SOL     OW28303   0.767   0.180   1.688
 9135SOL    HW128304   0.686   0.187   1.630
 9135SOL    HW228305   0.836   0.124   1.643
 9136SOL     OW28306   4.775   6.315   5.953
 9136SOL    HW128307   4.747   6.411   5.955
 9136SOL    HW228308   4.693   6.257   5.955
 9137SOL     OW28309   4.003   0.268   6.806
 9137SOL    HW128310   4.098   0.276   6.838
 9137SOL    HW228311   3.941   0.284   6.883
 9138SOL     OW28312   0.786   4.399   6.692
 9138SOL    HW128313   0.845   4.412   6.612
 9138SOL    HW228314   0.747   4.486   6.721
 9139SOL     OW28315   1.359   1.284   2.315
 9139SOL    HW128316   1.404   1.226   2.383
 9139SOL    HW228317   1.322   1.365   2.360
 9140SOL     OW28318   0.946   3.981   2.039
 9140SOL    HW128319   0.918   3.955   2.131
 9140SOL    HW228320   0.879   3.949   1.973
 9141SOL     OW28321   6.140   6.485   1.348
 9141SOL    HW128322   6.096   6.573   1.327
 9141SOL    HW228323   6.111   6.417   1.281
 9142SOL     OW28324   0.874   4.110   1.114
 9142SOL    HW128325   0.857   4.168   1.193
 9142SOL    HW228326   0.822   4.025   1.122
 9143SOL     OW28327   6.949   3.442   0.818
 9143SOL    HW128328   6.944   3.539   0.796
 9143SOL    HW228329   6.926   3.428   0.914
 9144SOL     OW28330   3.369   5.297   4.767
 9144SOL    HW128331   3.378   5.222   4.833
 9144SOL    HW228332   3.347   5.259   4.677
 9145SOL     OW28333   0.393   6.166   6.487
 9145SOL    HW128334   0.342   6.091   6.529
 9145SOL    HW228335   0.456   6.205   6.554
 9146SOL     OW28336   5.262   3.498   2.799
 9146SOL    HW128337   5.210   3.438   2.860
 9146SOL    HW228338   5.346   3.526   2.844
 9147SOL     OW28339   6.859   0.792   5.422
 9147SOL    HW128340   6.912   0.862   5.470
 9147SOL    HW228341   6.902   0.773   5.333
 9148SOL     OW28342   5.409   6.651   2.507
 9148SOL    HW128343   5.404   6.627   2.604
 9148SOL    HW228344   5.445   6.573   2.456
 9149SOL     OW28345   5.512   3.612   1.911
 9149SOL    HW128346   5.440   3.654   1.967
 9149SOL    HW228347   5.581   3.571   1.971
 9150SOL     OW28348   3.442   4.350   0.349
 9150SOL    HW128349   3.471   4.445   0.360
 9150SOL    HW228350   3.519   4.296   0.313
 9151SOL     OW28351   2.291   4.290   3.555
 9151SOL    HW128352   2.317   4.204   3.599
 9151SOL    HW228353   2.305   4.282   3.456
 9152SOL     OW28354   1.992   3.880   4.635
 9152SOL    HW128355   2.042   3.966   4.626
 9152SOL    HW228356   1.945   3.861   4.549
 9153SOL     OW28357   0.064   2.885   6.825
 9153SOL    HW128358   0.039   2.932   6.741
 9153SOL    HW228359   0.056   2.948   6.902
 9154SOL     OW28360   4.572   4.419   4.235
 9154SOL    HW128361   4.494   4.466   4.193
 9154SOL    HW228362   4.567   4.429   4.334
 9155SOL     OW28363   2.318   4.929   2.497
 9155SOL    HW128364   2.381   5.000   2.529
 9155SOL    HW228365   2.359   4.882   2.419
 9156SOL     OW28366   6.723   1.950   1.599
 9156SOL    HW128367   6.776   2.005   1.664
 9156SOL    HW228368   6.672   2.010   1.538
 9157SOL     OW28369   3.438   4.082   6.788
 9157SOL    HW128370   3.351   4.126   6.811
 9157SOL    HW228371   3.434   4.050   6.693
 9158SOL     OW28372   6.783   3.543   4.053
 9158SOL    HW128373   6.837   3.616   4.094
 9158SOL    HW228374   6.836   3.497   3.982
 9159SOL     OW28375   2.102   0.072   3.989
 9159SOL    HW128376   2.200   0.055   3.982
 9159SOL    HW228377   2.062   0.079   3.898
 9160SOL     OW28378   0.364   6.134   6.138
 9160SOL    HW128379   0.339   6.204   6.070
 9160SOL    HW228380   0.282   6.083   6.164
 9161SOL     OW28381   6.164   4.853   3.225
 9161SOL    HW128382   6.199   4.761   3.240
 9161SOL    HW228383   6.216   4.896   3.151
 9162SOL     OW28384   3.733   0.254   2.844
 9162SOL    HW128385   3.739   0.224   2.939
 9162SOL    HW228386   3.754   0.351   2.837
 9163SOL     OW28387   6.996   3.408   2.833
 9163SOL    HW128388   0.011   3.420   2.924
 9163SOL    HW228389   6.919   3.343   2.840
 9164SOL     OW28390   1.939   0.667   6.607
 9164SOL    HW128391   1.861   0.730   6.612
 9164SOL    HW228392   1.954   0.625   6.697
 9165SOL     OW28393   4.630   1.950   6.089
 9165SOL    HW128394   4.567   1.912   6.157
 9165SOL    HW228395   4.597   1.931   5.997
 9166SOL     OW28396   4.634   5.328   1.207
 9166SOL    HW128397   4.623   5.368   1.116
 9166SOL    HW228398   4.566   5.366   1.270
 9167SOL     OW28399   1.520   2.364   6.040
 9167SOL    HW128400   1.450   2.353   5.970
 9167SOL    HW228401   1.577   2.282   6.044
 9168SOL     OW28402   6.807   6.191   6.416
 9168SOL    HW128403   6.711   6.195   6.445
 9168SOL    HW228404   6.842   6.098   6.430
 9169SOL     OW28405   6.536   6.334   6.203
 9169SOL    HW128406   6.625   6.290   6.186
 9169SOL    HW228407   6.535   6.424   6.159
 9170SOL     OW28408   1.940   0.365   6.351
 9170SOL    HW128409   1.902   0.326   6.267
 9170SOL    HW228410   1.883   0.338   6.429
 9171SOL     OW28411   3.105   5.484   0.542
 9171SOL    HW128412   3.047   5.469   0.622
 9171SOL    HW228413   3.060   5.548   0.480
 9172SOL     OW28414   4.382   1.844   4.330
 9172SOL    HW128415   4.342   1.797   4.408
 9172SOL    HW228416   4.467   1.889   4.358
 9173SOL     OW28417   5.857   3.028   4.514
 9173SOL    HW128418   5.854   2.929   4.525
 9173SOL    HW228419   5.934   3.065   4.566
 9174SOL     OW28420   0.765   5.876   6.982
 9174SOL    HW128421   0.779   5.932   0.039
 9174SOL    HW228422   0.803   5.784   6.998
 9175SOL     OW28423   1.417   0.036   0.045
 9175SOL    HW128424   1.506   0.045   0.090
 9175SOL    HW228425   1.403   6.966   0.018
 9176SOL     OW28426   2.355   0.349   1.560
 9176SOL    HW128427   2.438   0.338   1.615
 9176SOL    HW228428   2.326   0.445   1.561
 9177SOL     OW28429   1.474   2.711   3.730
 9177SOL    HW128430   1.532   2.784   3.767
 9177SOL    HW228431   1.469   2.636   3.796
 9178SOL     OW28432   1.958   5.717   6.073
 9178SOL    HW128433   1.964   5.620   6.049
 9178SOL    HW228434   2.033   5.767   6.029
 9179SOL     OW28435   1.602   5.963   5.150
 9179SOL    HW128436   1.552   6.049   5.145
 9179SOL    HW228437   1.554   5.893   5.097
 9180SOL     OW28438   6.468   2.553   3.486
 9180SOL    HW128439   6.407   2.498   3.544
 9180SOL    HW228440   6.556   2.505   3.476
 9181SOL     OW28441   4.778   2.907   3.956
 9181SOL    HW128442   4.755   2.823   3.906
 9181SOL    HW228443   4.763   2.892   4.054
 9182SOL     OW28444   3.193   0.342   3.576
 9182SOL    HW128445   3.252   0.407   3.625
 9182SOL    HW228446   3.250   0.281   3.521
 9183SOL     OW28447   4.970   4.271   6.685
 9183SOL    HW128448   5.069   4.254   6.688
 9183SOL    HW228449   4.928   4.208   6.619
 9184SOL     OW28450   3.711   1.765   0.734
 9184SOL    HW128451   3.752   1.681   0.699
 9184SOL    HW228452   3.638   1.795   0.673
 9185SOL     OW28453   6.800   6.516   5.413
 9185SOL    HW128454   6.705   6.545   5.414
 9185SOL    HW228455   6.819   6.461   5.494
 9186SOL     OW28456   4.880   0.685   5.175
 9186SOL    HW128457   4.976   0.658   5.178
 9186SOL    HW228458   4.872   0.774   5.130
 9187SOL     OW28459   4.590   2.100   6.675
 9187SOL    HW128460   4.559   2.007   6.694
 9187SOL    HW228461   4.649   2.100   6.594
 9188SOL     OW28462   1.165   0.557   1.788
 9188SOL    HW128463   1.131   0.589   1.876
 9188SOL    HW228464   1.091   0.511   1.739
 9189SOL     OW28465   2.812   7.024   3.572
 9189SOL    HW128466   2.785   6.961   3.644
 9189SOL    HW228467   2.822   6.974   3.486
 9190SOL     OW28468   6.830   3.259   5.473
 9190SOL    HW128469   6.898   3.198   5.513
 9190SOL    HW228470   6.810   3.333   5.537
 9191SOL     OW28471   5.445   0.116   6.095
 9191SOL    HW128472   5.467   0.207   6.062
 9191SOL    HW228473   5.346   0.103   6.097
 9192SOL     OW28474   6.280   3.122   5.880
 9192SOL    HW128475   6.192   3.163   5.855
 9192SOL    HW228476   6.333   3.105   5.797
 9193SOL     OW28477   3.535   3.675   3.918
 9193SOL    HW128478   3.574   3.749   3.974
 9193SOL    HW228479   3.539   3.701   3.822
 9194SOL     OW28480   3.845   5.984   2.132
 9194SOL    HW128481   3.941   5.999   2.155
 9194SOL    HW228482   3.839   5.944   2.040
 9195SOL     OW28483   1.991   2.758   4.005
 9195SOL    HW128484   2.000   2.675   4.060
 9195SOL    HW228485   1.995   2.735   3.908
 9196SOL     OW28486   5.307   0.197   3.539
 9196SOL    HW128487   5.396   0.152   3.541
 9196SOL    HW228488   5.315   0.288   3.581
 9197SOL     OW28489   3.846   5.171   0.137
 9197SOL    HW128490   3.782   5.095   0.140
 9197SOL    HW228491   3.821   5.239   0.206
 9198SOL     OW28492   5.645   4.730   6.277
 9198SOL    HW128493   5.649   4.815   6.330
 9198SOL    HW228494   5.640   4.752   6.180
 9199SOL     OW28495   0.389   2.619   5.991
 9199SOL    HW128496   0.295   2.602   5.964
 9199SOL    HW228497   0.392   2.686   6.065
 9200SOL     OW28498   1.845   5.941   6.764
 9200SOL    HW128499   1.779   5.996   6.815
 9200SOL    HW228500   1.868   5.986   6.678
 9201SOL     OW28501   0.356   3.628   0.880
 9201SOL    HW128502   0.316   3.548   0.835
 9201SOL    HW228503   0.356   3.706   0.818
 9202SOL     OW28504   1.639   5.939   4.217
 9202SOL    HW128505   1.694   5.904   4.141
 9202SOL    HW228506   1.542   5.931   4.194
 9203SOL     OW28507   5.073   2.214   6.488
 9203SOL    HW128508   5.105   2.119   6.491
 9203SOL    HW228509   5.047   2.243   6.580
 9204SOL     OW28510   5.045   3.687   3.502
 9204SOL    HW128511   5.119   3.707   3.438
 9204SOL    HW228512   4.959   3.678   3.452
 9205SOL     OW28513   5.100   4.077   2.558
 9205SOL    HW128514   5.179   4.071   2.497
 9205SOL    HW228515   5.126   4.048   2.650
 9206SOL     OW28516   3.037   0.267   4.228
 9206SOL    HW128517   3.134   0.282   4.214
 9206SOL    HW228518   3.017   0.169   4.222
 9207SOL     OW28519   3.651   6.053   6.097
 9207SOL    HW128520   3.687   6.123   6.159
 9207SOL    HW228521   3.612   6.097   6.017
 9208SOL     OW28522   6.068   4.560   2.218
 9208SOL    HW128523   6.092   4.644   2.265
 9208SOL    HW228524   6.002   4.509   2.272
 9209SOL     OW28525   4.005   0.160   2.270
 9209SOL    HW128526   3.983   0.230   2.338
 9209SOL    HW228527   4.059   0.200   2.196
 9210SOL     OW28528   0.671   0.883   1.463
 9210SOL    HW128529   0.576   0.884   1.431
 9210SOL    HW228530   0.730   0.844   1.392
 9211SOL     OW28531   5.360   3.106   6.062
 9211SOL    HW128532   5.447   3.123   6.109
 9211SOL    HW228533   5.352   3.167   5.984
 9212SOL     OW28534   5.071   4.080   5.173
 9212SOL    HW128535   5.022   4.001   5.134
 9212SOL    HW228536   5.114   4.053   5.259
 9213SOL     OW28537   5.343   5.813   4.321
 9213SOL    HW128538   5.433   5.808   4.279
 9213SOL    HW228539   5.315   5.721   4.351
 9214SOL     OW28540   0.160   2.536   5.426
 9214SOL    HW128541   0.102   2.483   5.364
 9214SOL    HW228542   0.135   2.515   5.520
 9215SOL     OW28543   0.775   4.924   2.718
 9215SOL    HW128544   0.719   4.995   2.675
 9215SOL    HW228545   0.870   4.935   2.690
 9216SOL     OW28546   2.790   6.773   4.619
 9216SOL    HW128547   2.882   6.798   4.592
 9216SOL    HW228548   2.733   6.758   4.538
 9217SOL     OW28549   5.511   1.863   6.922
 9217SOL    HW128550   5.484   1.831   6.831
 9217SOL    HW228551   5.461   1.947   6.944
 9218SOL     OW28552   3.972   1.216   6.992
 9218SOL    HW128553   3.952   1.172   0.055
 9218SOL    HW228554   4.012   1.149   6.930
 9219SOL     OW28555   4.427   3.618   5.785
 9219SOL    HW128556   4.341   3.580   5.820
 9219SOL    HW228557   4.446   3.705   5.832
 9220SOL     OW28558   2.080   5.854   2.709
 9220SOL    HW128559   2.156   5.824   2.653
 9220SOL    HW228560   2.083   5.807   2.797
 9221SOL     OW28561   2.440   0.080   5.225
 9221SOL    HW128562   2.413   0.161   5.174
 9221SOL    HW228563   2.358   0.037   5.264
 9222SOL     OW28564   2.555   4.684   4.867
 9222SOL    HW128565   2.643   4.652   4.902
 9222SOL    HW228566   2.549   4.663   4.769
 9223SOL     OW28567   1.116   2.592   3.972
 9223SOL    HW128568   1.059   2.661   4.016
 9223SOL    HW228569   1.058   2.521   3.932
 9224SOL     OW28570   1.561   3.353   3.464
 9224SOL    HW128571   1.513   3.419   3.407
 9224SOL    HW228572   1.575   3.269   3.414
 9225SOL     OW28573   3.885   5.936   6.006
 9225SOL    HW128574   3.788   5.960   6.005
 9225SOL    HW228575   3.937   6.010   6.050
 9226SOL     OW28576   0.994   0.452   1.119
 9226SOL    HW128577   1.092   0.471   1.132
 9226SOL    HW228578   0.966   0.379   1.182
 9227SOL     OW28579   1.728   6.329   1.255
 9227SOL    HW128580   1.647   6.282   1.219
 9227SOL    HW228581   1.699   6.414   1.300
 9228SOL     OW28582   1.858   2.257   6.772
 9228SOL    HW128583   1.944   2.308   6.762
 9228SOL    HW228584   1.787   2.319   6.806
 9229SOL     OW28585   0.623   5.015   5.927
 9229SOL    HW128586   0.608   5.057   5.837
 9229SOL    HW228587   0.647   5.087   5.993
 9230SOL     OW28588   4.912   3.300   2.674
 9230SOL    HW128589   4.893   3.355   2.592
 9230SOL    HW228590   4.889   3.204   2.656
 9231SOL     OW28591   0.495   4.133   5.226
 9231SOL    HW128592   0.531   4.044   5.198
 9231SOL    HW228593   0.395   4.133   5.214
 9232SOL     OW28594   2.646   5.956   1.085
 9232SOL    HW128595   2.579   6.019   1.124
 9232SOL    HW228596   2.714   5.933   1.155
 9233SOL     OW28597   0.390   6.959   0.669
 9233SOL    HW128598   0.366   0.026   0.698
 9233SOL    HW228599   0.372   6.950   0.571
 9234SOL     OW28600   1.732   5.998   0.751
 9234SOL    HW128601   1.703   5.902   0.746
 9234SOL    HW228602   1.710   6.044   0.666
 9235SOL     OW28603   2.225   2.686   2.869
 9235SOL    HW128604   2.235   2.714   2.965
 9235SOL    HW228605   2.149   2.736   2.828
 9236SOL     OW28606   2.577   3.721   6.453
 9236SOL    HW128607   2.509   3.649   6.467
 9236SOL    HW228608   2.600   3.726   6.355
 9237SOL     OW28609   0.787   5.444   2.872
 9237SOL    HW128610   0.860   5.508   2.850
 9237SOL    HW228611   0.703   5.495   2.892
 9238SOL     OW28612   2.725   2.584   6.015
 9238SOL    HW128613   2.772   2.565   5.929
 9238SOL    HW228614   2.632   2.615   5.996
 9239SOL     OW28615   6.761   4.514   6.830
 9239SOL    HW128616   6.787   4.574   6.754
 9239SOL    HW228617   6.750   4.421   6.797
 9240SOL     OW28618   5.029   2.732   2.006
 9240SOL    HW128619   4.970   2.728   1.926
 9240SOL    HW228620   4.989   2.794   2.074
 9241SOL     OW28621   0.630   5.785   1.001
 9241SOL    HW128622   0.539   5.751   1.023
 9241SOL    HW228623   0.697   5.743   1.062
 9242SOL     OW28624   2.239   3.190   1.843
 9242SOL    HW128625   2.230   3.214   1.746
 9242SOL    HW228626   2.218   3.271   1.899
 9243SOL     OW28627   0.417   0.591   1.891
 9243SOL    HW128628   0.477   0.515   1.916
 9243SOL    HW228629   0.435   0.618   1.796
 9244SOL     OW28630   2.519   6.532   6.319
 9244SOL    HW128631   2.437   6.582   6.291
 9244SOL    HW228632   2.564   6.494   6.238
 9245SOL     OW28633   0.639   4.232   3.610
 9245SOL    HW128634   0.598   4.244   3.519
 9245SOL    HW228635   0.633   4.319   3.660
 9246SOL     OW28636   5.537   0.720   3.734
 9246SOL    HW128637   5.483   0.798   3.702
 9246SOL    HW228638   5.607   0.751   3.797
 9247SOL     OW28639   3.547   5.083   2.894
 9247SOL    HW128640   3.531   5.177   2.924
 9247SOL    HW228641   3.472   5.054   2.834
 9248SOL     OW28642   2.763   2.212   5.048
 9248SOL    HW128643   2.692   2.271   5.086
 9248SOL    HW228644   2.840   2.206   5.113
 9249SOL     OW28645   4.739   5.640   1.546
 9249SOL    HW128646   4.836   5.637   1.568
 9249SOL    HW228647   4.693   5.704   1.609
 9250SOL     OW28648   0.034   2.955   4.002
 9250SOL    HW128649   0.110   2.999   4.050
 9250SOL    HW228650   6.980   3.016   4.004
 9251SOL     OW28651   4.262   1.726   2.153
 9251SOL    HW128652   4.276   1.816   2.111
 9251SOL    HW228653   4.229   1.738   2.247
 9252SOL     OW28654   5.885   0.742   4.720
 9252SOL    HW128655   5.865   0.755   4.623
 9252SOL    HW228656   5.875   0.828   4.769
 9253SOL     OW28657   5.124   5.635   5.308
 9253SOL    HW128658   5.167   5.568   5.248
 9253SOL    HW228659   5.152   5.617   5.403
 9254SOL     OW28660   4.747   4.822   2.279
 9254SOL    HW128661   4.803   4.900   2.249
 9254SOL    HW228662   4.686   4.852   2.352
 9255SOL     OW28663   5.551   3.331   6.829
 9255SOL    HW128664   5.635   3.293   6.789
 9255SOL    HW228665   5.520   3.407   6.772
 9256SOL     OW28666   1.987   0.050   1.898
 9256SOL    HW128667   2.020   0.144   1.907
 9256SOL    HW228668   1.911   0.047   1.833
 9257SOL     OW28669   6.203   5.310   3.516
 9257SOL    HW128670   6.187   5.290   3.419
 9257SOL    HW228671   6.301   5.324   3.532
 9258SOL     OW28672   4.235   3.437   1.503
 9258SOL    HW128673   4.189   3.517   1.543
 9258SOL    HW228674   4.333   3.453   1.499
 9259SOL     OW28675   2.462   1.197   0.473
 9259SOL    HW128676   2.547   1.208   0.421
 9259SOL    HW228677   2.391   1.160   0.413
 9260SOL     OW28678   6.447   2.749   5.797
 9260SOL    HW128679   6.352   2.779   5.809
 9260SOL    HW228680   6.489   2.736   5.887
 9261SOL     OW28681   4.330   1.123   6.780
 9261SOL    HW128682   4.410   1.179   6.797
 9261SOL    HW228683   4.357   1.028   6.765
 9262SOL     OW28684   0.945   5.949   4.847
 9262SOL    HW128685   0.879   5.894   4.899
 9262SOL    HW228686   0.897   5.996   4.773
 9263SOL     OW28687   3.337   5.194   2.205
 9263SOL    HW128688   3.263   5.251   2.240
 9263SOL    HW228689   3.424   5.224   2.244
 9264SOL     OW28690   4.897   3.507   0.015
 9264SOL    HW128691   4.952   3.441   6.991
 9264SOL    HW228692   4.956   3.567   0.069
 9265SOL     OW28693   4.345   2.520   0.157
 9265SOL    HW128694   4.280   2.489   0.226
 9265SOL    HW228695   4.325   2.476   0.069
 9266SOL     OW28696   0.349   6.137   1.342
 9266SOL    HW128697   0.306   6.117   1.254
 9266SOL    HW228698   0.436   6.184   1.327
 9267SOL     OW28699   1.048   2.006   4.579
 9267SOL    HW128700   1.017   1.921   4.535
 9267SOL    HW228701   1.025   2.003   4.677
 9268SOL     OW28702   1.084   6.984   2.674
 9268SOL    HW128703   0.998   6.939   2.654
 9268SOL    HW228704   1.085   7.014   2.769
 9269SOL     OW28705   4.149   6.801   6.222
 9269SOL    HW128706   4.080   6.739   6.258
 9269SOL    HW228707   4.230   6.799   6.280
 9270SOL     OW28708   3.959   6.973   5.324
 9270SOL    HW128709   3.988   0.028   5.271
 9270SOL    HW228710   3.880   6.998   5.381
 9271SOL     OW28711   5.808   0.558   0.035
 9271SOL    HW128712   5.819   0.461   0.057
 9271SOL    HW228713   5.749   0.601   0.102
 9272SOL     OW28714   1.069   6.547   6.547
 9272SOL    HW128715   1.063   6.605   6.629
 9272SOL    HW228716   0.978   6.516   6.522
 9273SOL     OW28717   6.502   6.009   3.387
 9273SOL    HW128718   6.415   6.057   3.377
 9273SOL    HW228719   6.505   5.964   3.476
 9274SOL     OW28720   6.780   2.362   0.173
 9274SOL    HW128721   6.742   2.300   0.103
 9274SOL    HW228722   6.838   2.430   0.129
 9275SOL     OW28723   6.616   0.072   0.470
 9275SOL    HW128724   6.540   0.068   0.536
 9275SOL    HW228725   6.670   0.154   0.486
 9276SOL     OW28726   1.820   4.652   0.036
 9276SOL    HW128727   1.767   4.591   7.004
 9276SOL    HW228728   1.906   4.608   0.061
 9277SOL     OW28729   4.160   5.000   2.100
 9277SOL    HW128730   4.091   4.936   2.067
 9277SOL    HW228731   4.248   4.953   2.106
 9278SOL     OW28732   1.872   0.632   5.651
 9278SOL    HW128733   1.869   0.583   5.564
 9278SOL    HW228734   1.964   0.624   5.691
 9279SOL     OW28735   3.845   6.768   1.958
 9279SOL    HW128736   3.800   6.841   2.010
 9279SOL    HW228737   3.925   6.735   2.008
 9280SOL     OW28738   2.491   1.476   2.466
 9280SOL    HW128739   2.571   1.439   2.514
 9280SOL    HW228740   2.410   1.464   2.523
 9281SOL     OW28741   3.360   4.527   6.680
 9281SOL    HW128742   3.345   4.466   6.602
 9281SOL    HW228743   3.275   4.574   6.703
 9282SOL     OW28744   4.660   0.976   4.011
 9282SOL    HW128745   4.716   0.921   3.950
 9282SOL    HW228746   4.563   0.952   3.998
 9283SOL     OW28747   5.148   0.341   5.300
 9283SOL    HW128748   5.151   0.260   5.241
 9283SOL    HW228749   5.220   0.334   5.369
 9284SOL     OW28750   2.805   3.670   5.344
 9284SOL    HW128751   2.849   3.686   5.255
 9284SOL    HW228752   2.814   3.573   5.368
 9285SOL     OW28753   5.181   3.608   1.200
 9285SOL    HW128754   5.265   3.555   1.191
 9285SOL    HW228755   5.117   3.580   1.129
 9286SOL     OW28756   5.481   5.071   0.500
 9286SOL    HW128757   5.435   5.143   0.551
 9286SOL    HW228758   5.428   5.049   0.418
 9287SOL     OW28759   3.612   4.707   6.000
 9287SOL    HW128760   3.680   4.779   6.014
 9287SOL    HW228761   3.644   4.644   5.929
 9288SOL     OW28762   4.470   1.762   2.432
 9288SOL    HW128763   4.429   1.852   2.417
 9288SOL    HW228764   4.492   1.751   2.529
 9289SOL     OW28765   4.816   0.679   0.778
 9289SOL    HW128766   4.815   0.694   0.679
 9289SOL    HW228767   4.741   0.618   0.804
 9290SOL     OW28768   5.887   1.170   3.910
 9290SOL    HW128769   5.839   1.212   3.833
 9290SOL    HW228770   5.883   1.070   3.901
 9291SOL     OW28771   1.377   5.790   5.984
 9291SOL    HW128772   1.370   5.776   5.886
 9291SOL    HW228773   1.409   5.883   6.003
 9292SOL     OW28774   1.993   1.585   6.670
 9292SOL    HW128775   2.045   1.613   6.751
 9292SOL    HW228776   1.915   1.647   6.658
 9293SOL     OW28777   5.854   3.754   6.431
 9293SOL    HW128778   5.797   3.680   6.466
 9293SOL    HW228779   5.841   3.836   6.487
 9294SOL     OW28780   4.944   1.249   6.504
 9294SOL    HW128781   4.893   1.206   6.429
 9294SOL    HW228782   4.935   1.193   6.587
 9295SOL     OW28783   6.175   0.718   4.978
 9295SOL    HW128784   6.139   0.642   4.923
 9295SOL    HW228785   6.206   0.792   4.918
 9296SOL     OW28786   1.892   4.777   0.439
 9296SOL    HW128787   1.882   4.876   0.433
 9296SOL    HW228788   1.989   4.753   0.431
 9297SOL     OW28789   0.475   7.008   3.484
 9297SOL    HW128790   0.394   0.016   3.436
 9297SOL    HW228791   0.518   0.058   3.533
 9298SOL     OW28792   1.365   6.551   6.290
 9298SOL    HW128793   1.287   6.518   6.343
 9298SOL    HW228794   1.337   6.629   6.235
 9299SOL     OW28795   1.006   1.788   4.363
 9299SOL    HW128796   1.081   1.729   4.337
 9299SOL    HW228797   0.951   1.811   4.283
 9300SOL     OW28798   6.755   5.179   5.218
 9300SOL    HW128799   6.751   5.271   5.179
 9300SOL    HW228800   6.744   5.184   5.317
 9301SOL     OW28801   6.507   4.777   4.918
 9301SOL    HW128802   6.584   4.839   4.933
 9301SOL    HW228803   6.535   4.684   4.944
 9302SOL     OW28804   2.010   3.400   4.866
 9302SOL    HW128805   2.078   3.423   4.797
 9302SOL    HW228806   2.053   3.343   4.937
 9303SOL     OW28807   2.919   3.913   0.534
 9303SOL    HW128808   2.958   3.877   0.449
 9303SOL    HW228809   2.955   4.005   0.550
 9304SOL     OW28810   4.374   5.265   0.663
 9304SOL    HW128811   4.280   5.257   0.696
 9304SOL    HW228812   4.403   5.178   0.623
 9305SOL     OW28813   3.925   0.847   0.466
 9305SOL    HW128814   4.008   0.793   0.480
 9305SOL    HW228815   3.864   0.798   0.403
 9306SOL     OW28816   1.222   4.539   5.503
 9306SOL    HW128817   1.236   4.460   5.563
 9306SOL    HW228818   1.306   4.592   5.498
 9307SOL     OW28819   1.415   3.760   0.392
 9307SOL    HW128820   1.400   3.804   0.481
 9307SOL    HW228821   1.494   3.803   0.347
 9308SOL     OW28822   1.313   3.975   2.177
 9308SOL    HW128823   1.322   3.912   2.100
 9308SOL    HW228824   1.218   3.980   2.206
 9309SOL     OW28825   3.753   6.219   5.718
 9309SOL    HW128826   3.824   6.170   5.668
 9309SOL    HW228827   3.721   6.297   5.664
 9310SOL     OW28828   5.645   6.570   5.762
 9310SOL    HW128829   5.580   6.634   5.802
 9310SOL    HW228830   5.719   6.553   5.827
 9311SOL     OW28831   5.596   4.641   1.541
 9311SOL    HW128832   5.681   4.591   1.526
 9311SOL    HW228833   5.518   4.584   1.516
 9312SOL     OW28834   1.595   2.006   0.868
 9312SOL    HW128835   1.670   1.940   0.862
 9312SOL    HW228836   1.595   2.063   0.786
 9313SOL     OW28837   0.220   0.054   1.555
 9313SOL    HW128838   0.124   0.084   1.561
 9313SOL    HW228839   0.258   0.045   1.647
 9314SOL     OW28840   6.931   3.434   0.326
 9314SOL    HW128841   7.014   3.380   0.340
 9314SOL    HW228842   6.926   3.507   0.394
 9315SOL     OW28843   6.203   0.167   5.579
 9315SOL    HW128844   6.189   0.080   5.626
 9315SOL    HW228845   6.219   0.150   5.482
 9316SOL     OW28846   5.472   0.181   5.284
 9316SOL    HW128847   5.477   0.172   5.383
 9316SOL    HW228848   5.483   0.277   5.258
 9317SOL     OW28849   4.022   5.488   2.876
 9317SOL    HW128850   3.956   5.433   2.825
 9317SOL    HW228851   4.056   5.437   2.955
 9318SOL     OW28852   4.827   0.074   0.289
 9318SOL    HW128853   4.879   0.001   0.332
 9318SOL    HW228854   4.734   0.074   0.324
 9319SOL     OW28855   2.610   2.830   1.284
 9319SOL    HW128856   2.699   2.833   1.328
 9319SOL    HW228857   2.621   2.808   1.187
 9320SOL     OW28858   4.345   0.374   5.051
 9320SOL    HW128859   4.251   0.354   5.024
 9320SOL    HW228860   4.406   0.360   4.973
 9321SOL     OW28861   0.830   0.988   5.751
 9321SOL    HW128862   0.784   0.899   5.751
 9321SOL    HW228863   0.763   1.061   5.763
 9322SOL     OW28864   0.079   4.494   6.807
 9322SOL    HW128865   0.146   4.420   6.804
 9322SOL    HW228866   0.012   4.482   6.734
 9323SOL     OW28867   2.234   1.601   5.352
 9323SOL    HW128868   2.228   1.661   5.271
 9323SOL    HW228869   2.196   1.511   5.330
 9324SOL     OW28870   2.173   3.875   2.553
 9324SOL    HW128871   2.212   3.815   2.624
 9324SOL    HW228872   2.179   3.829   2.464
 9325SOL     OW28873   0.022   6.992   0.606
 9325SOL    HW128874   0.085   0.036   0.572
 9325SOL    HW228875   0.024   6.912   0.545
 9326SOL     OW28876   3.162   4.909   6.700
 9326SOL    HW128877   3.131   4.835   6.640
 9326SOL    HW228878   3.108   4.909   6.784
 9327SOL     OW28879   4.422   6.372   2.500
 9327SOL    HW128880   4.495   6.439   2.494
 9327SOL    HW228881   4.439   6.310   2.576
 9328SOL     OW28882   1.958   0.804   5.051
 9328SOL    HW128883   2.048   0.782   5.012
 9328SOL    HW228884   1.890   0.805   4.978
 9329SOL     OW28885   6.763   5.580   1.071
 9329SOL    HW128886   6.775   5.631   0.986
 9329SOL    HW228887   6.829   5.506   1.075
 9330SOL     OW28888   0.529   0.610   6.070
 9330SOL    HW128889   0.571   0.521   6.085
 9330SOL    HW228890   0.438   0.611   6.111
 9331SOL     OW28891   2.013   1.325   6.212
 9331SOL    HW128892   1.975   1.345   6.302
 9331SOL    HW228893   1.968   1.381   6.143
 9332SOL     OW28894   4.430   5.535   0.560
 9332SOL    HW128895   4.418   5.443   0.596
 9332SOL    HW228896   4.383   5.543   0.472
 9333SOL     OW28897   3.890   5.519   6.566
 9333SOL    HW128898   3.983   5.555   6.575
 9333SOL    HW228899   3.836   5.579   6.508
 9334SOL     OW28900   4.863   6.592   4.158
 9334SOL    HW128901   4.886   6.687   4.178
 9334SOL    HW228902   4.897   6.533   4.231
 9335SOL     OW28903   1.796   1.577   6.981
 9335SOL    HW128904   1.701   1.577   6.948
 9335SOL    HW228905   1.829   1.671   6.989
 9336SOL     OW28906   5.452   0.150   4.257
 9336SOL    HW128907   5.372   0.092   4.240
 9336SOL    HW228908   5.464   0.214   4.180
 9337SOL     OW28909   4.749   1.206   6.305
 9337SOL    HW128910   4.689   1.202   6.385
 9337SOL    HW228911   4.713   1.147   6.233
 9338SOL     OW28912   6.516   6.505   1.211
 9338SOL    HW128913   6.568   6.424   1.238
 9338SOL    HW228914   6.482   6.551   1.293
 9339SOL     OW28915   5.629   6.334   0.291
 9339SOL    HW128916   5.653   6.246   0.249
 9339SOL    HW228917   5.678   6.408   0.244
 9340SOL     OW28918   4.162   4.694   2.583
 9340SOL    HW128919   4.156   4.693   2.683
 9340SOL    HW228920   4.212   4.614   2.551
 9341SOL     OW28921   6.441   4.148   0.803
 9341SOL    HW128922   6.519   4.205   0.778
 9341SOL    HW228923   6.429   4.151   0.902
 9342SOL     OW28924   2.307   1.006   4.646
 9342SOL    HW128925   2.275   0.950   4.570
 9342SOL    HW228926   2.406   0.995   4.656
 9343SOL     OW28927   5.026   3.775   2.106
 9343SOL    HW128928   5.110   3.828   2.091
 9343SOL    HW228929   4.972   3.818   2.178
 9344SOL     OW28930   5.255   5.507   0.027
 9344SOL    HW128931   5.242   5.429   6.991
 9344SOL    HW228932   5.311   5.479   0.105
 9345SOL     OW28933   0.113   4.601   1.877
 9345SOL    HW128934   0.193   4.654   1.849
 9345SOL    HW228935   0.037   4.663   1.896
 9346SOL     OW28936   5.193   6.974   1.969
 9346SOL    HW128937   5.101   7.005   1.994
 9346SOL    HW228938   5.190   6.878   1.943
 9347SOL     OW28939   2.915   5.973   0.278
 9347SOL    HW128940   2.822   5.938   0.292
 9347SOL    HW228941   2.972   5.945   0.355
 9348SOL     OW28942   2.801   5.802   2.411
 9348SOL    HW128943   2.745   5.734   2.362
 9348SOL    HW228944   2.741   5.860   2.466
 9349SOL     OW28945   6.760   5.578   2.752
 9349SOL    HW128946   6.711   5.662   2.728
 9349SOL    HW228947   6.710   5.530   2.824
 9350SOL     OW28948   0.312   2.189   4.042
 9350SOL    HW128949   0.347   2.118   3.980
 9350SOL    HW228950   0.249   2.248   3.992
 9351SOL     OW28951   2.575   0.310   6.304
 9351SOL    HW128952   2.657   0.272   6.260
 9351SOL    HW228953   2.519   0.357   6.236
 9352SOL     OW28954   2.895   3.214   5.783
 9352SOL    HW128955   2.905   3.123   5.744
 9352SOL    HW228956   2.880   3.280   5.710
 9353SOL     OW28957   1.940   4.087   1.225
 9353SOL    HW128958   1.966   4.122   1.315
 9353SOL    HW228959   2.019   4.041   1.183
 9354SOL     OW28960   6.700   1.914   0.241
 9354SOL    HW128961   6.784   1.967   0.255
 9354SOL    HW228962   6.624   1.976   0.224
 9355SOL     OW28963   6.522   1.866   4.424
 9355SOL    HW128964   6.546   1.810   4.345
 9355SOL    HW228965   6.605   1.892   4.473
 9356SOL     OW28966   4.145   5.839   1.369
 9356SOL    HW128967   4.229   5.785   1.363
 9356SOL    HW228968   4.093   5.829   1.285
 9357SOL     OW28969   3.397   3.403   6.538
 9357SOL    HW128970   3.362   3.389   6.630
 9357SOL    HW228971   3.479   3.460   6.542
 9358SOL     OW28972   0.004   3.532   2.094
 9358SOL    HW128973   6.983   3.617   2.116
 9358SOL    HW228974   7.004   3.461   2.160
 9359SOL     OW28975   1.169   3.652   5.791
 9359SOL    HW128976   1.172   3.576   5.726
 9359SOL    HW228977   1.139   3.735   5.744
 9360SOL     OW28978   1.256   6.967   5.903
 9360SOL    HW128979   1.228   6.878   5.866
 9360SOL    HW228980   1.179   7.008   5.952
 9361SOL     OW28981   2.372   6.228   3.504
 9361SOL    HW128982   2.455   6.281   3.525
 9361SOL    HW228983   2.292   6.286   3.515
 9362SOL     OW28984   1.284   1.940   2.119
 9362SOL    HW128985   1.369   1.967   2.073
 9362SOL    HW228986   1.264   2.005   2.193
 9363SOL     OW28987   3.981   5.351   1.820
 9363SOL    HW128988   4.056   5.304   1.772
 9363SOL    HW228989   3.910   5.377   1.755
 9364SOL     OW28990   4.396   3.277   6.042
 9364SOL    HW128991   4.404   3.178   6.031
 9364SOL    HW228992   4.448   3.323   5.970
 9365SOL     OW28993   2.584   2.398   5.180
 9365SOL    HW128994   2.605   2.486   5.222
 9365SOL    HW228995   2.499   2.406   5.127
 9366SOL     OW28996   2.785   0.682   6.900
 9366SOL    HW128997   2.735   0.618   6.841
 9366SOL    HW228998   2.862   0.635   6.943
 9367SOL     OW28999   0.230   6.249   3.080
 9367SOL    HW129000   0.266   6.156   3.094
 9367SOL    HW229001   0.202   6.287   3.169
 9368SOL     OW29002   2.278   1.564   3.828
 9368SOL    HW129003   2.185   1.530   3.841
 9368SOL    HW229004   2.333   1.496   3.781
 9369SOL     OW29005   0.044   0.670   5.215
 9369SOL    HW129006   0.099   0.678   5.131
 9369SOL    HW229007   0.045   0.576   5.247
 9370SOL     OW29008   4.644   0.396   2.581
 9370SOL    HW129009   4.604   0.333   2.648
 9370SOL    HW229010   4.621   0.366   2.489
 9371SOL     OW29011   2.281   5.062   0.834
 9371SOL    HW129012   2.361   5.078   0.775
 9371SOL    HW229013   2.312   5.030   0.924
 9372SOL     OW29014   5.268   6.025   3.074
 9372SOL    HW129015   5.190   5.988   3.125
 9372SOL    HW229016   5.348   6.028   3.134
 9373SOL     OW29017   4.085   2.224   2.694
 9373SOL    HW129018   4.016   2.206   2.624
 9373SOL    HW229019   4.122   2.136   2.727
 9374SOL     OW29020   0.486   2.963   0.349
 9374SOL    HW129021   0.417   2.987   0.417
 9374SOL    HW229022   0.493   3.035   0.281
 9375SOL     OW29023   6.315   1.724   2.976
 9375SOL    HW129024   6.287   1.778   2.897
 9375SOL    HW229025   6.250   1.736   3.050
 9376SOL     OW29026   2.797   4.107   1.123
 9376SOL    HW129027   2.863   4.080   1.053
 9376SOL    HW229028   2.841   4.100   1.213
 9377SOL     OW29029   1.792   5.444   3.645
 9377SOL    HW129030   1.781   5.382   3.568
 9377SOL    HW229031   1.796   5.538   3.611
 9378SOL     OW29032   1.063   0.617   5.183
 9378SOL    HW129033   1.106   0.593   5.270
 9378SOL    HW229034   1.051   0.716   5.178
 9379SOL     OW29035   4.691   5.865   4.912
 9379SOL    HW129036   4.631   5.795   4.873
 9379SOL    HW229037   4.652   5.897   4.999
 9380SOL     OW29038   5.459   4.386   5.002
 9380SOL    HW129039   5.397   4.308   5.005
 9380SOL    HW229040   5.421   4.456   4.942
 9381SOL     OW29041   3.112   3.157   5.963
 9381SOL    HW129042   3.035   3.206   5.921
 9381SOL    HW229043   3.117   3.065   5.925
 9382SOL     OW29044   3.108   1.211   3.372
 9382SOL    HW129045   3.089   1.126   3.321
 9382SOL    HW229046   3.145   1.188   3.462
 9383SOL     OW29047   2.052   6.092   4.607
 9383SOL    HW129048   2.096   6.074   4.695
 9383SOL    HW229049   1.964   6.137   4.622
 9384SOL     OW29050   3.065   6.457   1.264
 9384SOL    HW129051   2.969   6.428   1.268
 9384SOL    HW229052   3.070   6.551   1.233
 9385SOL     OW29053   4.039   0.803   2.797
 9385SOL    HW129054   3.946   0.777   2.771
 9385SOL    HW229055   4.089   0.721   2.826
 9386SOL     OW29056   2.676   6.215   4.752
 9386SOL    HW129057   2.719   6.194   4.664
 9386SOL    HW229058   2.583   6.179   4.753
 9387SOL     OW29059   2.775   1.579   0.179
 9387SOL    HW129060   2.696   1.524   0.150
 9387SOL    HW229061   2.855   1.520   0.189
 9388SOL     OW29062   1.768   5.078   2.730
 9388SOL    HW129063   1.819   5.098   2.647
 9388SOL    HW229064   1.709   4.998   2.715
 9389SOL     OW29065   1.331   6.493   5.048
 9389SOL    HW129066   1.429   6.509   5.053
 9389SOL    HW229067   1.288   6.569   4.998
 9390SOL     OW29068   3.803   5.120   4.809
 9390SOL    HW129069   3.739   5.065   4.756
 9390SOL    HW229070   3.877   5.151   4.749
 9391SOL     OW29071   2.223   1.284   4.770
 9391SOL    HW129072   2.243   1.220   4.696
 9391SOL    HW229073   2.224   1.235   4.857
 9392SOL     OW29074   6.991   0.529   4.787
 9392SOL    HW129075   6.899   0.540   4.826
 9392SOL    HW229076   7.012   0.607   4.729
 9393SOL     OW29077   2.539   6.675   5.426
 9393SOL    HW129078   2.597   6.639   5.499
 9393SOL    HW229079   2.508   6.767   5.450
 9394SOL     OW29080   0.286   1.522   2.156
 9394SOL    HW129081   0.271   1.608   2.106
 9394SOL    HW229082   0.198   1.476   2.168
 9395SOL     OW29083   2.850   1.419   0.489
 9395SOL    HW129084   2.894   1.409   0.400
 9395SOL    HW229085   2.866   1.512   0.524
 9396SOL     OW29086   1.985   5.275   3.741
 9396SOL    HW129087   1.908   5.332   3.712
 9396SOL    HW229088   1.987   5.191   3.686
 9397SOL     OW29089   3.504   0.227   6.851
 9397SOL    HW129090   3.572   0.181   6.792
 9397SOL    HW229091   3.413   0.217   6.811
 9398SOL     OW29092   0.349   0.830   5.098
 9398SOL    HW129093   0.325   0.753   5.040
 9398SOL    HW229094   0.368   0.910   5.041
 9399SOL     OW29095   6.981   1.944   5.983
 9399SOL    HW129096   0.023   1.891   5.932
 9399SOL    HW229097   7.003   1.941   6.081
 9400SOL     OW29098   3.831   1.278   2.344
 9400SOL    HW129099   3.879   1.278   2.432
 9400SOL    HW229100   3.738   1.242   2.356
 9401SOL     OW29101   5.269   0.270   3.277
 9401SOL    HW129102   5.260   0.221   3.364
 9401SOL    HW229103   5.345   0.335   3.283
 9402SOL     OW29104   1.423   4.658   3.896
 9402SOL    HW129105   1.335   4.611   3.894
 9402SOL    HW229106   1.470   4.636   3.982
 9403SOL     OW29107   6.323   1.751   2.654
 9403SOL    HW129108   6.281   1.689   2.587
 9403SOL    HW229109   6.255   1.817   2.685
 9404SOL     OW29110   1.599   3.268   6.420
 9404SOL    HW129111   1.658   3.331   6.368
 9404SOL    HW229112   1.542   3.321   6.482
 9405SOL     OW29113   1.433   5.226   2.630
 9405SOL    HW129114   1.528   5.194   2.625
 9405SOL    HW229115   1.406   5.263   2.542
 9406SOL     OW29116   6.760   2.849   6.033
 9406SOL    HW129117   6.750   2.949   6.030
 9406SOL    HW229118   6.671   2.806   6.022
 9407SOL     OW29119   2.639   5.322   3.100
 9407SOL    HW129120   2.568   5.253   3.086
 9407SOL    HW229121   2.697   5.295   3.177
 9408SOL     OW29122   4.575   1.924   6.387
 9408SOL    HW129123   4.627   2.000   6.426
 9408SOL    HW229124   4.616   1.837   6.415
 9409SOL     OW29125   6.061   4.887   6.193
 9409SOL    HW129126   6.129   4.958   6.179
 9409SOL    HW229127   6.003   4.912   6.271
 9410SOL     OW29128   2.792   0.005   2.129
 9410SOL    HW129129   2.695   7.009   2.117
 9410SOL    HW229130   2.838   0.004   2.040
 9411SOL     OW29131   3.398   3.342   2.205
 9411SOL    HW129132   3.315   3.307   2.249
 9411SOL    HW229133   3.429   3.276   2.136
 9412SOL     OW29134   6.957   2.482   1.445
 9412SOL    HW129135   7.019   2.423   1.496
 9412SOL    HW229136   7.004   2.521   1.366
 9413SOL     OW29137   3.444   5.770   4.049
 9413SOL    HW129138   3.414   5.677   4.028
 9413SOL    HW229139   3.389   5.835   3.995
 9414SOL     OW29140   3.016   0.557   3.568
 9414SOL    HW129141   3.092   0.494   3.554
 9414SOL    HW229142   2.965   0.567   3.482
 9415SOL     OW29143   2.932   6.783   2.214
 9415SOL    HW129144   2.872   6.860   2.192
 9415SOL    HW229145   2.885   6.697   2.192
 9416SOL     OW29146   0.461   2.328   0.961
 9416SOL    HW129147   0.487   2.248   0.907
 9416SOL    HW229148   0.463   2.409   0.902
 9417SOL     OW29149   4.021   6.786   5.934
 9417SOL    HW129150   4.109   6.800   5.888
 9417SOL    HW229151   4.038   6.754   6.027
 9418SOL     OW29152   3.812   6.297   1.168
 9418SOL    HW129153   3.806   6.224   1.236
 9418SOL    HW229154   3.866   6.266   1.090
 9419SOL     OW29155   3.874   5.505   5.855
 9419SOL    HW129156   3.901   5.427   5.798
 9419SOL    HW229157   3.921   5.587   5.823
 9420SOL     OW29158   6.423   3.097   5.596
 9420SOL    HW129159   6.417   3.020   5.532
 9420SOL    HW229160   6.384   3.179   5.554
 9421SOL     OW29161   2.096   0.169   4.477
 9421SOL    HW129162   2.079   0.213   4.389
 9421SOL    HW229163   2.174   0.214   4.522
 9422SOL     OW29164   4.855   5.963   3.070
 9422SOL    HW129165   4.870   6.033   3.001
 9422SOL    HW229166   4.861   5.872   3.028
 9423SOL     OW29167   3.854   0.479   3.974
 9423SOL    HW129168   3.764   0.438   3.989
 9423SOL    HW229169   3.892   0.509   4.061
 9424SOL     OW29170   5.080   0.690   4.733
 9424SOL    HW129171   5.008   0.757   4.712
 9424SOL    HW229172   5.060   0.604   4.687
 9425SOL     OW29173   6.147   3.275   6.717
 9425SOL    HW129174   6.217   3.346   6.720
 9425SOL    HW229175   6.183   3.195   6.670
 9426SOL     OW29176   3.374   2.361   0.181
 9426SOL    HW129177   3.353   2.408   0.094
 9426SOL    HW229178   3.327   2.409   0.255
 9427SOL     OW29179   3.206   5.570   3.519
 9427SOL    HW129180   3.297   5.611   3.529
 9427SOL    HW229181   3.166   5.556   3.609
 9428SOL     OW29182   5.758   0.641   1.181
 9428SOL    HW129183   5.706   0.679   1.105
 9428SOL    HW229184   5.856   0.642   1.159
 9429SOL     OW29185   2.091   3.336   2.171
 9429SOL    HW129186   2.152   3.399   2.122
 9429SOL    HW229187   2.112   3.242   2.145
 9430SOL     OW29188   0.791   4.338   2.601
 9430SOL    HW129189   0.804   4.369   2.507
 9430SOL    HW229190   0.702   4.294   2.610
 9431SOL     OW29191   6.340   4.401   1.991
 9431SOL    HW129192   6.257   4.356   1.958
 9431SOL    HW229193   6.336   4.409   2.091
 9432SOL     OW29194   4.098   0.503   3.166
 9432SOL    HW129195   4.038   0.424   3.157
 9432SOL    HW229196   4.042   0.585   3.184
 9433SOL     OW29197   2.785   5.166   2.773
 9433SOL    HW129198   2.846   5.113   2.832
 9433SOL    HW229199   2.759   5.251   2.819
 9434SOL     OW29200   5.171   4.962   3.252
 9434SOL    HW129201   5.253   5.013   3.226
 9434SOL    HW229202   5.178   4.868   3.219
 9435SOL     OW29203   0.940   2.893   4.660
 9435SOL    HW129204   0.958   2.801   4.626
 9435SOL    HW229205   0.843   2.902   4.682
 9436SOL     OW29206   1.111   2.845   1.877
 9436SOL    HW129207   1.105   2.840   1.976
 9436SOL    HW229208   1.019   2.839   1.838
 9437SOL     OW29209   2.677   6.265   2.959
 9437SOL    HW129210   2.695   6.344   3.017
 9437SOL    HW229211   2.735   6.188   2.988
 9438SOL     OW29212   0.124   0.339   1.718
 9438SOL    HW129213   0.186   0.378   1.786
 9438SOL    HW229214   0.043   0.304   1.764
 9439SOL     OW29215   0.609   3.513   1.609
 9439SOL    HW129216   0.572   3.508   1.516
 9439SOL    HW229217   0.673   3.438   1.624
 9440SOL     OW29218   4.063   5.128   3.421
 9440SOL    HW129219   4.120   5.131   3.339
 9440SOL    HW229220   3.990   5.060   3.407
 9441SOL     OW29221   1.036   3.265   5.049
 9441SOL    HW129222   1.123   3.289   5.006
 9441SOL    HW229223   1.000   3.182   5.006
 9442SOL     OW29224   4.911   3.356   0.273
 9442SOL    HW129225   4.872   3.264   0.271
 9442SOL    HW229226   4.866   3.413   0.203
 9443SOL     OW29227   2.046   5.631   0.961
 9443SOL    HW129228   2.019   5.587   0.876
 9443SOL    HW229229   1.987   5.601   1.036
 9444SOL     OW29230   1.426   3.600   6.572
 9444SOL    HW129231   1.462   3.691   6.591
 9444SOL    HW229232   1.455   3.571   6.481
 9445SOL     OW29233   5.875   3.403   3.490
 9445SOL    HW129234   5.776   3.390   3.478
 9445SOL    HW229235   5.922   3.379   3.405
 9446SOL     OW29236   6.190   6.150   4.311
 9446SOL    HW129237   6.110   6.097   4.338
 9446SOL    HW229238   6.239   6.180   4.392
 9447SOL     OW29239   5.941   3.553   4.613
 9447SOL    HW129240   5.897   3.613   4.546
 9447SOL    HW229241   5.872   3.504   4.665
 9448SOL     OW29242   6.977   6.579   6.743
 9448SOL    HW129243   6.899   6.640   6.754
 9448SOL    HW229244   0.036   6.633   6.744
 9449SOL     OW29245   6.991   6.128   0.235
 9449SOL    HW129246   6.964   6.108   0.330
 9449SOL    HW229247   6.984   6.044   0.181
 9450SOL     OW29248   2.951   5.680   5.443
 9450SOL    HW129249   2.890   5.699   5.519
 9450SOL    HW229250   2.993   5.766   5.412
 9451SOL     OW29251   4.345   6.554   5.994
 9451SOL    HW129252   4.256   6.515   5.969
 9451SOL    HW229253   4.387   6.499   6.067
 9452SOL     OW29254   1.819   3.828   0.021
 9452SOL    HW129255   1.863   3.833   0.111
 9452SOL    HW229256   1.871   3.767   6.987
 9453SOL     OW29257   2.190   4.624   3.159
 9453SOL    HW129258   2.131   4.544   3.164
 9453SOL    HW229259   2.142   4.704   3.196
 9454SOL     OW29260   3.012   3.215   0.018
 9454SOL    HW129261   2.998   3.307   0.056
 9454SOL    HW229262   3.000   3.218   6.944
 9455SOL     OW29263   3.251   1.674   3.295
 9455SOL    HW129264   3.261   1.576   3.309
 9455SOL    HW229265   3.186   1.691   3.222
 9456SOL     OW29266   1.432   3.561   0.950
 9456SOL    HW129267   1.439   3.510   0.864
 9456SOL    HW229268   1.423   3.497   1.026
 9457SOL     OW29269   2.210   3.762   5.164
 9457SOL    HW129270   2.116   3.730   5.150
 9457SOL    HW229271   2.249   3.787   5.075
 9458SOL     OW29272   1.838   2.974   6.674
 9458SOL    HW129273   1.931   2.940   6.684
 9458SOL    HW229274   1.789   2.962   6.761
 9459SOL     OW29275   5.182   4.403   3.326
 9459SOL    HW129276   5.216   4.364   3.240
 9459SOL    HW229277   5.256   4.406   3.393
 9460SOL     OW29278   0.710   2.506   3.693
 9460SOL    HW129279   0.722   2.523   3.791
 9460SOL    HW229280   0.644   2.570   3.655
 9461SOL     OW29281   6.071   1.330   2.395
 9461SOL    HW129282   6.150   1.287   2.439
 9461SOL    HW229283   5.991   1.272   2.405
 9462SOL     OW29284   2.157   3.681   2.836
 9462SOL    HW129285   2.075   3.723   2.796
 9462SOL    HW229286   2.174   3.719   2.926
 9463SOL     OW29287   7.015   1.114   1.807
 9463SOL    HW129288   0.065   1.157   1.856
 9463SOL    HW229289   0.020   1.084   1.717
 9464SOL     OW29290   6.170   0.499   1.275
 9464SOL    HW129291   6.234   0.566   1.239
 9464SOL    HW229292   6.142   0.526   1.367
 9465SOL     OW29293   1.927   5.520   2.815
 9465SOL    HW129294   1.920   5.452   2.888
 9465SOL    HW229295   1.835   5.542   2.781
 9466SOL     OW29296   4.757   4.778   5.626
 9466SOL    HW129297   4.764   4.753   5.723
 9466SOL    HW229298   4.828   4.844   5.603
 9467SOL     OW29299   1.147   2.542   1.712
 9467SOL    HW129300   1.190   2.471   1.768
 9467SOL    HW229301   1.151   2.630   1.760
 9468SOL     OW29302   5.710   2.666   5.919
 9468SOL    HW129303   5.750   2.579   5.950
 9468SOL    HW229304   5.648   2.649   5.843
 9469SOL     OW29305   6.413   5.968   1.883
 9469SOL    HW129306   6.378   5.887   1.837
 9469SOL    HW229307   6.474   6.018   1.822
 9470SOL     OW29308   4.355   4.027   5.363
 9470SOL    HW129309   4.406   4.063   5.442
 9470SOL    HW229310   4.263   4.001   5.392
 9471SOL     OW29311   6.668   2.024   4.637
 9471SOL    HW129312   6.638   1.934   4.668
 9471SOL    HW229313   6.590   2.088   4.637
 9472SOL     OW29314   5.688   3.629   4.893
 9472SOL    HW129315   5.659   3.546   4.847
 9472SOL    HW229316   5.715   3.697   4.825
 9473SOL     OW29317   2.771   5.687   5.854
 9473SOL    HW129318   2.701   5.634   5.902
 9473SOL    HW229319   2.860   5.642   5.865
 9474SOL     OW29320   0.105   3.260   0.292
 9474SOL    HW129321   0.196   3.270   0.252
 9474SOL    HW229322   0.060   3.179   0.253
 9475SOL     OW29323   3.668   3.518   6.497
 9475SOL    HW129324   3.717   3.448   6.548
 9475SOL    HW229325   3.707   3.525   6.405
 9476SOL     OW29326   2.898   3.940   4.960
 9476SOL    HW129327   2.812   3.975   4.925
 9476SOL    HW229328   2.908   3.963   5.057
 9477SOL     OW29329   0.281   3.662   1.677
 9477SOL    HW129330   0.338   3.737   1.711
 9477SOL    HW229331   0.323   3.623   1.595
 9478SOL     OW29332   5.327   3.229   6.412
 9478SOL    HW129333   5.243   3.188   6.375
 9478SOL    HW229334   5.372   3.162   6.471
 9479SOL     OW29335   4.377   5.996   6.816
 9479SOL    HW129336   4.329   5.908   6.818
 9479SOL    HW229337   4.466   5.983   6.773
 9480SOL     OW29338   4.464   3.836   0.950
 9480SOL    HW129339   4.561   3.813   0.946
 9480SOL    HW229340   4.431   3.825   1.044
 9481SOL     OW29341   5.211   3.685   2.619
 9481SOL    HW129342   5.285   3.751   2.607
 9481SOL    HW229343   5.242   3.609   2.676
 9482SOL     OW29344   6.503   0.601   3.072
 9482SOL    HW129345   6.549   0.515   3.095
 9482SOL    HW229346   6.553   0.678   3.113
 9483SOL     OW29347   0.907   1.587   1.940
 9483SOL    HW129348   0.911   1.578   1.840
 9483SOL    HW229349   0.997   1.563   1.978
 9484SOL     OW29350   3.034   1.197   3.816
 9484SOL    HW129351   3.030   1.288   3.774
 9484SOL    HW229352   3.109   1.145   3.774
 9485SOL     OW29353   0.374   0.352   1.601
 9485SOL    HW129354   0.421   0.268   1.627
 9485SOL    HW229355   0.275   0.338   1.609
 9486SOL     OW29356   3.168   6.268   0.967
 9486SOL    HW129357   3.176   6.210   1.049
 9486SOL    HW229358   3.137   6.359   0.994
 9487SOL     OW29359   3.485   3.191   3.417
 9487SOL    HW129360   3.451   3.097   3.410
 9487SOL    HW229361   3.583   3.192   3.397
 9488SOL     OW29362   1.347   6.395   0.655
 9488SOL    HW129363   1.291   6.477   0.648
 9488SOL    HW229364   1.397   6.381   0.569
 9489SOL     OW29365   4.434   4.251   1.568
 9489SOL    HW129366   4.497   4.184   1.527
 9489SOL    HW229367   4.445   4.251   1.667
 9490SOL     OW29368   0.152   5.586   1.037
 9490SOL    HW129369   0.135   5.542   1.125
 9490SOL    HW229370   0.103   5.536   0.965
 9491SOL     OW29371   6.480   4.613   3.894
 9491SOL    HW129372   6.510   4.687   3.954
 9491SOL    HW229373   6.381   4.618   3.881
 9492SOL     OW29374   3.365   2.891   2.975
 9492SOL    HW129375   3.372   2.869   3.072
 9492SOL    HW229376   3.296   2.962   2.961
 9493SOL     OW29377   3.655   5.025   3.838
 9493SOL    HW129378   3.645   4.989   3.930
 9493SOL    HW229379   3.727   4.975   3.790
 9494SOL     OW29380   4.789   4.840   1.811
 9494SOL    HW129381   4.706   4.852   1.757
 9494SOL    HW229382   4.789   4.748   1.852
 9495SOL     OW29383   6.635   1.733   3.406
 9495SOL    HW129384   6.673   1.753   3.316
 9495SOL    HW229385   6.696   1.768   3.476
 9496SOL     OW29386   6.135   4.931   1.358
 9496SOL    HW129387   6.166   4.870   1.431
 9496SOL    HW229388   6.035   4.936   1.359
 9497SOL     OW29389   5.758   6.181   6.703
 9497SOL    HW129390   5.840   6.157   6.755
 9497SOL    HW229391   5.719   6.099   6.661
 9498SOL     OW29392   5.035   6.663   4.791
 9498SOL    HW129393   5.127   6.662   4.829
 9498SOL    HW229394   5.021   6.748   4.740
 9499SOL     OW29395   1.663   5.276   6.303
 9499SOL    HW129396   1.591   5.340   6.330
 9499SOL    HW229397   1.656   5.257   6.205
 9500SOL     OW29398   5.555   0.724   0.666
 9500SOL    HW129399   5.486   0.709   0.738
 9500SOL    HW229400   5.602   0.810   0.685
 9501SOL     OW29401   2.805   1.524   5.162
 9501SOL    HW129402   2.710   1.523   5.134
 9501SOL    HW229403   2.862   1.486   5.090
 9502SOL     OW29404   6.748   2.380   5.223
 9502SOL    HW129405   6.692   2.445   5.174
 9502SOL    HW229406   6.702   2.353   5.308
 9503SOL     OW29407   0.253   1.552   1.441
 9503SOL    HW129408   0.178   1.617   1.442
 9503SOL    HW229409   0.340   1.601   1.447
 9504SOL     OW29410   6.713   2.387   1.244
 9504SOL    HW129411   6.729   2.442   1.326
 9504SOL    HW229412   6.636   2.424   1.193
 9505SOL     OW29413   5.244   4.924   3.524
 9505SOL    HW129414   5.343   4.931   3.532
 9505SOL    HW229415   5.219   4.912   3.428
 9506SOL     OW29416   0.920   2.486   6.298
 9506SOL    HW129417   0.957   2.402   6.259
 9506SOL    HW229418   0.897   2.470   6.395
 9507SOL     OW29419   1.059   2.331   3.195
 9507SOL    HW129420   1.055   2.265   3.120
 9507SOL    HW229421   1.150   2.373   3.197
 9508SOL     OW29422   6.733   3.484   1.063
 9508SOL    HW129423   6.777   3.541   1.133
 9508SOL    HW229424   6.634   3.492   1.071
 9509SOL     OW29425   0.597   0.714   4.985
 9509SOL    HW129426   0.598   0.812   5.003
 9509SOL    HW229427   0.598   0.664   5.072
 9510SOL     OW29428   1.537   3.483   2.234
 9510SOL    HW129429   1.547   3.486   2.333
 9510SOL    HW229430   1.591   3.556   2.193
 9511SOL     OW29431   0.259   1.128   0.313
 9511SOL    HW129432   0.224   1.219   0.338
 9511SOL    HW229433   0.214   1.059   0.370
 9512SOL     OW29434   5.359   1.971   1.491
 9512SOL    HW129435   5.329   2.063   1.467
 9512SOL    HW229436   5.285   1.924   1.539
 9513SOL     OW29437   2.013   3.167   6.258
 9513SOL    HW129438   2.021   3.082   6.205
 9513SOL    HW229439   1.971   3.148   6.346
 9514SOL     OW29440   1.938   4.888   6.428
 9514SOL    HW129441   1.862   4.952   6.441
 9514SOL    HW229442   1.910   4.796   6.455
 9515SOL     OW29443   1.523   6.337   1.631
 9515SOL    HW129444   1.473   6.396   1.693
 9515SOL    HW229445   1.495   6.355   1.537
 9516SOL     OW29446   5.421   4.149   5.351
 9516SOL    HW129447   5.503   4.195   5.316
 9516SOL    HW229448   5.447   4.065   5.398
 9517SOL     OW29449   0.932   4.610   0.876
 9517SOL    HW129450   0.963   4.543   0.808
 9517SOL    HW229451   0.975   4.590   0.964
 9518SOL     OW29452   1.511   1.640   7.005
 9518SOL    HW129453   1.493   1.668   6.911
 9518SOL    HW229454   1.424   1.635   0.029
 9519SOL     OW29455   3.714   4.085   4.240
 9519SOL    HW129456   3.645   4.112   4.172
 9519SOL    HW229457   3.674   4.087   4.331
 9520SOL     OW29458   0.850   1.245   3.275
 9520SOL    HW129459   0.912   1.297   3.216
 9520SOL    HW229460   0.797   1.308   3.332
 9521SOL     OW29461   5.142   4.958   1.312
 9521SOL    HW129462   5.060   4.903   1.327
 9521SOL    HW229463   5.122   5.030   1.246
 9522SOL     OW29464   4.008   4.929   1.372
 9522SOL    HW129465   4.037   4.860   1.306
 9522SOL    HW229466   3.925   4.974   1.340
 9523SOL     OW29467   2.691   5.108   4.743
 9523SOL    HW129468   2.618   5.121   4.811
 9523SOL    HW229469   2.684   5.016   4.704
 9524SOL     OW29470   3.123   3.355   0.602
 9524SOL    HW129471   3.137   3.453   0.592
 9524SOL    HW229472   3.177   3.307   0.533
 9525SOL     OW29473   2.355   2.107   6.132
 9525SOL    HW129474   2.398   2.158   6.057
 9525SOL    HW229475   2.381   2.010   6.124
 9526SOL     OW29476   6.540   4.614   1.267
 9526SOL    HW129477   6.585   4.681   1.326
 9526SOL    HW229478   6.535   4.649   1.173
 9527SOL     OW29479   0.519   1.576   4.449
 9527SOL    HW129480   0.606   1.529   4.438
 9527SOL    HW229481   0.470   1.539   4.528
 9528SOL     OW29482   6.617   1.554   1.118
 9528SOL    HW129483   6.692   1.615   1.144
 9528SOL    HW229484   6.533   1.607   1.111
 9529SOL     OW29485   6.384   3.385   6.320
 9529SOL    HW129486   6.398   3.467   6.265
 9529SOL    HW229487   6.288   3.376   6.343
 9530SOL     OW29488   1.699   2.923   3.200
 9530SOL    HW129489   1.743   2.884   3.119
 9530SOL    HW229490   1.666   2.849   3.259
 9531SOL     OW29491   5.177   4.648   2.343
 9531SOL    HW129492   5.121   4.609   2.416
 9531SOL    HW229493   5.220   4.574   2.291
 9532SOL     OW29494   0.329   5.850   1.436
 9532SOL    HW129495   0.391   5.895   1.500
 9532SOL    HW229496   0.253   5.911   1.415
 9533SOL     OW29497   0.374   5.775   5.307
 9533SOL    HW129498   0.338   5.695   5.355
 9533SOL    HW229499   0.445   5.818   5.362
 9534SOL     OW29500   6.834   4.274   5.105
 9534SOL    HW129501   6.835   4.192   5.049
 9534SOL    HW229502   6.748   4.280   5.156
 9535SOL     OW29503   2.105   0.631   5.840
 9535SOL    HW129504   2.191   0.594   5.805
 9535SOL    HW229505   2.117   0.659   5.935
 9536SOL     OW29506   2.928   4.267   5.804
 9536SOL    HW129507   2.839   4.237   5.770
 9536SOL    HW229508   2.988   4.287   5.726
 9537SOL     OW29509   2.577   0.114   4.445
 9537SOL    HW129510   2.599   0.103   4.542
 9537SOL    HW229511   2.478   0.105   4.432
 9538SOL     OW29512   5.465   1.268   3.418
 9538SOL    HW129513   5.393   1.264   3.488
 9538SOL    HW229514   5.430   1.230   3.332
 9539SOL     OW29515   3.442   3.418   4.962
 9539SOL    HW129516   3.421   3.438   4.866
 9539SOL    HW229517   3.528   3.367   4.967
 9540SOL     OW29518   6.114   4.417   4.255
 9540SOL    HW129519   6.065   4.456   4.178
 9540SOL    HW229520   6.190   4.362   4.221
 9541SOL     OW29521   3.187   0.510   5.914
 9541SOL    HW129522   3.132   0.590   5.936
 9541SOL    HW229523   3.271   0.539   5.867
 9542SOL     OW29524   4.895   4.048   4.757
 9542SOL    HW129525   4.868   4.086   4.669
 9542SOL    HW229526   4.963   3.976   4.743
 9543SOL     OW29527   3.347   6.882   5.906
 9543SOL    HW129528   3.305   6.840   5.987
 9543SOL    HW229529   3.437   6.919   5.931
 9544SOL     OW29530   0.082   2.260   2.973
 9544SOL    HW129531   0.174   2.262   3.014
 9544SOL    HW229532   0.017   2.224   3.040
 9545SOL     OW29533   5.521   5.785   4.921
 9545SOL    HW129534   5.550   5.866   4.971
 9545SOL    HW229535   5.423   5.770   4.935
 9546SOL     OW29536   4.062   1.763   5.122
 9546SOL    HW129537   4.139   1.796   5.176
 9546SOL    HW229538   3.977   1.786   5.169
 9547SOL     OW29539   2.831   6.021   4.012
 9547SOL    HW129540   2.733   6.011   4.029
 9547SOL    HW229541   2.848   6.023   3.913
 9548SOL     OW29542   6.056   5.307   6.326
 9548SOL    HW129543   6.073   5.280   6.231
 9548SOL    HW229544   6.115   5.384   6.350
 9549SOL     OW29545   2.640   3.096   0.965
 9549SOL    HW129546   2.555   3.120   0.918
 9549SOL    HW229547   2.672   3.007   0.934
 9550SOL     OW29548   0.135   0.892   0.429
 9550SOL    HW129549   0.068   0.856   0.364
 9550SOL    HW229550   0.217   0.835   0.428
 9551SOL     OW29551   5.959   1.960   4.894
 9551SOL    HW129552   5.976   1.925   4.802
 9551SOL    HW229553   5.861   1.965   4.910
 9552SOL     OW29554   1.446   6.922   4.269
 9552SOL    HW129555   1.378   6.853   4.292
 9552SOL    HW229556   1.537   6.889   4.295
 9553SOL     OW29557   6.250   3.061   6.596
 9553SOL    HW129558   6.340   3.101   6.577
 9553SOL    HW229559   6.225   2.999   6.522
 9554SOL     OW29560   2.145   6.834   1.850
 9554SOL    HW129561   2.082   6.757   1.847
 9554SOL    HW229562   2.094   6.919   1.857
 9555SOL     OW29563   1.135   0.527   3.015
 9555SOL    HW129564   1.124   0.444   2.960
 9555SOL    HW229565   1.194   0.592   2.968
 9556SOL     OW29566   1.740   3.400   1.615
 9556SOL    HW129567   1.733   3.300   1.616
 9556SOL    HW229568   1.792   3.430   1.695
 9557SOL     OW29569   0.341   5.947   2.403
 9557SOL    HW129570   0.365   5.975   2.496
 9557SOL    HW229571   0.424   5.922   2.354
 9558SOL     OW29572   6.219   5.971   5.025
 9558SOL    HW129573   6.208   5.994   4.929
 9558SOL    HW229574   6.132   5.982   5.073
 9559SOL     OW29575   0.556   4.408   1.079
 9559SOL    HW129576   0.593   4.340   1.015
 9559SOL    HW229577   0.463   4.432   1.052
 9560SOL     OW29578   1.462   1.484   3.359
 9560SOL    HW129579   1.471   1.388   3.333
 9560SOL    HW229580   1.534   1.537   3.314
 9561SOL     OW29581   1.529   0.550   0.379
 9561SOL    HW129582   1.527   0.541   0.280
 9561SOL    HW229583   1.492   0.467   0.421
 9562SOL     OW29584   2.739   0.209   5.257
 9562SOL    HW129585   2.760   0.173   5.167
 9562SOL    HW229586   2.682   0.291   5.248
 9563SOL     OW29587   6.198   5.934   0.788
 9563SOL    HW129588   6.223   5.897   0.699
 9563SOL    HW229589   6.237   5.878   0.861
 9564SOL     OW29590   2.862   0.119   0.789
 9564SOL    HW129591   2.835   0.070   0.706
 9564SOL    HW229592   2.883   0.052   0.861
 9565SOL     OW29593   3.566   0.095   4.652
 9565SOL    HW129594   3.663   0.098   4.626
 9565SOL    HW229595   3.521   0.179   4.622
 9566SOL     OW29596   2.009   5.313   0.127
 9566SOL    HW129597   1.990   5.352   0.037
 9566SOL    HW229598   2.071   5.235   0.116
 9567SOL     OW29599   5.294   4.890   0.859
 9567SOL    HW129600   5.381   4.894   0.810
 9567SOL    HW229601   5.228   4.837   0.805
 9568SOL     OW29602   4.329   2.197   6.773
 9568SOL    HW129603   4.238   2.186   6.735
 9568SOL    HW229604   4.395   2.147   6.717
 9569SOL     OW29605   0.074   1.376   2.645
 9569SOL    HW129606   7.010   1.416   2.667
 9569SOL    HW229607   0.061   1.282   2.614
 9570SOL     OW29608   0.981   3.066   2.072
 9570SOL    HW129609   0.961   3.042   2.167
 9570SOL    HW229610   1.078   3.093   2.065
 9571SOL     OW29611   4.082   4.368   6.018
 9571SOL    HW129612   4.023   4.367   5.937
 9571SOL    HW229613   4.038   4.317   6.092
 9572SOL     OW29614   2.457   4.936   1.350
 9572SOL    HW129615   2.430   5.030   1.332
 9572SOL    HW229616   2.554   4.933   1.374
 9573SOL     OW29617   0.309   1.853   6.497
 9573SOL    HW129618   0.364   1.823   6.420
 9573SOL    HW229619   0.296   1.952   6.493
 9574SOL     OW29620   4.038   3.169   3.626
 9574SOL    HW129621   4.070   3.169   3.721
 9574SOL    HW229622   4.018   3.263   3.598
 9575SOL     OW29623   0.284   1.362   1.214
 9575SOL    HW129624   0.229   1.353   1.131
 9575SOL    HW229625   0.242   1.429   1.275
 9576SOL     OW29626   2.109   0.365   1.967
 9576SOL    HW129627   2.127   0.451   1.920
 9576SOL    HW229628   2.190   0.339   2.020
 9577SOL     OW29629   1.585   0.805   5.997
 9577SOL    HW129630   1.656   0.764   6.055
 9577SOL    HW229631   1.497   0.797   6.042
 9578SOL     OW29632   0.809   4.033   3.613
 9578SOL    HW129633   0.792   3.961   3.681
 9578SOL    HW229634   0.746   4.109   3.628
 9579SOL     OW29635   1.249   4.777   2.884
 9579SOL    HW129636   1.345   4.802   2.889
 9579SOL    HW229637   1.233   4.692   2.933
 9580SOL     OW29638   4.593   2.987   0.680
 9580SOL    HW129639   4.527   2.930   0.632
 9580SOL    HW229640   4.679   2.989   0.630
 9581SOL     OW29641   0.371   5.500   6.443
 9581SOL    HW129642   0.367   5.400   6.442
 9581SOL    HW229643   0.446   5.531   6.384
 9582SOL     OW29644   4.565   5.262   6.221
 9582SOL    HW129645   4.636   5.332   6.227
 9582SOL    HW229646   4.475   5.303   6.238
 9583SOL     OW29647   3.781   4.639   0.979
 9583SOL    HW129648   3.871   4.625   0.936
 9583SOL    HW229649   3.793   4.679   1.069
 9584SOL     OW29650   6.978   5.917   0.087
 9584SOL    HW129651   6.904   5.899   0.022
 9584SOL    HW229652   0.040   5.893   0.046
 9585SOL     OW29653   6.451   0.395   4.562
 9585SOL    HW129654   6.411   0.485   4.579
 9585SOL    HW229655   6.543   0.391   4.602
 9586SOL     OW29656   5.902   4.547   2.786
 9586SOL    HW129657   5.973   4.517   2.849
 9586SOL    HW229658   5.841   4.470   2.765
 9587SOL     OW29659   6.760   1.141   1.876
 9587SOL    HW129660   6.718   1.210   1.817
 9587SOL    HW229661   6.857   1.132   1.853
 9588SOL     OW29662   6.912   1.528   1.721
 9588SOL    HW129663   6.969   1.446   1.732
 9588SOL    HW229664   6.838   1.508   1.657
 9589SOL     OW29665   2.179   5.240   5.946
 9589SOL    HW129666   2.094   5.256   5.998
 9589SOL    HW229667   2.207   5.145   5.959
 9590SOL     OW29668   6.710   3.383   1.640
 9590SOL    HW129669   6.661   3.366   1.725
 9590SOL    HW229670   6.700   3.305   1.579
 9591SOL     OW29671   3.578   6.345   6.351
 9591SOL    HW129672   3.525   6.263   6.373
 9591SOL    HW229673   3.668   6.318   6.317
 9592SOL     OW29674   3.773   4.129   0.936
 9592SOL    HW129675   3.770   4.087   0.845
 9592SOL    HW229676   3.841   4.082   0.991
 9593SOL     OW29677   0.227   1.252   4.772
 9593SOL    HW129678   0.295   1.189   4.811
 9593SOL    HW229679   0.136   1.215   4.786
 9594SOL     OW29680   1.454   6.527   3.381
 9594SOL    HW129681   1.484   6.495   3.471
 9594SOL    HW229682   1.458   6.451   3.316
 9595SOL     OW29683   1.555   4.256   5.118
 9595SOL    HW129684   1.639   4.233   5.166
 9595SOL    HW229685   1.574   4.326   5.049
 9596SOL     OW29686   0.120   5.497   0.149
 9596SOL    HW129687   0.171   5.448   0.079
 9596SOL    HW229688   0.171   5.577   0.178
 9597SOL     OW29689   0.719   4.596   1.189
 9597SOL    HW129690   0.775   4.580   1.270
 9597SOL    HW229691   0.681   4.509   1.157
 9598SOL     OW29692   1.360   3.449   4.295
 9598SOL    HW129693   1.446   3.451   4.243
 9598SOL    HW229694   1.334   3.541   4.321
 9599SOL     OW29695   3.935   6.840   5.084
 9599SOL    HW129696   3.979   6.753   5.061
 9599SOL    HW229697   3.950   6.860   5.181
 9600SOL     OW29698   2.202   0.116   6.903
 9600SOL    HW129699   2.214   0.108   6.804
 9600SOL    HW229700   2.231   0.207   6.932
 9601SOL     OW29701   6.118   3.975   1.338
 9601SOL    HW129702   6.213   3.945   1.342
 9601SOL    HW229703   6.096   4.005   1.245
 9602SOL     OW29704   6.842   5.159   6.432
 9602SOL    HW129705   6.759   5.105   6.416
 9602SOL    HW229706   6.819   5.241   6.486
 9603SOL     OW29707   3.731   1.800   4.687
 9603SOL    HW129708   3.644   1.756   4.706
 9603SOL    HW229709   3.785   1.742   4.626
 9604SOL     OW29710   3.998   0.298   0.192
 9604SOL    HW129711   3.958   0.341   0.273
 9604SOL    HW229712   3.926   0.279   0.125
 9605SOL     OW29713   0.098   4.984   3.961
 9605SOL    HW129714   0.099   4.886   3.981
 9605SOL    HW229715   0.034   5.030   4.022
 9606SOL     OW29716   2.292   6.353   6.178
 9606SOL    HW129717   2.225   6.412   6.134
 9606SOL    HW229718   2.267   6.339   6.274
 9607SOL     OW29719   1.510   1.544   0.621
 9607SOL    HW129720   1.493   1.446   0.617
 9607SOL    HW229721   1.489   1.578   0.713
 9608SOL     OW29722   6.907   6.436   2.366
 9608SOL    HW129723   6.864   6.526   2.375
 9608SOL    HW229724   7.005   6.448   2.349
 9609SOL     OW29725   2.136   3.824   6.246
 9609SOL    HW129726   2.168   3.791   6.156
 9609SOL    HW229727   2.150   3.752   6.314
 9610SOL     OW29728   1.869   4.981   3.984
 9610SOL    HW129729   1.828   4.964   3.895
 9610SOL    HW229730   1.857   5.077   4.008
 9611SOL     OW29731   0.321   6.845   6.419
 9611SOL    HW129732   0.245   6.833   6.356
 9611SOL    HW229733   0.407   6.852   6.368
 9612SOL     OW29734   0.705   3.936   1.945
 9612SOL    HW129735   0.658   3.931   2.033
 9612SOL    HW229736   0.642   3.908   1.873
 9613SOL     OW29737   4.403   6.084   3.704
 9613SOL    HW129738   4.332   6.057   3.639
 9613SOL    HW229739   4.469   6.143   3.659
 9614SOL     OW29740   4.118   2.392   0.590
 9614SOL    HW129741   4.182   2.320   0.617
 9614SOL    HW229742   4.154   2.481   0.621
 9615SOL     OW29743   0.554   6.704   1.197
 9615SOL    HW129744   0.472   6.730   1.250
 9615SOL    HW229745   0.540   6.726   1.101
 9616SOL     OW29746   4.805   3.801   1.119
 9616SOL    HW129747   4.787   3.783   1.022
 9616SOL    HW229748   4.718   3.820   1.165
 9617SOL     OW29749   1.512   3.358   3.976
 9617SOL    HW129750   1.548   3.413   4.052
 9617SOL    HW229751   1.564   3.378   3.893
 9618SOL     OW29752   3.762   6.962   5.541
 9618SOL    HW129753   3.757   6.964   5.641
 9618SOL    HW229754   3.691   6.901   5.506
 9619SOL     OW29755   0.565   6.744   0.186
 9619SOL    HW129756   0.603   6.685   0.258
 9619SOL    HW229757   0.637   6.768   0.121
 9620SOL     OW29758   4.835   2.727   0.099
 9620SOL    HW129759   4.765   2.679   0.152
 9620SOL    HW229760   4.882   2.793   0.158
 9621SOL     OW29761   1.228   1.027   2.591
 9621SOL    HW129762   1.144   0.985   2.558
 9621SOL    HW229763   1.262   0.976   2.671
 9622SOL     OW29764   6.020   0.715   7.014
 9622SOL    HW129765   5.944   0.649   7.017
 9622SOL    HW229766   6.105   0.669   0.013
 9623SOL     OW29767   4.026   4.857   5.410
 9623SOL    HW129768   4.102   4.918   5.387
 9623SOL    HW229769   4.048   4.764   5.379
 9624SOL     OW29770   5.935   4.489   3.766
 9624SOL    HW129771   5.898   4.425   3.834
 9624SOL    HW229772   6.034   4.478   3.761
 9625SOL     OW29773   4.973   5.604   6.755
 9625SOL    HW129774   5.051   5.544   6.774
 9625SOL    HW229775   4.926   5.625   6.841
 9626SOL     OW29776   2.257   6.631   0.398
 9626SOL    HW129777   2.354   6.651   0.392
 9626SOL    HW229778   2.234   6.557   0.334
 9627SOL     OW29779   6.873   3.915   3.186
 9627SOL    HW129780   6.805   3.938   3.256
 9627SOL    HW229781   6.913   3.825   3.208
 9628SOL     OW29782   6.497   4.807   0.107
 9628SOL    HW129783   6.546   4.874   0.052
 9628SOL    HW229784   6.534   4.716   0.090
 9629SOL     OW29785   0.147   6.991   3.118
 9629SOL    HW129786   0.089   7.025   3.193
 9629SOL    HW229787   0.233   6.958   3.156
 9630SOL     OW29788   5.945   6.209   4.969
 9630SOL    HW129789   6.001   6.189   5.049
 9630SOL    HW229790   5.900   6.297   4.980
 9631SOL     OW29791   5.656   1.181   6.709
 9631SOL    HW129792   5.714   1.215   6.783
 9631SOL    HW229793   5.669   1.082   6.699
 9632SOL     OW29794   2.430   5.128   2.217
 9632SOL    HW129795   2.517   5.165   2.185
 9632SOL    HW229796   2.442   5.035   2.250
 9633SOL     OW29797   5.298   5.178   0.135
 9633SOL    HW129798   5.352   5.256   0.167
 9633SOL    HW229799   5.209   5.211   0.103
 9634SOL     OW29800   0.891   6.331   4.331
 9634SOL    HW129801   0.797   6.318   4.297
 9634SOL    HW229802   0.887   6.371   4.423
 9635SOL     OW29803   2.498   4.419   5.246
 9635SOL    HW129804   2.462   4.370   5.166
 9635SOL    HW229805   2.423   4.441   5.308
 9636SOL     OW29806   4.315   1.606   5.945
 9636SOL    HW129807   4.278   1.695   5.974
 9636SOL    HW229808   4.345   1.555   6.025
 9637SOL     OW29809   2.575   2.171   0.263
 9637SOL    HW129810   2.613   2.263   0.271
 9637SOL    HW229811   2.634   2.115   0.206
 9638SOL     OW29812   0.016   4.107   6.525
 9638SOL    HW129813   0.031   4.129   6.621
 9638SOL    HW229814   0.101   4.071   6.486
 9639SOL     OW29815   4.815   1.754   2.082
 9639SOL    HW129816   4.781   1.711   1.999
 9639SOL    HW229817   4.784   1.702   2.162
 9640SOL     OW29818   2.943   1.347   2.847
 9640SOL    HW129819   2.918   1.372   2.754
 9640SOL    HW229820   2.906   1.258   2.870
 9641SOL     OW29821   5.315   5.897   1.231
 9641SOL    HW129822   5.382   5.859   1.295
 9641SOL    HW229823   5.231   5.920   1.281
 9642SOL     OW29824   2.121   5.702   4.732
 9642SOL    HW129825   2.032   5.747   4.744
 9642SOL    HW229826   2.107   5.609   4.698
 9643SOL     OW29827   5.926   4.941   3.886
 9643SOL    HW129828   5.937   4.991   3.800
 9643SOL    HW229829   6.002   4.876   3.897
 9644SOL     OW29830   6.961   4.823   4.604
 9644SOL    HW129831   6.997   4.879   4.529
 9644SOL    HW229832   6.957   4.877   4.688
 9645SOL     OW29833   3.040   4.913   3.569
 9645SOL    HW129834   3.103   4.884   3.498
 9645SOL    HW229835   3.090   4.932   3.653
 9646SOL     OW29836   2.558   4.611   2.061
 9646SOL    HW129837   2.637   4.577   2.011
 9646SOL    HW229838   2.588   4.652   2.148
 9647SOL     OW29839   0.936   5.224   1.866
 9647SOL    HW129840   0.993   5.303   1.891
 9647SOL    HW229841   0.928   5.219   1.766
 9648SOL     OW29842   3.556   2.389   0.465
 9648SOL    HW129843   3.497   2.434   0.532
 9648SOL    HW229844   3.558   2.445   0.381
 9649SOL     OW29845   2.251   4.714   6.774
 9649SOL    HW129846   2.343   4.717   6.814
 9649SOL    HW229847   2.201   4.797   6.799
 9650SOL     OW29848   4.619   4.463   2.934
 9650SOL    HW129849   4.659   4.372   2.919
 9650SOL    HW229850   4.612   4.511   2.847
 9651SOL     OW29851   6.215   0.977   0.679
 9651SOL    HW129852   6.175   0.889   0.704
 9651SOL    HW229853   6.148   1.050   0.695
 9652SOL     OW29854   2.483   4.407   0.960
 9652SOL    HW129855   2.427   4.433   0.881
 9652SOL    HW229856   2.492   4.308   0.963
 9653SOL     OW29857   4.252   5.214   5.304
 9653SOL    HW129858   4.154   5.200   5.289
 9653SOL    HW229859   4.304   5.145   5.254
 9654SOL     OW29860   3.840   3.217   2.201
 9654SOL    HW129861   3.894   3.282   2.255
 9654SOL    HW229862   3.810   3.260   2.116
 9655SOL     OW29863   6.819   1.660   0.123
 9655SOL    HW129864   6.735   1.648   0.176
 9655SOL    HW229865   6.894   1.683   0.185
 9656SOL     OW29866   4.574   1.910   0.762
 9656SOL    HW129867   4.597   2.004   0.788
 9656SOL    HW229868   4.656   1.863   0.730
 9657SOL     OW29869   6.312   2.445   3.674
 9657SOL    HW129870   6.351   2.428   3.764
 9657SOL    HW229871   6.221   2.404   3.669
 9658SOL     OW29872   5.580   2.212   2.446
 9658SOL    HW129873   5.502   2.238   2.389
 9658SOL    HW229874   5.548   2.152   2.520
 9659SOL     OW29875   6.724   2.659   0.371
 9659SOL    HW129876   6.659   2.620   0.436
 9659SOL    HW229877   6.817   2.641   0.402
 9660SOL     OW29878   0.383   6.642   2.178
 9660SOL    HW129879   0.319   6.718   2.171
 9660SOL    HW229880   0.396   6.618   2.274
 9661SOL     OW29881   3.798   6.303   1.632
 9661SOL    HW129882   3.766   6.222   1.681
 9661SOL    HW229883   3.719   6.360   1.609
 9662SOL     OW29884   4.401   2.809   5.317
 9662SOL    HW129885   4.309   2.769   5.323
 9662SOL    HW229886   4.422   2.830   5.221
 9663SOL     OW29887   6.306   6.721   3.338
 9663SOL    HW129888   6.223   6.747   3.289
 9663SOL    HW229889   6.300   6.626   3.366
 9664SOL     OW29890   5.179   6.276   4.394
 9664SOL    HW129891   5.267   6.238   4.423
 9664SOL    HW229892   5.193   6.347   4.326
 9665SOL     OW29893   5.625   6.393   6.835
 9665SOL    HW129894   5.683   6.314   6.813
 9665SOL    HW229895   5.666   6.476   6.798
 9666SOL     OW29896   6.934   4.005   2.262
 9666SOL    HW129897   6.896   3.927   2.310
 9666SOL    HW229898   6.874   4.029   2.185
 9667SOL     OW29899   3.972   3.464   5.827
 9667SOL    HW129900   3.903   3.516   5.876
 9667SOL    HW229901   3.972   3.369   5.858
 9668SOL     OW29902   0.081   0.681   6.286
 9668SOL    HW129903   0.084   0.747   6.361
 9668SOL    HW229904   7.017   0.637   6.283
 9669SOL     OW29905   1.745   0.363   2.426
 9669SOL    HW129906   1.742   0.288   2.493
 9669SOL    HW229907   1.766   0.326   2.336
 9670SOL     OW29908   6.374   4.454   6.683
 9670SOL    HW129909   6.431   4.512   6.741
 9670SOL    HW229910   6.364   4.364   6.725
 9671SOL     OW29911   6.256   4.519   0.176
 9671SOL    HW129912   6.201   4.546   0.097
 9671SOL    HW229913   6.323   4.450   0.149
 9672SOL     OW29914   1.483   5.441   3.434
 9672SOL    HW129915   1.555   5.511   3.433
 9672SOL    HW229916   1.425   5.454   3.514
 9673SOL     OW29917   5.248   3.694   0.788
 9673SOL    HW129918   5.341   3.722   0.812
 9673SOL    HW229919   5.253   3.616   0.724
 9674SOL     OW29920   2.241   6.813   2.797
 9674SOL    HW129921   2.192   6.897   2.822
 9674SOL    HW229922   2.195   6.770   2.720
 9675SOL     OW29923   5.888   2.836   0.748
 9675SOL    HW129924   5.821   2.897   0.791
 9675SOL    HW229925   5.847   2.745   0.737
 9676SOL     OW29926   1.898   3.926   5.329
 9676SOL    HW129927   1.821   3.862   5.328
 9676SOL    HW229928   1.949   3.916   5.414
 9677SOL     OW29929   0.404   5.614   5.079
 9677SOL    HW129930   0.409   5.682   5.153
 9677SOL    HW229931   0.470   5.541   5.097
 9678SOL     OW29932   3.397   4.177   3.223
 9678SOL    HW129933   3.453   4.257   3.247
 9678SOL    HW229934   3.387   4.172   3.124
 9679SOL     OW29935   2.849   1.167   3.010
 9679SOL    HW129936   2.837   1.258   3.051
 9679SOL    HW229937   2.759   1.125   2.997
 9680SOL     OW29938   4.629   1.007   3.131
 9680SOL    HW129939   4.585   1.052   3.209
 9680SOL    HW229940   4.568   0.936   3.096
 9681SOL     OW29941   3.355   1.473   0.389
 9681SOL    HW129942   3.328   1.380   0.411
 9681SOL    HW229943   3.454   1.482   0.396
 9682SOL     OW29944   5.010   4.608   3.552
 9682SOL    HW129945   5.095   4.629   3.599
 9682SOL    HW229946   4.944   4.570   3.617
 9683SOL     OW29947   2.843   5.227   0.406
 9683SOL    HW129948   2.894   5.142   0.418
 9683SOL    HW229949   2.796   5.250   0.491
 9684SOL     OW29950   0.484   3.224   5.847
 9684SOL    HW129951   0.499   3.321   5.864
 9684SOL    HW229952   0.433   3.184   5.924
 9685SOL     OW29953   3.300   4.999   0.860
 9685SOL    HW129954   3.366   5.068   0.830
 9685SOL    HW229955   3.272   5.018   0.954
 9686SOL     OW29956   6.803   1.875   6.949
 9686SOL    HW129957   6.789   1.971   6.923
 9686SOL    HW229958   6.757   1.856   0.010
 9687SOL     OW29959   1.828   0.874   4.177
 9687SOL    HW129960   1.888   0.948   4.208
 9687SOL    HW229961   1.884   0.802   4.135
 9688SOL     OW29962   0.631   3.172   2.707
 9688SOL    HW129963   0.689   3.112   2.652
 9688SOL    HW229964   0.670   3.181   2.799
 9689SOL     OW29965   1.130   4.914   6.422
 9689SOL    HW129966   1.186   4.840   6.457
 9689SOL    HW229967   1.072   4.880   6.347
 9690SOL     OW29968   5.534   5.119   7.008
 9690SOL    HW129969   5.449   5.128   0.034
 9690SOL    HW229970   5.517   5.139   6.911
 9691SOL     OW29971   2.803   5.365   0.647
 9691SOL    HW129972   2.737   5.350   0.721
 9691SOL    HW229973   2.892   5.327   0.673
 9692SOL     OW29974   3.808   5.357   2.729
 9692SOL    HW129975   3.820   5.284   2.661
 9692SOL    HW229976   3.714   5.357   2.762
 9693SOL     OW29977   6.157   4.947   2.067
 9693SOL    HW129978   6.155   5.043   2.038
 9693SOL    HW229979   6.067   4.907   2.055
 9694SOL     OW29980   2.732   0.653   0.553
 9694SOL    HW129981   2.767   0.692   0.638
 9694SOL    HW229982   2.657   0.710   0.519
 9695SOL     OW29983   0.076   3.242   2.604
 9695SOL    HW129984   0.053   3.325   2.655
 9695SOL    HW229985   0.137   3.265   2.529
 9696SOL     OW29986   5.480   3.682   1.027
 9696SOL    HW129987   5.519   3.737   1.101
 9696SOL    HW229988   5.459   3.590   1.061
 9697SOL     OW29989   0.307   5.371   6.983
 9697SOL    HW129990   0.323   5.285   0.005
 9697SOL    HW229991   0.280   5.352   6.888
 9698SOL     OW29992   4.621   1.361   5.722
 9698SOL    HW129993   4.683   1.386   5.797
 9698SOL    HW229994   4.673   1.358   5.636
 9699SOL     OW29995   6.804   4.983   6.810
 9699SOL    HW129996   6.882   5.045   6.824
 9699SOL    HW229997   6.829   4.913   6.743
 9700SOL     OW29998   4.707   5.495   4.974
 9700SOL    HW129999   4.740   5.542   4.893
 9700SOL    HW230000   4.650   5.417   4.946
 9701SOL     OW30001   4.566   4.972   5.623
 9701SOL    HW130002   4.620   4.888   5.613
 9701SOL    HW230003   4.577   5.029   5.541
 9702SOL     OW30004   4.568   0.558   6.803
 9702SOL    HW130005   4.647   0.555   6.741
 9702SOL    HW230006   4.484   0.562   6.749
 9703SOL     OW30007   4.690   4.233   3.226
 9703SOL    HW130008   4.761   4.303   3.229
 9703SOL    HW230009   4.732   4.142   3.237
 9704SOL     OW30010   3.437   1.138   2.878
 9704SOL    HW130011   3.518   1.118   2.934
 9704SOL    HW230012   3.378   1.203   2.926
 9705SOL     OW30013   5.924   4.907   5.940
 9705SOL    HW130014   5.979   4.883   6.020
 9705SOL    HW230015   5.944   4.844   5.865
 9706SOL     OW30016   1.287   3.514   0.435
 9706SOL    HW130017   1.312   3.610   0.418
 9706SOL    HW230018   1.256   3.473   0.350
 9707SOL     OW30019   6.869   4.993   2.623
 9707SOL    HW130020   6.782   5.010   2.576
 9707SOL    HW230021   6.929   5.072   2.612
 9708SOL     OW30022   1.123   1.960   2.768
 9708SOL    HW130023   1.093   1.984   2.676
 9708SOL    HW230024   1.103   2.035   2.831
 9709SOL     OW30025   6.018   6.257   3.584
 9709SOL    HW130026   6.108   6.215   3.599
 9709SOL    HW230027   6.029   6.356   3.575
 9710SOL     OW30028   6.734   0.884   1.675
 9710SOL    HW130029   6.699   0.943   1.748
 9710SOL    HW230030   6.801   0.820   1.712
 9711SOL     OW30031   2.553   5.533   5.955
 9711SOL    HW130032   2.484   5.544   5.883
 9711SOL    HW230033   2.561   5.437   5.979
 9712SOL     OW30034   5.885   3.815   6.881
 9712SOL    HW130035   5.930   3.730   6.851
 9712SOL    HW230036   5.950   3.869   6.935
 9713SOL     OW30037   1.042   4.529   3.532
 9713SOL    HW130038   0.987   4.536   3.448
 9713SOL    HW230039   1.096   4.445   3.530
 9714SOL     OW30040   3.606   6.769   6.754
 9714SOL    HW130041   3.611   6.794   6.851
 9714SOL    HW230042   3.511   6.773   6.723
 9715SOL     OW30043   5.520   3.714   6.155
 9715SOL    HW130044   5.449   3.648   6.128
 9715SOL    HW230045   5.529   3.783   6.084
 9716SOL     OW30046   4.188   3.941   0.028
 9716SOL    HW130047   4.101   3.987   0.046
 9716SOL    HW230048   4.173   3.863   6.993
 9717SOL     OW30049   5.517   6.723   6.447
 9717SOL    HW130050   5.507   6.816   6.413
 9717SOL    HW230051   5.529   6.725   6.546
 9718SOL     OW30052   4.837   2.456   0.659
 9718SOL    HW130053   4.901   2.533   0.655
 9718SOL    HW230054   4.748   2.484   0.625
 9719SOL     OW30055   6.373   1.698   5.632
 9719SOL    HW130056   6.439   1.652   5.572
 9719SOL    HW230057   6.298   1.635   5.653
 9720SOL     OW30058   0.225   5.316   2.491
 9720SOL    HW130059   0.209   5.401   2.441
 9720SOL    HW230060   0.234   5.335   2.588
 9721SOL     OW30061   6.933   1.716   0.951
 9721SOL    HW130062   7.023   1.684   0.921
 9721SOL    HW230063   6.945   1.778   1.029
 9722SOL     OW30064   6.163   0.865   4.506
 9722SOL    HW130065   6.239   0.876   4.442
 9722SOL    HW230066   6.192   0.897   4.596
 9723SOL     OW30067   2.068   6.714   2.590
 9723SOL    HW130068   2.091   6.628   2.546
 9723SOL    HW230069   2.052   6.784   2.520
 9724SOL     OW30070   1.473   4.553   0.286
 9724SOL    HW130071   1.522   4.638   0.304
 9724SOL    HW230072   1.405   4.538   0.358
 9725SOL     OW30073   3.769   4.896   6.069
 9725SOL    HW130074   3.795   4.987   6.037
 9725SOL    HW230075   3.821   4.874   6.152
 9726SOL     OW30076   5.065   1.234   4.279
 9726SOL    HW130077   5.108   1.151   4.315
 9726SOL    HW230078   5.120   1.314   4.305
 9727SOL     OW30079   1.257   3.832   5.956
 9727SOL    HW130080   1.357   3.829   5.955
 9727SOL    HW230081   1.221   3.757   5.901
 9728SOL     OW30082   0.223   0.672   5.552
 9728SOL    HW130083   0.320   0.661   5.575
 9728SOL    HW230084   0.209   0.649   5.456
 9729SOL     OW30085   0.923   3.795   4.039
 9729SOL    HW130086   0.842   3.793   4.098
 9729SOL    HW230087   0.952   3.889   4.025
 9730SOL     OW30088   0.995   3.435   3.844
 9730SOL    HW130089   1.092   3.431   3.869
 9730SOL    HW230090   0.970   3.353   3.793
 9731SOL     OW30091   4.790   4.454   1.158
 9731SOL    HW130092   4.829   4.521   1.222
 9731SOL    HW230093   4.821   4.362   1.184
 9732SOL     OW30094   6.640   5.948   3.130
 9732SOL    HW130095   6.576   5.904   3.194
 9732SOL    HW230096   6.659   5.885   3.054
 9733SOL     OW30097   5.781   5.073   0.796
 9733SOL    HW130098   5.843   5.132   0.744
 9733SOL    HW230099   5.824   5.049   0.883
 9734SOL     OW30100   6.479   1.712   1.863
 9734SOL    HW130101   6.434   1.748   1.945
 9734SOL    HW230102   6.578   1.708   1.878
 9735SOL     OW30103   2.489   4.473   3.884
 9735SOL    HW130104   2.527   4.492   3.794
 9735SOL    HW230105   2.525   4.540   3.950
 9736SOL     OW30106   6.594   1.336   6.297
 9736SOL    HW130107   6.526   1.404   6.324
 9736SOL    HW230108   6.672   1.382   6.254
 9737SOL     OW30109   5.329   2.610   3.566
 9737SOL    HW130110   5.311   2.567   3.477
 9737SOL    HW230111   5.246   2.611   3.620
 9738SOL     OW30112   1.295   0.094   1.034
 9738SOL    HW130113   1.286   0.169   0.969
 9738SOL    HW230114   1.213   0.089   1.091
 9739SOL     OW30115   5.879   4.864   2.046
 9739SOL    HW130116   5.857   4.849   2.143
 9739SOL    HW230117   5.892   4.776   2.001
 9740SOL     OW30118   6.448   1.468   3.004
 9740SOL    HW130119   6.423   1.459   2.907
 9740SOL    HW230120   6.408   1.552   3.040
 9741SOL     OW30121   3.720   1.068   2.949
 9741SOL    HW130122   3.745   1.074   2.852
 9741SOL    HW230123   3.726   1.159   2.990
 9742SOL     OW30124   4.340   0.099   0.500
 9742SOL    HW130125   4.294   0.180   0.537
 9742SOL    HW230126   4.307   0.018   0.549
 9743SOL     OW30127   0.166   1.976   5.334
 9743SOL    HW130128   0.078   2.003   5.295
 9743SOL    HW230129   0.165   1.877   5.351
 9744SOL     OW30130   0.848   6.857   2.607
 9744SOL    HW130131   0.864   6.820   2.515
 9744SOL    HW230132   0.776   6.927   2.602
 9745SOL     OW30133   5.398   3.233   5.741
 9745SOL    HW130134   5.429   3.138   5.738
 9745SOL    HW230135   5.462   3.288   5.793
 9746SOL     OW30136   6.730   0.487   5.440
 9746SOL    HW130137   6.671   0.562   5.411
 9746SOL    HW230138   6.681   0.400   5.431
 9747SOL     OW30139   2.078   1.217   1.319
 9747SOL    HW130140   2.021   1.151   1.270
 9747SOL    HW230141   2.128   1.273   1.253
 9748SOL     OW30142   0.277   1.569   3.080
 9748SOL    HW130143   0.183   1.591   3.103
 9748SOL    HW230144   0.338   1.598   3.154
 9749SOL     OW30145   2.356   1.338   5.110
 9749SOL    HW130146   2.445   1.308   5.144
 9749SOL    HW230147   2.369   1.393   5.028
 9750SOL     OW30148   5.364   4.408   3.524
 9750SOL    HW130149   5.441   4.354   3.558
 9750SOL    HW230150   5.338   4.476   3.593
 9751SOL     OW30151   0.941   0.793   1.003
 9751SOL    HW130152   0.990   0.711   0.976
 9751SOL    HW230153   1.003   0.872   1.000
 9752SOL     OW30154   4.724   1.860   5.494
 9752SOL    HW130155   4.653   1.796   5.526
 9752SOL    HW230156   4.769   1.822   5.414
 9753SOL     OW30157   5.665   5.698   5.642
 9753SOL    HW130158   5.649   5.789   5.605
 9753SOL    HW230159   5.754   5.664   5.612
 9754SOL     OW30160   0.820   1.160   6.193
 9754SOL    HW130161   0.785   1.253   6.204
 9754SOL    HW230162   0.920   1.161   6.202
 9755SOL     OW30163   3.969   3.057   4.512
 9755SOL    HW130164   4.004   3.094   4.426
 9755SOL    HW230165   3.872   3.077   4.520
 9756SOL     OW30166   6.516   3.710   0.497
 9756SOL    HW130167   6.487   3.794   0.543
 9756SOL    HW230168   6.489   3.631   0.552
 9757SOL     OW30169   5.720   3.464   4.082
 9757SOL    HW130170   5.636   3.510   4.110
 9757SOL    HW230171   5.760   3.418   4.161
 9758SOL     OW30172   2.099   6.595   0.021
 9758SOL    HW130173   2.055   6.530   6.985
 9758SOL    HW230174   2.176   6.639   7.000
 9759SOL     OW30175   1.725   6.994   6.721
 9759SOL    HW130176   1.823   7.013   6.710
 9759SOL    HW230177   1.713   6.899   6.747
 9760SOL     OW30178   4.420   2.483   4.832
 9760SOL    HW130179   4.441   2.580   4.842
 9760SOL    HW230180   4.364   2.452   4.908
 9761SOL     OW30181   5.438   1.465   3.021
 9761SOL    HW130182   5.454   1.407   2.941
 9761SOL    HW230183   5.358   1.523   3.006
 9762SOL     OW30184   3.339   1.373   4.378
 9762SOL    HW130185   3.332   1.453   4.319
 9762SOL    HW230186   3.249   1.330   4.388
 9763SOL     OW30187   5.316   1.983   1.973
 9763SOL    HW130188   5.286   1.900   1.926
 9763SOL    HW230189   5.337   2.054   1.906
 9764SOL     OW30190   0.053   2.684   2.719
 9764SOL    HW130191   0.141   2.679   2.672
 9764SOL    HW230192   7.006   2.702   2.653
 9765SOL     OW30193   6.746   1.463   3.194
 9765SOL    HW130194   6.757   1.462   3.294
 9765SOL    HW230195   6.742   1.369   3.160
 9766SOL     OW30196   2.411   6.999   3.155
 9766SOL    HW130197   2.422   6.944   3.072
 9766SOL    HW230198   2.340   6.958   3.212
 9767SOL     OW30199   5.052   1.142   5.209
 9767SOL    HW130200   4.952   1.153   5.217
 9767SOL    HW230201   5.073   1.048   5.183
 9768SOL     OW30202   5.472   2.103   2.689
 9768SOL    HW130203   5.404   2.172   2.714
 9768SOL    HW230204   5.426   2.024   2.650
 9769SOL     OW30205   3.118   1.132   3.057
 9769SOL    HW130206   3.151   1.220   3.021
 9769SOL    HW230207   3.018   1.130   3.051
 9770SOL     OW30208   5.698   7.003   6.834
 9770SOL    HW130209   5.788   6.990   6.875
 9770SOL    HW230210   5.667   0.071   6.850
 9771SOL     OW30211   2.846   5.644   0.600
 9771SOL    HW130212   2.874   5.635   0.695
 9771SOL    HW230213   2.808   5.557   0.567
 9772SOL     OW30214   1.449   6.186   2.767
 9772SOL    HW130215   1.435   6.247   2.845
 9772SOL    HW230216   1.431   6.092   2.795
 9773SOL     OW30217   5.725   5.589   4.464
 9773SOL    HW130218   5.687   5.632   4.546
 9773SOL    HW230219   5.673   5.505   4.444
 9774SOL     OW30220   0.417   5.033   2.150
 9774SOL    HW130221   0.480   4.973   2.199
 9774SOL    HW230222   0.449   5.045   2.056
 9775SOL     OW30223   2.219   0.531   3.391
 9775SOL    HW130224   2.299   0.589   3.410
 9775SOL    HW230225   2.248   0.436   3.381
 9776SOL     OW30226   1.080   4.713   4.292
 9776SOL    HW130227   1.093   4.812   4.294
 9776SOL    HW230228   1.149   4.671   4.232
 9777SOL     OW30229   5.978   5.183   6.004
 9777SOL    HW130230   6.022   5.191   5.915
 9777SOL    HW230231   5.947   5.089   6.018
 9778SOL     OW30232   0.383   0.794   3.734
 9778SOL    HW130233   0.440   0.780   3.653
 9778SOL    HW230234   0.324   0.714   3.746
 9779SOL     OW30235   1.905   1.572   5.192
 9779SOL    HW130236   1.952   1.490   5.223
 9779SOL    HW230237   1.815   1.577   5.234
 9780SOL     OW30238   2.931   1.951   1.207
 9780SOL    HW130239   2.988   1.869   1.213
 9780SOL    HW230240   2.868   1.954   1.284
 9781SOL     OW30241   1.579   3.829   4.360
 9781SOL    HW130242   1.575   3.782   4.448
 9781SOL    HW230243   1.672   3.865   4.346
 9782SOL     OW30244   6.495   1.030   1.372
 9782SOL    HW130245   6.476   0.953   1.434
 9782SOL    HW230246   6.447   1.111   1.404
 9783SOL     OW30247   4.867   1.839   3.114
 9783SOL    HW130248   4.936   1.895   3.161
 9783SOL    HW230249   4.784   1.834   3.169
 9784SOL     OW30250   4.156   1.452   4.533
 9784SOL    HW130251   4.057   1.455   4.520
 9784SOL    HW230252   4.185   1.357   4.542
 9785SOL     OW30253   0.938   3.315   6.220
 9785SOL    HW130254   1.006   3.388   6.212
 9785SOL    HW230255   0.976   3.230   6.185
 9786SOL     OW30256   2.492   4.132   0.179
 9786SOL    HW130257   2.481   4.106   0.084
 9786SOL    HW230258   2.578   4.094   0.214
 9787SOL     OW30259   4.867   3.744   1.891
 9787SOL    HW130260   4.929   3.774   1.963
 9787SOL    HW230261   4.855   3.818   1.825
 9788SOL     OW30262   0.366   0.304   3.659
 9788SOL    HW130263   0.290   0.239   3.665
 9788SOL    HW230264   0.452   0.255   3.669
 9789SOL     OW30265   1.376   5.596   0.817
 9789SOL    HW130266   1.430   5.520   0.781
 9789SOL    HW230267   1.324   5.565   0.896
 9790SOL     OW30268   5.957   4.555   6.040
 9790SOL    HW130269   5.928   4.466   6.075
 9790SOL    HW230270   6.034   4.589   6.093
 9791SOL     OW30271   0.497   0.616   3.231
 9791SOL    HW130272   0.591   0.579   3.234
 9791SOL    HW230273   0.446   0.582   3.310
 9792SOL     OW30274   5.191   5.295   1.715
 9792SOL    HW130275   5.137   5.306   1.632
 9792SOL    HW230276   5.236   5.382   1.737
 9793SOL     OW30277   5.101   5.740   3.609
 9793SOL    HW130278   5.179   5.710   3.554
 9793SOL    HW230279   5.052   5.813   3.562
 9794SOL     OW30280   6.939   4.173   1.018
 9794SOL    HW130281   6.924   4.079   1.050
 9794SOL    HW230282   6.858   4.204   0.969
 9795SOL     OW30283   2.234   1.921   4.336
 9795SOL    HW130284   2.250   1.834   4.384
 9795SOL    HW230285   2.322   1.967   4.323
 9796SOL     OW30286   4.442   2.279   1.358
 9796SOL    HW130287   4.448   2.288   1.457
 9796SOL    HW230288   4.420   2.368   1.317
 9797SOL     OW30289   2.362   5.232   6.787
 9797SOL    HW130290   2.419   5.167   6.737
 9797SOL    HW230291   2.400   5.246   6.879
 9798SOL     OW30292   2.744   0.482   1.431
 9798SOL    HW130293   2.727   0.448   1.523
 9798SOL    HW230294   2.838   0.514   1.424
 9799SOL     OW30295   3.725   4.111   3.828
 9799SOL    HW130296   3.713   4.081   3.734
 9799SOL    HW230297   3.778   4.195   3.830
 9800SOL     OW30298   3.892   6.456   4.498
 9800SOL    HW130299   3.876   6.361   4.523
 9800SOL    HW230300   3.915   6.462   4.401
 9801SOL     OW30301   4.813   3.494   0.513
 9801SOL    HW130302   4.713   3.490   0.514
 9801SOL    HW230303   4.845   3.490   0.418
 9802SOL     OW30304   0.925   3.071   1.780
 9802SOL    HW130305   0.940   3.080   1.878
 9802SOL    HW230306   0.870   2.989   1.762
 9803SOL     OW30307   0.378   2.470   6.464
 9803SOL    HW130308   0.395   2.457   6.561
 9803SOL    HW230309   0.282   2.450   6.444
 9804SOL     OW30310   0.876   6.926   3.010
 9804SOL    HW130311   0.882   6.853   3.078
 9804SOL    HW230312   0.822   6.895   2.932
 9805SOL     OW30313   0.986   0.249   5.446
 9805SOL    HW130314   0.892   0.238   5.480
 9805SOL    HW230315   0.999   0.343   5.415
 9806SOL     OW30316   1.519   1.244   0.624
 9806SOL    HW130317   1.455   1.191   0.568
 9806SOL    HW230318   1.611   1.209   0.612
 9807SOL     OW30319   2.320   3.071   0.307
 9807SOL    HW130320   2.278   3.023   0.384
 9807SOL    HW230321   2.290   3.030   0.221
 9808SOL     OW30322   4.340   0.413   5.320
 9808SOL    HW130323   4.313   0.344   5.387
 9808SOL    HW230324   4.337   0.374   5.228
 9809SOL     OW30325   0.662   1.782   6.867
 9809SOL    HW130326   0.761   1.772   6.855
 9809SOL    HW230327   0.635   1.876   6.846
 9810SOL     OW30328   2.343   2.832   3.661
 9810SOL    HW130329   2.276   2.906   3.652
 9810SOL    HW230330   2.358   2.813   3.758
 9811SOL     OW30331   5.730   5.180   4.009
 9811SOL    HW130332   5.822   5.141   4.008
 9811SOL    HW230333   5.684   5.155   4.094
 9812SOL     OW30334   3.281   1.960   5.854
 9812SOL    HW130335   3.332   1.958   5.940
 9812SOL    HW230336   3.247   2.053   5.838
 9813SOL     OW30337   5.652   0.652   6.493
 9813SOL    HW130338   5.557   0.640   6.523
 9813SOL    HW230339   5.666   0.603   6.407
 9814SOL     OW30340   0.593   0.445   0.566
 9814SOL    HW130341   0.662   0.517   0.568
 9814SOL    HW230342   0.587   0.403   0.656
 9815SOL     OW30343   5.932   4.120   3.177
 9815SOL    HW130344   5.852   4.108   3.235
 9815SOL    HW230345   6.001   4.052   3.201
 9816SOL     OW30346   6.931   1.573   6.037
 9816SOL    HW130347   6.928   1.570   5.937
 9816SOL    HW230348   6.838   1.558   6.073
 9817SOL     OW30349   2.364   6.216   2.478
 9817SOL    HW130350   2.308   6.280   2.530
 9817SOL    HW230351   2.429   6.171   2.539
 9818SOL     OW30352   1.729   0.777   4.871
 9818SOL    HW130353   1.662   0.796   4.943
 9818SOL    HW230354   1.723   0.846   4.800
 9819SOL     OW30355   5.124   3.136   3.831
 9819SOL    HW130356   5.149   3.041   3.814
 9819SOL    HW230357   5.168   3.194   3.762
 9820SOL     OW30358   4.377   3.364   6.301
 9820SOL    HW130359   4.316   3.443   6.309
 9820SOL    HW230360   4.389   3.341   6.204
 9821SOL     OW30361   5.103   0.593   0.909
 9821SOL    HW130362   5.025   0.647   0.877
 9821SOL    HW230363   5.070   0.506   0.945
 9822SOL     OW30364   2.566   5.977   3.507
 9822SOL    HW130365   2.529   6.032   3.581
 9822SOL    HW230366   2.593   6.037   3.432
 9823SOL     OW30367   2.663   0.339   1.656
 9823SOL    HW130368   2.635   0.253   1.614
 9823SOL    HW230369   2.608   0.356   1.738
 9824SOL     OW30370   1.752   5.737   4.339
 9824SOL    HW130371   1.850   5.750   4.323
 9824SOL    HW230372   1.701   5.815   4.302
 9825SOL     OW30373   5.218   6.478   4.222
 9825SOL    HW130374   5.156   6.534   4.168
 9825SOL    HW230375   5.261   6.409   4.163
 9826SOL     OW30376   3.792   6.161   5.183
 9826SOL    HW130377   3.770   6.077   5.233
 9826SOL    HW230378   3.867   6.143   5.120
 9827SOL     OW30379   1.751   3.591   3.440
 9827SOL    HW130380   1.696   3.518   3.479
 9827SOL    HW230381   1.839   3.553   3.409
 9828SOL     OW30382   3.131   2.529   5.436
 9828SOL    HW130383   3.183   2.494   5.358
 9828SOL    HW230384   3.194   2.563   5.505
 9829SOL     OW30385   4.666   5.886   6.254
 9829SOL    HW130386   4.691   5.796   6.292
 9829SOL    HW230387   4.573   5.882   6.218
 9830SOL     OW30388   5.488   1.598   1.931
 9830SOL    HW130389   5.390   1.583   1.937
 9830SOL    HW230390   5.510   1.645   1.846
 9831SOL     OW30391   0.961   5.106   2.963
 9831SOL    HW130392   1.008   5.146   2.885
 9831SOL    HW230393   1.012   5.026   2.996
 9832SOL     OW30394   5.257   5.320   2.738
 9832SOL    HW130395   5.292   5.401   2.690
 9832SOL    HW230396   5.188   5.275   2.681
 9833SOL     OW30397   3.542   3.827   3.616
 9833SOL    HW130398   3.454   3.875   3.617
 9833SOL    HW230399   3.616   3.895   3.611
 9834SOL     OW30400   2.327   4.692   5.008
 9834SOL    HW130401   2.346   4.701   5.106
 9834SOL    HW230402   2.412   4.669   4.960
 9835SOL     OW30403   3.596   3.296   4.479
 9835SOL    HW130404   3.648   3.258   4.402
 9835SOL    HW230405   3.573   3.391   4.459
 9836SOL     OW30406   0.507   3.826   3.944
 9836SOL    HW130407   0.577   3.885   3.904
 9836SOL    HW230408   0.500   3.742   3.890
 9837SOL     OW30409   4.508   0.857   2.788
 9837SOL    HW130410   4.572   0.933   2.787
 9837SOL    HW230411   4.490   0.829   2.882
 9838SOL     OW30412   1.959   0.068   0.069
 9838SOL    HW130413   1.983   6.997   0.075
 9838SOL    HW230414   2.016   0.113   0.000
 9839SOL     OW30415   4.627   6.463   3.534
 9839SOL    HW130416   4.657   6.553   3.504
 9839SOL    HW230417   4.556   6.473   3.604
 9840SOL     OW30418   5.488   2.029   0.604
 9840SOL    HW130419   5.449   2.018   0.696
 9840SOL    HW230420   5.536   1.946   0.577
 9841SOL     OW30421   1.105   4.587   4.544
 9841SOL    HW130422   1.146   4.501   4.515
 9841SOL    HW230423   1.074   4.638   4.464
 9842SOL     OW30424   3.482   3.274   1.323
 9842SOL    HW130425   3.562   3.215   1.331
 9842SOL    HW230426   3.411   3.245   1.387
 9843SOL     OW30427   6.231   0.164   1.961
 9843SOL    HW130428   6.191   0.195   1.875
 9843SOL    HW230429   6.228   0.065   1.966
 9844SOL     OW30430   6.055   1.261   3.397
 9844SOL    HW130431   6.103   1.344   3.368
 9844SOL    HW230432   5.957   1.275   3.388
 9845SOL     OW30433   1.486   1.666   3.759
 9845SOL    HW130434   1.475   1.725   3.839
 9845SOL    HW230435   1.432   1.583   3.771
 9846SOL     OW30436   4.072   2.229   1.292
 9846SOL    HW130437   3.997   2.198   1.234
 9846SOL    HW230438   4.048   2.213   1.388
 9847SOL     OW30439   3.767   3.203   2.589
 9847SOL    HW130440   3.756   3.106   2.569
 9847SOL    HW230441   3.853   3.218   2.637
 9848SOL     OW30442   4.582   4.593   5.885
 9848SOL    HW130443   4.622   4.639   5.964
 9848SOL    HW230444   4.495   4.638   5.862
 9849SOL     OW30445   0.867   0.195   6.439
 9849SOL    HW130446   0.943   0.250   6.403
 9849SOL    HW230447   0.890   0.098   6.432
 9850SOL     OW30448   6.534   0.850   4.025
 9850SOL    HW130449   6.560   0.796   4.105
 9850SOL    HW230450   6.565   0.944   4.037
 9851SOL     OW30451   1.740   0.142   4.245
 9851SOL    HW130452   1.688   0.070   4.200
 9851SOL    HW230453   1.678   0.196   4.303
 9852SOL     OW30454   1.924   1.628   4.942
 9852SOL    HW130455   1.842   1.672   4.906
 9852SOL    HW230456   1.918   1.621   5.042
 9853SOL     OW30457   6.271   3.311   5.220
 9853SOL    HW130458   6.331   3.249   5.171
 9853SOL    HW230459   6.304   3.324   5.313
 9854SOL     OW30460   0.306   5.987   4.017
 9854SOL    HW130461   0.218   5.939   4.021
 9854SOL    HW230462   0.294   6.076   3.973
 9855SOL     OW30463   2.405   3.187   0.835
 9855SOL    HW130464   2.346   3.151   0.762
 9855SOL    HW230465   2.362   3.268   0.875
 9856SOL     OW30466   4.933   4.397   3.745
 9856SOL    HW130467   5.011   4.334   3.750
 9856SOL    HW230468   4.862   4.366   3.809
 9857SOL     OW30469   5.094   2.420   3.283
 9857SOL    HW130470   5.055   2.465   3.364
 9857SOL    HW230471   5.185   2.458   3.264
 9858SOL     OW30472   0.312   6.812   1.251
 9858SOL    HW130473   0.267   6.877   1.189
 9858SOL    HW230474   0.360   6.863   1.323
 9859SOL     OW30475   6.934   5.373   3.844
 9859SOL    HW130476   6.867   5.368   3.918
 9859SOL    HW230477   6.889   5.409   3.762
 9860SOL     OW30478   2.349   2.406   5.022
 9860SOL    HW130479   2.265   2.353   5.029
 9860SOL    HW230480   2.377   2.412   4.926
 9861SOL     OW30481   2.528   0.441   3.374
 9861SOL    HW130482   2.468   0.362   3.379
 9861SOL    HW230483   2.595   0.437   3.448
 9862SOL     OW30484   2.493   3.751   6.835
 9862SOL    HW130485   2.586   3.789   6.838
 9862SOL    HW230486   2.427   3.823   6.857
 9863SOL     OW30487   3.023   6.061   1.422
 9863SOL    HW130488   3.004   6.119   1.501
 9863SOL    HW230489   3.085   6.108   1.359
 9864SOL     OW30490   3.474   0.973   4.434
 9864SOL    HW130491   3.444   1.047   4.494
 9864SOL    HW230492   3.558   0.933   4.469
 9865SOL     OW30493   1.450   6.416   4.112
 9865SOL    HW130494   1.436   6.379   4.020
 9865SOL    HW230495   1.454   6.516   4.107
 9866SOL     OW30496   6.050   4.613   5.799
 9866SOL    HW130497   6.009   4.589   5.887
 9866SOL    HW230498   6.125   4.678   5.814
 9867SOL     OW30499   6.700   1.559   2.307
 9867SOL    HW130500   6.799   1.551   2.320
 9867SOL    HW230501   6.678   1.553   2.209
 9868SOL     OW30502   0.684   3.354   4.478
 9868SOL    HW130503   0.771   3.310   4.503
 9868SOL    HW230504   0.608   3.301   4.516
 9869SOL     OW30505   0.223   2.174   1.315
 9869SOL    HW130506   0.236   2.271   1.335
 9869SOL    HW230507   0.128   2.148   1.335
 9870SOL     OW30508   4.344   5.693   2.453
 9870SOL    HW130509   4.251   5.657   2.450
 9870SOL    HW230510   4.399   5.641   2.519
 9871SOL     OW30511   6.440   4.087   5.600
 9871SOL    HW130512   6.439   4.178   5.640
 9871SOL    HW230513   6.518   4.077   5.540
 9872SOL     OW30514   3.268   5.312   4.337
 9872SOL    HW130515   3.224   5.276   4.256
 9872SOL    HW230516   3.331   5.385   4.311
 9873SOL     OW30517   2.079   2.536   0.498
 9873SOL    HW130518   2.086   2.597   0.576
 9873SOL    HW230519   2.165   2.487   0.486
 9874SOL     OW30520   0.253   2.760   5.541
 9874SOL    HW130521   0.279   2.837   5.484
 9874SOL    HW230522   0.216   2.687   5.484
 9875SOL     OW30523   6.330   6.226   2.833
 9875SOL    HW130524   6.398   6.299   2.822
 9875SOL    HW230525   6.289   6.233   2.924
 9876SOL     OW30526   5.161   0.445   3.951
 9876SOL    HW130527   5.155   0.544   3.962
 9876SOL    HW230528   5.256   0.415   3.965
 9877SOL     OW30529   6.998   4.436   4.293
 9877SOL    HW130530   6.979   4.457   4.388
 9877SOL    HW230531   6.914   4.442   4.239
 9878SOL     OW30532   2.843   3.521   5.815
 9878SOL    HW130533   2.856   3.620   5.815
 9878SOL    HW230534   2.808   3.492   5.904
 9879SOL     OW30535   6.121   4.848   5.345
 9879SOL    HW130536   6.038   4.806   5.310
 9879SOL    HW230537   6.163   4.788   5.412
 9880SOL     OW30538   2.762   0.770   0.803
 9880SOL    HW130539   2.729   0.703   0.870
 9880SOL    HW230540   2.830   0.829   0.846
 9881SOL     OW30541   6.876   1.602   4.449
 9881SOL    HW130542   6.904   1.656   4.369
 9881SOL    HW230543   6.778   1.615   4.465
 9882SOL     OW30544   3.287   4.000   5.913
 9882SOL    HW130545   3.191   4.005   5.883
 9882SOL    HW230546   3.321   3.907   5.899
 9883SOL     OW30547   0.592   6.510   1.403
 9883SOL    HW130548   0.591   6.582   1.334
 9883SOL    HW230549   0.544   6.541   1.485
 9884SOL     OW30550   4.071   1.804   0.857
 9884SOL    HW130551   4.047   1.843   0.768
 9884SOL    HW230552   4.035   1.861   0.930
 9885SOL     OW30553   0.683   3.413   4.825
 9885SOL    HW130554   0.721   3.342   4.885
 9885SOL    HW230555   0.687   3.382   4.730
 9886SOL     OW30556   0.208   6.245   2.081
 9886SOL    HW130557   0.208   6.173   2.013
 9886SOL    HW230558   0.156   6.323   2.047
 9887SOL     OW30559   3.450   0.234   0.172
 9887SOL    HW130560   3.356   0.238   0.205
 9887SOL    HW230561   3.466   0.310   0.109
 9888SOL     OW30562   5.852   5.404   3.345
 9888SOL    HW130563   5.878   5.478   3.408
 9888SOL    HW230564   5.820   5.326   3.398
 9889SOL     OW30565   0.382   4.672   1.768
 9889SOL    HW130566   0.326   4.754   1.759
 9889SOL    HW230567   0.421   4.668   1.860
 9890SOL     OW30568   0.488   2.977   0.857
 9890SOL    HW130569   0.483   3.055   0.920
 9890SOL    HW230570   0.435   2.901   0.894
 9891SOL     OW30571   6.216   4.721   1.497
 9891SOL    HW130572   6.166   4.712   1.583
 9891SOL    HW230573   6.315   4.718   1.515
 9892SOL     OW30574   1.828   5.479   3.208
 9892SOL    HW130575   1.818   5.385   3.239
 9892SOL    HW230576   1.740   5.513   3.175
 9893SOL     OW30577   6.448   6.975   2.251
 9893SOL    HW130578   6.451   6.939   2.157
 9893SOL    HW230579   6.540   6.972   2.291
 9894SOL     OW30580   2.768   1.678   6.199
 9894SOL    HW130581   2.791   1.581   6.194
 9894SOL    HW230582   2.844   1.733   6.165
 9895SOL     OW30583   6.383   2.489   5.638
 9895SOL    HW130584   6.417   2.559   5.701
 9895SOL    HW230585   6.321   2.532   5.572
 9896SOL     OW30586   4.772   1.791   1.105
 9896SOL    HW130587   4.839   1.865   1.100
 9896SOL    HW230588   4.707   1.809   1.179
 9897SOL     OW30589   4.740   0.988   2.876
 9897SOL    HW130590   4.789   0.901   2.876
 9897SOL    HW230591   4.704   1.006   2.968
 9898SOL     OW30592   6.910   4.870   5.162
 9898SOL    HW130593   6.811   4.853   5.155
 9898SOL    HW230594   6.941   4.922   5.083
 9899SOL     OW30595   6.774   5.215   2.285
 9899SOL    HW130596   6.735   5.265   2.208
 9899SOL    HW230597   6.767   5.270   2.368
 9900SOL     OW30598   1.664   2.480   2.704
 9900SOL    HW130599   1.641   2.577   2.703
 9900SOL    HW230600   1.600   2.431   2.763
 9901SOL     OW30601   2.090   1.214   6.927
 9901SOL    HW130602   2.015   1.259   6.973
 9901SOL    HW230603   2.171   1.273   6.927
 9902SOL     OW30604   3.980   3.593   1.616
 9902SOL    HW130605   4.058   3.557   1.667
 9902SOL    HW230606   3.966   3.689   1.639
 9903SOL     OW30607   4.954   6.782   2.477
 9903SOL    HW130608   4.893   6.807   2.402
 9903SOL    HW230609   5.027   6.723   2.442
 9904SOL     OW30610   0.011   4.162   6.815
 9904SOL    HW130611   6.952   4.214   6.830
 9904SOL    HW230612   0.090   4.218   6.840
 9905SOL     OW30613   1.531   6.460   6.599
 9905SOL    HW130614   1.503   6.373   6.558
 9905SOL    HW230615   1.449   6.512   6.625
 9906SOL     OW30616   2.301   3.549   6.680
 9906SOL    HW130617   2.222   3.506   6.722
 9906SOL    HW230618   2.340   3.616   6.743
 9907SOL     OW30619   1.520   0.348   3.861
 9907SOL    HW130620   1.478   0.438   3.875
 9907SOL    HW230621   1.510   0.321   3.766
 9908SOL     OW30622   0.493   3.461   5.950
 9908SOL    HW130623   0.537   3.549   5.965
 9908SOL    HW230624   0.540   3.391   6.003
 9909SOL     OW30625   3.319   0.191   3.379
 9909SOL    HW130626   3.419   0.204   3.378
 9909SOL    HW230627   3.285   0.183   3.285
 9910SOL     OW30628   1.549   5.630   1.470
 9910SOL    HW130629   1.602   5.713   1.453
 9910SOL    HW230630   1.474   5.651   1.533
 9911SOL     OW30631   4.457   5.678   2.193
 9911SOL    HW130632   4.483   5.585   2.170
 9911SOL    HW230633   4.421   5.681   2.286
 9912SOL     OW30634   4.185   0.857   1.481
 9912SOL    HW130635   4.157   0.776   1.533
 9912SOL    HW230636   4.138   0.857   1.393
 9913SOL     OW30637   6.857   3.753   2.130
 9913SOL    HW130638   6.848   3.764   2.229
 9913SOL    HW230639   6.772   3.717   2.093
 9914SOL     OW30640   0.937   0.530   5.695
 9914SOL    HW130641   0.953   0.433   5.712
 9914SOL    HW230642   1.002   0.585   5.748
 9915SOL     OW30643   4.929   2.946   4.246
 9915SOL    HW130644   4.932   3.032   4.298
 9915SOL    HW230645   5.008   2.942   4.184
 9916SOL     OW30646   2.009   2.191   3.341
 9916SOL    HW130647   2.093   2.167   3.293
 9916SOL    HW230648   1.990   2.121   3.410
 9917SOL     OW30649   3.156   3.583   4.796
 9917SOL    HW130650   3.218   3.510   4.765
 9917SOL    HW230651   3.211   3.662   4.824
 9918SOL     OW30652   0.914   2.204   1.266
 9918SOL    HW130653   0.874   2.254   1.342
 9918SOL    HW230654   0.979   2.136   1.301
 9919SOL     OW30655   2.475   6.137   1.184
 9919SOL    HW130656   2.473   6.221   1.239
 9919SOL    HW230657   2.398   6.137   1.120
 9920SOL     OW30658   3.309   0.501   2.979
 9920SOL    HW130659   3.274   0.469   2.891
 9920SOL    HW230660   3.236   0.547   3.029
 9921SOL     OW30661   4.879   6.210   4.195
 9921SOL    HW130662   4.967   6.172   4.167
 9921SOL    HW230663   4.893   6.281   4.264
 9922SOL     OW30664   4.670   4.410   0.821
 9922SOL    HW130665   4.580   4.403   0.865
 9922SOL    HW230666   4.671   4.488   0.758
 9923SOL     OW30667   6.825   3.629   6.650
 9923SOL    HW130668   6.828   3.540   6.696
 9923SOL    HW230669   6.793   3.699   6.715
 9924SOL     OW30670   5.036   2.044   3.789
 9924SOL    HW130671   4.939   2.036   3.770
 9924SOL    HW230672   5.086   2.054   3.702
 9925SOL     OW30673   1.749   4.394   4.502
 9925SOL    HW130674   1.824   4.431   4.557
 9925SOL    HW230675   1.675   4.461   4.497
 9926SOL     OW30676   3.341   2.557   0.962
 9926SOL    HW130677   3.248   2.586   0.985
 9926SOL    HW230678   3.391   2.633   0.922
 9927SOL     OW30679   0.865   2.119   0.716
 9927SOL    HW130680   0.821   2.080   0.796
 9927SOL    HW230681   0.819   2.203   0.689
 9928SOL     OW30682   5.494   3.584   2.897
 9928SOL    HW130683   5.520   3.647   2.970
 9928SOL    HW230684   5.571   3.574   2.833
 9929SOL     OW30685   3.485   4.327   5.289
 9929SOL    HW130686   3.445   4.418   5.298
 9929SOL    HW230687   3.435   4.275   5.219
 9930SOL     OW30688   0.735   0.333   6.115
 9930SOL    HW130689   0.667   0.324   6.042
 9930SOL    HW230690   0.706   0.280   6.195
 9931SOL     OW30691   6.838   5.356   4.879
 9931SOL    HW130692   6.888   5.412   4.812
 9931SOL    HW230693   6.874   5.375   4.970
 9932SOL     OW30694   1.684   1.480   6.717
 9932SOL    HW130695   1.706   1.577   6.710
 9932SOL    HW230696   1.759   1.431   6.760
 9933SOL     OW30697   1.461   1.013   4.359
 9933SOL    HW130698   1.542   1.062   4.391
 9933SOL    HW230699   1.485   0.957   4.280
 9934SOL     OW30700   6.253   1.821   6.832
 9934SOL    HW130701   6.267   1.789   6.925
 9934SOL    HW230702   6.247   1.921   6.831
 9935SOL     OW30703   2.287   0.757   0.177
 9935SOL    HW130704   2.294   0.658   0.191
 9935SOL    HW230705   2.375   0.800   0.198
 9936SOL     OW30706   6.815   5.310   7.020
 9936SOL    HW130707   6.730   5.275   0.035
 9936SOL    HW230708   6.837   5.399   0.035
 9937SOL     OW30709   1.452   0.767   3.530
 9937SOL    HW130710   1.542   0.727   3.513
 9937SOL    HW230711   1.459   0.834   3.604
 9938SOL     OW30712   5.446   0.304   3.942
 9938SOL    HW130713   5.486   0.350   4.021
 9938SOL    HW230714   5.518   0.262   3.887
 9939SOL     OW30715   2.200   2.864   1.078
 9939SOL    HW130716   2.264   2.851   1.154
 9939SOL    HW230717   2.252   2.869   0.992
 9940SOL     OW30718   0.642   0.613   4.291
 9940SOL    HW130719   0.623   0.664   4.375
 9940SOL    HW230720   0.680   0.674   4.222
 9941SOL     OW30721   3.245   5.687   5.777
 9941SOL    HW130722   3.278   5.733   5.859
 9941SOL    HW230723   3.248   5.751   5.700
 9942SOL     OW30724   4.723   5.323   1.534
 9942SOL    HW130725   4.751   5.416   1.510
 9942SOL    HW230726   4.661   5.326   1.612
 9943SOL     OW30727   1.205   3.965   6.469
 9943SOL    HW130728   1.189   3.878   6.422
 9943SOL    HW230729   1.128   3.985   6.529
 9944SOL     OW30730   6.752   5.677   6.632
 9944SOL    HW130731   6.806   5.643   6.555
 9944SOL    HW230732   6.656   5.685   6.604
 9945SOL     OW30733   5.445   4.268   6.482
 9945SOL    HW130734   5.349   4.291   6.465
 9945SOL    HW230735   5.496   4.273   6.397
 9946SOL     OW30736   6.095   0.478   3.215
 9946SOL    HW130737   6.062   0.439   3.129
 9946SOL    HW230738   6.029   0.460   3.288
 9947SOL     OW30739   2.267   1.421   4.212
 9947SOL    HW130740   2.274   1.324   4.189
 9947SOL    HW230741   2.213   1.468   4.143
 9948SOL     OW30742   6.457   5.674   5.612
 9948SOL    HW130743   6.491   5.718   5.695
 9948SOL    HW230744   6.510   5.591   5.596
 9949SOL     OW30745   6.830   5.101   4.393
 9949SOL    HW130746   6.895   5.110   4.468
 9949SOL    HW230747   6.776   5.018   4.406
 9950SOL     OW30748   6.891   5.724   5.891
 9950SOL    HW130749   6.874   5.808   5.944
 9950SOL    HW230750   6.975   5.735   5.838
 9951SOL     OW30751   1.826   2.081   2.743
 9951SOL    HW130752   1.805   2.140   2.665
 9951SOL    HW230753   1.750   2.017   2.757
 9952SOL     OW30754   1.670   3.930   0.669
 9952SOL    HW130755   1.670   3.992   0.591
 9952SOL    HW230756   1.673   3.835   0.636
 9953SOL     OW30757   5.492   2.901   3.830
 9953SOL    HW130758   5.569   2.899   3.765
 9953SOL    HW230759   5.525   2.933   3.919
 9954SOL     OW30760   1.231   0.129   5.112
 9954SOL    HW130761   1.234   0.039   5.156
 9954SOL    HW230762   1.324   0.166   5.105
 9955SOL     OW30763   4.129   3.771   6.729
 9955SOL    HW130764   4.066   3.784   6.805
 9955SOL    HW230765   4.093   3.814   6.646
 9956SOL     OW30766   0.737   3.288   2.458
 9956SOL    HW130767   0.697   3.308   2.548
 9956SOL    HW230768   0.793   3.365   2.429
 9957SOL     OW30769   5.589   0.128   1.937
 9957SOL    HW130770   5.654   0.199   1.964
 9957SOL    HW230771   5.627   0.038   1.959
 9958SOL     OW30772   3.498   6.153   5.876
 9958SOL    HW130773   3.566   6.166   5.804
 9958SOL    HW230774   3.463   6.242   5.906
 9959SOL     OW30775   4.078   3.657   2.687
 9959SOL    HW130776   4.108   3.646   2.782
 9959SOL    HW230777   4.090   3.752   2.659
 9960SOL     OW30778   0.589   6.266   1.299
 9960SOL    HW130779   0.678   6.233   1.267
 9960SOL    HW230780   0.598   6.360   1.333
 9961SOL     OW30781   2.402   4.442   3.125
 9961SOL    HW130782   2.487   4.472   3.082
 9961SOL    HW230783   2.329   4.507   3.105
 9962SOL     OW30784   3.771   0.627   2.349
 9962SOL    HW130785   3.804   0.565   2.277
 9962SOL    HW230786   3.671   0.635   2.342
 9963SOL     OW30787   2.814   3.153   6.408
 9963SOL    HW130788   2.895   3.188   6.360
 9963SOL    HW230789   2.759   3.099   6.344
 9964SOL     OW30790   4.298   5.177   6.066
 9964SOL    HW130791   4.235   5.227   6.006
 9964SOL    HW230792   4.390   5.214   6.056
 9965SOL     OW30793   3.221   4.991   5.083
 9965SOL    HW130794   3.143   5.040   5.045
 9965SOL    HW230795   3.290   4.977   5.012
 9966SOL     OW30796   2.389   4.678   1.448
 9966SOL    HW130797   2.409   4.763   1.399
 9966SOL    HW230798   2.448   4.605   1.412
 9967SOL     OW30799   6.029   5.178   2.586
 9967SOL    HW130800   5.984   5.259   2.623
 9967SOL    HW230801   6.055   5.194   2.491
 9968SOL     OW30802   4.165   5.622   6.576
 9968SOL    HW130803   4.166   5.664   6.667
 9968SOL    HW230804   4.187   5.692   6.507
 9969SOL     OW30805   1.594   2.820   4.391
 9969SOL    HW130806   1.538   2.853   4.315
 9969SOL    HW230807   1.676   2.876   4.400
 9970SOL     OW30808   6.919   4.858   2.197
 9970SOL    HW130809   6.905   4.949   2.237
 9970SOL    HW230810   7.010   4.824   2.223
 9971SOL     OW30811   2.494   3.892   0.893
 9971SOL    HW130812   2.466   3.805   0.934
 9971SOL    HW230813   2.571   3.875   0.831
 9972SOL     OW30814   3.228   4.530   0.884
 9972SOL    HW130815   3.292   4.460   0.853
 9972SOL    HW230816   3.158   4.489   0.943
 9973SOL     OW30817   3.932   2.169   4.873
 9973SOL    HW130818   3.896   2.164   4.966
 9973SOL    HW230819   3.860   2.145   4.808
 9974SOL     OW30820   6.422   2.832   2.814
 9974SOL    HW130821   6.505   2.815   2.867
 9974SOL    HW230822   6.343   2.835   2.876
 9975SOL     OW30823   0.144   4.674   6.625
 9975SOL    HW130824   0.127   4.628   6.712
 9975SOL    HW230825   0.146   4.607   6.551
 9976SOL     OW30826   0.301   4.896   5.223
 9976SOL    HW130827   0.284   4.863   5.131
 9976SOL    HW230828   0.248   4.840   5.288
 9977SOL     OW30829   6.486   5.537   5.980
 9977SOL    HW130830   6.571   5.484   5.982
 9977SOL    HW230831   6.447   5.541   6.073
 9978SOL     OW30832   6.295   1.725   5.260
 9978SOL    HW130833   6.259   1.807   5.305
 9978SOL    HW230834   6.238   1.646   5.283
 9979SOL     OW30835   6.513   4.185   5.974
 9979SOL    HW130836   6.473   4.109   5.923
 9979SOL    HW230837   6.532   4.261   5.912
 9980SOL     OW30838   1.449   0.863   0.196
 9980SOL    HW130839   1.368   0.817   0.234
 9980SOL    HW230840   1.434   0.882   0.099
 9981SOL     OW30841   3.040   2.041   0.576
 9981SOL    HW130842   2.990   2.086   0.651
 9981SOL    HW230843   2.980   2.033   0.496
 9982SOL     OW30844   0.830   1.670   3.874
 9982SOL    HW130845   0.836   1.605   3.950
 9982SOL    HW230846   0.735   1.699   3.862
 9983SOL     OW30847   0.798   0.913   1.700
 9983SOL    HW130848   0.890   0.878   1.680
 9983SOL    HW230849   0.743   0.913   1.617
 9984SOL     OW30850   0.392   6.911   0.374
 9984SOL    HW130851   0.366   6.991   0.319
 9984SOL    HW230852   0.431   6.841   0.314
 9985SOL     OW30853   3.149   0.059   1.331
 9985SOL    HW130854   3.145   0.017   1.422
 9985SOL    HW230855   3.240   0.047   1.292
 9986SOL     OW30856   5.546   4.801   7.006
 9986SOL    HW130857   5.449   4.824   7.000
 9986SOL    HW230858   5.574   4.795   0.076
 9987SOL     OW30859   6.405   2.109   2.791
 9987SOL    HW130860   6.439   2.086   2.699
 9987SOL    HW230861   6.332   2.176   2.784
 9988SOL     OW30862   0.052   5.126   4.578
 9988SOL    HW130863   0.021   5.092   4.666
 9988SOL    HW230864   0.112   5.205   4.592
 9989SOL     OW30865   5.921   3.687   2.920
 9989SOL    HW130866   5.936   3.590   2.901
 9989SOL    HW230867   6.000   3.725   2.968
 9990SOL     OW30868   2.486   0.229   3.790
 9990SOL    HW130869   2.517   0.203   3.699
 9990SOL    HW230870   2.563   0.264   3.844
 9991SOL     OW30871   1.538   3.200   4.374
 9991SOL    HW130872   1.617   3.259   4.393
 9991SOL    HW230873   1.473   3.250   4.317
 9992SOL     OW30874   4.042   3.885   0.810
 9992SOL    HW130875   4.127   3.841   0.782
 9992SOL    HW230876   4.008   3.841   0.893
 9993SOL     OW30877   3.594   6.569   3.014
 9993SOL    HW130878   3.689   6.539   3.013
 9993SOL    HW230879   3.571   6.612   2.926
 9994SOL     OW30880   0.105   3.741   3.190
 9994SOL    HW130881   0.158   3.753   3.106
 9994SOL    HW230882   0.090   3.830   3.233
 9995SOL     OW30883   3.141   0.049   3.771
 9995SOL    HW130884   3.187   6.995   3.811
 9995SOL    HW230885   3.196   0.131   3.790
 9996SOL     OW30886   2.814   3.044   1.436
 9996SOL    HW130887   2.783   3.070   1.345
 9996SOL    HW230888   2.824   3.125   1.493
 9997SOL     OW30889   5.186   1.062   1.596
 9997SOL    HW130890   5.144   1.106   1.676
 9997SOL    HW230891   5.132   0.981   1.571
 9998SOL     OW30892   5.427   3.844   2.584
 9998SOL    HW130893   5.461   3.896   2.505
 9998SOL    HW230894   5.453   3.891   2.668
 9999SOL     OW30895   0.011   5.699   5.501
 9999SOL    HW130896   0.087   5.655   5.550
 9999SOL    HW230897   0.021   5.683   5.403
10000SOL     OW30898   5.967   2.243   6.464
10000SOL    HW130899   6.048   2.263   6.409
10000SOL    HW230900   5.927   2.155   6.435
10001SOL     OW30901   4.056   0.636   1.551
10001SOL    HW130902   3.975   0.691   1.572
10001SOL    HW230903   4.027   0.544   1.525
10002SOL     OW30904   1.073   1.232   1.715
10002SOL    HW130905   0.976   1.222   1.737
10002SOL    HW230906   1.126   1.170   1.773
10003SOL     OW30907   2.947   2.241   2.555
10003SOL    HW130908   2.854   2.255   2.588
10003SOL    HW230909   2.944   2.218   2.457
10004SOL     OW30910   5.759   3.311   5.185
10004SOL    HW130911   5.840   3.368   5.171
10004SOL    HW230912   5.724   3.280   5.096
10005SOL     OW30913   3.507   5.899   2.710
10005SOL    HW130914   3.481   5.867   2.619
10005SOL    HW230915   3.604   5.880   2.725
10006SOL     OW30916   5.712   1.234   5.795
10006SOL    HW130917   5.778   1.234   5.721
10006SOL    HW230918   5.620   1.221   5.758
10007SOL     OW30919   1.038   2.971   4.182
10007SOL    HW130920   1.077   2.918   4.257
10007SOL    HW230921   1.031   2.914   4.100
10008SOL     OW30922   3.990   1.286   3.114
10008SOL    HW130923   4.010   1.224   3.189
10008SOL    HW230924   3.892   1.307   3.114
10009SOL     OW30925   1.976   4.182   1.507
10009SOL    HW130926   1.918   4.127   1.567
10009SOL    HW230927   1.943   4.276   1.506
10010SOL     OW30928   1.912   5.840   0.546
10010SOL    HW130929   1.826   5.809   0.505
10010SOL    HW230930   1.977   5.764   0.550
10011SOL     OW30931   0.645   3.471   6.501
10011SOL    HW130932   0.574   3.467   6.430
10011SOL    HW230933   0.688   3.561   6.499
10012SOL     OW30934   5.364   6.450   2.003
10012SOL    HW130935   5.397   6.537   1.966
10012SOL    HW230936   5.439   6.384   2.003
10013SOL     OW30937   2.120   1.685   4.185
10013SOL    HW130938   2.195   1.725   4.133
10013SOL    HW230939   2.104   1.740   4.267
10014SOL     OW30940   0.486   1.687   1.492
10014SOL    HW130941   0.442   1.777   1.498
10014SOL    HW230942   0.506   1.654   1.584
10015SOL     OW30943   4.358   4.757   6.860
10015SOL    HW130944   4.367   4.698   6.779
10015SOL    HW230945   4.385   4.706   6.941
10016SOL     OW30946   1.555   0.320   4.745
10016SOL    HW130947   1.493   0.398   4.747
10016SOL    HW230948   1.602   0.313   4.833
10017SOL     OW30949   2.206   1.860   2.781
10017SOL    HW130950   2.165   1.855   2.690
10017SOL    HW230951   2.305   1.869   2.772
10018SOL     OW30952   6.487   4.885   5.886
10018SOL    HW130953   6.556   4.878   5.814
10018SOL    HW230954   6.488   4.802   5.942
10019SOL     OW30955   0.586   2.213   3.044
10019SOL    HW130956   0.614   2.252   2.957
10019SOL    HW230957   0.637   2.129   3.061
10020SOL     OW30958   0.386   0.938   1.430
10020SOL    HW130959   0.291   0.915   1.408
10020SOL    HW230960   0.406   1.030   1.398
10021SOL     OW30961   0.721   1.900   2.437
10021SOL    HW130962   0.767   1.822   2.395
10021SOL    HW230963   0.690   1.875   2.529
10022SOL     OW30964   3.899   0.013   1.000
10022SOL    HW130965   3.958   0.080   0.957
10022SOL    HW230966   3.930   6.946   0.977
10023SOL     OW30967   2.486   4.960   4.912
10023SOL    HW130968   2.530   4.870   4.919
10023SOL    HW230969   2.508   5.014   4.993
10024SOL     OW30970   1.682   6.413   2.082
10024SOL    HW130971   1.729   6.389   1.997
10024SOL    HW230972   1.584   6.395   2.071
10025SOL     OW30973   2.024   2.284   1.630
10025SOL    HW130974   2.118   2.313   1.647
10025SOL    HW230975   2.024   2.198   1.579
10026SOL     OW30976   4.433   6.237   2.718
10026SOL    HW130977   4.500   6.168   2.745
10026SOL    HW230978   4.353   6.230   2.778
10027SOL     OW30979   0.934   3.740   5.072
10027SOL    HW130980   0.856   3.703   5.023
10027SOL    HW230981   0.978   3.812   5.018
10028SOL     OW30982   1.179   1.544   1.971
10028SOL    HW130983   1.201   1.536   2.068
10028SOL    HW230984   1.178   1.453   1.929
10029SOL     OW30985   2.352   1.771   4.017
10029SOL    HW130986   2.393   1.696   4.069
10029SOL    HW230987   2.324   1.737   3.927
10030SOL     OW30988   2.414   0.688   4.470
10030SOL    HW130989   2.425   0.589   4.473
10030SOL    HW230990   2.321   0.711   4.443
10031SOL     OW30991   5.873   4.864   4.146
10031SOL    HW130992   5.780   4.885   4.177
10031SOL    HW230993   5.884   4.892   4.051
10032SOL     OW30994   3.628   0.516   5.172
10032SOL    HW130995   3.708   0.472   5.215
10032SOL    HW230996   3.639   0.515   5.073
10033SOL     OW30997   4.557   2.370   4.301
10033SOL    HW130998   4.588   2.415   4.216
10033SOL    HW230999   4.476   2.315   4.282
10034SOL     OW31000   3.594   0.548   4.253
10034SOL    HW131001   3.565   0.460   4.290
10034SOL    HW231002   3.694   0.549   4.244
10035SOL     OW31003   0.095   4.803   2.358
10035SOL    HW131004   0.124   4.736   2.426
10035SOL    HW231005   0.114   4.895   2.392
10036SOL     OW31006   6.195   0.865   1.294
10036SOL    HW131007   6.111   0.915   1.273
10036SOL    HW231008   6.270   0.930   1.309
10037SOL     OW31009   6.021   1.513   0.497
10037SOL    HW131010   5.995   1.579   0.567
10037SOL    HW231011   5.970   1.530   0.413
10038SOL     OW31012   4.288   1.143   6.371
10038SOL    HW131013   4.254   1.236   6.388
10038SOL    HW231014   4.215   1.077   6.391
10039SOL     OW31015   3.936   7.002   4.873
10039SOL    HW131016   4.023   6.992   4.825
10039SOL    HW231017   3.939   6.949   4.958
10040SOL     OW31018   4.289   5.931   5.998
10040SOL    HW131019   4.241   5.852   5.960
10040SOL    HW231020   4.352   5.900   6.069
10041SOL     OW31021   4.607   5.603   6.816
10041SOL    HW131022   4.567   5.561   6.735
10041SOL    HW231023   4.535   5.623   6.882
10042SOL     OW31024   1.345   1.828   5.100
10042SOL    HW131025   1.341   1.734   5.135
10042SOL    HW231026   1.402   1.884   5.161
10043SOL     OW31027   0.206   2.574   4.270
10043SOL    HW131028   0.130   2.631   4.237
10043SOL    HW231029   0.192   2.553   4.366
10044SOL     OW31030   2.898   1.876   4.929
10044SOL    HW131031   2.948   1.915   5.006
10044SOL    HW231032   2.800   1.886   4.944
10045SOL     OW31033   4.970   6.973   3.349
10045SOL    HW131034   4.993   6.941   3.441
10045SOL    HW231035   4.879   7.014   3.349
10046SOL     OW31036   1.969   3.716   1.610
10046SOL    HW131037   2.033   3.721   1.534
10046SOL    HW231038   1.990   3.635   1.665
10047SOL     OW31039   6.208   3.801   5.003
10047SOL    HW131040   6.173   3.853   5.080
10047SOL    HW231041   6.242   3.712   5.035
10048SOL     OW31042   6.267   1.009   2.702
10048SOL    HW131043   6.294   0.916   2.728
10048SOL    HW231044   6.174   1.028   2.735
10049SOL     OW31045   0.068   6.957   6.734
10049SOL    HW131046   0.103   6.996   6.819
10049SOL    HW231047   0.113   6.870   6.716
10050SOL     OW31048   5.968   2.928   4.055
10050SOL    HW131049   5.949   3.024   4.033
10050SOL    HW231050   5.967   2.874   3.971
10051SOL     OW31051   5.184   2.459   5.154
10051SOL    HW131052   5.198   2.438   5.250
10051SOL    HW231053   5.271   2.454   5.106
10052SOL     OW31054   2.307   2.094   2.972
10052SOL    HW131055   2.323   2.002   2.937
10052SOL    HW231056   2.208   2.111   2.978
10053SOL     OW31057   3.251   5.702   2.454
10053SOL    HW131058   3.312   5.702   2.375
10053SOL    HW231059   3.251   5.793   2.495
10054SOL     OW31060   5.461   5.380   6.459
10054SOL    HW131061   5.393   5.306   6.450
10054SOL    HW231062   5.524   5.358   6.533
10055SOL     OW31063   5.970   2.337   4.589
10055SOL    HW131064   5.928   2.261   4.539
10055SOL    HW231065   5.900   2.385   4.641
10056SOL     OW31066   5.736   4.087   3.359
10056SOL    HW131067   5.735   4.172   3.413
10056SOL    HW231068   5.734   4.009   3.421
10057SOL     OW31069   4.454   1.554   4.892
10057SOL    HW131070   4.393   1.632   4.879
10057SOL    HW231071   4.434   1.511   4.980
10058SOL     OW31072   0.386   3.664   4.282
10058SOL    HW131073   0.335   3.581   4.258
10058SOL    HW231074   0.484   3.648   4.267
10059SOL     OW31075   5.812   0.383   1.482
10059SOL    HW131076   5.753   0.446   1.430
10059SOL    HW231077   5.774   0.369   1.573
10060SOL     OW31078   1.606   1.873   1.426
10060SOL    HW131079   1.677   1.854   1.493
10060SOL    HW231080   1.647   1.893   1.338
10061SOL     OW31081   4.374   1.543   3.889
10061SOL    HW131082   4.472   1.526   3.892
10061SOL    HW231083   4.346   1.592   3.972
10062SOL     OW31084   5.817   0.106   4.250
10062SOL    HW131085   5.790   0.010   4.239
10062SOL    HW231086   5.839   0.145   4.161
10063SOL     OW31087   2.351   0.644   3.771
10063SOL    HW131088   2.318   0.552   3.749
10063SOL    HW231089   2.442   0.657   3.732
10064SOL     OW31090   5.131   6.966   6.982
10064SOL    HW131091   5.041   7.000   7.009
10064SOL    HW231092   5.156   6.889   0.014
10065SOL     OW31093   2.328   0.422   2.289
10065SOL    HW131094   2.374   0.491   2.233
10065SOL    HW231095   2.230   0.422   2.269
10066SOL     OW31096   0.683   2.495   3.997
10066SOL    HW131097   0.697   2.474   4.093
10066SOL    HW231098   0.585   2.504   3.979
10067SOL     OW31099   6.765   4.051   4.960
10067SOL    HW131100   6.783   3.953   4.960
10067SOL    HW231101   6.667   4.067   4.966
10068SOL     OW31102   0.466   3.350   2.891
10068SOL    HW131103   0.560   3.318   2.894
10068SOL    HW231104   0.424   3.324   2.804
10069SOL     OW31105   2.067   4.886   2.591
10069SOL    HW131106   2.024   4.976   2.585
10069SOL    HW231107   2.166   4.895   2.577
10070SOL     OW31108   6.767   6.260   4.968
10070SOL    HW131109   6.672   6.256   4.937
10070SOL    HW231110   6.769   6.269   5.067
10071SOL     OW31111   6.432   5.922   4.685
10071SOL    HW131112   6.478   5.968   4.761
10071SOL    HW231113   6.382   5.842   4.719
10072SOL     OW31114   6.791   6.498   3.764
10072SOL    HW131115   6.722   6.570   3.774
10072SOL    HW231116   6.882   6.539   3.766
10073SOL     OW31117   5.900   4.502   5.399
10073SOL    HW131118   5.919   4.513   5.496
10073SOL    HW231119   5.840   4.422   5.385
10074SOL     OW31120   2.208   0.775   5.286
10074SOL    HW131121   2.273   0.734   5.349
10074SOL    HW231122   2.153   0.844   5.333
10075SOL     OW31123   2.034   2.805   2.719
10075SOL    HW131124   1.949   2.856   2.708
10075SOL    HW231125   2.105   2.844   2.660
10076SOL     OW31126   6.906   0.474   4.313
10076SOL    HW131127   6.840   0.440   4.245
10076SOL    HW231128   6.927   0.401   4.378
10077SOL     OW31129   4.086   2.615   6.132
10077SOL    HW131130   4.077   2.633   6.230
10077SOL    HW231131   4.015   2.553   6.102
10078SOL     OW31132   0.592   6.011   3.571
10078SOL    HW131133   0.515   5.999   3.509
10078SOL    HW231134   0.677   5.990   3.524
10079SOL     OW31135   6.003   3.768   3.742
10079SOL    HW131136   6.048   3.724   3.819
10079SOL    HW231137   5.906   3.746   3.742
10080SOL     OW31138   4.008   0.622   5.509
10080SOL    HW131139   4.079   0.646   5.442
10080SOL    HW231140   4.051   0.584   5.590
10081SOL     OW31141   6.623   0.274   1.097
10081SOL    HW131142   6.550   0.213   1.066
10081SOL    HW231143   6.587   0.337   1.166
10082SOL     OW31144   0.674   5.365   1.871
10082SOL    HW131145   0.726   5.280   1.887
10082SOL    HW231146   0.640   5.366   1.777
10083SOL     OW31147   3.973   1.145   3.338
10083SOL    HW131148   3.896   1.085   3.316
10083SOL    HW231149   4.022   1.108   3.417
10084SOL     OW31150   1.824   1.071   5.403
10084SOL    HW131151   1.834   1.146   5.469
10084SOL    HW231152   1.910   1.021   5.396
10085SOL     OW31153   2.537   5.820   0.894
10085SOL    HW131154   2.442   5.796   0.917
10085SOL    HW231155   2.573   5.883   0.962
10086SOL     OW31156   4.633   6.048   2.516
10086SOL    HW131157   4.695   6.003   2.452
10086SOL    HW231158   4.539   6.042   2.481
10087SOL     OW31159   6.808   6.703   4.125
10087SOL    HW131160   6.876   6.658   4.067
10087SOL    HW231161   6.716   6.678   4.095
10088SOL     OW31162   6.365   0.129   1.684
10088SOL    HW131163   6.383   0.048   1.740
10088SOL    HW231164   6.266   0.144   1.678
10089SOL     OW31165   3.083   1.899   2.870
10089SOL    HW131166   3.141   1.976   2.897
10089SOL    HW231167   2.991   1.932   2.849
10090SOL     OW31168   1.409   4.871   1.694
10090SOL    HW131169   1.357   4.884   1.610
10090SOL    HW231170   1.349   4.836   1.766
10091SOL     OW31171   0.398   4.455   6.328
10091SOL    HW131172   0.450   4.395   6.389
10091SOL    HW231173   0.304   4.464   6.362
10092SOL     OW31174   2.537   2.551   5.666
10092SOL    HW131175   2.622   2.511   5.632
10092SOL    HW231176   2.470   2.553   5.591
10093SOL     OW31177   6.006   3.072   4.966
10093SOL    HW131178   6.033   3.168   4.956
10093SOL    HW231179   6.071   3.014   4.919
10094SOL     OW31180   3.390   5.759   1.262
10094SOL    HW131181   3.434   5.669   1.257
10094SOL    HW231182   3.291   5.748   1.268
10095SOL     OW31183   5.919   2.350   5.451
10095SOL    HW131184   5.834   2.306   5.424
10095SOL    HW231185   5.902   2.407   5.532
10096SOL     OW31186   4.535   5.106   2.888
10096SOL    HW131187   4.559   5.167   2.813
10096SOL    HW231188   4.597   5.028   2.888
10097SOL     OW31189   0.650   1.106   0.036
10097SOL    HW131190   0.626   1.124   0.131
10097SOL    HW231191   0.716   1.174   0.004
10098SOL     OW31192   2.846   0.144   4.994
10098SOL    HW131193   2.824   0.046   4.993
10098SOL    HW231194   2.805   0.187   4.913
10099SOL     OW31195   0.653   5.131   1.264
10099SOL    HW131196   0.742   5.164   1.231
10099SOL    HW231197   0.580   5.169   1.208
10100SOL     OW31198   4.736   6.272   4.959
10100SOL    HW131199   4.710   6.327   5.039
10100SOL    HW231200   4.823   6.305   4.923
10101SOL     OW31201   6.199   3.969   2.186
10101SOL    HW131202   6.296   3.983   2.167
10101SOL    HW231203   6.182   3.871   2.197
10102SOL     OW31204   0.605   1.308   2.327
10102SOL    HW131205   0.645   1.306   2.419
10102SOL    HW231206   0.533   1.238   2.321
10103SOL     OW31207   2.823   0.471   5.815
10103SOL    HW131208   2.823   0.380   5.856
10103SOL    HW231209   2.780   0.467   5.725
10104SOL     OW31210   1.918   1.878   4.674
10104SOL    HW131211   1.873   1.819   4.741
10104SOL    HW231212   1.957   1.821   4.601
10105SOL     OW31213   1.548   1.074   6.724
10105SOL    HW131214   1.642   1.071   6.759
10105SOL    HW231215   1.531   1.163   6.683
10106SOL     OW31216   3.904   6.074   0.322
10106SOL    HW131217   3.909   6.174   0.330
10106SOL    HW231218   3.824   6.049   0.267
10107SOL     OW31219   5.987   1.756   5.572
10107SOL    HW131220   5.965   1.659   5.561
10107SOL    HW231221   6.004   1.776   5.668
10108SOL     OW31222   6.546   0.466   6.908
10108SOL    HW131223   6.559   0.426   6.998
10108SOL    HW231224   6.618   0.533   6.890
10109SOL     OW31225   5.697   0.956   0.670
10109SOL    HW131226   5.707   0.957   0.571
10109SOL    HW231227   5.780   0.918   0.711
10110SOL     OW31228   4.527   4.500   4.545
10110SOL    HW131229   4.560   4.413   4.581
10110SOL    HW231230   4.481   4.551   4.618
10111SOL     OW31231   5.723   3.712   3.744
10111SOL    HW131232   5.670   3.789   3.778
10111SOL    HW231233   5.664   3.631   3.739
10112SOL     OW31234   6.056   3.953   3.487
10112SOL    HW131235   6.027   3.893   3.562
10112SOL    HW231236   6.020   4.045   3.501
10113SOL     OW31237   4.169   6.971   6.822
10113SOL    HW131238   4.231   6.896   6.846
10113SOL    HW231239   4.141   7.018   6.906
10114SOL     OW31240   4.241   2.120   1.732
10114SOL    HW131241   4.153   2.132   1.685
10114SOL    HW231242   4.307   2.187   1.697
10115SOL     OW31243   3.733   0.495   4.903
10115SOL    HW131244   3.696   0.564   4.840
10115SOL    HW231245   3.782   0.425   4.852
10116SOL     OW31246   0.425   6.733   6.968
10116SOL    HW131247   0.461   6.766   0.030
10116SOL    HW231248   0.496   6.685   6.918
10117SOL     OW31249   0.155   6.536   6.225
10117SOL    HW131250   0.069   6.496   6.257
10117SOL    HW231251   0.143   6.635   6.215
10118SOL     OW31252   2.292   4.406   2.675
10118SOL    HW131253   2.305   4.349   2.756
10118SOL    HW231254   2.196   4.405   2.649
10119SOL     OW31255   0.255   5.960   4.920
10119SOL    HW131256   0.270   6.048   4.965
10119SOL    HW231257   0.284   5.965   4.825
10120SOL     OW31258   2.149   3.234   4.232
10120SOL    HW131259   2.238   3.231   4.188
10120SOL    HW231260   2.138   3.154   4.291
10121SOL     OW31261   6.126   3.484   0.091
10121SOL    HW131262   6.064   3.542   0.144
10121SOL    HW231263   6.101   3.388   0.105
10122SOL     OW31264   5.638   3.162   2.367
10122SOL    HW131265   5.725   3.129   2.402
10122SOL    HW231266   5.586   3.086   2.328
10123SOL     OW31267   5.547   5.725   0.586
10123SOL    HW131268   5.524   5.737   0.683
10123SOL    HW231269   5.641   5.754   0.570
10124SOL     OW31270   1.277   4.571   0.485
10124SOL    HW131271   1.270   4.523   0.572
10124SOL    HW231272   1.206   4.642   0.481
10125SOL     OW31273   1.553   1.388   1.838
10125SOL    HW131274   1.537   1.451   1.913
10125SOL    HW231275   1.576   1.298   1.874
10126SOL     OW31276   0.010   0.118   7.019
10126SOL    HW131277   7.013   0.103   0.090
10126SOL    HW231278   6.952   0.128   6.966
10127SOL     OW31279   2.629   4.171   6.472
10127SOL    HW131280   2.574   4.094   6.505
10127SOL    HW231281   2.680   4.143   6.390
10128SOL     OW31282   3.042   0.860   6.808
10128SOL    HW131283   3.073   0.769   6.781
10128SOL    HW231284   2.962   0.885   6.754
10129SOL     OW31285   6.282   1.225   2.518
10129SOL    HW131286   6.273   1.137   2.565
10129SOL    HW231287   6.379   1.244   2.502
10130SOL     OW31288   1.232   2.261   1.095
10130SOL    HW131289   1.306   2.195   1.090
10130SOL    HW231290   1.219   2.290   1.191
10131SOL     OW31291   1.551   6.608   4.598
10131SOL    HW131292   1.632   6.549   4.603
10131SOL    HW231293   1.568   6.691   4.651
10132SOL     OW31294   3.555   0.731   3.756
10132SOL    HW131295   3.481   0.686   3.704
10132SOL    HW231296   3.559   0.693   3.848
10133SOL     OW31297   4.341   6.419   0.462
10133SOL    HW131298   4.264   6.432   0.524
10133SOL    HW231299   4.411   6.488   0.480
10134SOL     OW31300   6.656   6.906   2.525
10134SOL    HW131301   6.591   6.977   2.498
10134SOL    HW231302   6.740   6.950   2.559
10135SOL     OW31303   4.980   3.530   3.222
10135SOL    HW131304   5.041   3.582   3.162
10135SOL    HW231305   4.929   3.593   3.280
10136SOL     OW31306   5.154   1.545   2.572
10136SOL    HW131307   5.169   1.535   2.670
10136SOL    HW231308   5.140   1.642   2.550
10137SOL     OW31309   0.457   3.525   4.020
10137SOL    HW131310   0.364   3.555   4.002
10137SOL    HW231311   0.457   3.458   4.094
10138SOL     OW31312   5.582   4.018   0.576
10138SOL    HW131313   5.515   4.024   0.502
10138SOL    HW231314   5.564   3.938   0.633
10139SOL     OW31315   3.132   3.532   3.136
10139SOL    HW131316   3.050   3.575   3.096
10139SOL    HW231317   3.104   3.467   3.206
10140SOL     OW31318   0.071   6.350   6.876
10140SOL    HW131319   0.021   6.418   6.823
10140SOL    HW231320   0.134   6.396   6.939
10141SOL     OW31321   4.072   0.735   5.852
10141SOL    HW131322   4.029   0.649   5.826
10141SOL    HW231323   4.023   0.776   5.928
10142SOL     OW31324   6.625   0.105   5.706
10142SOL    HW131325   6.581   0.144   5.786
10142SOL    HW231326   6.669   0.018   5.731
10143SOL     OW31327   5.175   1.665   0.614
10143SOL    HW131328   5.116   1.620   0.680
10143SOL    HW231329   5.162   1.763   0.618
10144SOL     OW31330   3.887   0.205   6.170
10144SOL    HW131331   3.952   0.131   6.152
10144SOL    HW231332   3.936   0.290   6.188
10145SOL     OW31333   3.184   5.505   3.254
10145SOL    HW131334   3.098   5.552   3.233
10145SOL    HW231335   3.205   5.517   3.351
10146SOL     OW31336   4.784   4.160   4.980
10146SOL    HW131337   4.711   4.223   4.953
10146SOL    HW231338   4.838   4.134   4.900
10147SOL     OW31339   5.190   4.320   6.378
10147SOL    HW131340   5.145   4.407   6.356
10147SOL    HW231341   5.280   4.317   6.334
10148SOL     OW31342   5.091   4.779   6.440
10148SOL    HW131343   5.140   4.778   6.353
10148SOL    HW231344   5.042   4.693   6.452
10149SOL     OW31345   5.845   3.709   1.851
10149SOL    HW131346   5.914   3.780   1.842
10149SOL    HW231347   5.766   3.732   1.794
10150SOL     OW31348   3.862   3.283   0.971
10150SOL    HW131349   3.870   3.292   1.070
10150SOL    HW231350   3.855   3.374   0.930
10151SOL     OW31351   0.639   5.730   0.167
10151SOL    HW131352   0.630   5.655   0.101
10151SOL    HW231353   0.558   5.789   0.161
10152SOL     OW31354   6.566   6.353   4.223
10152SOL    HW131355   6.524   6.351   4.132
10152SOL    HW231356   6.568   6.260   4.260
10153SOL     OW31357   4.564   5.875   3.056
10153SOL    HW131358   4.523   5.930   3.128
10153SOL    HW231359   4.635   5.816   3.095
10154SOL     OW31360   3.892   6.162   4.892
10154SOL    HW131361   3.892   6.073   4.937
10154SOL    HW231362   3.981   6.206   4.905
10155SOL     OW31363   4.013   2.250   6.395
10155SOL    HW131364   3.961   2.331   6.368
10155SOL    HW231365   4.095   2.243   6.340
10156SOL     OW31366   4.954   0.517   2.405
10156SOL    HW131367   4.958   0.437   2.346
10156SOL    HW231368   5.046   0.540   2.437
10157SOL     OW31369   0.221   2.158   0.148
10157SOL    HW131370   0.167   2.090   0.098
10157SOL    HW231371   0.253   2.119   0.234
10158SOL     OW31372   6.343   5.772   0.954
10158SOL    HW131373   6.316   5.705   1.024
10158SOL    HW231374   6.423   5.823   0.985
10159SOL     OW31375   2.661   2.783   1.020
10159SOL    HW131376   2.662   2.803   0.922
10159SOL    HW231377   2.743   2.822   1.062
10160SOL     OW31378   1.475   2.688   2.101
10160SOL    HW131379   1.474   2.788   2.094
10160SOL    HW231380   1.568   2.656   2.116
10161SOL     OW31381   4.129   4.140   0.892
10161SOL    HW131382   4.102   4.059   0.840
10161SOL    HW231383   4.228   4.143   0.902
10162SOL     OW31384   3.625   4.470   0.608
10162SOL    HW131385   3.709   4.422   0.583
10162SOL    HW231386   3.648   4.549   0.664
10163SOL     OW31387   6.674   3.752   0.273
10163SOL    HW131388   6.618   3.735   0.354
10163SOL    HW231389   6.630   3.710   0.193
10164SOL     OW31390   5.991   3.495   4.293
10164SOL    HW131391   6.027   3.409   4.329
10164SOL    HW231392   5.969   3.557   4.368
10165SOL     OW31393   6.829   1.231   3.939
10165SOL    HW131394   6.858   1.290   4.014
10165SOL    HW231395   6.904   1.222   3.873
10166SOL     OW31396   3.637   1.795   1.684
10166SOL    HW131397   3.543   1.814   1.658
10166SOL    HW231398   3.638   1.733   1.763
10167SOL     OW31399   1.012   4.680   6.970
10167SOL    HW131400   1.014   4.580   6.970
10167SOL    HW231401   1.027   4.714   0.037
10168SOL     OW31402   6.384   2.503   6.352
10168SOL    HW131403   6.457   2.502   6.283
10168SOL    HW231404   6.296   2.520   6.308
10169SOL     OW31405   0.458   3.948   3.391
10169SOL    HW131406   0.441   3.852   3.413
10169SOL    HW231407   0.402   4.006   3.450
10170SOL     OW31408   6.241   5.871   5.797
10170SOL    HW131409   6.152   5.841   5.762
10170SOL    HW231410   6.257   5.831   5.887
10171SOL     OW31411   0.443   2.126   5.000
10171SOL    HW131412   0.456   2.060   5.074
10171SOL    HW231413   0.528   2.178   4.987
10172SOL     OW31414   1.282   5.525   5.112
10172SOL    HW131415   1.358   5.568   5.161
10172SOL    HW231416   1.242   5.453   5.170
10173SOL     OW31417   2.322   2.182   0.376
10173SOL    HW131418   2.308   2.118   0.452
10173SOL    HW231419   2.415   2.174   0.342
10174SOL     OW31420   5.034   5.188   3.156
10174SOL    HW131421   5.113   5.140   3.194
10174SOL    HW231422   4.951   5.157   3.203
10175SOL     OW31423   5.254   2.736   2.947
10175SOL    HW131424   5.329   2.693   2.996
10175SOL    HW231425   5.181   2.759   3.011
10176SOL     OW31426   0.715   3.265   5.084
10176SOL    HW131427   0.653   3.325   5.133
10176SOL    HW231428   0.790   3.237   5.144
10177SOL     OW31429   1.916   1.025   1.216
10177SOL    HW131430   1.925   0.985   1.125
10177SOL    HW231431   1.825   1.065   1.227
10178SOL     OW31432   6.713   0.516   0.169
10178SOL    HW131433   6.673   0.524   0.260
10178SOL    HW231434   6.804   0.557   0.169
10179SOL     OW31435   0.218   2.625   0.105
10179SOL    HW131436   0.192   2.547   0.162
10179SOL    HW231437   0.160   2.627   0.023
10180SOL     OW31438   4.071   0.486   6.030
10180SOL    HW131439   4.170   0.472   6.029
10180SOL    HW231440   4.050   0.574   6.073
10181SOL     OW31441   6.478   3.206   1.439
10181SOL    HW131442   6.554   3.175   1.496
10181SOL    HW231443   6.401   3.230   1.497
10182SOL     OW31444   4.431   0.916   1.525
10182SOL    HW131445   4.332   0.921   1.511
10182SOL    HW231446   4.452   0.919   1.622
10183SOL     OW31447   6.511   2.701   6.067
10183SOL    HW131448   6.546   2.613   6.099
10183SOL    HW231449   6.419   2.715   6.104
10184SOL     OW31450   4.353   1.462   6.194
10184SOL    HW131451   4.340   1.504   6.284
10184SOL    HW231452   4.425   1.392   6.199
10185SOL     OW31453   5.653   6.052   3.450
10185SOL    HW131454   5.609   5.968   3.481
10185SOL    HW231455   5.696   6.099   3.527
10186SOL     OW31456   5.258   3.951   4.321
10186SOL    HW131457   5.162   3.951   4.291
10186SOL    HW231458   5.311   3.888   4.263
10187SOL     OW31459   1.456   4.044   6.543
10187SOL    HW131460   1.505   3.995   6.471
10187SOL    HW231461   1.358   4.024   6.536
10188SOL     OW31462   3.744   4.292   7.007
10188SOL    HW131463   3.646   4.276   7.017
10188SOL    HW231464   3.772   4.369   0.039
10189SOL     OW31465   0.112   0.980   6.786
10189SOL    HW131466   0.112   0.980   6.886
10189SOL    HW231467   0.191   1.030   6.753
10190SOL     OW31468   3.898   3.336   1.241
10190SOL    HW131469   3.966   3.408   1.229
10190SOL    HW231470   3.940   3.259   1.290
10191SOL     OW31471   4.653   5.635   6.433
10191SOL    HW131472   4.569   5.594   6.468
10191SOL    HW231473   4.709   5.667   6.509
10192SOL     OW31474   4.157   1.234   5.434
10192SOL    HW131475   4.129   1.223   5.530
10192SOL    HW231476   4.101   1.305   5.392
10193SOL     OW31477   3.765   2.843   2.049
10193SOL    HW131478   3.760   2.743   2.050
10193SOL    HW231479   3.677   2.882   2.077
10194SOL     OW31480   4.683   0.255   5.681
10194SOL    HW131481   4.759   0.311   5.647
10194SOL    HW231482   4.606   0.261   5.616
10195SOL     OW31483   6.801   6.323   0.518
10195SOL    HW131484   6.709   6.284   0.511
10195SOL    HW231485   6.807   6.377   0.603
10196SOL     OW31486   3.907   2.158   3.790
10196SOL    HW131487   3.807   2.149   3.798
10196SOL    HW231488   3.938   2.110   3.708
10197SOL     OW31489   5.508   1.930   4.890
10197SOL    HW131490   5.509   1.961   4.985
10197SOL    HW231491   5.541   1.835   4.887
10198SOL     OW31492   3.175   6.845   2.161
10198SOL    HW131493   3.188   6.936   2.201
10198SOL    HW231494   3.085   6.810   2.188
10199SOL     OW31495   1.211   2.518   0.823
10199SOL    HW131496   1.284   2.460   0.787
10199SOL    HW231497   1.141   2.460   0.866
10200SOL     OW31498   4.704   3.225   5.370
10200SOL    HW131499   4.620   3.174   5.389
10200SOL    HW231500   4.694   3.320   5.399
10201SOL     OW31501   1.473   5.419   0.107
10201SOL    HW131502   1.446   5.339   0.161
10201SOL    HW231503   1.539   5.391   0.037
10202SOL     OW31504   2.817   4.754   0.233
10202SOL    HW131505   2.784   4.842   0.200
10202SOL    HW231506   2.897   4.726   0.181
10203SOL     OW31507   6.697   3.157   1.859
10203SOL    HW131508   6.666   3.175   1.766
10203SOL    HW231509   6.710   3.243   1.908
10204SOL     OW31510   4.319   5.596   6.255
10204SOL    HW131511   4.357   5.592   6.163
10204SOL    HW231512   4.294   5.504   6.285
10205SOL     OW31513   2.307   1.126   2.522
10205SOL    HW131514   2.213   1.127   2.489
10205SOL    HW231515   2.308   1.148   2.620
10206SOL     OW31516   6.909   0.283   6.586
10206SOL    HW131517   6.985   0.289   6.521
10206SOL    HW231518   6.862   0.195   6.574
10207SOL     OW31519   1.095   1.831   6.919
10207SOL    HW131520   1.129   1.777   6.996
10207SOL    HW231521   1.161   1.828   6.844
10208SOL     OW31522   6.774   5.597   3.983
10208SOL    HW131523   6.711   5.674   3.994
10208SOL    HW231524   6.738   5.518   4.033
10209SOL     OW31525   0.240   0.092   6.429
10209SOL    HW131526   0.207   0.138   6.512
10209SOL    HW231527   0.277   0.002   6.453
10210SOL     OW31528   4.748   6.245   0.748
10210SOL    HW131529   4.783   6.291   0.666
10210SOL    HW231530   4.788   6.154   0.755
10211SOL     OW31531   4.340   6.285   4.846
10211SOL    HW131532   4.353   6.208   4.908
10211SOL    HW231533   4.259   6.269   4.789
10212SOL     OW31534   0.056   0.132   5.434
10212SOL    HW131535   0.009   0.107   5.350
10212SOL    HW231536   0.136   0.187   5.412
10213SOL     OW31537   5.352   2.915   2.024
10213SOL    HW131538   5.293   2.983   1.978
10213SOL    HW231539   5.299   2.867   2.094
10214SOL     OW31540   0.540   1.649   1.752
10214SOL    HW131541   0.491   1.736   1.756
10214SOL    HW231542   0.561   1.618   1.845
10215SOL     OW31543   3.768   2.915   4.023
10215SOL    HW131544   3.686   2.973   4.020
10215SOL    HW231545   3.819   2.925   3.938
10216SOL     OW31546   0.588   1.238   0.571
10216SOL    HW131547   0.497   1.230   0.611
10216SOL    HW231548   0.648   1.288   0.634
10217SOL     OW31549   1.814   2.087   3.573
10217SOL    HW131550   1.781   2.165   3.522
10217SOL    HW231551   1.825   2.111   3.670
10218SOL     OW31552   0.880   0.702   1.337
10218SOL    HW131553   0.852   0.777   1.276
10218SOL    HW231554   0.979   0.704   1.348
10219SOL     OW31555   0.395   2.318   2.790
10219SOL    HW131556   0.447   2.244   2.747
10219SOL    HW231557   0.334   2.280   2.859
10220SOL     OW31558   4.038   1.328   1.872
10220SOL    HW131559   4.070   1.238   1.839
10220SOL    HW231560   4.061   1.398   1.804
10221SOL     OW31561   1.608   3.535   4.947
10221SOL    HW131562   1.640   3.459   4.891
10221SOL    HW231563   1.510   3.549   4.931
10222SOL     OW31564   3.098   4.386   5.622
10222SOL    HW131565   3.137   4.295   5.608
10222SOL    HW231566   3.116   4.443   5.543
10223SOL     OW31567   2.692   5.244   0.191
10223SOL    HW131568   2.740   5.258   0.278
10223SOL    HW231569   2.664   5.332   0.154
10224SOL     OW31570   6.661   1.970   5.340
10224SOL    HW131571   6.631   2.010   5.254
10224SOL    HW231572   6.596   1.993   5.413
10225SOL     OW31573   1.789   5.836   5.897
10225SOL    HW131574   1.837   5.798   5.976
10225SOL    HW231575   1.801   5.936   5.896
10226SOL     OW31576   2.039   0.354   5.950
10226SOL    HW131577   2.092   0.381   6.031
10226SOL    HW231578   1.952   0.313   5.980
10227SOL     OW31579   5.038   4.321   0.217
10227SOL    HW131580   4.961   4.267   0.250
10227SOL    HW231581   5.045   4.406   0.270
10228SOL     OW31582   1.230   5.712   2.041
10228SOL    HW131583   1.179   5.796   2.058
10228SOL    HW231584   1.318   5.735   1.998
10229SOL     OW31585   1.989   2.028   4.251
10229SOL    HW131586   2.079   2.011   4.292
10229SOL    HW231587   1.966   1.953   4.189
10230SOL     OW31588   6.459   6.963   3.291
10230SOL    HW131589   6.554   6.931   3.300
10230SOL    HW231590   6.397   6.886   3.299
10231SOL     OW31591   6.178   5.342   5.371
10231SOL    HW131592   6.086   5.362   5.407
10231SOL    HW231593   6.179   5.250   5.332
10232SOL     OW31594   2.759   1.557   3.838
10232SOL    HW131595   2.835   1.611   3.874
10232SOL    HW231596   2.714   1.508   3.912
10233SOL     OW31597   4.076   4.038   5.837
10233SOL    HW131598   4.126   3.955   5.862
10233SOL    HW231599   4.136   4.101   5.788
10234SOL     OW31600   6.077   1.211   0.233
10234SOL    HW131601   6.069   1.154   0.150
10234SOL    HW231602   6.123   1.159   0.305
10235SOL     OW31603   3.398   1.909   1.008
10235SOL    HW131604   3.389   2.002   1.044
10235SOL    HW231605   3.489   1.898   0.967
10236SOL     OW31606   1.593   0.977   1.408
10236SOL    HW131607   1.582   0.885   1.369
10236SOL    HW231608   1.627   1.039   1.338
10237SOL     OW31609   6.964   4.402   6.580
10237SOL    HW131610   6.934   4.317   6.624
10237SOL    HW231611   6.889   4.440   6.526
10238SOL     OW31612   3.819   3.943   2.314
10238SOL    HW131613   3.776   4.008   2.376
10238SOL    HW231614   3.818   3.980   2.221
10239SOL     OW31615   2.026   3.733   5.678
10239SOL    HW131616   2.063   3.774   5.595
10239SOL    HW231617   2.017   3.634   5.665
10240SOL     OW31618   1.972   4.492   2.857
10240SOL    HW131619   1.909   4.415   2.854
10240SOL    HW231620   2.064   4.460   2.878
10241SOL     OW31621   6.892   6.337   3.096
10241SOL    HW131622   6.918   6.281   3.017
10241SOL    HW231623   6.801   6.310   3.127
10242SOL     OW31624   0.220   1.454   1.684
10242SOL    HW131625   0.312   1.418   1.700
10242SOL    HW231626   0.213   1.486   1.589
10243SOL     OW31627   2.144   4.824   2.276
10243SOL    HW131628   2.156   4.726   2.259
10243SOL    HW231629   2.165   4.843   2.372
10244SOL     OW31630   1.876   4.255   0.480
10244SOL    HW131631   1.947   4.296   0.424
10244SOL    HW231632   1.853   4.317   0.555
10245SOL     OW31633   3.327   4.821   0.486
10245SOL    HW131634   3.269   4.804   0.566
10245SOL    HW231635   3.399   4.885   0.510
10246SOL     OW31636   3.556   3.310   3.687
10246SOL    HW131637   3.562   3.244   3.762
10246SOL    HW231638   3.542   3.261   3.601
10247SOL     OW31639   6.990   4.085   6.034
10247SOL    HW131640   0.057   4.085   6.070
10247SOL    HW231641   6.928   4.130   6.099
10248SOL     OW31642   1.476   7.012   2.995
10248SOL    HW131643   1.547   0.018   2.931
10248SOL    HW231644   1.516   6.950   3.062
10249SOL     OW31645   2.387   6.606   6.735
10249SOL    HW131646   2.451   6.550   6.682
10249SOL    HW231647   2.411   6.601   6.832
10250SOL     OW31648   6.329   2.875   1.941
10250SOL    HW131649   6.241   2.832   1.961
10250SOL    HW231650   6.365   2.838   1.855
10251SOL     OW31651   2.319   1.473   4.547
10251SOL    HW131652   2.232   1.442   4.585
10251SOL    HW231653   2.374   1.395   4.520
10252SOL     OW31654   4.278   5.071   6.408
10252SOL    HW131655   4.289   5.010   6.330
10252SOL    HW231656   4.200   5.041   6.464
10253SOL     OW31657   2.932   6.896   0.329
10253SOL    HW131658   2.909   6.828   0.399
10253SOL    HW231659   3.002   6.958   0.365
10254SOL     OW31660   4.705   0.522   5.400
10254SOL    HW131661   4.607   0.541   5.405
10254SOL    HW231662   4.750   0.588   5.340
10255SOL     OW31663   1.768   6.322   0.778
10255SOL    HW131664   1.688   6.380   0.795
10255SOL    HW231665   1.816   6.305   0.864
10256SOL     OW31666   5.418   1.101   1.737
10256SOL    HW131667   5.331   1.088   1.691
10256SOL    HW231668   5.410   1.074   1.833
10257SOL     OW31669   2.415   4.984   4.662
10257SOL    HW131670   2.446   4.962   4.755
10257SOL    HW231671   2.364   5.070   4.663
10258SOL     OW31672   3.296   1.036   3.871
10258SOL    HW131673   3.300   1.005   3.966
10258SOL    HW231674   3.355   1.116   3.860
10259SOL     OW31675   0.525   4.985   3.544
10259SOL    HW131676   0.540   4.956   3.449
10259SOL    HW231677   0.512   5.084   3.546
10260SOL     OW31678   1.099   0.937   4.240
10260SOL    HW131679   1.133   0.844   4.230
10260SOL    HW231680   1.171   1.002   4.213
10261SOL     OW31681   0.203   5.391   3.166
10261SOL    HW131682   0.280   5.422   3.110
10261SOL    HW231683   0.234   5.322   3.230
10262SOL     OW31684   2.173   6.859   5.165
10262SOL    HW131685   2.228   6.834   5.086
10262SOL    HW231686   2.077   6.837   5.147
10263SOL     OW31687   5.306   0.608   6.849
10263SOL    HW131688   5.364   0.527   6.845
10263SOL    HW231689   5.361   0.690   6.833
10264SOL     OW31690   6.254   0.426   6.949
10264SOL    HW131691   6.202   0.468   7.024
10264SOL    HW231692   6.346   0.465   6.946
10265SOL     OW31693   2.161   2.690   1.739
10265SOL    HW131694   2.210   2.638   1.669
10265SOL    HW231695   2.103   2.628   1.792
10266SOL     OW31696   4.134   3.320   3.859
10266SOL    HW131697   4.231   3.346   3.863
10266SOL    HW231698   4.079   3.402   3.843
10267SOL     OW31699   5.680   2.328   6.572
10267SOL    HW131700   5.710   2.244   6.528
10267SOL    HW231701   5.615   2.307   6.644
10268SOL     OW31702   6.275   6.109   2.325
10268SOL    HW131703   6.239   6.016   2.318
10268SOL    HW231704   6.368   6.107   2.361
10269SOL     OW31705   0.443   3.228   7.002
10269SOL    HW131706   0.540   3.216   6.979
10269SOL    HW231707   0.387   3.211   6.922
10270SOL     OW31708   3.785   4.885   2.824
10270SOL    HW131709   3.687   4.904   2.837
10270SOL    HW231710   3.806   4.885   2.726
10271SOL     OW31711   3.322   2.445   5.670
10271SOL    HW131712   3.275   2.488   5.747
10271SOL    HW231713   3.416   2.478   5.665
10272SOL     OW31714   0.831   1.476   4.725
10272SOL    HW131715   0.880   1.414   4.664
10272SOL    HW231716   0.862   1.570   4.708
10273SOL     OW31717   2.961   5.924   2.882
10273SOL    HW131718   2.974   6.017   2.847
10273SOL    HW231719   2.976   5.859   2.808
10274SOL     OW31720   0.561   5.339   5.060
10274SOL    HW131721   0.637   5.365   5.001
10274SOL    HW231722   0.530   5.247   5.036
10275SOL     OW31723   0.177   6.533   1.621
10275SOL    HW131724   0.139   6.591   1.549
10275SOL    HW231725   0.269   6.564   1.644
10276SOL     OW31726   5.552   5.051   5.329
10276SOL    HW131727   5.486   5.109   5.377
10276SOL    HW231728   5.645   5.086   5.346
10277SOL     OW31729   1.792   5.268   3.453
10277SOL    HW131730   1.711   5.238   3.402
10277SOL    HW231731   1.870   5.211   3.427
10278SOL     OW31732   6.925   1.933   4.719
10278SOL    HW131733   6.982   1.950   4.638
10278SOL    HW231734   6.828   1.941   4.694
10279SOL     OW31735   3.003   5.561   3.757
10279SOL    HW131736   3.007   5.544   3.856
10279SOL    HW231737   2.909   5.554   3.726
10280SOL     OW31738   0.201   3.098   1.119
10280SOL    HW131739   0.299   3.122   1.119
10280SOL    HW231740   0.148   3.178   1.144
10281SOL     OW31741   5.876   1.613   2.441
10281SOL    HW131742   5.974   1.610   2.461
10281SOL    HW231743   5.825   1.571   2.516
10282SOL     OW31744   5.329   3.879   4.581
10282SOL    HW131745   5.324   3.903   4.484
10282SOL    HW231746   5.414   3.917   4.620
10283SOL     OW31747   1.055   3.141   0.455
10283SOL    HW131748   1.131   3.204   0.474
10283SOL    HW231749   1.093   3.051   0.430
10284SOL     OW31750   4.837   2.863   5.149
10284SOL    HW131751   4.908   2.794   5.139
10284SOL    HW231752   4.877   2.945   5.191
10285SOL     OW31753   5.663   0.216   2.272
10285SOL    HW131754   5.636   0.121   2.291
10285SOL    HW231755   5.701   0.222   2.180
10286SOL     OW31756   3.343   2.056   3.646
10286SOL    HW131757   3.366   2.012   3.559
10286SOL    HW231758   3.258   2.108   3.636
10287SOL     OW31759   1.907   0.164   1.340
10287SOL    HW131760   1.869   0.112   1.263
10287SOL    HW231761   1.973   0.231   1.305
10288SOL     OW31762   4.728   6.265   3.119
10288SOL    HW131763   4.827   6.275   3.128
10288SOL    HW231764   4.706   6.211   3.038
10289SOL     OW31765   1.802   6.714   0.997
10289SOL    HW131766   1.863   6.743   0.923
10289SOL    HW231767   1.827   6.621   1.025
10290SOL     OW31768   3.073   3.993   2.677
10290SOL    HW131769   3.088   4.061   2.605
10290SOL    HW231770   3.018   3.918   2.641
10291SOL     OW31771   4.125   1.340   2.877
10291SOL    HW131772   4.072   1.331   2.962
10291SOL    HW231773   4.215   1.379   2.898
10292SOL     OW31774   1.542   0.811   5.091
10292SOL    HW131775   1.471   0.877   5.066
10292SOL    HW231776   1.574   0.831   5.184
10293SOL     OW31777   2.197   4.326   2.943
10293SOL    HW131778   2.155   4.242   2.977
10293SOL    HW231779   2.268   4.356   3.006
10294SOL     OW31780   5.735   2.704   3.188
10294SOL    HW131781   5.716   2.801   3.204
10294SOL    HW231782   5.709   2.651   3.268
10295SOL     OW31783   6.232   4.770   5.937
10295SOL    HW131784   6.263   4.861   5.964
10295SOL    HW231785   6.257   4.704   6.008
10296SOL     OW31786   4.481   1.650   0.829
10296SOL    HW131787   4.557   1.656   0.894
10296SOL    HW231788   4.449   1.742   0.807
10297SOL     OW31789   2.088   6.913   6.501
10297SOL    HW131790   2.179   6.876   6.485
10297SOL    HW231791   2.020   6.856   6.453
10298SOL     OW31792   2.983   4.364   1.336
10298SOL    HW131793   2.961   4.461   1.324
10298SOL    HW231794   3.064   4.341   1.282
10299SOL     OW31795   5.187   4.692   3.194
10299SOL    HW131796   5.216   4.690   3.098
10299SOL    HW231797   5.260   4.652   3.251
10300SOL     OW31798   1.218   3.682   3.644
10300SOL    HW131799   1.118   3.677   3.640
10300SOL    HW231800   1.246   3.778   3.647
10301SOL     OW31801   5.316   2.824   4.845
10301SOL    HW131802   5.300   2.897   4.779
10301SOL    HW231803   5.324   2.736   4.797
10302SOL     OW31804   2.405   6.533   4.220
10302SOL    HW131805   2.337   6.527   4.293
10302SOL    HW231806   2.461   6.450   4.219
10303SOL     OW31807   1.843   6.176   2.535
10303SOL    HW131808   1.887   6.113   2.471
10303SOL    HW231809   1.795   6.247   2.483
10304SOL     OW31810   5.122   0.094   1.637
10304SOL    HW131811   5.201   0.149   1.661
10304SOL    HW231812   5.153   0.005   1.603
10305SOL     OW31813   0.919   4.354   6.433
10305SOL    HW131814   1.002   4.299   6.424
10305SOL    HW231815   0.839   4.298   6.411
10306SOL     OW31816   4.878   6.897   6.133
10306SOL    HW131817   4.887   6.798   6.127
10306SOL    HW231818   4.787   6.924   6.101
10307SOL     OW31819   2.849   2.201   5.767
10307SOL    HW131820   2.816   2.294   5.755
10307SOL    HW231821   2.771   2.140   5.783
10308SOL     OW31822   2.644   4.604   3.362
10308SOL    HW131823   2.558   4.644   3.333
10308SOL    HW231824   2.693   4.667   3.422
10309SOL     OW31825   6.869   2.002   4.968
10309SOL    HW131826   6.884   1.920   5.024
10309SOL    HW231827   6.883   1.980   4.872
10310SOL     OW31828   3.294   4.019   1.416
10310SOL    HW131829   3.296   3.998   1.513
10310SOL    HW231830   3.273   3.936   1.364
10311SOL     OW31831   0.222   6.234   0.445
10311SOL    HW131832   0.240   6.219   0.347
10311SOL    HW231833   0.174   6.321   0.456
10312SOL     OW31834   3.447   6.491   2.489
10312SOL    HW131835   3.376   6.551   2.453
10312SOL    HW231836   3.441   6.488   2.589
10313SOL     OW31837   4.779   6.710   1.597
10313SOL    HW131838   4.731   6.788   1.557
10313SOL    HW231839   4.849   6.677   1.533
10314SOL     OW31840   6.387   0.554   1.635
10314SOL    HW131841   6.371   0.542   1.733
10314SOL    HW231842   6.426   0.470   1.597
10315SOL     OW31843   5.174   6.299   4.988
10315SOL    HW131844   5.154   6.202   4.999
10315SOL    HW231845   5.255   6.323   5.041
10316SOL     OW31846   6.541   2.305   4.384
10316SOL    HW131847   6.495   2.243   4.320
10316SOL    HW231848   6.639   2.307   4.363
10317SOL     OW31849   3.774   5.465   4.930
10317SOL    HW131850   3.741   5.392   4.870
10317SOL    HW231851   3.829   5.426   5.003
10318SOL     OW31852   5.126   6.049   6.172
10318SOL    HW131853   5.147   6.005   6.260
10318SOL    HW231854   5.092   6.141   6.188
10319SOL     OW31855   1.792   2.134   5.794
10319SOL    HW131856   1.779   2.212   5.733
10319SOL    HW231857   1.772   2.162   5.888
10320SOL     OW31858   0.241   0.490   3.076
10320SOL    HW131859   0.200   0.500   3.167
10320SOL    HW231860   0.282   0.577   3.048
10321SOL     OW31861   3.861   0.955   2.519
10321SOL    HW131862   3.956   0.925   2.522
10321SOL    HW231863   3.829   0.953   2.424
10322SOL     OW31864   6.029   6.070   5.895
10322SOL    HW131865   5.986   6.148   5.850
10322SOL    HW231866   6.082   6.018   5.828
10323SOL     OW31867   6.087   3.273   5.731
10323SOL    HW131868   6.103   3.301   5.636
10323SOL    HW231869   6.082   3.354   5.789
10324SOL     OW31870   3.196   3.069   2.734
10324SOL    HW131871   3.226   2.984   2.691
10324SOL    HW231872   3.266   3.140   2.719
10325SOL     OW31873   0.477   3.854   2.538
10325SOL    HW131874   0.523   3.914   2.472
10325SOL    HW231875   0.382   3.841   2.511
10326SOL     OW31876   4.571   3.730   0.543
10326SOL    HW131877   4.534   3.655   0.597
10326SOL    HW231878   4.573   3.704   0.446
10327SOL     OW31879   2.533   2.178   1.642
10327SOL    HW131880   2.528   2.104   1.574
10327SOL    HW231881   2.569   2.142   1.728
10328SOL     OW31882   6.034   2.354   1.323
10328SOL    HW131883   6.016   2.342   1.226
10328SOL    HW231884   6.033   2.265   1.369
10329SOL     OW31885   3.294   0.252   3.844
10329SOL    HW131886   3.367   0.249   3.775
10329SOL    HW231887   3.326   0.211   3.929
10330SOL     OW31888   3.966   6.891   2.607
10330SOL    HW131889   4.049   6.899   2.552
10330SOL    HW231890   3.920   6.979   2.611
10331SOL     OW31891   0.070   1.586   4.608
10331SOL    HW131892   0.078   1.634   4.695
10331SOL    HW231893   7.023   1.627   4.554
10332SOL     OW31894   6.248   1.116   1.147
10332SOL    HW131895   6.301   1.162   1.218
10332SOL    HW231896   6.217   1.183   1.079
10333SOL     OW31897   6.276   4.129   4.722
10333SOL    HW131898   6.293   4.225   4.700
10333SOL    HW231899   6.180   4.116   4.746
10334SOL     OW31900   3.735   6.359   3.651
10334SOL    HW131901   3.730   6.260   3.636
10334SOL    HW231902   3.700   6.407   3.571
10335SOL     OW31903   2.592   4.415   6.330
10335SOL    HW131904   2.494   4.409   6.345
10335SOL    HW231905   2.638   4.339   6.374
10336SOL     OW31906   6.494   0.066   2.796
10336SOL    HW131907   6.439   0.143   2.765
10336SOL    HW231908   6.581   0.099   2.833
10337SOL     OW31909   0.271   6.935   5.797
10337SOL    HW131910   0.303   6.982   5.879
10337SOL    HW231911   0.208   6.862   5.823
10338SOL     OW31912   2.820   6.338   1.910
10338SOL    HW131913   2.910   6.364   1.876
10338SOL    HW231914   2.825   6.246   1.949
10339SOL     OW31915   2.760   5.595   0.261
10339SOL    HW131916   2.776   5.624   0.167
10339SOL    HW231917   2.827   5.640   0.321
10340SOL     OW31918   1.648   5.865   1.123
10340SOL    HW131919   1.647   5.872   1.223
10340SOL    HW231920   1.660   5.956   1.083
10341SOL     OW31921   1.917   3.444   1.835
10341SOL    HW131922   1.902   3.349   1.864
10341SOL    HW231923   2.006   3.452   1.791
10342SOL     OW31924   0.737   6.632   5.080
10342SOL    HW131925   0.743   6.711   5.142
10342SOL    HW231926   0.695   6.555   5.128
10343SOL     OW31927   3.003   5.246   6.893
10343SOL    HW131928   3.033   5.259   6.799
10343SOL    HW231929   3.082   5.230   6.952
10344SOL     OW31930   4.227   4.507   1.613
10344SOL    HW131931   4.242   4.525   1.710
10344SOL    HW231932   4.247   4.589   1.560
10345SOL     OW31933   1.965   1.289   6.681
10345SOL    HW131934   2.026   1.269   6.758
10345SOL    HW231935   1.969   1.386   6.659
10346SOL     OW31936   6.065   6.931   1.583
10346SOL    HW131937   6.024   6.989   1.653
10346SOL    HW231938   6.075   6.838   1.618
10347SOL     OW31939   5.184   2.339   2.229
10347SOL    HW131940   5.088   2.345   2.255
10347SOL    HW231941   5.196   2.375   2.136
10348SOL     OW31942   6.391   1.891   0.074
10348SOL    HW131943   6.431   1.799   0.069
10348SOL    HW231944   6.291   1.884   0.069
10349SOL     OW31945   6.749   1.499   1.453
10349SOL    HW131946   6.778   1.591   1.426
10349SOL    HW231947   6.824   1.434   1.435
10350SOL     OW31948   2.053   6.188   5.504
10350SOL    HW131949   2.103   6.245   5.440
10350SOL    HW231950   2.075   6.091   5.488
10351SOL     OW31951   4.795   5.123   6.267
10351SOL    HW131952   4.803   5.032   6.306
10351SOL    HW231953   4.700   5.152   6.266
10352SOL     OW31954   4.735   2.342   6.715
10352SOL    HW131955   4.682   2.258   6.720
10352SOL    HW231956   4.710   2.402   6.791
10353SOL     OW31957   6.851   2.458   5.563
10353SOL    HW131958   6.776   2.458   5.497
10353SOL    HW231959   6.848   2.373   5.616
10354SOL     OW31960   5.873   2.191   2.386
10354SOL    HW131961   5.791   2.214   2.438
10354SOL    HW231962   5.906   2.271   2.336
10355SOL     OW31963   2.382   0.615   2.092
10355SOL    HW131964   2.389   0.548   2.019
10355SOL    HW231965   2.290   0.656   2.091
10356SOL     OW31966   6.935   3.820   5.847
10356SOL    HW131967   6.963   3.872   5.927
10356SOL    HW231968   6.968   3.865   5.764
10357SOL     OW31969   3.205   2.767   6.604
10357SOL    HW131970   3.235   2.820   6.683
10357SOL    HW231971   3.197   2.826   6.524
10358SOL     OW31972   6.175   3.322   3.692
10358SOL    HW131973   6.195   3.226   3.709
10358SOL    HW231974   6.110   3.354   3.761
10359SOL     OW31975   6.503   1.327   1.838
10359SOL    HW131976   6.545   1.295   1.753
10359SOL    HW231977   6.435   1.397   1.817
10360SOL     OW31978   4.310   5.392   1.290
10360SOL    HW131979   4.288   5.477   1.243
10360SOL    HW231980   4.303   5.405   1.389
10361SOL     OW31981   2.512   1.049   2.931
10361SOL    HW131982   2.552   1.041   2.840
10361SOL    HW231983   2.414   1.032   2.926
10362SOL     OW31984   0.865   5.293   3.826
10362SOL    HW131985   0.810   5.214   3.799
10362SOL    HW231986   0.816   5.344   3.897
10363SOL     OW31987   4.711   2.879   0.934
10363SOL    HW131988   4.677   2.787   0.917
10363SOL    HW231989   4.655   2.945   0.882
10364SOL     OW31990   3.571   3.530   2.082
10364SOL    HW131991   3.573   3.623   2.120
10364SOL    HW231992   3.525   3.469   2.146
10365SOL     OW31993   5.341   4.572   5.613
10365SOL    HW131994   5.416   4.545   5.674
10365SOL    HW231995   5.302   4.490   5.570
10366SOL     OW31996   3.948   0.067   4.104
10366SOL    HW131997   3.975   0.067   4.008
10366SOL    HW231998   3.873   0.003   4.118
10367SOL     OW31999   6.522   1.801   2.355
10367SOL    HW132000   6.482   1.737   2.289
10367SOL    HW232001   6.621   1.791   2.355
10368SOL     OW32002   2.125   0.791   2.713
10368SOL    HW132003   2.087   0.732   2.641
10368SOL    HW232004   2.053   0.816   2.777
10369SOL     OW32005   3.517   0.938   5.575
10369SOL    HW132006   3.612   0.908   5.581
10369SOL    HW232007   3.484   0.963   5.666
10370SOL     OW32008   5.580   1.205   5.488
10370SOL    HW132009   5.597   1.209   5.389
10370SOL    HW232010   5.482   1.218   5.505
10371SOL     OW32011   2.300   5.749   4.506
10371SOL    HW132012   2.281   5.702   4.593
10371SOL    HW232013   2.399   5.756   4.493
10372SOL     OW32014   1.785   1.083   0.586
10372SOL    HW132015   1.813   0.990   0.561
10372SOL    HW232016   1.818   1.104   0.678
10373SOL     OW32017   1.409   6.521   5.344
10373SOL    HW132018   1.313   6.547   5.340
10373SOL    HW232019   1.418   6.436   5.397
10374SOL     OW32020   2.721   1.196   3.428
10374SOL    HW132021   2.738   1.259   3.352
10374SOL    HW232022   2.732   1.245   3.514
10375SOL     OW32023   2.768   1.791   6.476
10375SOL    HW132024   2.741   1.741   6.394
10375SOL    HW232025   2.866   1.809   6.472
10376SOL     OW32026   1.049   5.560   3.615
10376SOL    HW132027   1.047   5.615   3.699
10376SOL    HW232028   0.956   5.543   3.584
10377SOL     OW32029   6.263   0.939   4.119
10377SOL    HW132030   6.305   1.003   4.054
10377SOL    HW232031   6.186   0.893   4.074
10378SOL     OW32032   5.632   6.958   5.287
10378SOL    HW132033   5.613   6.909   5.202
10378SOL    HW232034   5.598   0.026   5.281
10379SOL     OW32035   3.331   6.751   4.263
10379SOL    HW132036   3.392   6.717   4.335
10379SOL    HW232037   3.241   6.709   4.272
10380SOL     OW32038   0.890   2.339   5.099
10380SOL    HW132039   0.903   2.428   5.056
10380SOL    HW232040   0.950   2.272   5.056
10381SOL     OW32041   4.333   4.599   0.741
10381SOL    HW132042   4.320   4.641   0.831
10381SOL    HW232043   4.397   4.655   0.688
10382SOL     OW32044   2.283   4.834   1.045
10382SOL    HW132045   2.272   4.885   1.130
10382SOL    HW232046   2.322   4.744   1.066
10383SOL     OW32047   0.364   4.094   0.841
10383SOL    HW132048   0.298   4.109   0.915
10383SOL    HW232049   0.358   3.999   0.810
10384SOL     OW32050   6.566   0.471   1.314
10384SOL    HW132051   6.584   0.423   1.400
10384SOL    HW232052   6.600   0.565   1.320
10385SOL     OW32053   3.716   6.541   5.694
10385SOL    HW132054   3.667   6.540   5.607
10385SOL    HW232055   3.814   6.535   5.677
10386SOL     OW32056   6.546   1.728   5.316
10386SOL    HW132057   6.574   1.824   5.306
10386SOL    HW232058   6.449   1.719   5.294
10387SOL     OW32059   4.679   1.650   2.294
10387SOL    HW132060   4.592   1.690   2.322
10387SOL    HW232061   4.729   1.618   2.375
10388SOL     OW32062   2.377   5.688   2.317
10388SOL    HW132063   2.459   5.667   2.264
10388SOL    HW232064   2.295   5.668   2.262
10389SOL     OW32065   6.687   6.291   1.303
10389SOL    HW132066   6.650   6.210   1.348
10389SOL    HW232067   6.756   6.333   1.362
10390SOL     OW32068   1.865   2.202   1.256
10390SOL    HW132069   1.828   2.289   1.291
10390SOL    HW232070   1.904   2.150   1.332
10391SOL     OW32071   0.044   5.949   3.705
10391SOL    HW132072   0.056   5.907   3.615
10391SOL    HW232073   7.016   6.033   3.696
10392SOL     OW32074   6.832   4.192   6.288
10392SOL    HW132075   6.832   4.292   6.280
10392SOL    HW232076   6.882   4.166   6.371
10393SOL     OW32077   2.516   2.562   2.574
10393SOL    HW132078   2.444   2.494   2.585
10393SOL    HW232079   2.605   2.516   2.568
10394SOL     OW32080   2.322   5.867   4.857
10394SOL    HW132081   2.268   5.793   4.817
10394SOL    HW232082   2.387   5.830   4.924
10395SOL     OW32083   6.924   1.027   3.712
10395SOL    HW132084   6.829   0.996   3.713
10395SOL    HW232085   6.985   0.949   3.726
10396SOL     OW32086   2.862   0.623   4.005
10396SOL    HW132087   2.923   0.554   3.966
10396SOL    HW232088   2.852   0.606   4.103
10397SOL     OW32089   2.907   1.688   4.507
10397SOL    HW132090   2.894   1.690   4.408
10397SOL    HW232091   2.819   1.698   4.552
10398SOL     OW32092   5.045   2.071   0.530
10398SOL    HW132093   4.984   1.994   0.514
10398SOL    HW232094   5.010   2.151   0.481
10399SOL     OW32095   4.316   1.775   4.813
10399SOL    HW132096   4.368   1.853   4.779
10399SOL    HW232097   4.222   1.803   4.833
10400SOL     OW32098   3.808   5.334   0.617
10400SOL    HW132099   3.831   5.412   0.675
10400SOL    HW232100   3.867   5.257   0.640
10401SOL     OW32101   0.105   0.405   2.680
10401SOL    HW132102   0.195   0.450   2.679
10401SOL    HW232103   0.043   0.456   2.740
10402SOL     OW32104   0.580   2.177   5.826
10402SOL    HW132105   0.501   2.214   5.778
10402SOL    HW232106   0.559   2.169   5.924
10403SOL     OW32107   4.315   1.138   3.016
10403SOL    HW132108   4.301   1.099   2.925
10403SOL    HW232109   4.283   1.075   3.085
10404SOL     OW32110   6.903   7.017   4.525
10404SOL    HW132111   6.910   6.972   4.436
10404SOL    HW232112   6.987   7.002   4.577
10405SOL     OW32113   1.477   5.726   4.694
10405SOL    HW132114   1.379   5.745   4.684
10405SOL    HW232115   1.494   5.628   4.683
10406SOL     OW32116   2.107   3.225   5.375
10406SOL    HW132117   2.207   3.227   5.376
10406SOL    HW232118   2.075   3.234   5.280
10407SOL     OW32119   2.271   0.561   6.341
10407SOL    HW132120   2.180   0.604   6.336
10407SOL    HW232121   2.312   0.579   6.430
10408SOL     OW32122   4.100   6.291   1.986
10408SOL    HW132123   4.095   6.210   2.045
10408SOL    HW232124   4.085   6.373   2.041
10409SOL     OW32125   0.693   3.945   0.467
10409SOL    HW132126   0.721   3.910   0.377
10409SOL    HW232127   0.638   4.027   0.455
10410SOL     OW32128   5.614   2.414   1.441
10410SOL    HW132129   5.657   2.366   1.365
10410SOL    HW232130   5.650   2.379   1.527
10411SOL     OW32131   3.977   5.759   4.701
10411SOL    HW132132   4.056   5.784   4.757
10411SOL    HW232133   3.899   5.740   4.761
10412SOL     OW32134   6.711   0.953   0.488
10412SOL    HW132135   6.694   0.855   0.500
10412SOL    HW232136   6.748   0.990   0.574
10413SOL     OW32137   6.819   1.760   1.410
10413SOL    HW132138   6.776   1.806   1.488
10413SOL    HW232139   6.918   1.765   1.418
10414SOL     OW32140   3.963   6.060   5.533
10414SOL    HW132141   3.907   6.006   5.470
10414SOL    HW232142   4.032   6.001   5.576
10415SOL     OW32143   2.211   4.110   3.821
10415SOL    HW132144   2.168   4.181   3.765
10415SOL    HW232145   2.238   4.149   3.909
10416SOL     OW32146   6.113   0.401   5.091
10416SOL    HW132147   6.122   0.449   5.003
10416SOL    HW232148   6.118   0.302   5.075
10417SOL     OW32149   4.674   5.459   4.280
10417SOL    HW132150   4.721   5.437   4.194
10417SOL    HW232151   4.578   5.478   4.260
10418SOL     OW32152   6.145   4.078   6.005
10418SOL    HW132153   6.127   4.140   6.082
10418SOL    HW232154   6.216   4.013   6.031
10419SOL     OW32155   2.854   6.999   5.396
10419SOL    HW132156   2.786   0.041   5.370
10419SOL    HW232157   2.946   0.012   5.382
10420SOL     OW32158   6.964   3.758   3.991
10420SOL    HW132159   6.983   3.805   4.077
10420SOL    HW232160   6.898   3.810   3.937
10421SOL     OW32161   1.765   3.363   4.767
10421SOL    HW132162   1.763   3.389   4.671
10421SOL    HW232163   1.854   3.384   4.806
10422SOL     OW32164   6.961   3.588   5.116
10422SOL    HW132165   6.962   3.508   5.056
10422SOL    HW232166   7.025   3.573   5.192
10423SOL     OW32167   4.649   4.873   5.098
10423SOL    HW132168   4.566   4.922   5.125
10423SOL    HW232169   4.724   4.896   5.160
10424SOL     OW32170   4.210   3.138   0.406
10424SOL    HW132171   4.241   3.150   0.501
10424SOL    HW232172   4.149   3.213   0.381
10425SOL     OW32173   0.953   5.661   2.837
10425SOL    HW132174   1.024   5.618   2.781
10425SOL    HW232175   0.975   5.649   2.933
10426SOL     OW32176   5.368   4.224   6.201
10426SOL    HW132177   5.451   4.168   6.195
10426SOL    HW232178   5.303   4.195   6.131
10427SOL     OW32179   5.103   0.580   0.213
10427SOL    HW132180   5.172   0.616   0.150
10427SOL    HW232181   5.052   0.507   0.167
10428SOL     OW32182   2.919   1.691   4.218
10428SOL    HW132183   2.973   1.608   4.199
10428SOL    HW232184   2.964   1.770   4.176
10429SOL     OW32185   0.948   3.659   2.817
10429SOL    HW132186   1.040   3.645   2.854
10429SOL    HW232187   0.925   3.581   2.758
10430SOL     OW32188   3.393   6.682   4.693
10430SOL    HW132189   3.376   6.774   4.658
10430SOL    HW232190   3.311   6.626   4.681
10431SOL     OW32191   2.902   7.021   4.550
10431SOL    HW132192   2.892   0.095   4.551
10431SOL    HW232193   2.843   6.980   4.619
10432SOL     OW32194   0.099   1.611   4.887
10432SOL    HW132195   0.033   1.621   4.961
10432SOL    HW232196   0.182   1.567   4.921
10433SOL     OW32197   0.522   6.886   2.497
10433SOL    HW132198   0.427   6.870   2.526
10433SOL    HW232199   0.576   6.915   2.575
10434SOL     OW32200   3.845   5.958   4.573
10434SOL    HW132201   3.767   5.923   4.521
10434SOL    HW232202   3.892   5.882   4.618
10435SOL     OW32203   2.186   2.228   6.281
10435SOL    HW132204   2.219   2.254   6.372
10435SOL    HW232205   2.262   2.192   6.228
10436SOL     OW32206   6.270   3.937   4.541
10436SOL    HW132207   6.296   3.996   4.617
10436SOL    HW232208   6.305   3.845   4.556
10437SOL     OW32209   6.186   5.091   5.223
10437SOL    HW132210   6.160   4.999   5.252
10437SOL    HW232211   6.229   5.086   5.133
10438SOL     OW32212   0.865   6.178   6.169
10438SOL    HW132213   0.784   6.142   6.217
10438SOL    HW232214   0.838   6.256   6.112
10439SOL     OW32215   5.532   1.050   5.014
10439SOL    HW132216   5.533   0.981   5.086
10439SOL    HW232217   5.440   1.056   4.974
10440SOL     OW32218   0.317   0.063   0.168
10440SOL    HW132219   0.298   0.152   0.210
10440SOL    HW232220   0.374   0.077   0.087
10441SOL     OW32221   2.782   1.646   1.372
10441SOL    HW132222   2.751   1.575   1.309
10441SOL    HW232223   2.873   1.622   1.407
10442SOL     OW32224   4.325   6.750   4.828
10442SOL    HW132225   4.322   6.715   4.735
10442SOL    HW232226   4.293   6.680   4.891
10443SOL     OW32227   5.465   2.622   3.054
10443SOL    HW132228   5.552   2.671   3.047
10443SOL    HW232229   5.483   2.524   3.067
10444SOL     OW32230   4.195   5.782   2.101
10444SOL    HW132231   4.283   5.755   2.142
10444SOL    HW232232   4.131   5.705   2.108
10445SOL     OW32233   0.654   3.507   3.113
10445SOL    HW132234   0.736   3.553   3.079
10445SOL    HW232235   0.648   3.516   3.212
10446SOL     OW32236   2.184   3.333   6.389
10446SOL    HW132237   2.134   3.276   6.324
10446SOL    HW232238   2.183   3.290   6.479
10447SOL     OW32239   0.386   0.281   3.149
10447SOL    HW132240   0.410   0.227   3.069
10447SOL    HW232241   0.340   0.366   3.119
10448SOL     OW32242   3.780   0.694   2.058
10448SOL    HW132243   3.814   0.604   2.082
10448SOL    HW232244   3.854   0.749   2.020
10449SOL     OW32245   1.911   5.431   6.359
10449SOL    HW132246   1.835   5.405   6.299
10449SOL    HW232247   1.881   5.427   6.454
10450SOL     OW32248   0.015   1.795   6.867
10450SOL    HW132249   6.948   1.794   6.904
10450SOL    HW232250   0.021   1.733   6.789
10451SOL     OW32251   2.660   6.427   3.178
10451SOL    HW132252   2.574   6.477   3.181
10451SOL    HW232253   2.737   6.491   3.178
10452SOL     OW32254   6.136   2.936   2.884
10452SOL    HW132255   6.058   2.879   2.911
10452SOL    HW232256   6.166   2.989   2.963
10453SOL     OW32257   5.654   6.333   1.478
10453SOL    HW132258   5.739   6.315   1.529
10453SOL    HW232259   5.576   6.317   1.537
10454SOL     OW32260   5.723   2.074   0.365
10454SOL    HW132261   5.686   2.007   0.300
10454SOL    HW232262   5.800   2.122   0.323
10455SOL     OW32263   0.066   6.281   3.304
10455SOL    HW132264   7.024   6.301   3.233
10455SOL    HW232265   0.061   6.351   3.375
10456SOL     OW32266   1.058   5.190   0.717
10456SOL    HW132267   1.148   5.164   0.753
10456SOL    HW232268   1.045   5.288   0.728
10457SOL     OW32269   4.484   3.209   0.355
10457SOL    HW132270   4.391   3.191   0.388
10457SOL    HW232271   4.539   3.126   0.365
10458SOL     OW32272   6.711   0.316   6.185
10458SOL    HW132273   6.780   0.244   6.180
10458SOL    HW232274   6.621   0.276   6.199
10459SOL     OW32275   4.367   5.666   1.352
10459SOL    HW132276   4.450   5.661   1.296
10459SOL    HW232277   4.391   5.665   1.449
10460SOL     OW32278   2.112   3.894   1.817
10460SOL    HW132279   2.190   3.843   1.782
10460SOL    HW232280   2.036   3.888   1.753
10461SOL     OW32281   5.883   4.736   5.254
10461SOL    HW132282   5.901   4.644   5.289
10461SOL    HW232283   5.784   4.748   5.243
10462SOL     OW32284   5.597   2.421   2.835
10462SOL    HW132285   5.565   2.475   2.757
10462SOL    HW232286   5.519   2.395   2.892
10463SOL     OW32287   4.019   2.359   6.035
10463SOL    HW132288   3.962   2.340   5.956
10463SOL    HW232289   4.115   2.345   6.011
10464SOL     OW32290   6.083   6.763   2.460
10464SOL    HW132291   5.994   6.720   2.477
10464SOL    HW232292   6.154   6.712   2.507
10465SOL     OW32293   5.548   5.820   1.035
10465SOL    HW132294   5.490   5.805   0.955
10465SOL    HW232295   5.543   5.916   1.063
10466SOL     OW32296   4.663   4.586   5.202
10466SOL    HW132297   4.744   4.598   5.258
10466SOL    HW232298   4.640   4.673   5.157
10467SOL     OW32299   2.134   1.755   0.153
10467SOL    HW132300   2.225   1.792   0.171
10467SOL    HW232301   2.087   1.739   0.240
10468SOL     OW32302   3.636   4.901   3.408
10468SOL    HW132303   3.585   4.879   3.325
10468SOL    HW232304   3.578   4.884   3.488
10469SOL     OW32305   3.895   4.293   5.808
10469SOL    HW132306   3.897   4.314   5.710
10469SOL    HW232307   3.938   4.204   5.824
10470SOL     OW32308   1.584   1.827   3.357
10470SOL    HW132309   1.669   1.778   3.379
10470SOL    HW232310   1.597   1.925   3.371
10471SOL     OW32311   2.239   0.251   0.580
10471SOL    HW132312   2.302   0.181   0.547
10471SOL    HW232313   2.166   0.267   0.513
10472SOL     OW32314   3.022   5.865   0.542
10472SOL    HW132315   3.015   5.941   0.607
10472SOL    HW232316   2.941   5.808   0.551
10473SOL     OW32317   6.418   6.964   6.129
10473SOL    HW132318   6.372   6.949   6.042
10473SOL    HW232319   6.374   6.910   6.200
10474SOL     OW32320   4.160   1.162   4.286
10474SOL    HW132321   4.084   1.219   4.253
10474SOL    HW232322   4.164   1.166   4.386
10475SOL     OW32323   4.159   6.563   1.456
10475SOL    HW132324   4.201   6.548   1.366
10475SOL    HW232325   4.135   6.660   1.466
10476SOL     OW32326   6.281   6.527   6.372
10476SOL    HW132327   6.366   6.580   6.374
10476SOL    HW232328   6.292   6.444   6.425
10477SOL     OW32329   0.027   1.387   4.402
10477SOL    HW132330   0.024   1.455   4.476
10477SOL    HW232331   6.974   1.326   4.409
10478SOL     OW32332   6.339   0.255   0.746
10478SOL    HW132333   6.353   0.325   0.676
10478SOL    HW232334   6.375   0.287   0.833
10479SOL     OW32335   6.863   1.492   2.684
10479SOL    HW132336   6.876   1.492   2.783
10479SOL    HW232337   6.765   1.484   2.663
10480SOL     OW32338   0.921   0.605   2.242
10480SOL    HW132339   0.849   0.542   2.273
10480SOL    HW232340   0.906   0.695   2.282
10481SOL     OW32341   2.046   5.964   3.873
10481SOL    HW132342   2.071   6.015   3.791
10481SOL    HW232343   2.089   6.005   3.953
10482SOL     OW32344   6.455   5.010   4.237
10482SOL    HW132345   6.533   4.971   4.287
10482SOL    HW232346   6.370   4.984   4.283
10483SOL     OW32347   6.096   5.129   0.439
10483SOL    HW132348   6.029   5.137   0.513
10483SOL    HW232349   6.172   5.072   0.469
10484SOL     OW32350   5.605   1.895   1.493
10484SOL    HW132351   5.623   1.837   1.413
10484SOL    HW232352   5.515   1.937   1.484
10485SOL     OW32353   3.412   4.060   0.780
10485SOL    HW132354   3.334   4.058   0.842
10485SOL    HW232355   3.425   4.153   0.745
10486SOL     OW32356   6.788   0.433   0.805
10486SOL    HW132357   6.841   0.372   0.747
10486SOL    HW232358   6.834   0.444   0.894
10487SOL     OW32359   5.026   0.570   1.481
10487SOL    HW132360   4.940   0.556   1.431
10487SOL    HW232361   5.062   0.661   1.462
10488SOL     OW32362   3.648   1.011   5.985
10488SOL    HW132363   3.573   1.017   5.919
10488SOL    HW232364   3.678   1.103   6.009
10489SOL     OW32365   0.831   6.737   5.329
10489SOL    HW132366   0.786   6.662   5.378
10489SOL    HW232367   0.926   6.712   5.310
10490SOL     OW32368   5.934   1.350   1.175
10490SOL    HW132369   5.843   1.387   1.158
10490SOL    HW232370   6.003   1.414   1.143
10491SOL     OW32371   1.781   2.548   0.149
10491SOL    HW132372   1.714   2.504   0.209
10491SOL    HW232373   1.873   2.516   0.173
10492SOL     OW32374   5.762   4.695   5.811
10492SOL    HW132375   5.847   4.643   5.821
10492SOL    HW232376   5.729   4.722   5.901
10493SOL     OW32377   3.215   0.585   2.359
10493SOL    HW132378   3.209   0.658   2.426
10493SOL    HW232379   3.174   0.501   2.396
10494SOL     OW32380   5.512   3.962   5.995
10494SOL    HW132381   5.427   3.925   5.958
10494SOL    HW232382   5.586   3.947   5.929
10495SOL     OW32383   1.659   6.759   0.119
10495SOL    HW132384   1.757   6.772   0.135
10495SOL    HW232385   1.612   6.847   0.123
10496SOL     OW32386   0.236   3.987   6.411
10496SOL    HW132387   0.299   3.971   6.487
10496SOL    HW232388   0.187   3.903   6.390
10497SOL     OW32389   1.784   0.099   2.129
10497SOL    HW132390   1.721   0.075   2.203
10497SOL    HW232391   1.759   0.048   2.047
10498SOL     OW32392   3.007   5.201   0.732
10498SOL    HW132393   3.042   5.127   0.675
10498SOL    HW232394   3.081   5.237   0.789
10499SOL     OW32395   3.568   0.047   2.746
10499SOL    HW132396   3.642   0.094   2.793
10499SOL    HW232397   3.481   0.066   2.792
10500SOL     OW32398   6.464   1.635   6.375
10500SOL    HW132399   6.393   1.568   6.354
10500SOL    HW232400   6.439   1.685   6.458
10501SOL     OW32401   2.293   5.769   2.569
10501SOL    HW132402   2.338   5.766   2.480
10501SOL    HW232403   2.287   5.676   2.606
10502SOL     OW32404   2.473   0.363   1.294
10502SOL    HW132405   2.539   0.421   1.341
10502SOL    HW232406   2.404   0.331   1.359
10503SOL     OW32407   4.518   2.785   0.514
10503SOL    HW132408   4.438   2.810   0.459
10503SOL    HW232409   4.551   2.695   0.485
10504SOL     OW32410   1.257   1.940   5.755
10504SOL    HW132411   1.272   1.930   5.657
10504SOL    HW232412   1.198   2.018   5.773
10505SOL     OW32413   5.636   5.168   0.230
10505SOL    HW132414   5.637   5.116   0.316
10505SOL    HW232415   5.618   5.107   0.154
10506SOL     OW32416   0.372   4.532   0.617
10506SOL    HW132417   0.456   4.507   0.568
10506SOL    HW232418   0.380   4.624   0.653
10507SOL     OW32419   1.770   0.576   6.985
10507SOL    HW132420   1.730   0.643   6.923
10507SOL    HW232421   1.701   0.507   7.009
10508SOL     OW32422   6.167   6.648   4.821
10508SOL    HW132423   6.147   6.666   4.725
10508SOL    HW232424   6.154   6.551   4.841
10509SOL     OW32425   1.056   5.349   4.047
10509SOL    HW132426   1.038   5.444   4.023
10509SOL    HW232427   1.084   5.298   3.966
10510SOL     OW32428   4.583   6.100   6.015
10510SOL    HW132429   4.607   6.110   6.111
10510SOL    HW232430   4.610   6.010   5.982
10511SOL     OW32431   3.756   0.891   2.283
10511SOL    HW132432   3.812   0.936   2.213
10511SOL    HW232433   3.780   0.794   2.287
10512SOL     OW32434   4.272   0.257   6.094
10512SOL    HW132435   4.210   0.195   6.045
10512SOL    HW232436   4.347   0.284   6.033
10513SOL     OW32437   6.107   2.594   4.516
10513SOL    HW132438   6.083   2.522   4.582
10513SOL    HW232439   6.038   2.667   4.521
10514SOL     OW32440   0.194   4.199   0.345
10514SOL    HW132441   0.101   4.161   0.343
10514SOL    HW232442   0.208   4.246   0.433
10515SOL     OW32443   1.138   3.170   3.009
10515SOL    HW132444   1.054   3.126   3.037
10515SOL    HW232445   1.149   3.162   2.910
10516SOL     OW32446   3.889   1.195   0.503
10516SOL    HW132447   3.797   1.157   0.505
10516SOL    HW232448   3.941   1.161   0.582
10517SOL     OW32449   1.160   2.377   2.429
10517SOL    HW132450   1.086   2.442   2.440
10517SOL    HW232451   1.245   2.426   2.411
10518SOL     OW32452   0.693   5.593   6.781
10518SOL    HW132453   0.606   5.578   6.734
10518SOL    HW232454   0.763   5.533   6.742
10519SOL     OW32455   2.003   3.125   6.898
10519SOL    HW132456   2.053   3.040   6.912
10519SOL    HW232457   1.913   3.104   6.859
10520SOL     OW32458   0.876   2.759   6.639
10520SOL    HW132459   0.900   2.675   6.687
10520SOL    HW232460   0.928   2.764   6.553
10521SOL     OW32461   6.491   6.687   2.480
10521SOL    HW132462   6.541   6.770   2.456
10521SOL    HW232463   6.478   6.631   2.398
10522SOL     OW32464   0.397   0.313   5.681
10522SOL    HW132465   0.422   0.295   5.586
10522SOL    HW232466   0.305   0.279   5.699
10523SOL     OW32467   0.010   4.917   3.669
10523SOL    HW132468   6.996   4.831   3.635
10523SOL    HW232469   0.109   4.910   3.669
10524SOL     OW32470   1.672   0.425   4.994
10524SOL    HW132471   1.610   0.503   4.996
10524SOL    HW232472   1.752   0.443   5.051
10525SOL     OW32473   3.665   6.476   6.733
10525SOL    HW132474   3.625   6.566   6.716
10525SOL    HW232475   3.612   6.429   6.803
10526SOL     OW32476   1.252   6.966   4.031
10526SOL    HW132477   1.336   6.929   4.071
10526SOL    HW232478   1.219   6.905   3.960
10527SOL     OW32479   0.107   1.944   4.932
10527SOL    HW132480   0.072   1.943   4.838
10527SOL    HW232481   0.063   2.018   4.983
10528SOL     OW32482   1.769   3.422   6.283
10528SOL    HW132483   1.864   3.423   6.314
10528SOL    HW232484   1.754   3.498   6.220
10529SOL     OW32485   3.133   5.612   4.106
10529SOL    HW132486   3.192   5.562   4.042
10529SOL    HW232487   3.181   5.622   4.194
10530SOL     OW32488   2.214   0.077   6.625
10530SOL    HW132489   2.256   0.139   6.558
10530SOL    HW232490   2.149   0.017   6.578
10531SOL     OW32491   1.633   2.880   3.896
10531SOL    HW132492   1.727   2.885   3.929
10531SOL    HW232493   1.581   2.958   3.931
10532SOL     OW32494   0.886   5.710   5.541
10532SOL    HW132495   0.818   5.692   5.470
10532SOL    HW232496   0.946   5.785   5.512
10533SOL     OW32497   2.832   1.115   5.323
10533SOL    HW132498   2.875   1.049   5.385
10533SOL    HW232499   2.904   1.163   5.272
10534SOL     OW32500   6.792   5.870   1.639
10534SOL    HW132501   6.754   5.841   1.552
10534SOL    HW232502   6.885   5.835   1.649
10535SOL     OW32503   0.750   2.014   1.204
10535SOL    HW132504   0.806   1.933   1.220
10535SOL    HW232505   0.804   2.096   1.220
10536SOL     OW32506   3.868   0.388   3.205
10536SOL    HW132507   3.849   0.296   3.170
10536SOL    HW232508   3.821   0.455   3.147
10537SOL     OW32509   3.774   5.161   4.253
10537SOL    HW132510   3.810   5.087   4.195
10537SOL    HW232511   3.730   5.230   4.195
10538SOL     OW32512   5.112   1.865   0.829
10538SOL    HW132513   5.110   1.964   0.821
10538SOL    HW232514   5.145   1.839   0.920
10539SOL     OW32515   0.914   4.152   0.234
10539SOL    HW132516   0.893   4.055   0.224
10539SOL    HW232517   1.010   4.163   0.262
10540SOL     OW32518   1.840   2.301   5.093
10540SOL    HW132519   1.743   2.278   5.086
10540SOL    HW232520   1.851   2.401   5.089
10541SOL     OW32521   3.515   4.137   2.221
10541SOL    HW132522   3.473   4.223   2.251
10541SOL    HW232523   3.585   4.109   2.286
10542SOL     OW32524   0.000   0.423   5.313
10542SOL    HW132525   0.073   0.392   5.375
10542SOL    HW232526   6.940   0.430   5.364
10543SOL     OW32527   0.528   0.820   5.314
10543SOL    HW132528   0.566   0.728   5.327
10543SOL    HW232529   0.458   0.817   5.244
10544SOL     OW32530   2.386   6.453   2.011
10544SOL    HW132531   2.396   6.550   2.037
10544SOL    HW232532   2.427   6.396   2.082
10545SOL     OW32533   6.344   1.037   2.167
10545SOL    HW132534   6.443   1.038   2.178
10545SOL    HW232535   6.317   1.112   2.106
10546SOL     OW32536   1.830   1.020   6.816
10546SOL    HW132537   1.856   1.062   6.728
10546SOL    HW232538   1.906   1.028   6.880
10547SOL     OW32539   5.627   2.527   2.390
10547SOL    HW132540   5.578   2.507   2.475
10547SOL    HW232541   5.586   2.474   2.315
10548SOL     OW32542   5.478   4.681   4.612
10548SOL    HW132543   5.578   4.686   4.615
10548SOL    HW232544   5.447   4.685   4.516
10549SOL     OW32545   0.112   6.849   1.935
10549SOL    HW132546   0.102   6.803   1.847
10549SOL    HW232547   0.097   6.947   1.924
10550SOL     OW32548   3.985   5.835   3.996
10550SOL    HW132549   3.922   5.828   3.918
10550SOL    HW232550   4.058   5.768   3.986
10551SOL     OW32551   1.382   2.598   5.606
10551SOL    HW132552   1.442   2.523   5.578
10551SOL    HW232553   1.349   2.647   5.526
10552SOL     OW32554   3.223   1.213   6.853
10552SOL    HW132555   3.242   1.198   6.756
10552SOL    HW232556   3.249   1.306   6.878
10553SOL     OW32557   0.812   4.643   1.796
10553SOL    HW132558   0.742   4.644   1.725
10553SOL    HW232559   0.878   4.570   1.778
10554SOL     OW32560   5.594   4.840   0.249
10554SOL    HW132561   5.605   4.774   0.324
10554SOL    HW232562   5.514   4.897   0.266
10555SOL     OW32563   1.898   2.946   0.290
10555SOL    HW132564   1.804   2.937   0.324
10555SOL    HW232565   1.911   3.038   0.255
10556SOL     OW32566   2.154   1.668   5.624
10556SOL    HW132567   2.202   1.587   5.656
10556SOL    HW232568   2.181   1.687   5.530
10557SOL     OW32569   2.353   2.381   3.283
10557SOL    HW132570   2.286   2.433   3.336
10557SOL    HW232571   2.361   2.419   3.191
10558SOL     OW32572   3.658   1.510   3.658
10558SOL    HW132573   3.627   1.577   3.591
10558SOL    HW232574   3.735   1.458   3.620
10559SOL     OW32575   5.345   0.104   0.935
10559SOL    HW132576   5.320   0.128   1.029
10559SOL    HW232577   5.440   0.128   0.919
10560SOL     OW32578   3.486   6.282   2.856
10560SOL    HW132579   3.557   6.230   2.903
10560SOL    HW232580   3.396   6.249   2.884
10561SOL     OW32581   3.002   4.166   0.546
10561SOL    HW132582   3.079   4.224   0.520
10561SOL    HW232583   2.916   4.211   0.520
10562SOL     OW32584   4.463   5.437   0.266
10562SOL    HW132585   4.453   5.349   0.220
10562SOL    HW232586   4.558   5.449   0.294
10563SOL     OW32587   0.740   1.323   3.726
10563SOL    HW132588   0.836   1.318   3.754
10563SOL    HW232589   0.734   1.333   3.627
10564SOL     OW32590   5.905   6.364   1.913
10564SOL    HW132591   5.890   6.346   2.010
10564SOL    HW232592   5.994   6.327   1.885
10565SOL     OW32593   0.897   0.817   6.090
10565SOL    HW132594   0.902   0.850   6.184
10565SOL    HW232595   0.821   0.863   6.043
10566SOL     OW32596   3.617   2.143   0.321
10566SOL    HW132597   3.534   2.117   0.272
10566SOL    HW232598   3.603   2.232   0.365
10567SOL     OW32599   3.166   1.766   4.426
10567SOL    HW132600   3.110   1.801   4.351
10567SOL    HW232601   3.108   1.716   4.490
10568SOL     OW32602   6.406   2.775   1.685
10568SOL    HW132603   6.482   2.795   1.622
10568SOL    HW232604   6.319   2.792   1.639
10569SOL     OW32605   5.916   1.811   1.923
10569SOL    HW132606   5.819   1.810   1.947
10569SOL    HW232607   5.929   1.779   1.829
10570SOL     OW32608   1.598   4.958   3.364
10570SOL    HW132609   1.524   4.927   3.424
10570SOL    HW232610   1.591   5.057   3.352
10571SOL     OW32611   6.891   4.711   5.550
10571SOL    HW132612   6.871   4.802   5.513
10571SOL    HW232613   6.957   4.664   5.491
10572SOL     OW32614   0.114   4.294   3.165
10572SOL    HW132615   0.026   4.251   3.185
10572SOL    HW232616   0.147   4.263   3.076
10573SOL     OW32617   4.524   0.119   4.707
10573SOL    HW132618   4.495   0.087   4.617
10573SOL    HW232619   4.560   0.042   4.760
10574SOL     OW32620   1.541   1.184   3.900
10574SOL    HW132621   1.542   1.205   3.998
10574SOL    HW232622   1.626   1.216   3.859
10575SOL     OW32623   6.422   1.368   2.753
10575SOL    HW132624   6.352   1.320   2.701
10575SOL    HW232625   6.473   1.429   2.692
10576SOL     OW32626   0.025   6.196   5.162
10576SOL    HW132627   0.017   6.289   5.125
10576SOL    HW232628   6.994   6.188   5.244
10577SOL     OW32629   1.910   3.184   0.138
10577SOL    HW132630   1.829   3.241   0.152
10577SOL    HW232631   1.940   3.192   0.043
10578SOL     OW32632   5.712   1.473   3.032
10578SOL    HW132633   5.746   1.517   2.949
10578SOL    HW232634   5.614   1.490   3.041
10579SOL     OW32635   3.998   2.180   1.590
10579SOL    HW132636   3.952   2.099   1.553
10579SOL    HW232637   3.979   2.188   1.688
10580SOL     OW32638   6.467   0.369   6.647
10580SOL    HW132639   6.505   0.409   6.731
10580SOL    HW232640   6.467   0.269   6.655
10581SOL     OW32641   6.951   6.763   3.481
10581SOL    HW132642   6.874   6.722   3.431
10581SOL    HW232643   6.920   6.790   3.573
10582SOL     OW32644   5.665   5.318   6.638
10582SOL    HW132645   5.623   5.251   6.700
10582SOL    HW232646   5.753   5.284   6.606
10583SOL     OW32647   3.812   1.381   4.774
10583SOL    HW132648   3.813   1.396   4.675
10583SOL    HW232649   3.896   1.416   4.814
10584SOL     OW32650   6.557   6.380   1.622
10584SOL    HW132651   6.503   6.433   1.688
10584SOL    HW232652   6.628   6.438   1.582
10585SOL     OW32653   2.271   2.550   6.130
10585SOL    HW132654   2.225   2.461   6.127
10585SOL    HW232655   2.204   2.623   6.118
10586SOL     OW32656   6.337   5.004   5.001
10586SOL    HW132657   6.392   4.928   5.033
10586SOL    HW232658   6.384   5.090   5.020
10587SOL     OW32659   6.199   4.285   0.348
10587SOL    HW132660   6.170   4.346   0.274
10587SOL    HW232661   6.289   4.314   0.381
10588SOL     OW32662   0.420   2.959   3.681
10588SOL    HW132663   0.366   2.902   3.743
10588SOL    HW232664   0.465   3.031   3.733
10589SOL     OW32665   5.839   1.578   4.196
10589SOL    HW132666   5.896   1.507   4.238
10589SOL    HW232667   5.821   1.649   4.264
10590SOL     OW32668   0.693   0.263   1.945
10590SOL    HW132669   0.705   0.220   1.856
10590SOL    HW232670   0.776   0.250   2.000
10591SOL     OW32671   0.816   1.668   6.574
10591SOL    HW132672   0.858   1.671   6.664
10591SOL    HW232673   0.745   1.597   6.573
10592SOL     OW32674   6.039   3.906   1.787
10592SOL    HW132675   6.020   4.002   1.807
10592SOL    HW232676   6.047   3.892   1.689
10593SOL     OW32677   2.435   5.545   0.492
10593SOL    HW132678   2.509   5.610   0.475
10593SOL    HW232679   2.403   5.555   0.586
10594SOL     OW32680   4.732   0.200   2.303
10594SOL    HW132681   4.743   0.102   2.292
10594SOL    HW232682   4.636   0.225   2.286
10595SOL     OW32683   3.861   6.731   6.229
10595SOL    HW132684   3.782   6.672   6.211
10595SOL    HW232685   3.846   6.781   6.314
10596SOL     OW32686   4.651   0.394   7.001
10596SOL    HW132687   4.610   0.442   6.924
10596SOL    HW232688   4.739   0.436   7.024
10597SOL     OW32689   3.604   0.984   5.159
10597SOL    HW132690   3.588   0.904   5.217
10597SOL    HW232691   3.582   1.067   5.211
10598SOL     OW32692   2.844   2.683   0.649
10598SOL    HW132693   2.899   2.695   0.566
10598SOL    HW232694   2.828   2.585   0.663
10599SOL     OW32695   5.399   2.683   5.913
10599SOL    HW132696   5.418   2.664   6.010
10599SOL    HW232697   5.462   2.629   5.857
10600SOL     OW32698   2.070   2.201   0.688
10600SOL    HW132699   2.129   2.130   0.650
10600SOL    HW232700   2.126   2.266   0.740
10601SOL     OW32701   1.509   4.585   5.516
10601SOL    HW132702   1.550   4.520   5.581
10601SOL    HW232703   1.547   4.570   5.425
10602SOL     OW32704   3.642   1.730   2.536
10602SOL    HW132705   3.617   1.745   2.441
10602SOL    HW232706   3.560   1.706   2.589
10603SOL     OW32707   3.297   5.946   3.230
10603SOL    HW132708   3.295   5.947   3.130
10603SOL    HW232709   3.219   5.893   3.264
10604SOL     OW32710   5.914   4.967   5.524
10604SOL    HW132711   5.980   4.974   5.599
10604SOL    HW232712   5.958   4.926   5.444
10605SOL     OW32713   1.449   5.890   0.189
10605SOL    HW132714   1.491   5.802   0.214
10605SOL    HW232715   1.373   5.909   0.251
10606SOL     OW32716   6.912   0.627   2.716
10606SOL    HW132717   6.913   0.608   2.815
10606SOL    HW232718   6.826   0.593   2.677
10607SOL     OW32719   4.134   4.832   5.689
10607SOL    HW132720   4.086   4.764   5.744
10607SOL    HW232721   4.070   4.873   5.623
10608SOL     OW32722   5.222   2.221   5.584
10608SOL    HW132723   5.203   2.249   5.678
10608SOL    HW232724   5.137   2.201   5.536
10609SOL     OW32725   2.897   6.674   0.497
10609SOL    HW132726   2.864   6.691   0.590
10609SOL    HW232727   2.921   6.577   0.487
10610SOL     OW32728   1.578   2.662   5.835
10610SOL    HW132729   1.529   2.575   5.844
10610SOL    HW232730   1.549   2.708   5.751
10611SOL     OW32731   4.069   3.877   6.229
10611SOL    HW132732   4.159   3.897   6.191
10611SOL    HW232733   4.000   3.883   6.157
10612SOL     OW32734   2.928   0.953   5.506
10612SOL    HW132735   2.993   0.977   5.577
10612SOL    HW232736   2.970   0.888   5.442
10613SOL     OW32737   5.954   6.830   4.868
10613SOL    HW132738   5.964   6.908   4.805
10613SOL    HW232739   6.030   6.767   4.855
10614SOL     OW32740   6.530   2.170   3.869
10614SOL    HW132741   6.565   2.140   3.781
10614SOL    HW232742   6.597   2.150   3.941
10615SOL     OW32743   3.408   6.516   5.822
10615SOL    HW132744   3.368   6.466   5.746
10615SOL    HW232745   3.434   6.452   5.895
10616SOL     OW32746   2.626   6.363   0.929
10616SOL    HW132747   2.558   6.437   0.924
10616SOL    HW232748   2.591   6.291   0.989
10617SOL     OW32749   2.303   2.548   1.153
10617SOL    HW132750   2.331   2.637   1.189
10617SOL    HW232751   2.212   2.526   1.188
10618SOL     OW32752   0.409   3.930   6.613
10618SOL    HW132753   0.368   3.853   6.662
10618SOL    HW232754   0.435   4.001   6.679
10619SOL     OW32755   0.244   4.464   2.234
10619SOL    HW132756   0.239   4.374   2.277
10619SOL    HW232757   0.153   4.494   2.207
10620SOL     OW32758   1.469   5.676   5.231
10620SOL    HW132759   1.512   5.617   5.300
10620SOL    HW232760   1.510   5.658   5.142
10621SOL     OW32761   1.113   6.236   2.243
10621SOL    HW132762   1.047   6.288   2.188
10621SOL    HW232763   1.154   6.295   2.312
10622SOL     OW32764   5.194   1.298   1.455
10622SOL    HW132765   5.191   1.211   1.504
10622SOL    HW232766   5.112   1.306   1.397
10623SOL     OW32767   0.111   4.831   5.404
10623SOL    HW132768   0.078   4.913   5.451
10623SOL    HW232769   0.159   4.773   5.470
10624SOL     OW32770   0.389   2.941   4.551
10624SOL    HW132771   0.425   2.850   4.571
10624SOL    HW232772   0.307   2.957   4.605
10625SOL     OW32773   0.357   4.111   7.016
10625SOL    HW132774   0.339   4.180   0.060
10625SOL    HW232775   0.452   4.081   7.023
10626SOL     OW32776   2.808   3.314   0.932
10626SOL    HW132777   2.787   3.346   0.839
10626SOL    HW232778   2.750   3.236   0.954
10627SOL     OW32779   4.974   6.900   0.391
10627SOL    HW132780   5.003   6.836   0.463
10627SOL    HW232781   5.002   6.863   0.302
10628SOL     OW32782   4.608   5.841   0.111
10628SOL    HW132783   4.544   5.765   0.107
10628SOL    HW232784   4.697   5.812   0.077
10629SOL     OW32785   2.564   5.037   5.149
10629SOL    HW132786   2.617   4.952   5.156
10629SOL    HW232787   2.618   5.113   5.187
10630SOL     OW32788   6.824   1.411   4.176
10630SOL    HW132789   6.882   1.477   4.129
10630SOL    HW232790   6.732   1.449   4.186
10631SOL     OW32791   2.690   4.845   4.624
10631SOL    HW132792   2.610   4.802   4.582
10631SOL    HW232793   2.746   4.888   4.552
10632SOL     OW32794   6.240   1.999   4.082
10632SOL    HW132795   6.245   2.066   4.008
10632SOL    HW232796   6.150   1.955   4.081
10633SOL     OW32797   2.655   3.322   1.379
10633SOL    HW132798   2.699   3.267   1.308
10633SOL    HW232799   2.702   3.306   1.466
10634SOL     OW32800   2.858   5.817   0.927
10634SOL    HW132801   2.900   5.906   0.946
10634SOL    HW232802   2.762   5.818   0.956
10635SOL     OW32803   3.567   1.471   0.959
10635SOL    HW132804   3.565   1.546   1.025
10635SOL    HW232805   3.660   1.459   0.924
10636SOL     OW32806   0.920   1.600   1.641
10636SOL    HW132807   0.850   1.588   1.571
10636SOL    HW232808   1.005   1.557   1.611
10637SOL     OW32809   2.456   4.596   5.584
10637SOL    HW132810   2.407   4.511   5.568
10637SOL    HW232811   2.533   4.603   5.521
10638SOL     OW32812   0.221   5.650   3.069
10638SOL    HW132813   0.207   5.679   2.974
10638SOL    HW232814   0.168   5.568   3.087
10639SOL     OW32815   1.368   3.271   3.125
10639SOL    HW132816   1.275   3.250   3.095
10639SOL    HW232817   1.369   3.361   3.168
10640SOL     OW32818   3.306   0.343   5.395
10640SOL    HW132819   3.367   0.292   5.456
10640SOL    HW232820   3.334   0.438   5.391
10641SOL     OW32821   3.136   1.734   1.145
10641SOL    HW132822   3.162   1.748   1.049
10641SOL    HW232823   3.083   1.650   1.153
10642SOL     OW32824   6.841   2.891   1.735
10642SOL    HW132825   6.887   2.964   1.684
10642SOL    HW232826   6.755   2.926   1.772
10643SOL     OW32827   2.126   5.042   5.270
10643SOL    HW132828   2.219   5.042   5.307
10643SOL    HW232829   2.061   5.054   5.345
10644SOL     OW32830   5.149   2.989   3.406
10644SOL    HW132831   5.193   3.068   3.365
10644SOL    HW232832   5.212   2.947   3.472
10645SOL     OW32833   1.103   1.966   5.068
10645SOL    HW132834   1.188   1.914   5.076
10645SOL    HW232835   1.115   2.057   5.108
10646SOL     OW32836   0.057   0.596   6.912
10646SOL    HW132837   0.040   0.565   6.819
10646SOL    HW232838   0.145   0.644   6.916
10647SOL     OW32839   3.234   5.348   6.087
10647SOL    HW132840   3.259   5.345   6.184
10647SOL    HW232841   3.145   5.303   6.075
10648SOL     OW32842   5.288   4.551   5.981
10648SOL    HW132843   5.377   4.506   5.980
10648SOL    HW232844   5.231   4.513   5.908
10649SOL     OW32845   0.443   3.961   3.090
10649SOL    HW132846   0.480   3.871   3.068
10649SOL    HW232847   0.455   3.978   3.188
10650SOL     OW32848   1.317   6.023   3.696
10650SOL    HW132849   1.399   6.076   3.671
10650SOL    HW232850   1.343   5.927   3.711
10651SOL     OW32851   4.416   6.410   6.219
10651SOL    HW132852   4.491   6.344   6.230
10651SOL    HW232853   4.387   6.443   6.308
10652SOL     OW32854   3.600   6.566   6.194
10652SOL    HW132855   3.548   6.648   6.218
10652SOL    HW232856   3.584   6.494   6.262
10653SOL     OW32857   5.006   4.005   3.913
10653SOL    HW132858   5.040   3.922   3.868
10653SOL    HW232859   5.051   4.085   3.872
10654SOL     OW32860   4.620   0.943   0.579
10654SOL    HW132861   4.584   1.029   0.616
10654SOL    HW232862   4.546   0.876   0.573
10655SOL     OW32863   2.633   5.783   0.493
10655SOL    HW132864   2.704   5.738   0.547
10655SOL    HW232865   2.592   5.857   0.546
10656SOL     OW32866   6.858   2.149   1.751
10656SOL    HW132867   6.904   2.118   1.834
10656SOL    HW232868   6.924   2.193   1.691
10657SOL     OW32869   6.632   0.573   6.089
10657SOL    HW132870   6.715   0.590   6.037
10657SOL    HW232871   6.649   0.500   6.155
10658SOL     OW32872   6.161   4.342   5.101
10658SOL    HW132873   6.190   4.435   5.082
10658SOL    HW232874   6.240   4.281   5.096
10659SOL     OW32875   6.869   6.224   1.083
10659SOL    HW132876   6.802   6.226   1.157
10659SOL    HW232877   6.931   6.302   1.092
10660SOL     OW32878   5.503   3.889   0.125
10660SOL    HW132879   5.453   3.902   0.210
10660SOL    HW232880   5.438   3.869   0.051
10661SOL     OW32881   0.086   6.877   2.430
10661SOL    HW132882   0.142   6.877   2.347
10661SOL    HW232883   0.146   6.870   2.510
10662SOL     OW32884   5.547   0.917   3.211
10662SOL    HW132885   5.464   0.864   3.227
10662SOL    HW232886   5.547   0.952   3.117
10663SOL     OW32887   0.519   0.704   1.644
10663SOL    HW132888   0.540   0.795   1.610
10663SOL    HW232889   0.583   0.638   1.605
10664SOL     OW32890   1.182   5.087   4.590
10664SOL    HW132891   1.244   5.163   4.613
10664SOL    HW232892   1.230   5.000   4.605
10665SOL     OW32893   1.049   1.074   0.921
10665SOL    HW132894   1.145   1.089   0.896
10665SOL    HW232895   1.023   1.137   0.993
10666SOL     OW32896   2.653   4.139   0.626
10666SOL    HW132897   2.710   4.218   0.603
10666SOL    HW232898   2.706   4.074   0.681
10667SOL     OW32899   4.246   3.324   5.350
10667SOL    HW132900   4.181   3.350   5.421
10667SOL    HW232901   4.201   3.326   5.261
10668SOL     OW32902   1.741   1.458   5.383
10668SOL    HW132903   1.700   1.420   5.300
10668SOL    HW232904   1.687   1.430   5.463
10669SOL     OW32905   5.809   6.507   0.614
10669SOL    HW132906   5.812   6.606   0.607
10669SOL    HW232907   5.718   6.474   0.588
10670SOL     OW32908   5.287   4.168   5.021
10670SOL    HW132909   5.265   4.105   4.946
10670SOL    HW232910   5.212   4.168   5.087
10671SOL     OW32911   2.647   2.141   2.917
10671SOL    HW132912   2.659   2.240   2.919
10671SOL    HW232913   2.630   2.108   3.010
10672SOL     OW32914   6.445   2.845   0.829
10672SOL    HW132915   6.432   2.911   0.902
10672SOL    HW232916   6.505   2.885   0.759
10673SOL     OW32917   0.740   1.437   7.009
10673SOL    HW132918   0.761   1.530   6.977
10673SOL    HW232919   0.693   1.387   6.936
10674SOL     OW32920   2.842   4.521   0.666
10674SOL    HW132921   2.783   4.596   0.637
10674SOL    HW232922   2.823   4.498   0.762
10675SOL     OW32923   1.894   6.994   6.090
10675SOL    HW132924   1.989   6.964   6.083
10675SOL    HW232925   1.850   6.988   6.000
10676SOL     OW32926   6.251   6.740   5.439
10676SOL    HW132927   6.307   6.786   5.371
10676SOL    HW232928   6.202   6.664   5.395
10677SOL     OW32929   0.640   0.695   2.188
10677SOL    HW132930   0.698   0.718   2.110
10677SOL    HW232931   0.545   0.719   2.168
10678SOL     OW32932   3.803   5.923   2.729
10678SOL    HW132933   3.811   5.908   2.827
10678SOL    HW232934   3.864   5.997   2.701
10679SOL     OW32935   5.258   5.044   6.190
10679SOL    HW132936   5.163   5.024   6.168
10679SOL    HW232937   5.314   4.962   6.174
10680SOL     OW32938   2.389   1.401   3.630
10680SOL    HW132939   2.366   1.432   3.538
10680SOL    HW232940   2.432   1.311   3.625
10681SOL     OW32941   0.229   3.911   0.109
10681SOL    HW132942   0.277   3.983   0.059
10681SOL    HW232943   0.172   3.858   0.046
10682SOL     OW32944   1.360   1.788   3.549
10682SOL    HW132945   1.390   1.735   3.628
10682SOL    HW232946   1.440   1.821   3.499
10683SOL     OW32947   3.672   1.845   3.674
10683SOL    HW132948   3.647   1.939   3.695
10683SOL    HW232949   3.743   1.814   3.738
10684SOL     OW32950   4.985   3.759   1.313
10684SOL    HW132951   5.060   3.702   1.281
10684SOL    HW232952   4.925   3.781   1.236
10685SOL     OW32953   0.124   4.883   3.109
10685SOL    HW132954   0.062   4.885   3.031
10685SOL    HW232955   0.211   4.841   3.081
10686SOL     OW32956   2.267   4.611   6.167
10686SOL    HW132957   2.236   4.695   6.210
10686SOL    HW232958   2.320   4.557   6.232
10687SOL     OW32959   0.017   5.418   2.093
10687SOL    HW132960   6.944   5.401   2.093
10687SOL    HW232961   0.064   5.347   2.146
10688SOL     OW32962   6.905   4.469   2.789
10688SOL    HW132963   6.835   4.504   2.850
10688SOL    HW232964   6.987   4.527   2.796
10689SOL     OW32965   0.965   6.867   4.202
10689SOL    HW132966   1.000   6.960   4.196
10689SOL    HW232967   0.918   6.843   4.117
10690SOL     OW32968   6.977   5.609   3.526
10690SOL    HW132969   6.951   5.599   3.430
10690SOL    HW232970   6.896   5.607   3.584
10691SOL     OW32971   0.380   1.058   2.627
10691SOL    HW132972   0.399   1.104   2.540
10691SOL    HW232973   0.328   0.974   2.609
10692SOL     OW32974   3.712   4.918   2.545
10692SOL    HW132975   3.612   4.915   2.544
10692SOL    HW232976   3.747   4.884   2.458
10693SOL     OW32977   2.217   0.188   1.370
10693SOL    HW132978   2.175   0.277   1.354
10693SOL    HW232979   2.275   0.192   1.452
10694SOL     OW32980   4.620   6.455   1.234
10694SOL    HW132981   4.689   6.434   1.303
10694SOL    HW232982   4.549   6.385   1.236
10695SOL     OW32983   5.201   2.286   2.925
10695SOL    HW132984   5.140   2.363   2.904
10695SOL    HW232985   5.201   2.222   2.848
10696SOL     OW32986   6.913   4.111   3.009
10696SOL    HW132987   6.918   4.029   3.064
10696SOL    HW232988   6.846   4.174   3.049
10697SOL     OW32989   6.844   6.777   5.271
10697SOL    HW132990   6.871   6.682   5.283
10697SOL    HW232991   6.790   6.807   5.350
10698SOL     OW32992   4.245   6.228   3.940
10698SOL    HW132993   4.152   6.211   3.973
10698SOL    HW232994   4.258   6.184   3.851
10699SOL     OW32995   3.947   2.103   2.110
10699SOL    HW132996   3.851   2.130   2.100
10699SOL    HW232997   3.953   2.024   2.171
10700SOL     OW32998   1.028   0.132   0.835
10700SOL    HW132999   1.050   0.055   0.776
10700SOL    HW233000   1.109   0.191   0.845
10701SOL     OW33001   3.709   5.928   0.200
10701SOL    HW133002   3.675   5.963   0.288
10701SOL    HW233003   3.734   5.832   0.210
10702SOL     OW33004   6.506   2.655   3.073
10702SOL    HW133005   6.491   2.563   3.038
10702SOL    HW233006   6.580   2.699   3.021
10703SOL     OW33007   3.742   3.192   4.279
10703SOL    HW133008   3.822   3.253   4.282
10703SOL    HW233009   3.697   3.202   4.191
10704SOL     OW33010   5.754   5.662   1.401
10704SOL    HW133011   5.815   5.738   1.423
10704SOL    HW233012   5.702   5.637   1.483
10705SOL     OW33013   0.167   4.139   2.077
10705SOL    HW133014   0.074   4.105   2.089
10705SOL    HW233015   0.167   4.214   2.011
10706SOL     OW33016   4.812   6.859   1.822
10706SOL    HW133017   4.748   6.808   1.879
10706SOL    HW233018   4.818   6.818   1.732
10707SOL     OW33019   1.090   6.839   4.587
10707SOL    HW133020   1.061   6.748   4.616
10707SOL    HW233021   1.009   6.895   4.570
10708SOL     OW33022   4.714   0.626   2.715
10708SOL    HW133023   4.633   0.681   2.735
10708SOL    HW233024   4.686   0.541   2.670
10709SOL     OW33025   6.127   0.851   5.322
10709SOL    HW133026   6.182   0.768   5.333
10709SOL    HW233027   6.141   0.887   5.230
10710SOL     OW33028   0.622   6.280   4.276
10710SOL    HW133029   0.567   6.299   4.195
10710SOL    HW233030   0.585   6.330   4.354
10711SOL     OW33031   1.809   6.627   4.211
10711SOL    HW133032   1.768   6.537   4.226
10711SOL    HW233033   1.854   6.628   4.122
10712SOL     OW33034   3.463   0.580   2.215
10712SOL    HW133035   3.384   0.562   2.273
10712SOL    HW233036   3.461   0.675   2.185
10713SOL     OW33037   1.530   3.597   1.839
10713SOL    HW133038   1.486   3.576   1.752
10713SOL    HW233039   1.536   3.514   1.894
10714SOL     OW33040   6.518   2.909   5.397
10714SOL    HW133041   6.443   2.852   5.364
10714SOL    HW233042   6.595   2.903   5.334
10715SOL     OW33043   3.681   0.644   3.122
10715SOL    HW133044   3.627   0.607   3.197
10715SOL    HW233045   3.621   0.662   3.044
10716SOL     OW33046   6.887   2.905   3.371
10716SOL    HW133047   6.804   2.932   3.321
10716SOL    HW233048   6.902   2.807   3.359
10717SOL     OW33049   0.710   2.108   0.300
10717SOL    HW133050   0.662   2.049   0.235
10717SOL    HW233051   0.650   2.183   0.328
10718SOL     OW33052   6.643   4.104   0.447
10718SOL    HW133053   6.571   4.057   0.397
10718SOL    HW233054   6.725   4.047   0.449
10719SOL     OW33055   4.717   6.107   1.155
10719SOL    HW133056   4.673   6.069   1.074
10719SOL    HW233057   4.658   6.092   1.235
10720SOL     OW33058   0.581   3.725   6.018
10720SOL    HW133059   0.627   3.791   6.077
10720SOL    HW233060   0.556   3.768   5.932
10721SOL     OW33061   6.197   2.591   5.081
10721SOL    HW133062   6.177   2.511   5.138
10721SOL    HW233063   6.246   2.561   4.999
10722SOL     OW33064   0.014   2.595   0.504
10722SOL    HW133065   0.071   2.591   0.421
10722SOL    HW233066   0.054   2.538   0.575
10723SOL     OW33067   6.393   4.224   6.826
10723SOL    HW133068   6.377   4.126   6.821
10723SOL    HW233069   6.435   4.247   6.914
10724SOL     OW33070   3.016   6.842   6.411
10724SOL    HW133071   3.003   6.911   6.340
10724SOL    HW233072   3.106   6.853   6.453
10725SOL     OW33073   6.817   5.066   3.806
10725SOL    HW133074   6.886   5.005   3.766
10725SOL    HW233075   6.856   5.113   3.885
10726SOL     OW33076   5.571   6.445   5.334
10726SOL    HW133077   5.570   6.468   5.431
10726SOL    HW233078   5.659   6.403   5.310
10727SOL     OW33079   1.639   4.844   4.576
10727SOL    HW133080   1.708   4.916   4.567
10727SOL    HW233081   1.649   4.800   4.666
10728SOL     OW33082   6.052   0.005   2.602
10728SOL    HW133083   6.117   7.018   2.527
10728SOL    HW233084   5.971   0.054   2.569
10729SOL     OW33085   6.057   1.158   3.125
10729SOL    HW133086   6.077   1.201   3.213
10729SOL    HW233087   5.975   1.199   3.086
10730SOL     OW33088   2.459   6.717   1.212
10730SOL    HW133089   2.461   6.732   1.311
10730SOL    HW233090   2.381   6.766   1.173
10731SOL     OW33091   2.068   5.796   6.904
10731SOL    HW133092   1.992   5.854   6.874
10731SOL    HW233093   2.092   5.732   6.831
10732SOL     OW33094   5.674   6.756   2.791
10732SOL    HW133095   5.755   6.806   2.758
10732SOL    HW233096   5.693   6.658   2.790
10733SOL     OW33097   5.700   2.737   0.363
10733SOL    HW133098   5.752   2.803   0.418
10733SOL    HW233099   5.635   2.787   0.305
10734SOL     OW33100   1.346   0.450   6.339
10734SOL    HW133101   1.348   0.518   6.411
10734SOL    HW233102   1.404   0.373   6.364
10735SOL     OW33103   1.179   4.311   2.272
10735SOL    HW133104   1.102   4.264   2.315
10735SOL    HW233105   1.264   4.274   2.308
10736SOL     OW33106   0.470   1.089   3.729
10736SOL    HW133107   0.425   1.001   3.715
10736SOL    HW233108   0.569   1.075   3.736
10737SOL     OW33109   0.970   2.508   0.467
10737SOL    HW133110   1.062   2.471   0.476
10737SOL    HW233111   0.973   2.596   0.420
10738SOL     OW33112   2.380   7.011   1.953
10738SOL    HW133113   2.322   0.011   1.876
10738SOL    HW233114   2.326   6.959   2.019
10739SOL     OW33115   6.945   1.006   3.232
10739SOL    HW133116   0.003   1.032   3.184
10739SOL    HW233117   6.879   1.082   3.228
10740SOL     OW33118   0.838   5.466   5.755
10740SOL    HW133119   0.902   5.390   5.759
10740SOL    HW233120   0.874   5.543   5.809
10741SOL     OW33121   0.985   1.066   3.430
10741SOL    HW133122   0.947   1.138   3.373
10741SOL    HW233123   1.006   1.103   3.521
10742SOL     OW33124   5.940   0.121   2.252
10742SOL    HW133125   6.004   0.048   2.280
10742SOL    HW233126   5.884   0.147   2.330
10743SOL     OW33127   2.540   2.525   3.453
10743SOL    HW133128   2.635   2.509   3.428
10743SOL    HW233129   2.480   2.485   3.383
10744SOL     OW33130   3.046   1.602   2.629
10744SOL    HW133131   3.078   1.696   2.638
10744SOL    HW233132   3.046   1.576   2.533
10745SOL     OW33133   1.638   4.500   6.863
10745SOL    HW133134   1.576   4.570   6.827
10745SOL    HW233135   1.701   4.471   6.791
10746SOL     OW33136   2.059   5.228   1.139
10746SOL    HW133137   2.002   5.304   1.109
10746SOL    HW233138   2.052   5.152   1.074
10747SOL     OW33139   4.910   1.486   3.624
10747SOL    HW133140   4.827   1.445   3.662
10747SOL    HW233141   4.887   1.569   3.574
10748SOL     OW33142   6.001   6.313   0.755
10748SOL    HW133143   6.054   6.372   0.817
10748SOL    HW233144   5.942   6.370   0.698
10749SOL     OW33145   0.202   5.171   3.350
10749SOL    HW133146   0.162   5.099   3.295
10749SOL    HW233147   0.131   5.212   3.408
10750SOL     OW33148   4.761   4.666   4.413
10750SOL    HW133149   4.801   4.679   4.504
10750SOL    HW233150   4.705   4.583   4.413
10751SOL     OW33151   0.847   3.136   5.330
10751SOL    HW133152   0.848   3.059   5.268
10751SOL    HW233153   0.847   3.103   5.425
10752SOL     OW33154   6.064   3.625   6.580
10752SOL    HW133155   6.010   3.584   6.653
10752SOL    HW233156   6.008   3.691   6.530
10753SOL     OW33157   6.171   0.165   3.501
10753SOL    HW133158   6.199   0.163   3.597
10753SOL    HW233159   6.138   0.074   3.475
10754SOL     OW33160   2.270   2.274   2.596
10754SOL    HW133161   2.189   2.327   2.622
10754SOL    HW233162   2.245   2.209   2.524
10755SOL     OW33163   0.116   1.610   0.769
10755SOL    HW133164   0.159   1.693   0.734
10755SOL    HW233165   0.045   1.580   0.706
10756SOL     OW33166   6.288   3.520   0.330
10756SOL    HW133167   6.267   3.474   0.243
10756SOL    HW233168   6.248   3.468   0.405
10757SOL     OW33169   6.858   3.941   0.198
10757SOL    HW133170   6.932   3.944   0.266
10757SOL    HW233171   6.796   3.866   0.221
10758SOL     OW33172   1.050   5.800   5.170
10758SOL    HW133173   1.027   5.778   5.076
10758SOL    HW233174   1.145   5.831   5.175
10759SOL     OW33175   1.699   3.058   6.883
10759SOL    HW133176   1.606   3.036   6.853
10759SOL    HW233177   1.709   3.033   6.979
10760SOL     OW33178   6.876   6.852   1.073
10760SOL    HW133179   6.941   6.861   1.148
10760SOL    HW233180   6.813   6.777   1.093
10761SOL     OW33181   0.751   2.246   6.072
10761SOL    HW133182   0.729   2.342   6.054
10761SOL    HW233183   0.667   2.195   6.084
10762SOL     OW33184   4.794   1.288   4.854
10762SOL    HW133185   4.776   1.318   4.948
10762SOL    HW233186   4.710   1.251   4.814
10763SOL     OW33187   4.423   6.530   0.982
10763SOL    HW133188   4.519   6.516   1.006
10763SOL    HW233189   4.367   6.525   1.065
10764SOL     OW33190   5.202   1.839   6.171
10764SOL    HW133191   5.272   1.910   6.186
10764SOL    HW233192   5.183   1.832   6.074
10765SOL     OW33193   5.885   1.869   1.024
10765SOL    HW133194   5.828   1.919   1.089
10765SOL    HW233195   5.870   1.771   1.034
10766SOL     OW33196   2.516   3.585   0.219
10766SOL    HW133197   2.477   3.507   0.269
10766SOL    HW233198   2.516   3.564   0.121
10767SOL     OW33199   1.390   0.596   0.791
10767SOL    HW133200   1.468   0.534   0.796
10767SOL    HW233201   1.331   0.569   0.715
10768SOL     OW33202   5.664   5.575   0.348
10768SOL    HW133203   5.682   5.641   0.421
10768SOL    HW233204   5.567   5.577   0.325
10769SOL     OW33205   2.680   5.398   5.040
10769SOL    HW133206   2.728   5.357   5.117
10769SOL    HW233207   2.747   5.433   4.974
10770SOL     OW33208   5.452   0.554   4.649
10770SOL    HW133209   5.462   0.651   4.671
10770SOL    HW233210   5.517   0.501   4.703
10771SOL     OW33211   4.484   0.087   5.120
10771SOL    HW133212   4.506   0.037   5.036
10771SOL    HW233213   4.456   0.180   5.098
10772SOL     OW33214   6.709   0.018   3.688
10772SOL    HW133215   6.692   0.021   3.787
10772SOL    HW233216   6.625   0.037   3.639
10773SOL     OW33217   6.983   5.166   6.847
10773SOL    HW133218   0.051   5.171   6.882
10773SOL    HW233219   6.923   5.222   6.904
10774SOL     OW33220   1.580   2.230   0.104
10774SOL    HW133221   1.605   2.272   0.191
10774SOL    HW233222   1.498   2.174   0.116
10775SOL     OW33223   2.107   4.394   0.350
10775SOL    HW133224   2.169   4.426   0.421
10775SOL    HW233225   2.123   4.445   0.266
10776SOL     OW33226   0.865   6.430   1.001
10776SOL    HW133227   0.863   6.336   1.037
10776SOL    HW233228   0.780   6.449   0.953
10777SOL     OW33229   4.400   0.259   3.409
10777SOL    HW133230   4.498   0.276   3.400
10777SOL    HW233231   4.385   0.176   3.462
10778SOL     OW33232   5.970   6.678   4.285
10778SOL    HW133233   6.030   6.726   4.221
10778SOL    HW233234   5.953   6.585   4.252
10779SOL     OW33235   0.037   4.568   3.151
10779SOL    HW133236   0.043   4.605   3.058
10779SOL    HW233237   0.061   4.471   3.149
10780SOL     OW33238   1.294   6.784   3.036
10780SOL    HW133239   1.300   6.882   3.054
10780SOL    HW233240   1.370   6.738   3.082
10781SOL     OW33241   4.310   1.693   4.106
10781SOL    HW133242   4.310   1.758   4.030
10781SOL    HW233243   4.338   1.741   4.190
10782SOL     OW33244   6.068   2.359   3.784
10782SOL    HW133245   5.991   2.400   3.735
10782SOL    HW233246   6.048   2.357   3.882
10783SOL     OW33247   1.559   3.169   2.317
10783SOL    HW133248   1.609   3.118   2.387
10783SOL    HW233249   1.519   3.252   2.357
10784SOL     OW33250   2.260   6.899   1.611
10784SOL    HW133251   2.181   6.908   1.551
10784SOL    HW233252   2.229   6.887   1.705
10785SOL     OW33253   1.910   4.465   1.567
10785SOL    HW133254   1.959   4.437   1.649
10785SOL    HW233255   1.962   4.537   1.520
10786SOL     OW33256   5.298   2.999   1.258
10786SOL    HW133257   5.220   2.973   1.201
10786SOL    HW233258   5.331   2.917   1.306
10787SOL     OW33259   3.333   1.482   4.964
10787SOL    HW133260   3.287   1.475   5.052
10787SOL    HW233261   3.275   1.443   4.893
10788SOL     OW33262   1.978   4.162   6.927
10788SOL    HW133263   1.878   4.165   6.924
10788SOL    HW233264   2.008   4.151   7.022
10789SOL     OW33265   5.451   1.676   0.701
10789SOL    HW133266   5.450   1.577   0.688
10789SOL    HW233267   5.363   1.714   0.673
10790SOL     OW33268   0.622   0.549   5.355
10790SOL    HW133269   0.541   0.530   5.299
10790SOL    HW233270   0.702   0.559   5.296
10791SOL     OW33271   0.758   1.597   1.391
10791SOL    HW133272   0.775   1.502   1.414
10791SOL    HW233273   0.660   1.617   1.396
10792SOL     OW33274   2.971   2.999   1.713
10792SOL    HW133275   3.058   2.965   1.677
10792SOL    HW233276   2.915   3.033   1.638
10793SOL     OW33277   5.489   2.373   4.389
10793SOL    HW133278   5.518   2.319   4.309
10793SOL    HW233279   5.394   2.352   4.410
10794SOL     OW33280   3.434   3.714   2.381
10794SOL    HW133281   3.506   3.651   2.412
10794SOL    HW233282   3.365   3.662   2.330
10795SOL     OW33283   5.960   4.206   3.525
10795SOL    HW133284   6.007   4.294   3.527
10795SOL    HW233285   5.884   4.207   3.591
10796SOL     OW33286   3.343   6.697   6.751
10796SOL    HW133287   3.358   6.614   6.697
10796SOL    HW233288   3.329   6.673   6.846
10797SOL     OW33289   4.174   2.807   0.841
10797SOL    HW133290   4.110   2.810   0.918
10797SOL    HW233291   4.243   2.737   0.858
10798SOL     OW33292   1.868   0.136   0.831
10798SOL    HW133293   1.772   0.141   0.804
10798SOL    HW233294   1.875   0.107   0.927
10799SOL     OW33295   3.503   1.617   1.380
10799SOL    HW133296   3.446   1.565   1.316
10799SOL    HW233297   3.520   1.562   1.462
10800SOL     OW33298   1.570   6.511   0.215
10800SOL    HW133299   1.628   6.453   0.157
10800SOL    HW233300   1.568   6.603   0.176
10801SOL     OW33301   0.608   6.907   4.660
10801SOL    HW133302   0.613   6.882   4.756
10801SOL    HW233303   0.699   6.937   4.628
10802SOL     OW33304   2.135   3.209   5.011
10802SOL    HW133305   2.201   3.134   5.015
10802SOL    HW233306   2.181   3.295   5.031
10803SOL     OW33307   4.939   4.661   4.674
10803SOL    HW133308   5.003   4.593   4.710
10803SOL    HW233309   4.868   4.679   4.742
10804SOL     OW33310   0.268   4.383   1.501
10804SOL    HW133311   0.356   4.382   1.547
10804SOL    HW233312   0.195   4.402   1.568
10805SOL     OW33313   3.494   6.993   6.568
10805SOL    HW133314   3.520   7.000   6.471
10805SOL    HW233315   3.567   0.006   6.625
10806SOL     OW33316   5.903   4.380   0.056
10806SOL    HW133317   5.839   4.315   0.017
10806SOL    HW233318   5.989   4.378   0.004
10807SOL     OW33319   3.247   6.580   3.834
10807SOL    HW133320   3.332   6.633   3.833
10807SOL    HW233321   3.174   6.636   3.873
10808SOL     OW33322   0.387   3.845   0.690
10808SOL    HW133323   0.486   3.837   0.676
10808SOL    HW233324   0.341   3.847   0.601
10809SOL     OW33325   2.706   0.114   4.212
10809SOL    HW133326   2.660   0.042   4.159
10809SOL    HW233327   2.669   0.115   4.305
10810SOL     OW33328   1.115   0.972   5.812
10810SOL    HW133329   1.017   0.993   5.802
10810SOL    HW233330   1.169   1.039   5.761
10811SOL     OW33331   3.908   4.989   5.034
10811SOL    HW133332   3.834   4.974   5.100
10811SOL    HW233333   3.874   5.045   4.959
10812SOL     OW33334   0.440   3.359   2.088
10812SOL    HW133335   0.495   3.351   2.005
10812SOL    HW233336   0.344   3.369   2.064
10813SOL     OW33337   2.219   6.077   6.892
10813SOL    HW133338   2.277   6.094   6.972
10813SOL    HW233339   2.124   6.100   6.913
10814SOL     OW33340   1.576   0.215   5.422
10814SOL    HW133341   1.542   0.251   5.335
10814SOL    HW233342   1.500   0.198   5.484
10815SOL     OW33343   5.065   5.183   3.866
10815SOL    HW133344   4.996   5.250   3.839
10815SOL    HW233345   5.152   5.207   3.823
10816SOL     OW33346   1.688   1.457   2.364
10816SOL    HW133347   1.648   1.450   2.273
10816SOL    HW233348   1.689   1.367   2.407
10817SOL     OW33349   5.638   6.463   2.870
10817SOL    HW133350   5.605   6.404   2.796
10817SOL    HW233351   5.652   6.409   2.953
10818SOL     OW33352   5.192   3.397   5.650
10818SOL    HW133353   5.231   3.306   5.667
10818SOL    HW233354   5.250   3.466   5.691
10819SOL     OW33355   0.746   4.261   6.922
10819SOL    HW133356   0.792   4.324   6.985
10819SOL    HW233357   0.765   4.288   6.828
10820SOL     OW33358   6.768   0.044   3.997
10820SOL    HW133359   6.811   7.007   4.062
10820SOL    HW233360   6.675   0.065   4.028
10821SOL     OW33361   5.428   6.051   2.377
10821SOL    HW133362   5.513   6.098   2.397
10821SOL    HW233363   5.372   6.045   2.460
10822SOL     OW33364   0.806   2.155   2.531
10822SOL    HW133365   0.744   2.176   2.607
10822SOL    HW233366   0.779   2.068   2.489
10823SOL     OW33367   1.754   5.168   1.101
10823SOL    HW133368   1.741   5.078   1.060
10823SOL    HW233369   1.727   5.166   1.197
10824SOL     OW33370   4.927   6.969   4.008
10824SOL    HW133371   4.987   6.990   3.931
10824SOL    HW233372   4.836   7.006   3.990
10825SOL     OW33373   2.590   0.420   0.553
10825SOL    HW133374   2.500   0.456   0.577
10825SOL    HW233375   2.658   0.493   0.557
10826SOL     OW33376   0.199   3.591   3.421
10826SOL    HW133377   0.170   3.621   3.330
10826SOL    HW233378   0.118   3.569   3.476
10827SOL     OW33379   6.036   3.908   4.397
10827SOL    HW133380   6.115   3.895   4.457
10827SOL    HW233381   6.059   3.878   4.304
10828SOL     OW33382   1.186   5.553   2.729
10828SOL    HW133383   1.239   5.492   2.788
10828SOL    HW233384   1.159   5.503   2.647
10829SOL     OW33385   3.461   3.627   0.693
10829SOL    HW133386   3.462   3.620   0.593
10829SOL    HW233387   3.399   3.700   0.721
10830SOL     OW33388   5.015   1.934   3.300
10830SOL    HW133389   5.062   1.937   3.388
10830SOL    HW233390   5.024   2.023   3.254
10831SOL     OW33391   4.873   6.189   1.819
10831SOL    HW133392   4.942   6.262   1.816
10831SOL    HW233393   4.851   6.160   1.726
10832SOL     OW33394   0.106   2.492   0.751
10832SOL    HW133395   0.172   2.563   0.726
10832SOL    HW233396   0.025   2.535   0.793
10833SOL     OW33397   1.575   0.923   4.090
10833SOL    HW133398   1.548   0.826   4.092
10833SOL    HW233399   1.673   0.930   4.109
10834SOL     OW33400   1.013   2.238   6.221
10834SOL    HW133401   0.925   2.244   6.173
10834SOL    HW233402   1.043   2.143   6.224
10835SOL     OW33403   5.445   1.970   0.897
10835SOL    HW133404   5.467   1.877   0.925
10835SOL    HW233405   5.395   2.016   0.970
10836SOL     OW33406   6.709   1.195   5.353
10836SOL    HW133407   6.638   1.154   5.411
10836SOL    HW233408   6.680   1.286   5.324
10837SOL     OW33409   0.284   4.873   0.414
10837SOL    HW133410   0.300   4.969   0.390
10837SOL    HW233411   0.348   4.846   0.486
10838SOL     OW33412   5.564   6.775   4.189
10838SOL    HW133413   5.627   6.847   4.160
10838SOL    HW233414   5.592   6.739   4.278
10839SOL     OW33415   3.145   3.010   0.896
10839SOL    HW133416   3.235   2.984   0.932
10839SOL    HW233417   3.101   2.929   0.856
10840SOL     OW33418   4.229   6.453   1.786
10840SOL    HW133419   4.181   6.444   1.699
10840SOL    HW233420   4.185   6.394   1.854
10841SOL     OW33421   3.783   5.792   6.817
10841SOL    HW133422   3.696   5.812   6.862
10841SOL    HW233423   3.767   5.777   6.719
10842SOL     OW33424   6.469   3.518   0.684
10842SOL    HW133425   6.397   3.467   0.731
10842SOL    HW233426   6.512   3.582   0.749
10843SOL     OW33427   0.271   2.107   2.263
10843SOL    HW133428   0.206   2.108   2.340
10843SOL    HW233429   0.359   2.072   2.295
10844SOL     OW33430   0.490   6.643   4.330
10844SOL    HW133431   0.588   6.631   4.346
10844SOL    HW233432   0.474   6.732   4.287
10845SOL     OW33433   1.955   0.979   0.926
10845SOL    HW133434   1.959   1.046   0.852
10845SOL    HW233435   1.947   0.887   0.887
10846SOL     OW33436   4.611   2.925   0.272
10846SOL    HW133437   4.595   2.884   0.361
10846SOL    HW233438   4.566   2.869   0.201
10847SOL     OW33439   3.066   2.289   6.619
10847SOL    HW133440   3.040   2.223   6.549
10847SOL    HW233441   3.141   2.253   6.674
10848SOL     OW33442   3.382   1.912   6.584
10848SOL    HW133443   3.449   1.841   6.560
10848SOL    HW233444   3.338   1.945   6.500
10849SOL     OW33445   3.338   5.104   3.440
10849SOL    HW133446   3.341   5.048   3.523
10849SOL    HW233447   3.386   5.058   3.366
10850SOL     OW33448   4.668   6.266   6.271
10850SOL    HW133449   4.671   6.180   6.322
10850SOL    HW233450   4.753   6.316   6.285
10851SOL     OW33451   2.803   2.660   6.570
10851SOL    HW133452   2.802   2.740   6.510
10851SOL    HW233453   2.731   2.597   6.542
10852SOL     OW33454   0.589   6.997   6.091
10852SOL    HW133455   0.657   6.983   6.019
10852SOL    HW233456   0.627   0.034   6.160
10853SOL     OW33457   3.688   1.704   5.295
10853SOL    HW133458   3.620   1.732   5.363
10853SOL    HW233459   3.667   1.749   5.208
10854SOL     OW33460   6.371   0.405   5.561
10854SOL    HW133461   6.441   0.467   5.597
10854SOL    HW233462   6.390   0.312   5.590
10855SOL     OW33463   2.739   6.444   2.371
10855SOL    HW133464   2.808   6.464   2.302
10855SOL    HW233465   2.768   6.366   2.426
10856SOL     OW33466   5.882   0.856   1.699
10856SOL    HW133467   5.898   0.866   1.601
10856SOL    HW233468   5.969   0.836   1.745
10857SOL     OW33469   5.634   3.063   3.562
10857SOL    HW133470   5.605   3.135   3.499
10857SOL    HW233471   5.560   2.998   3.575
10858SOL     OW33472   1.252   2.660   6.550
10858SOL    HW133473   1.256   2.563   6.576
10858SOL    HW233474   1.192   2.671   6.471
10859SOL     OW33475   2.212   4.561   3.791
10859SOL    HW133476   2.301   4.555   3.836
10859SOL    HW233477   2.161   4.476   3.805
10860SOL     OW33478   6.525   1.362   5.683
10860SOL    HW133479   6.485   1.279   5.722
10860SOL    HW233480   6.484   1.379   5.593
10861SOL     OW33481   3.543   2.761   1.811
10861SOL    HW133482   3.639   2.740   1.793
10861SOL    HW233483   3.532   2.791   1.906
10862SOL     OW33484   2.807   1.430   6.754
10862SOL    HW133485   2.810   1.381   6.841
10862SOL    HW233486   2.892   1.481   6.741
10863SOL     OW33487   3.594   0.904   2.530
10863SOL    HW133488   3.588   0.927   2.433
10863SOL    HW233489   3.687   0.874   2.552
10864SOL     OW33490   2.986   4.676   1.363
10864SOL    HW133491   2.951   4.747   1.302
10864SOL    HW233492   3.069   4.710   1.408
10865SOL     OW33493   6.015   2.461   3.461
10865SOL    HW133494   6.039   2.543   3.408
10865SOL    HW233495   5.919   2.439   3.447
10866SOL     OW33496   5.984   3.684   1.165
10866SOL    HW133497   5.931   3.702   1.082
10866SOL    HW233498   5.933   3.619   1.223
10867SOL     OW33499   2.758   3.623   0.503
10867SOL    HW133500   2.854   3.638   0.525
10867SOL    HW233501   2.713   3.710   0.484
10868SOL     OW33502   1.369   1.747   3.123
10868SOL    HW133503   1.460   1.761   3.161
10868SOL    HW233504   1.308   1.712   3.194
10869NA      NA33505   0.748   2.631   6.246
10870NA      NA33506   4.457   4.484   5.252
10871NA      NA33507   2.244   4.285   2.185
10872NA      NA33508   5.012   4.557   3.303
10873NA      NA33509   4.207   2.293   5.191
10874NA      NA33510   3.511   4.443   1.386
10875NA      NA33511   0.982   4.459   0.442
10876NA      NA33512   4.195   4.301   1.508
10877NA      NA33513   4.829   4.579   0.954
10878NA      NA33514   3.078   0.296   5.441
10879NA      NA33515   5.745   5.677   1.002
10880NA      NA33516   1.690   0.745   5.781
10881NA      NA33517   5.060   4.994   2.040
10882NA      NA33518   3.846   3.117   0.809
   7.02555   7.02555   7.02555
