Generated by trjconv : CNT in water t= 491.00000
33518
    1C        C    1   2.853   2.776   4.749
    1C        C    2   2.901   2.721   4.870
    1C        C    3   2.842   2.769   4.988
    1C        C    4   2.854   2.774   4.263
    1C        C    5   2.904   2.724   4.385
    1C        C    6   2.848   2.770   4.506
    1C        C    7   3.016   2.640   4.628
    1C        C    8   2.904   2.726   4.628
    1C        C    9   3.081   2.607   4.749
    1C        C   10   3.012   2.634   4.869
    1C        C   11   3.183   2.491   4.979
    1C        C   12   3.066   2.569   4.981
    1C        C   13   2.858   2.776   3.772
    1C        C   14   2.905   2.724   3.895
    1C        C   15   2.856   2.776   4.017
    1C        C   16   3.022   2.646   4.143
    1C        C   17   2.907   2.728   4.140
    1C        C   18   3.083   2.604   4.264
    1C        C   19   3.021   2.645   4.384
    1C        C   20   3.209   2.547   4.506
    1C        C   21   3.079   2.604   4.506
    1C        C   22   3.279   2.528   4.627
    1C        C   23   3.210   2.547   4.749
    1C        C   24   3.415   2.484   4.869
    1C        C   25   3.272   2.500   4.868
    1C        C   26   3.491   2.466   4.985
    1C        C   27   2.857   2.772   3.282
    1C        C   28   2.908   2.728   3.406
    1C        C   29   2.860   2.778   3.529
    1C        C   30   3.024   2.641   3.652
    1C        C   31   2.915   2.731   3.651
    1C        C   32   3.080   2.602   3.775
    1C        C   33   3.017   2.638   3.896
    1C        C   34   3.205   2.544   4.018
    1C        C   35   3.078   2.606   4.020
    1C        C   36   3.277   2.526   4.139
    1C        C   37   3.213   2.549   4.263
    1C        C   38   3.418   2.501   4.382
    1C        C   39   3.279   2.525   4.385
    1C        C   40   3.488   2.490   4.504
    1C        C   41   3.417   2.497   4.626
    1C        C   42   3.630   2.498   4.747
    1C        C   43   3.488   2.487   4.748
    1C        C   44   3.707   2.493   4.865
    1C        C   45   3.629   2.479   4.982
    1C        C   46   2.844   2.756   2.794
    1C        C   47   2.899   2.712   2.916
    1C        C   48   2.849   2.767   3.037
    1C        C   49   3.017   2.637   3.162
    1C        C   50   2.903   2.719   3.159
    1C        C   51   3.080   2.603   3.284
    1C        C   52   3.021   2.643   3.406
    1C        C   53   3.209   2.544   3.528
    1C        C   54   3.082   2.605   3.528
    1C        C   55   3.275   2.520   3.650
    1C        C   56   3.209   2.544   3.773
    1C        C   57   3.414   2.503   3.896
    1C        C   58   3.274   2.524   3.897
    1C        C   59   3.487   2.499   4.017
    1C        C   60   3.416   2.501   4.139
    1C        C   61   3.629   2.493   4.260
    1C        C   62   3.488   2.489   4.260
    1C        C   63   3.700   2.505   4.382
    1C        C   64   3.629   2.496   4.503
    1C        C   65   3.833   2.557   4.624
    1C        C   66   3.699   2.513   4.625
    1C        C   67   3.905   2.573   4.745
    1C        C   68   3.843   2.530   4.865
    1C        C   69   4.054   2.592   4.983
    1C        C   70   3.925   2.537   4.978
    1C        C   71   2.828   2.737   2.308
    1C        C   72   2.888   2.698   2.429
    1C        C   73   2.835   2.748   2.550
    1C        C   74   3.004   2.618   2.673
    1C        C   75   2.891   2.703   2.672
    1C        C   76   3.070   2.587   2.793
    1C        C   77   3.014   2.630   2.916
    1C        C   78   3.205   2.541   3.038
    1C        C   79   3.076   2.599   3.039
    1C        C   80   3.271   2.519   3.160
    1C        C   81   3.208   2.543   3.284
    1C        C   82   3.414   2.491   3.404
    1C        C   83   3.277   2.521   3.406
    1C        C   84   3.483   2.484   3.528
    1C        C   85   3.414   2.491   3.651
    1C        C   86   3.625   2.495   3.771
    1C        C   87   3.484   2.490   3.774
    1C        C   88   3.696   2.510   3.892
    1C        C   89   3.628   2.499   4.016
    1C        C   90   3.832   2.553   4.138
    1C        C   91   3.698   2.509   4.138
    1C        C   92   3.897   2.584   4.260
    1C        C   93   3.834   2.551   4.382
    1C        C   94   4.028   2.640   4.499
    1C        C   95   3.902   2.577   4.503
    1C        C   96   4.089   2.678   4.621
    1C        C   97   4.031   2.639   4.743
    1C        C   98   4.195   2.764   4.861
    1C        C   99   4.104   2.653   4.864
    1C        C  100   4.221   2.839   4.976
    1C        C  101   2.820   2.732   2.070
    1C        C  102   2.993   2.595   2.190
    1C        C  103   2.879   2.682   2.187
    1C        C  104   3.061   2.570   2.312
    1C        C  105   3.004   2.617   2.432
    1C        C  106   3.199   2.525   2.550
    1C        C  107   3.070   2.584   2.552
    1C        C  108   3.270   2.513   2.671
    1C        C  109   3.202   2.537   2.793
    1C        C  110   3.410   2.494   2.918
    1C        C  111   3.271   2.520   2.915
    1C        C  112   3.482   2.487   3.039
    1C        C  113   3.410   2.493   3.161
    1C        C  114   3.624   2.500   3.282
    1C        C  115   3.483   2.487   3.281
    1C        C  116   3.693   2.511   3.405
    1C        C  117   3.623   2.499   3.528
    1C        C  118   3.830   2.550   3.648
    1C        C  119   3.694   2.511   3.649
    1C        C  120   3.892   2.583   3.770
    1C        C  121   3.830   2.556   3.894
    1C        C  122   4.020   2.650   4.015
    1C        C  123   3.898   2.579   4.016
    1C        C  124   4.082   2.686   4.137
    1C        C  125   4.023   2.647   4.259
    1C        C  126   4.198   2.771   4.377
    1C        C  127   4.091   2.680   4.379
    1C        C  128   4.248   2.823   4.499
    1C        C  129   4.197   2.770   4.620
    1C        C  130   4.333   2.934   4.741
    1C        C  131   4.245   2.823   4.742
    1C        C  132   4.360   3.005   4.860
    1C        C  133   4.293   2.958   4.974
    1C        C  134   3.175   2.476   2.079
    1C        C  135   3.039   2.511   2.084
    1C        C  136   3.261   2.485   2.189
    1C        C  137   3.197   2.527   2.307
    1C        C  138   3.406   2.479   2.427
    1C        C  139   3.268   2.509   2.428
    1C        C  140   3.479   2.478   2.548
    1C        C  141   3.409   2.491   2.670
    1C        C  142   3.618   2.500   2.793
    1C        C  143   3.478   2.487   2.794
    1C        C  144   3.688   2.517   2.914
    1C        C  145   3.622   2.504   3.039
    1C        C  146   3.830   2.548   3.158
    1C        C  147   3.694   2.510   3.160
    1C        C  148   3.895   2.575   3.281
    1C        C  149   3.829   2.550   3.403
    1C        C  150   4.022   2.638   3.525
    1C        C  151   3.896   2.573   3.525
    1C        C  152   4.080   2.676   3.648
    1C        C  153   4.018   2.648   3.771
    1C        C  154   4.194   2.770   3.889
    1C        C  155   4.080   2.687   3.892
    1C        C  156   4.242   2.822   4.011
    1C        C  157   4.195   2.771   4.134
    1C        C  158   4.338   2.929   4.254
    1C        C  159   4.250   2.819   4.255
    1C        C  160   4.380   2.986   4.377
    1C        C  161   4.335   2.934   4.500
    1C        C  162   4.447   3.116   4.615
    1C        C  163   4.378   2.993   4.621
    1C        C  164   4.474   3.185   4.735
    1C        C  165   4.436   3.124   4.857
    1C        C  166   4.523   3.322   4.974
    1C        C  167   4.487   3.187   4.971
    1C        C  168   3.478   2.421   2.078
    1C        C  169   3.400   2.458   2.188
    1C        C  170   3.620   2.470   2.309
    1C        C  171   3.478   2.467   2.306
    1C        C  172   3.692   2.484   2.429
    1C        C  173   3.620   2.483   2.551
    1C        C  174   3.826   2.544   2.667
    1C        C  175   3.690   2.504   2.671
    1C        C  176   3.890   2.572   2.789
    1C        C  177   3.825   2.552   2.913
    1C        C  178   4.022   2.632   3.033
    1C        C  179   3.893   2.575   3.034
    1C        C  180   4.083   2.670   3.154
    1C        C  181   4.021   2.638   3.277
    1C        C  182   4.192   2.758   3.399
    1C        C  183   4.081   2.670   3.401
    1C        C  184   4.241   2.812   3.520
    1C        C  185   4.189   2.766   3.643
    1C        C  186   4.334   2.924   3.764
    1C        C  187   4.241   2.817   3.764
    1C        C  188   4.373   2.984   3.886
    1C        C  189   4.334   2.929   4.010
    1C        C  190   4.450   3.108   4.129
    1C        C  191   4.379   2.986   4.131
    1C        C  192   4.475   3.174   4.252
    1C        C  193   4.444   3.112   4.375
    1C        C  194   4.509   3.320   4.493
    1C        C  195   4.469   3.184   4.494
    1C        C  196   4.528   3.390   4.614
    1C        C  197   4.516   3.321   4.736
    1C        C  198   4.551   3.538   4.855
    1C        C  199   4.537   3.396   4.855
    1C        C  200   4.588   3.620   4.966
    1C        C  201   3.618   2.422   2.075
    1C        C  202   3.831   2.510   2.184
    1C        C  203   3.694   2.468   2.187
    1C        C  204   3.899   2.537   2.306
    1C        C  205   3.829   2.518   2.427
    1C        C  206   4.021   2.623   2.543
    1C        C  207   3.896   2.556   2.545
    1C        C  208   4.078   2.663   2.666
    1C        C  209   4.020   2.627   2.790
    1C        C  210   4.195   2.753   2.909
    1C        C  211   4.083   2.667   2.910
    1C        C  212   4.251   2.798   3.031
    1C        C  213   4.197   2.754   3.154
    1C        C  214   4.337   2.911   3.274
    1C        C  215   4.244   2.804   3.277
    1C        C  216   4.373   2.974   3.395
    1C        C  217   4.333   2.919   3.518
    1C        C  218   4.443   3.101   3.640
    1C        C  219   4.376   2.977   3.640
    1C        C  220   4.468   3.171   3.761
    1C        C  221   4.443   3.106   3.884
    1C        C  222   4.505   3.309   4.007
    1C        C  223   4.474   3.171   4.005
    1C        C  224   4.516   3.382   4.128
    1C        C  225   4.512   3.310   4.249
    1C        C  226   4.524   3.526   4.368
    1C        C  227   4.523   3.385   4.368
    1C        C  228   4.526   3.599   4.489
    1C        C  229   4.532   3.531   4.613
    1C        C  230   4.502   3.746   4.731
    1C        C  231   4.536   3.607   4.732
    1C        C  232   4.502   3.822   4.850
    1C        C  233   4.550   3.754   4.963
    1C        C  234   4.028   2.604   2.066
    1C        C  235   3.902   2.544   2.069
    1C        C  236   4.088   2.649   2.185
    1C        C  237   4.023   2.607   2.302
    1C        C  238   4.198   2.739   2.421
    1C        C  239   4.085   2.652   2.421
    1C        C  240   4.250   2.789   2.542
    1C        C  241   4.193   2.744   2.663
    1C        C  242   4.335   2.905   2.783
    1C        C  243   4.246   2.795   2.784
    1C        C  244   4.378   2.962   2.905
    1C        C  245   4.341   2.907   3.030
    1C        C  246   4.442   3.095   3.152
    1C        C  247   4.380   2.967   3.151
    1C        C  248   4.468   3.160   3.275
    1C        C  249   4.439   3.099   3.399
    1C        C  250   4.502   3.305   3.512
    1C        C  251   4.467   3.168   3.518
    1C        C  252   4.515   3.372   3.636
    1C        C  253   4.505   3.307   3.761
    1C        C  254   4.529   3.517   3.880
    1C        C  255   4.519   3.376   3.884
    1C        C  256   4.524   3.591   4.000
    1C        C  257   4.520   3.524   4.124
    1C        C  258   4.491   3.734   4.243
    1C        C  259   4.521   3.596   4.245
    1C        C  260   4.471   3.803   4.364
    1C        C  261   4.494   3.737   4.487
    1C        C  262   4.425   3.940   4.606
    1C        C  263   4.475   3.808   4.607
    1C        C  264   4.401   4.011   4.726
    1C        C  265   4.439   3.948   4.846
    1C        C  266   4.319   4.130   4.961
    1C        C  267   4.390   4.011   4.962
    1C        C  268   4.264   2.777   2.063
    1C        C  269   4.198   2.737   2.180
    1C        C  270   4.347   2.893   2.298
    1C        C  271   4.255   2.785   2.300
    1C        C  272   4.380   2.958   2.419
    1C        C  273   4.341   2.898   2.541
    1C        C  274   4.451   3.082   2.663
    1C        C  275   4.380   2.960   2.661
    1C        C  276   4.477   3.150   2.785
    1C        C  277   4.449   3.084   2.906
    1C        C  278   4.508   3.290   3.025
    1C        C  279   4.471   3.153   3.027
    1C        C  280   4.519   3.362   3.146
    1C        C  281   4.500   3.298   3.270
    1C        C  282   4.523   3.514   3.388
    1C        C  283   4.517   3.372   3.389
    1C        C  284   4.521   3.582   3.512
    1C        C  285   4.523   3.513   3.635
    1C        C  286   4.498   3.725   3.753
    1C        C  287   4.523   3.586   3.756
    1C        C  288   4.483   3.794   3.875
    1C        C  289   4.500   3.730   4.000
    1C        C  290   4.428   3.934   4.118
    1C        C  291   4.478   3.802   4.119
    1C        C  292   4.401   4.001   4.240
    1C        C  293   4.423   3.936   4.363
    1C        C  294   4.321   4.125   4.482
    1C        C  295   4.392   4.003   4.484
    1C        C  296   4.284   4.188   4.603
    1C        C  297   4.325   4.131   4.725
    1C        C  298   4.200   4.314   4.841
    1C        C  299   4.282   4.197   4.844
    1C        C  300   4.171   4.400   4.951
    1C        C  301   4.354   2.883   2.064
    1C        C  302   4.469   3.075   2.175
    1C        C  303   4.399   2.951   2.178
    1C        C  304   4.485   3.144   2.299
    1C        C  305   4.455   3.077   2.420
    1C        C  306   4.519   3.281   2.539
    1C        C  307   4.484   3.144   2.541
    1C        C  308   4.522   3.357   2.658
    1C        C  309   4.505   3.288   2.780
    1C        C  310   4.529   3.499   2.900
    1C        C  311   4.518   3.359   2.902
    1C        C  312   4.524   3.572   3.021
    1C        C  313   4.526   3.503   3.144
    1C        C  314   4.488   3.717   3.262
    1C        C  315   4.516   3.579   3.263
    1C        C  316   4.472   3.786   3.385
    1C        C  317   4.498   3.721   3.508
    1C        C  318   4.428   3.921   3.627
    1C        C  319   4.484   3.792   3.630
    1C        C  320   4.393   3.982   3.750
    1C        C  321   4.429   3.925   3.874
    1C        C  322   4.316   4.110   3.992
    1C        C  323   4.395   3.992   3.994
    1C        C  324   4.275   4.168   4.114
    1C        C  325   4.321   4.118   4.237
    1C        C  326   4.185   4.283   4.358
    1C        C  327   4.280   4.179   4.358
    1C        C  328   4.136   4.339   4.478
    1C        C  329   4.189   4.293   4.600
    1C        C  330   4.021   4.432   4.717
    1C        C  331   4.138   4.351   4.718
    1C        C  332   3.971   4.493   4.834
    1C        C  333   4.055   4.479   4.945
    1C        C  334   4.548   3.272   2.060
    1C        C  335   4.536   3.133   2.063
    1C        C  336   4.539   3.351   2.176
    1C        C  337   4.516   3.282   2.298
    1C        C  338   4.524   3.496   2.412
    1C        C  339   4.521   3.355   2.418
    1C        C  340   4.524   3.568   2.534
    1C        C  341   4.523   3.498   2.657
    1C        C  342   4.498   3.709   2.773
    1C        C  343   4.523   3.571   2.778
    1C        C  344   4.473   3.777   2.894
    1C        C  345   4.497   3.711   3.017
    1C        C  346   4.421   3.912   3.137
    1C        C  347   4.471   3.780   3.137
    1C        C  348   4.391   3.979   3.258
    1C        C  349   4.421   3.918   3.382
    1C        C  350   4.317   4.101   3.506
    1C        C  351   4.396   3.983   3.504
    1C        C  352   4.274   4.160   3.627
    1C        C  353   4.317   4.101   3.748
    1C        C  354   4.179   4.267   3.867
    1C        C  355   4.274   4.162   3.868
    1C        C  356   4.125   4.313   3.989
    1C        C  357   4.174   4.267   4.114
    1C        C  358   4.015   4.408   4.231
    1C        C  359   4.129   4.324   4.235
    1C        C  360   3.954   4.448   4.352
    1C        C  361   4.021   4.421   4.473
    1C        C  362   3.835   4.528   4.592
    1C        C  363   3.962   4.466   4.593
    1C        C  364   3.766   4.551   4.713
    1C        C  365   3.840   4.545   4.834
    1C        C  366   3.629   4.594   4.952
    1C        C  367   3.767   4.579   4.948
    1C        C  368   4.509   3.564   2.054
    1C        C  369   4.534   3.492   2.171
    1C        C  370   4.504   3.707   2.289
    1C        C  371   4.524   3.567   2.290
    1C        C  372   4.485   3.777   2.410
    1C        C  373   4.505   3.707   2.531
    1C        C  374   4.424   3.907   2.651
    1C        C  375   4.486   3.780   2.651
    1C        C  376   4.389   3.972   2.772
    1C        C  377   4.423   3.910   2.894
    1C        C  378   4.322   4.099   3.014
    1C        C  379   4.394   3.977   3.015
    1C        C  380   4.272   4.152   3.134
    1C        C  381   4.309   4.094   3.258
    1C        C  382   4.176   4.254   3.379
    1C        C  383   4.271   4.150   3.382
    1C        C  384   4.122   4.303   3.501
    1C        C  385   4.178   4.263   3.624
    1C        C  386   4.004   4.387   3.744
    1C        C  387   4.125   4.314   3.745
    1C        C  388   3.943   4.422   3.866
    1C        C  389   4.005   4.387   3.988
    1C        C  390   3.819   4.490   4.109
    1C        C  391   3.948   4.435   4.109
    1C        C  392   3.752   4.514   4.231
    1C        C  393   3.822   4.498   4.353
    1C        C  394   3.618   4.553   4.475
    1C        C  395   3.758   4.534   4.474
    1C        C  396   3.549   4.569   4.597
    1C        C  397   3.625   4.567   4.715
    1C        C  398   3.413   4.553   4.843
    1C        C  399   3.552   4.575   4.836
    1C        C  400   3.339   4.522   4.958
    1C        C  401   4.505   3.703   2.054
    1C        C  402   4.458   3.918   2.169
    1C        C  403   4.494   3.782   2.169
    1C        C  404   4.419   3.982   2.289
    1C        C  405   4.438   3.910   2.409
    1C        C  406   4.321   4.091   2.525
    1C        C  407   4.399   3.973   2.529
    1C        C  408   4.276   4.148   2.646
    1C        C  409   4.316   4.092   2.770
    1C        C  410   4.173   4.249   2.889
    1C        C  411   4.276   4.152   2.891
    1C        C  412   4.121   4.297   3.011
    1C        C  413   4.172   4.253   3.135
    1C        C  414   4.000   4.375   3.252
    1C        C  415   4.120   4.300   3.258
    1C        C  416   3.945   4.412   3.376
    1C        C  417   4.008   4.386   3.500
    1C        C  418   3.812   4.474   3.620
    1C        C  419   3.944   4.422   3.621
    1C        C  420   3.748   4.503   3.742
    1C        C  421   3.815   4.481   3.865
    1C        C  422   3.613   4.540   3.987
    1C        C  423   3.751   4.511   3.987
    1C        C  424   3.542   4.546   4.109
    1C        C  425   3.614   4.547   4.231
    1C        C  426   3.405   4.552   4.358
    1C        C  427   3.546   4.561   4.354
    1C        C  428   3.335   4.549   4.481
    1C        C  429   3.408   4.560   4.601
    1C        C  430   3.198   4.523   4.724
    1C        C  431   3.338   4.546   4.723
    1C        C  432   3.126   4.502   4.845
    1C        C  433   3.202   4.504   4.962
    1C        C  434   4.388   4.125   2.051
    1C        C  435   4.447   3.998   2.054
    1C        C  436   4.306   4.164   2.161
    1C        C  437   4.340   4.100   2.283
    1C        C  438   4.185   4.251   2.403
    1C        C  439   4.283   4.150   2.403
    1C        C  440   4.123   4.296   2.521
    1C        C  441   4.175   4.247   2.643
    1C        C  442   4.007   4.376   2.765
    1C        C  443   4.123   4.296   2.765
    1C        C  444   3.945   4.413   2.887
    1C        C  445   4.003   4.375   3.010
    1C        C  446   3.808   4.466   3.131
    1C        C  447   3.940   4.414   3.130
    1C        C  448   3.747   4.493   3.256
    1C        C  449   3.816   4.469   3.377
    1C        C  450   3.609   4.528   3.497
    1C        C  451   3.746   4.494   3.497
    1C        C  452   3.542   4.548   3.620
    1C        C  453   3.611   4.540   3.743
    1C        C  454   3.400   4.546   3.867
    1C        C  455   3.541   4.549   3.865
    1C        C  456   3.331   4.542   3.990
    1C        C  457   3.401   4.546   4.113
    1C        C  458   3.197   4.503   4.239
    1C        C  459   3.334   4.535   4.237
    1C        C  460   3.131   4.483   4.362
    1C        C  461   3.199   4.511   4.483
    1C        C  462   3.000   4.436   4.604
    1C        C  463   3.129   4.495   4.604
    1C        C  464   2.937   4.402   4.726
    1C        C  465   2.992   4.451   4.847
    1C        C  466   2.806   4.336   4.961
    1C        C  467   2.907   4.432   4.962
    1C        C  468   4.129   4.292   2.042
    1C        C  469   4.190   4.248   2.160
    1C        C  470   4.007   4.365   2.280
    1C        C  471   4.132   4.298   2.280
    1C        C  472   3.939   4.399   2.399
    1C        C  473   4.002   4.370   2.522
    1C        C  474   3.814   4.467   2.645
    1C        C  475   3.943   4.410   2.644
    1C        C  476   3.747   4.494   2.767
    1C        C  477   3.815   4.468   2.887
    1C        C  478   3.607   4.522   3.011
    1C        C  479   3.743   4.487   3.008
    1C        C  480   3.535   4.531   3.133
    1C        C  481   3.609   4.523   3.253
    1C        C  482   3.397   4.540   3.379
    1C        C  483   3.538   4.535   3.375
    1C        C  484   3.328   4.536   3.502
    1C        C  485   3.401   4.544   3.623
    1C        C  486   3.192   4.510   3.746
    1C        C  487   3.330   4.538   3.745
    1C        C  488   3.130   4.482   3.870
    1C        C  489   3.193   4.509   3.994
    1C        C  490   3.003   4.418   4.117
    1C        C  491   3.128   4.484   4.117
    1C        C  492   2.942   4.383   4.239
    1C        C  493   3.002   4.425   4.360
    1C        C  494   2.832   4.304   4.484
    1C        C  495   2.938   4.397   4.483
    1C        C  496   2.780   4.255   4.606
    1C        C  497   2.826   4.313   4.726
    1C        C  498   2.664   4.171   4.845
    1C        C  499   2.756   4.278   4.843
    1C        C  500   2.601   4.118   4.959
    1C        C  501   4.002   4.349   2.044
    1C        C  502   3.816   4.464   2.155
    1C        C  503   3.939   4.396   2.160
    1C        C  504   3.746   4.485   2.277
    1C        C  505   3.809   4.453   2.399
    1C        C  506   3.607   4.508   2.522
    1C        C  507   3.745   4.480   2.522
    1C        C  508   3.537   4.515   2.645
    1C        C  509   3.608   4.521   2.767
    1C        C  510   3.396   4.532   2.887
    1C        C  511   3.537   4.534   2.889
    1C        C  512   3.325   4.527   3.009
    1C        C  513   3.394   4.535   3.132
    1C        C  514   3.190   4.500   3.257
    1C        C  515   3.327   4.534   3.256
    1C        C  516   3.125   4.474   3.379
    1C        C  517   3.192   4.498   3.501
    1C        C  518   3.001   4.414   3.628
    1C        C  519   3.126   4.480   3.625
    1C        C  520   2.942   4.375   3.750
    1C        C  521   3.008   4.411   3.870
    1C        C  522   2.841   4.284   3.997
    1C        C  523   2.947   4.377   3.994
    1C        C  524   2.790   4.237   4.121
    1C        C  525   2.835   4.291   4.243
    1C        C  526   2.698   4.134   4.367
    1C        C  527   2.776   4.252   4.365
    1C        C  528   2.654   4.077   4.489
    1C        C  529   2.692   4.144   4.607
    1C        C  530   2.585   3.963   4.733
    1C        C  531   2.641   4.094   4.729
    1C        C  532   2.540   3.904   4.855
    1C        C  533   2.532   3.996   4.964
    1C        C  534   3.618   4.559   2.044
    1C        C  535   3.749   4.510   2.041
    1C        C  536   3.535   4.534   2.158
    1C        C  537   3.607   4.514   2.279
    1C        C  538   3.395   4.517   2.402
    1C        C  539   3.536   4.524   2.401
    1C        C  540   3.325   4.511   2.524
    1C        C  541   3.396   4.517   2.646
    1C        C  542   3.185   4.490   2.767
    1C        C  543   3.323   4.520   2.767
    1C        C  544   3.121   4.468   2.891
    1C        C  545   3.187   4.494   3.013
    1C        C  546   2.998   4.403   3.140
    1C        C  547   3.122   4.472   3.136
    1C        C  548   2.944   4.365   3.264
    1C        C  549   3.000   4.408   3.386
    1C        C  550   2.833   4.278   3.507
    1C        C  551   2.939   4.371   3.508
    1C        C  552   2.784   4.231   3.631
    1C        C  553   2.834   4.285   3.752
    1C        C  554   2.705   4.121   3.876
    1C        C  555   2.787   4.236   3.876
    1C        C  556   2.667   4.066   4.000
    1C        C  557   2.702   4.126   4.123
    1C        C  558   2.598   3.944   4.247
    1C        C  559   2.664   4.069   4.246
    1C        C  560   2.567   3.883   4.371
    1C        C  561   2.586   3.954   4.492
    1C        C  562   2.523   3.754   4.618
    1C        C  563   2.560   3.890   4.615
    1C        C  564   2.514   3.684   4.740
    1C        C  565   2.520   3.762   4.859
    1C        C  566   2.524   3.547   4.980
    1C        C  567   2.526   3.686   4.977
    1C        C  568   3.327   4.482   2.040
    1C        C  569   3.394   4.518   2.158
    1C        C  570   3.186   4.478   2.282
    1C        C  571   3.322   4.517   2.281
    1C        C  572   3.116   4.459   2.404
    1C        C  573   3.186   4.484   2.523
    1C        C  574   2.988   4.408   2.649
    1C        C  575   3.117   4.467   2.645
    1C        C  576   2.932   4.367   2.772
    1C        C  577   2.997   4.401   2.893
    1C        C  578   2.830   4.275   3.018
    1C        C  579   2.941   4.362   3.017
    1C        C  580   2.782   4.226   3.141
    1C        C  581   2.836   4.273   3.263
    1C        C  582   2.699   4.113   3.384
    1C        C  583   2.787   4.223   3.385
    1C        C  584   2.662   4.059   3.510
    1C        C  585   2.697   4.120   3.632
    1C        C  586   2.595   3.936   3.755
    1C        C  587   2.660   4.062   3.756
    1C        C  588   2.576   3.873   3.881
    1C        C  589   2.606   3.939   4.003
    1C        C  590   2.536   3.740   4.128
    1C        C  591   2.575   3.876   4.126
    1C        C  592   2.523   3.677   4.254
    1C        C  593   2.531   3.747   4.376
    1C        C  594   2.513   3.537   4.500
    1C        C  595   2.513   3.679   4.499
    1C        C  596   2.521   3.466   4.622
    1C        C  597   2.520   3.542   4.742
    1C        C  598   2.539   3.329   4.866
    1C        C  599   2.524   3.469   4.863
    1C        C  600   2.539   3.251   4.983
    1C        C  601   3.194   4.445   2.043
    1C        C  602   2.986   4.396   2.159
    1C        C  603   3.118   4.451   2.160
    1C        C  604   2.928   4.360   2.284
    1C        C  605   2.989   4.397   2.406
    1C        C  606   2.819   4.277   2.532
    1C        C  607   2.926   4.368   2.529
    1C        C  608   2.771   4.223   2.654
    1C        C  609   2.824   4.276   2.774
    1C        C  610   2.689   4.113   2.898
    1C        C  611   2.780   4.222   2.897
    1C        C  612   2.653   4.056   3.022
    1C        C  613   2.693   4.116   3.143
    1C        C  614   2.591   3.928   3.266
    1C        C  615   2.652   4.055   3.264
    1C        C  616   2.566   3.868   3.392
    1C        C  617   2.601   3.932   3.513
    1C        C  618   2.535   3.730   3.640
    1C        C  619   2.570   3.867   3.635
    1C        C  620   2.518   3.666   3.765
    1C        C  621   2.533   3.739   3.884
    1C        C  622   2.513   3.528   4.011
    1C        C  623   2.523   3.669   4.007
    1C        C  624   2.516   3.462   4.136
    1C        C  625   2.516   3.536   4.256
    1C        C  626   2.541   3.326   4.380
    1C        C  627   2.522   3.466   4.379
    1C        C  628   2.558   3.257   4.502
    1C        C  629   2.539   3.326   4.624
    1C        C  630   2.596   3.121   4.745
    1C        C  631   2.551   3.256   4.746
    1C        C  632   2.619   3.050   4.866
    1C        C  633   2.566   3.114   4.983
    1C        C  634   2.785   4.302   2.055
    1C        C  635   2.893   4.391   2.050
    1C        C  636   2.750   4.232   2.171
    1C        C  637   2.815   4.274   2.289
    1C        C  638   2.684   4.110   2.411
    1C        C  639   2.765   4.226   2.412
    1C        C  640   2.648   4.051   2.534
    1C        C  641   2.687   4.110   2.656
    1C        C  642   2.588   3.923   2.779
    1C        C  643   2.650   4.050   2.778
    1C        C  644   2.558   3.861   2.903
    1C        C  645   2.589   3.929   3.022
    1C        C  646   2.525   3.727   3.149
    1C        C  647   2.562   3.864   3.144
    1C        C  648   2.517   3.661   3.273
    1C        C  649   2.526   3.732   3.395
    1C        C  650   2.511   3.521   3.519
    1C        C  651   2.522   3.662   3.517
    1C        C  652   2.517   3.454   3.644
    1C        C  653   2.508   3.525   3.766
    1C        C  654   2.539   3.318   3.891
    1C        C  655   2.513   3.457   3.890
    1C        C  656   2.558   3.254   4.016
    1C        C  657   2.541   3.322   4.138
    1C        C  658   2.613   3.123   4.261
    1C        C  659   2.557   3.253   4.260
    1C        C  660   2.642   3.059   4.383
    1C        C  661   2.605   3.123   4.503
    1C        C  662   2.717   2.943   4.625
    1C        C  663   2.636   3.059   4.625
    1C        C  664   2.755   2.879   4.745
    1C        C  665   2.701   2.932   4.865
    1C        C  666   2.750   2.873   4.982
    1C        C  667   2.675   4.029   2.052
    1C        C  668   2.690   4.104   2.169
    1C        C  669   2.594   3.915   2.295
    1C        C  670   2.648   4.046   2.291
    1C        C  671   2.562   3.851   2.417
    1C        C  672   2.586   3.923   2.536
    1C        C  673   2.521   3.721   2.663
    1C        C  674   2.557   3.858   2.658
    1C        C  675   2.507   3.651   2.785
    1C        C  676   2.520   3.724   2.905
    1C        C  677   2.505   3.515   3.033
    1C        C  678   2.507   3.656   3.028
    1C        C  679   2.503   3.444   3.155
    1C        C  680   2.507   3.520   3.274
    1C        C  681   2.532   3.311   3.403
    1C        C  682   2.510   3.450   3.397
    1C        C  683   2.559   3.247   3.526
    1C        C  684   2.548   3.316   3.649
    1C        C  685   2.611   3.115   3.774
    1C        C  686   2.559   3.246   3.771
    1C        C  687   2.650   3.059   3.898
    1C        C  688   2.614   3.124   4.018
    1C        C  689   2.721   2.940   4.141
    1C        C  690   2.644   3.058   4.139
    1C        C  691   2.764   2.882   4.263
    1C        C  692   2.717   2.939   4.384
    1C        C  693   2.764   2.884   4.506
    1C        C  694   2.630   3.896   2.059
    1C        C  695   2.527   3.708   2.178
    1C        C  696   2.579   3.840   2.177
    1C        C  697   2.500   3.642   2.299
    1C        C  698   2.517   3.717   2.418
    1C        C  699   2.490   3.510   2.546
    1C        C  700   2.505   3.650   2.542
    1C        C  701   2.501   3.439   2.667
    1C        C  702   2.499   3.510   2.789
    1C        C  703   2.528   3.302   2.912
    1C        C  704   2.510   3.442   2.913
    1C        C  705   2.548   3.236   3.036
    1C        C  706   2.534   3.306   3.158
    1C        C  707   2.604   3.110   3.281
    1C        C  708   2.551   3.241   3.282
    1C        C  709   2.641   3.051   3.404
    1C        C  710   2.616   3.117   3.526
    1C        C  711   2.723   2.938   3.650
    1C        C  712   2.643   3.055   3.650
    1C        C  713   2.766   2.882   3.773
    1C        C  714   2.727   2.941   3.896
    1C        C  715   2.765   2.884   4.019
    1C        C  716   2.449   3.502   2.067
    1C        C  717   2.490   3.636   2.064
    1C        C  718   2.464   3.424   2.186
    1C        C  719   2.481   3.501   2.304
    1C        C  720   2.514   3.294   2.428
    1C        C  721   2.488   3.433   2.427
    1C        C  722   2.543   3.228   2.550
    1C        C  723   2.525   3.300   2.670
    1C        C  724   2.593   3.098   2.791
    1C        C  725   2.541   3.229   2.792
    1C        C  726   2.626   3.038   2.914
    1C        C  727   2.598   3.104   3.036
    1C        C  728   2.717   2.931   3.160
    1C        C  729   2.634   3.046   3.159
    1C        C  730   2.761   2.876   3.283
    1C        C  731   2.717   2.932   3.405
    1C        C  732   2.764   2.881   3.528
    1C        C  733   2.491   3.200   2.074
    1C        C  734   2.487   3.282   2.187
    1C        C  735   2.582   3.091   2.310
    1C        C  736   2.519   3.218   2.310
    1C        C  737   2.618   3.024   2.429
    1C        C  738   2.593   3.096   2.548
    1C        C  739   2.711   2.920   2.672
    1C        C  740   2.626   3.033   2.670
    1C        C  741   2.752   2.863   2.794
    1C        C  742   2.708   2.923   2.914
    1C        C  743   2.754   2.871   3.038
    1C        C  744   2.545   3.072   2.077
    1C        C  745   2.687   2.903   2.189
    1C        C  746   2.606   3.019   2.191
    1C        C  747   2.730   2.840   2.308
    1C        C  748   2.691   2.903   2.428
    1C        C  749   2.740   2.852   2.551
    1C        C  750   2.738   2.845   2.072
    1C        C  751   3.670   2.329   1.971
    1C        O  752   3.690   2.206   1.989
    1C        O  753   3.687   2.371   1.839
    1C        C  754   4.606   3.055   1.958
    1C        O  755   4.556   3.054   1.842
    1C        O  756   4.691   2.949   1.988
    1C        C  757   4.454   4.217   1.956
    1C        O  758   4.563   4.277   1.977
    1C        O  759   4.406   4.239   1.826
    1C        C  760   3.587   4.680   1.964
    1C        O  761   3.588   4.798   2.008
    1C        O  762   3.602   4.688   1.825
    1C        C  763   2.884   4.493   1.944
    1C        O  764   2.907   4.447   1.829
    1C        O  765   2.923   4.627   1.959
    1C        C  766   2.321   3.482   1.994
    1C        O  767   2.309   3.497   1.870
    1C        O  768   2.201   3.511   2.060
    1C        C  769   4.709   3.598   5.049
    1C        O  770   4.683   3.567   5.168
    1C        O  771   4.815   3.690   5.048
    1C        C  772   4.270   4.437   5.055
    1C        O  773   4.281   4.384   5.169
    1C        O  774   4.375   4.526   5.028
    1C        C  775   4.139   2.530   5.088
    1C        O  776   4.240   2.464   5.052
    1C        O  777   4.154   2.574   5.220
    1C        C  778   2.870   4.547   5.048
    1C        O  779   2.891   4.666   5.012
    1C        O  780   2.923   4.531   5.176
    1C        C  781   2.487   3.033   5.079
    1C        O  782   2.389   2.960   5.051
    1C        O  783   2.525   3.014   5.211
    1C        C  784   2.406   3.998   5.042
    1C        O  785   2.298   4.035   4.988
    1C        O  786   2.408   3.978   5.180
    1C        C  787   2.949   2.422   2.007
    1C        O  788   2.967   2.390   1.887
    1C        O  789   2.866   2.329   2.069
    1C        C  790   3.174   2.360   5.047
    1C        O  791   3.114   2.261   4.998
    1C        O  792   3.216   2.332   5.178
    1C        H  793   4.329   2.992   5.069
    1C        H  794   4.155   2.836   5.060
    1C        H  795   4.537   3.123   5.040
    1C        H  796   4.560   3.355   5.068
    1C        H  797   4.580   3.813   5.048
    1C        H  798   4.455   4.002   5.046
    1C        H  799   4.302   4.172   5.059
    1C        H  800   4.058   4.568   5.004
    1C        H  801   3.821   4.634   5.023
    1C        H  802   3.588   4.665   5.021
    1C        H  803   3.399   4.503   5.045
    1C        H  804   3.145   4.533   5.048
    1C        H  805   3.886   2.504   5.072
    1C        H  806   3.676   2.450   5.074
    1C        H  807   3.045   2.618   5.073
    1C        H  808   3.448   2.490   5.080
    1C        H  809   2.838   2.712   5.079
    1C        H  810   2.710   2.908   5.075
    1C        H  811   2.531   3.298   5.078
    1C        H  812   2.587   3.508   5.057
    1C        H  813   2.526   3.728   5.075
    1C        H  814   2.591   4.174   5.049
    1C        H  815   2.732   4.346   5.037
    1C        H  816   2.718   2.897   1.982
    1C        H  817   2.844   2.688   1.976
    1C        H  818   3.213   2.475   1.979
    1C        H  819   3.436   2.440   1.982
    1C        H  820   3.846   2.561   1.979
    1C        H  821   4.089   2.587   1.981
    1C        H  822   4.250   2.729   1.968
    1C        H  823   4.408   2.894   1.973
    1C        H  824   4.616   3.311   1.987
    1C        H  825   4.538   3.517   1.963
    1C        H  826   4.572   3.745   1.981
    1C        H  827   3.785   4.482   1.944
    1C        H  828   3.945   4.340   1.954
    1C        H  829   4.170   4.271   1.945
    1C        H  830   4.481   3.954   1.963
    1C        H  831   2.636   3.839   1.969
    1C        H  832   2.726   4.057   1.962
    1C        H  833   2.716   4.312   1.974
    1C        H  834   3.379   4.461   1.950
    1C        H  835   3.145   4.439   1.948
    1C        H  836   2.488   3.001   2.019
    1C        H  837   2.432   3.226   1.988
    1C        H  838   2.459   3.693   1.979
    2V3OU   H29  839   2.797   3.553   5.428
    2V3OU   C27  840   2.779   3.504   5.526
    2V3OU   H27  841   2.717   3.568   5.594
    2V3OU   H28  842   2.728   3.405   5.511
    2V3OU   O11  843   2.909   3.478   5.580
    2V3OU   C15  844   2.920   3.399   5.692
    2V3OU   C13  845   3.050   3.375   5.741
    2V3OU   C14  846   3.077   3.268   5.827
    2V3OU   C16  847   2.971   3.186   5.862
    2V3OU    H6  848   2.993   3.100   5.927
    2V3OU   C12  849   3.216   3.231   5.860
    2V3OU    O2  850   3.240   3.126   5.924
    2V3OU   C10  851   3.327   3.312   5.807
    2V3OU    C8  852   3.460   3.279   5.830
    2V3OU   O10  853   3.490   3.163   5.893
    2V3OU   H26  854   3.408   3.120   5.922
    2V3OU    C6  855   3.567   3.354   5.770
    2V3OU    C5  856   3.536   3.472   5.703
    2V3OU    C4  857   3.704   3.296   5.776
    2V3OU    H4  858   3.720   3.234   5.869
    2V3OU    H5  859   3.713   3.230   5.685
    2V3OU    C2  860   3.817   3.399   5.766
    2V3OU    O6  861   3.808   3.476   5.886
    2V3OU   H21  862   3.765   3.560   5.867
    2V3OU    C3  863   3.785   3.495   5.651
    2V3OU    H2  864   3.860   3.577   5.643
    2V3OU    H3  865   3.780   3.439   5.554
    2V3OU   C25  866   3.951   3.327   5.749
    2V3OU    O7  867   3.998   3.306   5.637
    2V3OU   C26  868   4.036   3.288   5.869
    2V3OU   H22  869   4.069   3.386   5.911
    2V3OU   H23  870   4.117   3.217   5.836
    2V3OU    O8  871   3.965   3.206   5.959
    2V3OU   H24  872   3.929   3.261   6.030
    2V3OU    C1  873   3.650   3.563   5.670
    2V3OU    H1  874   3.623   3.619   5.575
    2V3OU    O3  875   3.665   3.658   5.776
    2V3OU   C19  876   3.623   3.794   5.765
    2V3OU    H9  877   3.520   3.798   5.717
    2V3OU    O4  878   3.717   3.848   5.675
    2V3OU   C20  879   3.846   3.875   5.731
    2V3OU   H10  880   3.888   3.773   5.753
    2V3OU   C24  881   3.612   3.862   5.901
    2V3OU   H16  882   3.541   3.801   5.963
    2V3OU   H17  883   3.565   3.962   5.882
    2V3OU   C23  884   3.751   3.882   5.961
    2V3OU   H15  885   3.788   3.775   5.975
    2V3OU    N1  886   3.742   3.955   6.085
    2V3OU   H19  887   3.813   3.917   6.144
    2V3OU   H20  888   3.650   3.938   6.119
    2V3OU   C21  889   3.851   3.952   5.863
    2V3OU   H11  890   3.949   3.934   5.916
    2V3OU    O5  891   3.840   4.093   5.854
    2V3OU   H18  892   3.775   4.107   5.925
    2V3OU   C22  893   3.915   3.952   5.619
    2V3OU   H12  894   3.860   4.047   5.598
    2V3OU   H13  895   3.911   3.892   5.525
    2V3OU   H14  896   4.023   3.963   5.646
    2V3OU   C11  897   3.158   3.472   5.712
    2V3OU    O1  898   3.137   3.590   5.678
    2V3OU    C9  899   3.298   3.427   5.730
    2V3OU    C7  900   3.399   3.507   5.679
    2V3OU    O9  901   3.388   3.615   5.594
    2V3OU   H25  902   3.296   3.636   5.614
    2V3OU   C17  903   2.818   3.316   5.743
    2V3OU    H7  904   2.715   3.338   5.713
    2V3OU   C18  905   2.837   3.208   5.828
    2V3OU    H8  906   2.759   3.149   5.878
    3SOL     OW  907   3.425   2.962   3.976
    3SOL    HW1  908   3.458   2.907   3.900
    3SOL    HW2  909   3.438   3.059   3.955
    4SOL     OW  910   6.606   6.356   0.751
    4SOL    HW1  911   6.600   6.389   0.657
    4SOL    HW2  912   6.514   6.333   0.784
    5SOL     OW  913   5.437   1.327   0.880
    5SOL    HW1  914   5.444   1.277   0.966
    5SOL    HW2  915   5.515   1.389   0.870
    6SOL     OW  916   5.201   1.507   3.034
    6SOL    HW1  917   5.275   1.526   2.970
    6SOL    HW2  918   5.134   1.580   3.030
    7SOL     OW  919   1.923   4.321   3.981
    7SOL    HW1  920   1.919   4.413   4.021
    7SOL    HW2  921   2.003   4.273   4.016
    8SOL     OW  922   0.648   3.213   4.853
    8SOL    HW1  923   0.744   3.189   4.868
    8SOL    HW2  924   0.640   3.263   4.767
    9SOL     OW  925   7.026   0.767   6.607
    9SOL    HW1  926   7.005   0.853   6.562
    9SOL    HW2  927   6.975   0.693   6.564
   10SOL     OW  928   5.340   4.670   1.691
   10SOL    HW1  929   5.314   4.758   1.651
   10SOL    HW2  930   5.428   4.641   1.653
   11SOL     OW  931   1.852   1.923   0.758
   11SOL    HW1  932   1.929   1.976   0.723
   11SOL    HW2  933   1.791   1.982   0.811
   12SOL     OW  934   4.064   5.057   2.441
   12SOL    HW1  935   4.052   5.067   2.540
   12SOL    HW2  936   4.158   5.081   2.416
   13SOL     OW  937   6.110   5.921   1.478
   13SOL    HW1  938   6.118   5.844   1.541
   13SOL    HW2  939   6.166   5.904   1.397
   14SOL     OW  940   4.397   6.540   5.932
   14SOL    HW1  941   4.360   6.622   5.887
   14SOL    HW2  942   4.325   6.495   5.984
   15SOL     OW  943   1.155   6.295   5.920
   15SOL    HW1  944   1.139   6.374   5.861
   15SOL    HW2  945   1.126   6.211   5.872
   16SOL     OW  946   2.218   4.746   4.738
   16SOL    HW1  947   2.170   4.757   4.825
   16SOL    HW2  948   2.151   4.730   4.665
   17SOL     OW  949   6.291   1.072   5.554
   17SOL    HW1  950   6.256   1.164   5.573
   17SOL    HW2  951   6.391   1.075   5.550
   18SOL     OW  952   3.005   1.520   5.983
   18SOL    HW1  953   2.950   1.491   5.905
   18SOL    HW2  954   2.947   1.523   6.065
   19SOL     OW  955   2.932   6.430   2.778
   19SOL    HW1  956   2.976   6.343   2.804
   19SOL    HW2  957   2.842   6.436   2.820
   20SOL     OW  958   5.854   1.555   5.143
   20SOL    HW1  959   5.872   1.506   5.229
   20SOL    HW2  960   5.762   1.535   5.111
   21SOL     OW  961   2.473   4.452   2.584
   21SOL    HW1  962   2.551   4.475   2.525
   21SOL    HW2  963   2.393   4.506   2.556
   22SOL     OW  964   1.030   0.791   6.719
   22SOL    HW1  965   1.061   0.799   6.624
   22SOL    HW2  966   0.940   0.747   6.720
   23SOL     OW  967   5.523   4.701   1.067
   23SOL    HW1  968   5.438   4.729   1.023
   23SOL    HW2  969   5.590   4.676   0.998
   24SOL     OW  970   4.679   1.606   0.458
   24SOL    HW1  971   4.603   1.669   0.472
   24SOL    HW2  972   4.728   1.631   0.374
   25SOL     OW  973   2.195   0.736   4.365
   25SOL    HW1  974   2.108   0.771   4.399
   25SOL    HW2  975   2.185   0.639   4.342
   26SOL     OW  976   0.502   2.280   6.570
   26SOL    HW1  977   0.593   2.263   6.606
   26SOL    HW2  978   0.489   2.228   6.486
   27SOL     OW  979   6.372   0.309   2.475
   27SOL    HW1  980   6.365   0.269   2.566
   27SOL    HW2  981   6.465   0.342   2.459
   28SOL     OW  982   2.180   0.539   4.739
   28SOL    HW1  983   2.163   0.446   4.769
   28SOL    HW2  984   2.224   0.590   4.813
   29SOL     OW  985   6.787   6.921   1.044
   29SOL    HW1  986   6.845   6.967   1.111
   29SOL    HW2  987   6.843   6.856   0.992
   30SOL     OW  988   4.329   0.185   5.021
   30SOL    HW1  989   4.263   0.255   5.047
   30SOL    HW2  990   4.288   0.095   5.029
   31SOL     OW  991   0.746   4.017   4.905
   31SOL    HW1  992   0.648   4.012   4.923
   31SOL    HW2  993   0.764   3.987   4.811
   32SOL     OW  994   3.911   0.611   1.175
   32SOL    HW1  995   3.822   0.627   1.219
   32SOL    HW2  996   3.907   0.642   1.080
   33SOL     OW  997   1.868   5.544   6.134
   33SOL    HW1  998   1.908   5.624   6.089
   33SOL    HW2  999   1.939   5.475   6.148
   34SOL     OW 1000   3.268   5.867   5.225
   34SOL    HW1 1001   3.196   5.850   5.292
   34SOL    HW2 1002   3.351   5.817   5.253
   35SOL     OW 1003   1.705   2.972   6.687
   35SOL    HW1 1004   1.678   2.921   6.769
   35SOL    HW2 1005   1.639   3.045   6.670
   36SOL     OW 1006   4.273   1.054   3.480
   36SOL    HW1 1007   4.301   1.055   3.384
   36SOL    HW2 1008   4.205   1.126   3.496
   37SOL     OW 1009   2.434   0.020   3.924
   37SOL    HW1 1010   2.504   7.021   3.857
   37SOL    HW2 1011   2.390   0.105   3.895
   38SOL     OW 1012   0.867   3.795   2.901
   38SOL    HW1 1013   0.911   3.874   2.944
   38SOL    HW2 1014   0.792   3.826   2.843
   39SOL     OW 1015   6.607   4.403   1.133
   39SOL    HW1 1016   6.600   4.334   1.205
   39SOL    HW2 1017   6.517   4.417   1.091
   40SOL     OW 1018   5.197   1.790   0.918
   40SOL    HW1 1019   5.264   1.722   0.887
   40SOL    HW2 1020   5.198   1.795   1.018
   41SOL     OW 1021   4.883   4.390   1.708
   41SOL    HW1 1022   4.846   4.346   1.627
   41SOL    HW2 1023   4.878   4.327   1.786
   42SOL     OW 1024   2.759   4.662   6.603
   42SOL    HW1 1025   2.710   4.709   6.530
   42SOL    HW2 1026   2.741   4.708   6.690
   43SOL     OW 1027   4.528   6.932   5.205
   43SOL    HW1 1028   4.565   6.944   5.113
   43SOL    HW2 1029   4.580   6.988   5.270
   44SOL     OW 1030   6.671   0.820   6.161
   44SOL    HW1 1031   6.614   0.759   6.106
   44SOL    HW2 1032   6.630   0.911   6.162
   45SOL     OW 1033   1.986   4.630   6.177
   45SOL    HW1 1034   1.971   4.578   6.261
   45SOL    HW2 1035   2.083   4.654   6.170
   46SOL     OW 1036   1.547   3.504   4.864
   46SOL    HW1 1037   1.508   3.588   4.826
   46SOL    HW2 1038   1.626   3.526   4.920
   47SOL     OW 1039   5.482   4.113   0.190
   47SOL    HW1 1040   5.421   4.129   0.267
   47SOL    HW2 1041   5.458   4.173   0.114
   48SOL     OW 1042   6.113   3.892   0.503
   48SOL    HW1 1043   6.053   3.903   0.424
   48SOL    HW2 1044   6.062   3.851   0.578
   49SOL     OW 1045   2.851   4.069   6.978
   49SOL    HW1 1046   2.941   4.034   7.005
   49SOL    HW2 1047   2.848   4.080   6.878
   50SOL     OW 1048   5.901   1.957   0.240
   50SOL    HW1 1049   5.826   1.993   0.295
   50SOL    HW2 1050   5.959   1.898   0.296
   51SOL     OW 1051   0.857   5.555   2.384
   51SOL    HW1 1052   0.800   5.605   2.320
   51SOL    HW2 1053   0.877   5.613   2.463
   52SOL     OW 1054   6.018   2.737   2.127
   52SOL    HW1 1055   6.070   2.705   2.048
   52SOL    HW2 1056   5.921   2.741   2.103
   53SOL     OW 1057   3.377   0.978   1.810
   53SOL    HW1 1058   3.415   0.957   1.900
   53SOL    HW2 1059   3.452   1.005   1.749
   54SOL     OW 1060   5.516   6.954   6.587
   54SOL    HW1 1061   5.499   6.859   6.614
   54SOL    HW2 1062   5.541   6.958   6.490
   55SOL     OW 1063   1.039   3.682   6.138
   55SOL    HW1 1064   1.005   3.667   6.045
   55SOL    HW2 1065   1.126   3.731   6.133
   56SOL     OW 1066   0.322   2.251   6.809
   56SOL    HW1 1067   0.244   2.310   6.831
   56SOL    HW2 1068   0.367   2.285   6.726
   57SOL     OW 1069   4.461   6.450   0.793
   57SOL    HW1 1070   4.441   6.476   0.887
   57SOL    HW2 1071   4.387   6.393   0.758
   58SOL     OW 1072   1.057   0.730   0.066
   58SOL    HW1 1073   0.982   0.752   0.127
   58SOL    HW2 1074   1.140   0.776   0.097
   59SOL     OW 1075   4.487   3.211   5.512
   59SOL    HW1 1076   4.582   3.242   5.503
   59SOL    HW2 1077   4.472   3.132   5.451
   60SOL     OW 1078   6.174   2.467   2.028
   60SOL    HW1 1079   6.137   2.532   1.962
   60SOL    HW2 1080   6.098   2.417   2.071
   61SOL     OW 1081   1.071   6.299   4.433
   61SOL    HW1 1082   1.050   6.268   4.525
   61SOL    HW2 1083   0.990   6.341   4.393
   62SOL     OW 1084   6.183   3.259   3.299
   62SOL    HW1 1085   6.180   3.279   3.201
   62SOL    HW2 1086   6.269   3.292   3.337
   63SOL     OW 1087   3.650   0.797   6.144
   63SOL    HW1 1088   3.727   0.842   6.192
   63SOL    HW2 1089   3.609   0.862   6.080
   64SOL     OW 1090   1.458   3.355   5.445
   64SOL    HW1 1091   1.492   3.441   5.482
   64SOL    HW2 1092   1.492   3.343   5.352
   65SOL     OW 1093   0.766   5.081   4.148
   65SOL    HW1 1094   0.812   5.156   4.101
   65SOL    HW2 1095   0.732   5.113   4.237
   66SOL     OW 1096   3.942   1.051   2.054
   66SOL    HW1 1097   4.003   1.091   1.986
   66SOL    HW2 1098   3.962   1.091   2.144
   67SOL     OW 1099   6.873   3.310   1.523
   67SOL    HW1 1100   6.877   3.377   1.449
   67SOL    HW2 1101   6.813   3.234   1.495
   68SOL     OW 1102   6.673   1.635   6.618
   68SOL    HW1 1103   6.593   1.611   6.563
   68SOL    HW2 1104   6.674   1.580   6.701
   69SOL     OW 1105   1.032   6.231   6.284
   69SOL    HW1 1106   1.042   6.133   6.264
   69SOL    HW2 1107   1.114   6.280   6.257
   70SOL     OW 1108   5.059   4.354   4.036
   70SOL    HW1 1109   4.978   4.342   4.093
   70SOL    HW2 1110   5.138   4.374   4.094
   71SOL     OW 1111   5.261   2.023   4.156
   71SOL    HW1 1112   5.250   1.957   4.082
   71SOL    HW2 1113   5.222   2.111   4.129
   72SOL     OW 1114   0.546   1.630   3.268
   72SOL    HW1 1115   0.622   1.678   3.313
   72SOL    HW2 1116   0.529   1.543   3.314
   73SOL     OW 1117   2.823   0.342   0.380
   73SOL    HW1 1118   2.847   0.389   0.465
   73SOL    HW2 1119   2.892   0.273   0.359
   74SOL     OW 1120   3.153   2.299   0.730
   74SOL    HW1 1121   3.169   2.393   0.759
   74SOL    HW2 1122   3.116   2.298   0.637
   75SOL     OW 1123   2.563   3.092   0.391
   75SOL    HW1 1124   2.469   3.099   0.423
   75SOL    HW2 1125   2.570   3.017   0.325
   76SOL     OW 1126   3.739   5.494   5.505
   76SOL    HW1 1127   3.792   5.459   5.428
   76SOL    HW2 1128   3.686   5.418   5.546
   77SOL     OW 1129   1.120   5.418   4.299
   77SOL    HW1 1130   1.122   5.344   4.232
   77SOL    HW2 1131   1.208   5.466   4.297
   78SOL     OW 1132   4.609   1.690   1.327
   78SOL    HW1 1133   4.670   1.630   1.378
   78SOL    HW2 1134   4.533   1.718   1.385
   79SOL     OW 1135   1.358   4.532   3.718
   79SOL    HW1 1136   1.433   4.475   3.752
   79SOL    HW2 1137   1.281   4.473   3.693
   80SOL     OW 1138   3.658   1.440   4.737
   80SOL    HW1 1139   3.733   1.459   4.800
   80SOL    HW2 1140   3.594   1.375   4.780
   81SOL     OW 1141   3.852   5.231   1.704
   81SOL    HW1 1142   3.824   5.152   1.650
   81SOL    HW2 1143   3.911   5.201   1.779
   82SOL     OW 1144   2.200   6.219   1.748
   82SOL    HW1 1145   2.145   6.297   1.719
   82SOL    HW2 1146   2.285   6.217   1.696
   83SOL     OW 1147   5.084   1.438   3.815
   83SOL    HW1 1148   5.095   1.364   3.881
   83SOL    HW2 1149   5.000   1.423   3.762
   84SOL     OW 1150   5.694   3.158   2.603
   84SOL    HW1 1151   5.737   3.108   2.528
   84SOL    HW2 1152   5.599   3.179   2.580
   85SOL     OW 1153   2.707   6.786   3.393
   85SOL    HW1 1154   2.798   6.788   3.353
   85SOL    HW2 1155   2.714   6.792   3.492
   86SOL     OW 1156   5.126   6.922   0.212
   86SOL    HW1 1157   5.169   7.004   0.249
   86SOL    HW2 1158   5.162   6.904   0.120
   87SOL     OW 1159   2.473   4.359   6.341
   87SOL    HW1 1160   2.416   4.429   6.384
   87SOL    HW2 1161   2.469   4.276   6.397
   88SOL     OW 1162   2.543   3.444   1.452
   88SOL    HW1 1163   2.579   3.515   1.514
   88SOL    HW2 1164   2.495   3.488   1.376
   89SOL     OW 1165   3.230   3.442   3.708
   89SOL    HW1 1166   3.218   3.344   3.719
   89SOL    HW2 1167   3.184   3.472   3.624
   90SOL     OW 1168   5.593   3.874   2.179
   90SOL    HW1 1169   5.580   3.790   2.231
   90SOL    HW2 1170   5.688   3.906   2.189
   91SOL     OW 1171   4.683   5.670   6.246
   91SOL    HW1 1172   4.686   5.682   6.345
   91SOL    HW2 1173   4.622   5.739   6.206
   92SOL     OW 1174   5.017   4.419   0.051
   92SOL    HW1 1175   5.095   4.398   0.111
   92SOL    HW2 1176   5.043   4.402   6.983
   93SOL     OW 1177   2.992   3.706   2.005
   93SOL    HW1 1178   3.089   3.689   1.988
   93SOL    HW2 1179   2.945   3.620   2.023
   94SOL     OW 1180   2.925   2.266   4.235
   94SOL    HW1 1181   2.898   2.213   4.315
   94SOL    HW2 1182   2.854   2.334   4.214
   95SOL     OW 1183   0.253   0.762   4.134
   95SOL    HW1 1184   0.335   0.729   4.181
   95SOL    HW2 1185   0.228   0.697   4.062
   96SOL     OW 1186   6.833   5.149   6.944
   96SOL    HW1 1187   6.839   5.243   6.909
   96SOL    HW2 1188   6.831   5.085   6.868
   97SOL     OW 1189   2.208   3.955   5.793
   97SOL    HW1 1190   2.262   4.032   5.759
   97SOL    HW2 1191   2.111   3.977   5.788
   98SOL     OW 1192   0.928   2.137   3.713
   98SOL    HW1 1193   0.882   2.100   3.632
   98SOL    HW2 1194   0.982   2.217   3.688
   99SOL     OW 1195   3.318   4.298   5.333
   99SOL    HW1 1196   3.413   4.267   5.332
   99SOL    HW2 1197   3.258   4.226   5.297
  100SOL     OW 1198   6.881   0.841   5.070
  100SOL    HW1 1199   6.792   0.805   5.046
  100SOL    HW2 1200   6.937   0.768   5.110
  101SOL     OW 1201   5.202   3.741   2.738
  101SOL    HW1 1202   5.284   3.691   2.767
  101SOL    HW2 1203   5.196   3.827   2.789
  102SOL     OW 1204   3.928   0.513   7.026
  102SOL    HW1 1205   3.836   0.549   7.011
  102SOL    HW2 1206   3.927   0.414   7.021
  103SOL     OW 1207   1.691   1.109   2.136
  103SOL    HW1 1208   1.778   1.068   2.164
  103SOL    HW2 1209   1.702   1.156   2.049
  104SOL     OW 1210   6.376   4.810   1.629
  104SOL    HW1 1211   6.372   4.890   1.569
  104SOL    HW2 1212   6.471   4.796   1.659
  105SOL     OW 1213   6.927   1.161   5.487
  105SOL    HW1 1214   6.945   1.217   5.405
  105SOL    HW2 1215   6.868   1.084   5.462
  106SOL     OW 1216   4.373   3.019   1.457
  106SOL    HW1 1217   4.433   3.059   1.387
  106SOL    HW2 1218   4.373   3.077   1.538
  107SOL     OW 1219   6.088   7.002   1.638
  107SOL    HW1 1220   6.010   7.020   1.579
  107SOL    HW2 1221   6.056   6.977   1.730
  108SOL     OW 1222   3.183   1.630   4.669
  108SOL    HW1 1223   3.198   1.645   4.767
  108SOL    HW2 1224   3.125   1.550   4.656
  109SOL     OW 1225   1.799   1.159   4.569
  109SOL    HW1 1226   1.834   1.074   4.608
  109SOL    HW2 1227   1.801   1.231   4.638
  110SOL     OW 1228   3.577   4.263   5.579
  110SOL    HW1 1229   3.662   4.264   5.630
  110SOL    HW2 1230   3.587   4.318   5.496
  111SOL     OW 1231   5.929   2.628   0.869
  111SOL    HW1 1232   6.025   2.607   0.885
  111SOL    HW2 1233   5.918   2.727   0.859
  112SOL     OW 1234   5.127   6.954   6.571
  112SOL    HW1 1235   5.143   6.856   6.582
  112SOL    HW2 1236   5.212   7.000   6.547
  113SOL     OW 1237   0.492   5.162   2.720
  113SOL    HW1 1238   0.574   5.215   2.697
  113SOL    HW2 1239   0.416   5.192   2.662
  114SOL     OW 1240   6.950   2.362   2.197
  114SOL    HW1 1241   6.851   2.371   2.190
  114SOL    HW2 1242   6.994   2.451   2.184
  115SOL     OW 1243   5.477   6.476   3.735
  115SOL    HW1 1244   5.525   6.408   3.679
  115SOL    HW2 1245   5.384   6.446   3.752
  116SOL     OW 1246   0.186   4.906   0.511
  116SOL    HW1 1247   0.267   4.848   0.524
  116SOL    HW2 1248   0.210   5.001   0.529
  117SOL     OW 1249   2.607   2.616   0.149
  117SOL    HW1 1250   2.702   2.630   0.177
  117SOL    HW2 1251   2.600   2.630   0.050
  118SOL     OW 1252   0.544   2.134   2.542
  118SOL    HW1 1253   0.445   2.125   2.536
  118SOL    HW2 1254   0.585   2.102   2.456
  119SOL     OW 1255   6.131   0.710   5.096
  119SOL    HW1 1256   6.109   0.646   5.023
  119SOL    HW2 1257   6.183   0.787   5.059
  120SOL     OW 1258   4.469   1.191   4.164
  120SOL    HW1 1259   4.453   1.176   4.261
  120SOL    HW2 1260   4.564   1.168   4.142
  121SOL     OW 1261   0.423   4.840   0.167
  121SOL    HW1 1262   0.364   4.825   0.087
  121SOL    HW2 1263   0.400   4.928   0.209
  122SOL     OW 1264   6.674   4.902   6.166
  122SOL    HW1 1265   6.660   4.994   6.202
  122SOL    HW2 1266   6.727   4.906   6.081
  123SOL     OW 1267   0.670   2.619   1.645
  123SOL    HW1 1268   0.729   2.699   1.653
  123SOL    HW2 1269   0.723   2.537   1.665
  124SOL     OW 1270   1.256   3.189   6.867
  124SOL    HW1 1271   1.323   3.238   6.812
  124SOL    HW2 1272   1.274   3.206   6.964
  125SOL     OW 1273   4.940   3.130   0.410
  125SOL    HW1 1274   4.912   3.084   0.495
  125SOL    HW2 1275   4.993   3.066   0.354
  126SOL     OW 1276   3.826   3.253   3.967
  126SOL    HW1 1277   3.744   3.299   4.002
  126SOL    HW2 1278   3.804   3.157   3.948
  127SOL     OW 1279   0.632   5.223   5.203
  127SOL    HW1 1280   0.621   5.125   5.185
  127SOL    HW2 1281   0.551   5.257   5.250
  128SOL     OW 1282   4.991   3.882   0.016
  128SOL    HW1 1283   4.997   3.786   0.045
  128SOL    HW2 1284   5.048   3.938   0.076
  129SOL     OW 1285   0.187   5.516   2.503
  129SOL    HW1 1286   0.094   5.479   2.512
  129SOL    HW2 1287   0.195   5.599   2.557
  130SOL     OW 1288   5.868   2.791   3.915
  130SOL    HW1 1289   5.794   2.787   3.982
  130SOL    HW2 1290   5.847   2.860   3.846
  131SOL     OW 1291   0.902   2.433   3.238
  131SOL    HW1 1292   0.921   2.492   3.160
  131SOL    HW2 1293   0.943   2.472   3.321
  132SOL     OW 1294   3.597   2.620   1.064
  132SOL    HW1 1295   3.628   2.526   1.077
  132SOL    HW2 1296   3.677   2.680   1.058
  133SOL     OW 1297   5.234   5.872   6.182
  133SOL    HW1 1298   5.150   5.908   6.143
  133SOL    HW2 1299   5.300   5.853   6.109
  134SOL     OW 1300   5.921   1.956   1.467
  134SOL    HW1 1301   5.931   2.050   1.434
  134SOL    HW2 1302   5.863   1.956   1.548
  135SOL     OW 1303   4.916   3.702   3.997
  135SOL    HW1 1304   4.915   3.654   3.910
  135SOL    HW2 1305   4.875   3.792   3.987
  136SOL     OW 1306   3.472   0.892   6.768
  136SOL    HW1 1307   3.419   0.816   6.731
  136SOL    HW2 1308   3.567   0.862   6.781
  137SOL     OW 1309   2.725   3.913   6.091
  137SOL    HW1 1310   2.723   4.013   6.100
  137SOL    HW2 1311   2.820   3.882   6.086
  138SOL     OW 1312   1.262   5.017   6.471
  138SOL    HW1 1313   1.222   5.109   6.464
  138SOL    HW2 1314   1.190   4.949   6.458
  139SOL     OW 1315   1.496   0.235   0.791
  139SOL    HW1 1316   1.413   0.240   0.735
  139SOL    HW2 1317   1.522   0.140   0.804
  140SOL     OW 1318   4.315   0.556   1.623
  140SOL    HW1 1319   4.255   0.514   1.554
  140SOL    HW2 1320   4.268   0.634   1.664
  141SOL     OW 1321   0.649   3.059   0.469
  141SOL    HW1 1322   0.557   3.093   0.450
  141SOL    HW2 1323   0.681   3.004   0.392
  142SOL     OW 1324   2.177   3.387   0.708
  142SOL    HW1 1325   2.108   3.321   0.739
  142SOL    HW2 1326   2.240   3.406   0.782
  143SOL     OW 1327   4.449   6.119   2.130
  143SOL    HW1 1328   4.379   6.069   2.079
  143SOL    HW2 1329   4.530   6.061   2.140
  144SOL     OW 1330   3.512   5.843   3.041
  144SOL    HW1 1331   3.473   5.770   3.098
  144SOL    HW2 1332   3.455   5.924   3.047
  145SOL     OW 1333   0.405   4.795   3.603
  145SOL    HW1 1334   0.324   4.754   3.645
  145SOL    HW2 1335   0.407   4.774   3.506
  146SOL     OW 1336   5.043   0.540   6.231
  146SOL    HW1 1337   4.988   0.519   6.150
  146SOL    HW2 1338   5.065   0.455   6.279
  147SOL     OW 1339   4.248   0.481   4.833
  147SOL    HW1 1340   4.152   0.492   4.807
  147SOL    HW2 1341   4.254   0.420   4.913
  148SOL     OW 1342   1.818   6.111   1.180
  148SOL    HW1 1343   1.763   6.191   1.203
  148SOL    HW2 1344   1.875   6.132   1.100
  149SOL     OW 1345   2.129   2.500   4.368
  149SOL    HW1 1346   2.045   2.503   4.312
  149SOL    HW2 1347   2.206   2.472   4.311
  150SOL     OW 1348   4.191   1.594   4.803
  150SOL    HW1 1349   4.217   1.570   4.897
  150SOL    HW2 1350   4.248   1.545   4.738
  151SOL     OW 1351   4.867   2.610   0.948
  151SOL    HW1 1352   4.946   2.553   0.924
  151SOL    HW2 1353   4.858   2.684   0.882
  152SOL     OW 1354   0.818   2.275   1.299
  152SOL    HW1 1355   0.726   2.263   1.263
  152SOL    HW2 1356   0.818   2.256   1.397
  153SOL     OW 1357   2.318   1.321   3.936
  153SOL    HW1 1358   2.303   1.377   3.855
  153SOL    HW2 1359   2.366   1.237   3.910
  154SOL     OW 1360   6.568   2.615   2.331
  154SOL    HW1 1361   6.490   2.648   2.277
  154SOL    HW2 1362   6.605   2.690   2.386
  155SOL     OW 1363   7.011   5.076   3.250
  155SOL    HW1 1364   6.984   4.991   3.205
  155SOL    HW2 1365   0.074   5.104   3.215
  156SOL     OW 1366   4.966   2.562   0.478
  156SOL    HW1 1367   5.021   2.486   0.512
  156SOL    HW2 1368   5.002   2.648   0.514
  157SOL     OW 1369   5.119   6.354   1.018
  157SOL    HW1 1370   5.205   6.399   1.044
  157SOL    HW2 1371   5.075   6.408   0.946
  158SOL     OW 1372   0.884   2.835   3.967
  158SOL    HW1 1373   0.900   2.913   4.028
  158SOL    HW2 1374   0.789   2.805   3.975
  159SOL     OW 1375   5.998   5.424   0.798
  159SOL    HW1 1376   5.923   5.464   0.746
  159SOL    HW2 1377   5.997   5.460   0.891
  160SOL     OW 1378   5.418   0.455   0.987
  160SOL    HW1 1379   5.397   0.398   1.067
  160SOL    HW2 1380   5.437   0.549   1.018
  161SOL     OW 1381   6.645   6.678   1.150
  161SOL    HW1 1382   6.611   6.645   1.062
  161SOL    HW2 1383   6.706   6.756   1.136
  162SOL     OW 1384   4.175   6.793   6.496
  162SOL    HW1 1385   4.208   6.772   6.404
  162SOL    HW2 1386   4.160   6.891   6.505
  163SOL     OW 1387   1.062   3.808   2.307
  163SOL    HW1 1388   1.005   3.878   2.349
  163SOL    HW2 1389   1.108   3.755   2.378
  164SOL     OW 1390   2.707   1.812   3.749
  164SOL    HW1 1391   2.719   1.839   3.654
  164SOL    HW2 1392   2.658   1.725   3.753
  165SOL     OW 1393   6.846   6.790   3.739
  165SOL    HW1 1394   6.842   6.700   3.782
  165SOL    HW2 1395   6.812   6.859   3.803
  166SOL     OW 1396   6.312   4.360   4.029
  166SOL    HW1 1397   6.363   4.319   3.954
  166SOL    HW2 1398   6.214   4.358   4.009
  167SOL     OW 1399   2.312   1.579   6.094
  167SOL    HW1 1400   2.367   1.598   6.012
  167SOL    HW2 1401   2.216   1.599   6.075
  168SOL     OW 1402   3.942   3.432   1.830
  168SOL    HW1 1403   3.932   3.501   1.758
  168SOL    HW2 1404   3.921   3.342   1.792
  169SOL     OW 1405   4.381   1.863   1.227
  169SOL    HW1 1406   4.439   1.911   1.293
  169SOL    HW2 1407   4.439   1.819   1.158
  170SOL     OW 1408   6.293   5.625   1.335
  170SOL    HW1 1409   6.205   5.671   1.321
  170SOL    HW2 1410   6.356   5.652   1.262
  171SOL     OW 1411   3.539   3.006   0.969
  171SOL    HW1 1412   3.487   3.059   0.902
  171SOL    HW2 1413   3.484   2.993   1.051
  172SOL     OW 1414   1.021   1.566   6.453
  172SOL    HW1 1415   1.075   1.625   6.392
  172SOL    HW2 1416   0.966   1.622   6.514
  173SOL     OW 1417   5.967   1.551   4.006
  173SOL    HW1 1418   5.973   1.634   4.062
  173SOL    HW2 1419   5.996   1.571   3.913
  174SOL     OW 1420   5.619   4.426   4.613
  174SOL    HW1 1421   5.619   4.406   4.711
  174SOL    HW2 1422   5.543   4.378   4.570
  175SOL     OW 1423   0.236   0.092   2.883
  175SOL    HW1 1424   0.313   0.033   2.856
  175SOL    HW2 1425   0.245   0.181   2.839
  176SOL     OW 1426   6.147   3.707   1.739
  176SOL    HW1 1427   6.142   3.755   1.651
  176SOL    HW2 1428   6.209   3.628   1.730
  177SOL     OW 1429   5.991   2.100   3.776
  177SOL    HW1 1430   6.058   2.153   3.828
  177SOL    HW2 1431   5.956   2.026   3.833
  178SOL     OW 1432   2.555   5.892   4.668
  178SOL    HW1 1433   2.608   5.918   4.749
  178SOL    HW2 1434   2.458   5.905   4.686
  179SOL     OW 1435   3.338   4.134   1.347
  179SOL    HW1 1436   3.256   4.079   1.330
  179SOL    HW2 1437   3.322   4.195   1.424
  180SOL     OW 1438   4.497   1.028   0.041
  180SOL    HW1 1439   4.496   0.947   7.009
  180SOL    HW2 1440   4.523   1.108   7.013
  181SOL     OW 1441   3.399   2.271   6.001
  181SOL    HW1 1442   3.403   2.308   5.908
  181SOL    HW2 1443   3.483   2.295   6.050
  182SOL     OW 1444   2.960   2.525   6.250
  182SOL    HW1 1445   2.961   2.474   6.164
  182SOL    HW2 1446   3.023   2.603   6.243
  183SOL     OW 1447   3.091   0.543   3.581
  183SOL    HW1 1448   3.024   0.616   3.568
  183SOL    HW2 1449   3.112   0.501   3.494
  184SOL     OW 1450   4.997   5.766   3.897
  184SOL    HW1 1451   4.948   5.744   3.981
  184SOL    HW2 1452   5.031   5.682   3.855
  185SOL     OW 1453   6.933   0.288   4.651
  185SOL    HW1 1454   6.888   0.208   4.610
  185SOL    HW2 1455   6.977   0.342   4.580
  186SOL     OW 1456   3.462   6.222   4.731
  186SOL    HW1 1457   3.501   6.196   4.819
  186SOL    HW2 1458   3.367   6.250   4.744
  187SOL     OW 1459   4.047   6.126   1.845
  187SOL    HW1 1460   4.043   6.085   1.937
  187SOL    HW2 1461   4.105   6.207   1.848
  188SOL     OW 1462   1.144   2.818   2.852
  188SOL    HW1 1463   1.060   2.857   2.888
  188SOL    HW2 1464   1.182   2.878   2.782
  189SOL     OW 1465   5.431   5.147   5.513
  189SOL    HW1 1466   5.381   5.105   5.589
  189SOL    HW2 1467   5.463   5.075   5.451
  190SOL     OW 1468   5.963   0.013   0.462
  190SOL    HW1 1469   5.916   6.954   0.441
  190SOL    HW2 1470   5.908   0.090   0.429
  191SOL     OW 1471   0.191   1.459   5.753
  191SOL    HW1 1472   0.266   1.525   5.757
  191SOL    HW2 1473   0.118   1.495   5.696
  192SOL     OW 1474   0.678   5.845   0.996
  192SOL    HW1 1475   0.606   5.776   0.989
  192SOL    HW2 1476   0.686   5.893   0.908
  193SOL     OW 1477   2.385   6.573   0.461
  193SOL    HW1 1478   2.396   6.487   0.411
  193SOL    HW2 1479   2.314   6.628   0.417
  194SOL     OW 1480   4.180   5.796   2.208
  194SOL    HW1 1481   4.089   5.756   2.205
  194SOL    HW2 1482   4.224   5.774   2.296
  195SOL     OW 1483   3.846   0.766   1.515
  195SOL    HW1 1484   3.922   0.705   1.494
  195SOL    HW2 1485   3.775   0.757   1.445
  196SOL     OW 1486   3.522   2.153   0.496
  196SOL    HW1 1487   3.460   2.196   0.561
  196SOL    HW2 1488   3.571   2.078   0.540
  197SOL     OW 1489   1.864   6.026   0.386
  197SOL    HW1 1490   1.804   6.095   0.344
  197SOL    HW2 1491   1.928   6.072   0.448
  198SOL     OW 1492   3.898   0.057   6.512
  198SOL    HW1 1493   3.935   0.146   6.486
  198SOL    HW2 1494   3.826   0.030   6.448
  199SOL     OW 1495   0.627   0.550   2.880
  199SOL    HW1 1496   0.564   0.537   2.956
  199SOL    HW2 1497   0.702   0.609   2.910
  200SOL     OW 1498   1.023   4.317   3.122
  200SOL    HW1 1499   1.112   4.322   3.167
  200SOL    HW2 1500   0.950   4.325   3.190
  201SOL     OW 1501   5.198   1.360   6.102
  201SOL    HW1 1502   5.180   1.410   6.017
  201SOL    HW2 1503   5.111   1.337   6.146
  202SOL     OW 1504   3.594   1.126   2.504
  202SOL    HW1 1505   3.561   1.201   2.561
  202SOL    HW2 1506   3.657   1.161   2.435
  203SOL     OW 1507   5.754   2.670   0.201
  203SOL    HW1 1508   5.674   2.728   0.188
  203SOL    HW2 1509   5.746   2.590   0.141
  204SOL     OW 1510   2.776   6.402   1.530
  204SOL    HW1 1511   2.742   6.467   1.598
  204SOL    HW2 1512   2.706   6.385   1.461
  205SOL     OW 1513   5.892   0.946   0.693
  205SOL    HW1 1514   5.884   0.919   0.597
  205SOL    HW2 1515   5.828   1.020   0.712
  206SOL     OW 1516   0.654   5.035   1.806
  206SOL    HW1 1517   0.591   4.957   1.805
  206SOL    HW2 1518   0.728   5.017   1.742
  207SOL     OW 1519   4.749   1.444   5.217
  207SOL    HW1 1520   4.671   1.457   5.157
  207SOL    HW2 1521   4.795   1.531   5.234
  208SOL     OW 1522   3.426   4.991   6.052
  208SOL    HW1 1523   3.433   5.090   6.059
  208SOL    HW2 1524   3.518   4.951   6.058
  209SOL     OW 1525   6.938   5.139   5.433
  209SOL    HW1 1526   6.841   5.117   5.446
  209SOL    HW2 1527   6.963   5.123   5.337
  210SOL     OW 1528   3.929   2.081   2.123
  210SOL    HW1 1529   4.012   2.106   2.072
  210SOL    HW2 1530   3.849   2.114   2.073
  211SOL     OW 1531   1.378   1.976   1.741
  211SOL    HW1 1532   1.345   2.016   1.656
  211SOL    HW2 1533   1.322   1.896   1.764
  212SOL     OW 1534   0.873   4.744   4.399
  212SOL    HW1 1535   0.887   4.646   4.414
  212SOL    HW2 1536   0.881   4.765   4.302
  213SOL     OW 1537   4.035   3.063   6.616
  213SOL    HW1 1538   4.121   3.013   6.617
  213SOL    HW2 1539   4.014   3.097   6.707
  214SOL     OW 1540   1.424   6.681   2.758
  214SOL    HW1 1541   1.495   6.629   2.806
  214SOL    HW2 1542   1.342   6.685   2.815
  215SOL     OW 1543   3.577   3.481   2.688
  215SOL    HW1 1544   3.667   3.470   2.730
  215SOL    HW2 1545   3.547   3.394   2.649
  216SOL     OW 1546   1.703   6.408   5.676
  216SOL    HW1 1547   1.606   6.384   5.669
  216SOL    HW2 1548   1.753   6.333   5.717
  217SOL     OW 1549   6.772   2.836   3.932
  217SOL    HW1 1550   6.726   2.752   3.960
  217SOL    HW2 1551   6.868   2.833   3.959
  218SOL     OW 1552   1.837   3.805   5.335
  218SOL    HW1 1553   1.745   3.842   5.348
  218SOL    HW2 1554   1.855   3.736   5.405
  219SOL     OW 1555   4.346   5.292   0.630
  219SOL    HW1 1556   4.329   5.263   0.724
  219SOL    HW2 1557   4.431   5.344   0.627
  220SOL     OW 1558   1.557   4.543   0.978
  220SOL    HW1 1559   1.629   4.612   0.975
  220SOL    HW2 1560   1.580   4.473   1.046
  221SOL     OW 1561   6.601   2.555   3.933
  221SOL    HW1 1562   6.550   2.573   4.017
  221SOL    HW2 1563   6.551   2.592   3.854
  222SOL     OW 1564   1.150   6.421   4.827
  222SOL    HW1 1565   1.146   6.461   4.736
  222SOL    HW2 1566   1.188   6.328   4.822
  223SOL     OW 1567   5.731   4.103   2.464
  223SOL    HW1 1568   5.820   4.104   2.417
  223SOL    HW2 1569   5.709   4.194   2.497
  224SOL     OW 1570   3.617   1.957   2.084
  224SOL    HW1 1571   3.532   1.951   2.137
  224SOL    HW2 1572   3.627   2.049   2.048
  225SOL     OW 1573   0.557   0.387   1.040
  225SOL    HW1 1574   0.587   0.295   1.063
  225SOL    HW2 1575   0.457   0.388   1.031
  226SOL     OW 1576   0.429   5.710   1.237
  226SOL    HW1 1577   0.441   5.692   1.139
  226SOL    HW2 1578   0.468   5.799   1.259
  227SOL     OW 1579   1.596   2.834   3.458
  227SOL    HW1 1580   1.621   2.812   3.364
  227SOL    HW2 1581   1.613   2.931   3.476
  228SOL     OW 1582   4.032   6.920   2.737
  228SOL    HW1 1583   4.027   6.846   2.670
  228SOL    HW2 1584   4.098   6.897   2.808
  229SOL     OW 1585   6.441   5.584   3.369
  229SOL    HW1 1586   6.510   5.514   3.350
  229SOL    HW2 1587   6.401   5.615   3.284
  230SOL     OW 1588   1.275   4.170   5.666
  230SOL    HW1 1589   1.339   4.181   5.741
  230SOL    HW2 1590   1.197   4.232   5.679
  231SOL     OW 1591   0.429   1.997   0.280
  231SOL    HW1 1592   0.338   1.978   0.316
  231SOL    HW2 1593   0.494   2.007   0.355
  232SOL     OW 1594   2.091   4.910   6.463
  232SOL    HW1 1595   2.157   4.983   6.449
  232SOL    HW2 1596   2.028   4.906   6.386
  233SOL     OW 1597   3.201   1.012   6.109
  233SOL    HW1 1598   3.191   0.979   6.204
  233SOL    HW2 1599   3.170   1.107   6.104
  234SOL     OW 1600   2.974   5.810   0.111
  234SOL    HW1 1601   3.004   5.813   0.206
  234SOL    HW2 1602   2.974   5.902   0.072
  235SOL     OW 1603   3.939   3.026   4.499
  235SOL    HW1 1604   3.969   3.050   4.407
  235SOL    HW2 1605   3.960   3.100   4.563
  236SOL     OW 1606   6.577   1.810   5.427
  236SOL    HW1 1607   6.616   1.779   5.340
  236SOL    HW2 1608   6.594   1.909   5.437
  237SOL     OW 1609   0.118   6.671   2.019
  237SOL    HW1 1610   0.019   6.687   2.027
  237SOL    HW2 1611   0.150   6.621   2.099
  238SOL     OW 1612   7.013   2.161   2.370
  238SOL    HW1 1613   6.981   2.199   2.457
  238SOL    HW2 1614   6.999   2.228   2.297
  239SOL     OW 1615   0.710   5.720   0.731
  239SOL    HW1 1616   0.671   5.630   0.713
  239SOL    HW2 1617   0.710   5.774   0.647
  240SOL     OW 1618   6.686   2.911   5.581
  240SOL    HW1 1619   6.712   2.956   5.666
  240SOL    HW2 1620   6.631   2.974   5.526
  241SOL     OW 1621   6.550   1.706   4.032
  241SOL    HW1 1622   6.477   1.653   3.989
  241SOL    HW2 1623   6.520   1.801   4.043
  242SOL     OW 1624   2.014   2.740   3.447
  242SOL    HW1 1625   2.069   2.751   3.530
  242SOL    HW2 1626   1.973   2.828   3.423
  243SOL     OW 1627   3.994   1.130   5.771
  243SOL    HW1 1628   3.915   1.075   5.799
  243SOL    HW2 1629   3.989   1.150   5.674
  244SOL     OW 1630   6.610   0.438   5.825
  244SOL    HW1 1631   6.683   0.374   5.849
  244SOL    HW2 1632   6.649   0.517   5.777
  245SOL     OW 1633   5.501   2.691   3.768
  245SOL    HW1 1634   5.469   2.782   3.741
  245SOL    HW2 1635   5.526   2.639   3.686
  246SOL     OW 1636   4.844   3.315   3.719
  246SOL    HW1 1637   4.839   3.323   3.819
  246SOL    HW2 1638   4.940   3.306   3.691
  247SOL     OW 1639   3.306   0.336   4.184
  247SOL    HW1 1640   3.247   0.365   4.109
  247SOL    HW2 1641   3.315   0.410   4.251
  248SOL     OW 1642   6.125   1.623   1.883
  248SOL    HW1 1643   6.073   1.709   1.875
  248SOL    HW2 1644   6.119   1.573   1.797
  249SOL     OW 1645   2.349   6.372   3.790
  249SOL    HW1 1646   2.416   6.307   3.755
  249SOL    HW2 1647   2.342   6.363   3.890
  250SOL     OW 1648   5.259   3.281   6.441
  250SOL    HW1 1649   5.354   3.311   6.442
  250SOL    HW2 1650   5.207   3.332   6.509
  251SOL     OW 1651   1.711   2.107   0.879
  251SOL    HW1 1652   1.620   2.065   0.885
  251SOL    HW2 1653   1.704   2.203   0.906
  252SOL     OW 1654   0.332   1.274   0.325
  252SOL    HW1 1655   0.346   1.373   0.324
  252SOL    HW2 1656   0.288   1.247   0.410
  253SOL     OW 1657   1.543   3.831   5.423
  253SOL    HW1 1658   1.462   3.835   5.483
  253SOL    HW2 1659   1.527   3.890   5.343
  254SOL     OW 1660   5.355   3.360   5.462
  254SOL    HW1 1661   5.319   3.452   5.473
  254SOL    HW2 1662   5.295   3.294   5.507
  255SOL     OW 1663   3.468   1.894   3.382
  255SOL    HW1 1664   3.522   1.834   3.324
  255SOL    HW2 1665   3.401   1.944   3.327
  256SOL     OW 1666   6.801   5.826   0.627
  256SOL    HW1 1667   6.828   5.914   0.586
  256SOL    HW2 1668   6.823   5.752   0.565
  257SOL     OW 1669   3.366   5.263   6.516
  257SOL    HW1 1670   3.286   5.205   6.501
  257SOL    HW2 1671   3.351   5.352   6.475
  258SOL     OW 1672   5.065   3.989   4.336
  258SOL    HW1 1673   5.112   3.980   4.249
  258SOL    HW2 1674   5.046   3.898   4.374
  259SOL     OW 1675   1.241   2.384   3.384
  259SOL    HW1 1676   1.322   2.361   3.438
  259SOL    HW2 1677   1.262   2.459   3.321
  260SOL     OW 1678   6.353   7.008   5.489
  260SOL    HW1 1679   6.405   0.066   5.496
  260SOL    HW2 1680   6.298   6.995   5.571
  261SOL     OW 1681   0.668   1.447   2.987
  261SOL    HW1 1682   0.675   1.518   3.058
  261SOL    HW2 1683   0.748   1.451   2.928
  262SOL     OW 1684   2.177   4.826   1.820
  262SOL    HW1 1685   2.160   4.754   1.887
  262SOL    HW2 1686   2.235   4.897   1.860
  263SOL     OW 1687   6.576   2.331   5.077
  263SOL    HW1 1688   6.569   2.427   5.048
  263SOL    HW2 1689   6.611   2.276   5.001
  264SOL     OW 1690   3.012   3.685   5.890
  264SOL    HW1 1691   3.052   3.647   5.806
  264SOL    HW2 1692   2.977   3.611   5.946
  265SOL     OW 1693   5.567   5.793   5.127
  265SOL    HW1 1694   5.633   5.827   5.193
  265SOL    HW2 1695   5.523   5.870   5.080
  266SOL     OW 1696   3.144   2.745   6.279
  266SOL    HW1 1697   3.241   2.753   6.257
  266SOL    HW2 1698   3.101   2.835   6.276
  267SOL     OW 1699   1.524   1.304   6.184
  267SOL    HW1 1700   1.464   1.349   6.250
  267SOL    HW2 1701   1.522   1.354   6.098
  268SOL     OW 1702   3.101   5.878   3.619
  268SOL    HW1 1703   3.013   5.838   3.645
  268SOL    HW2 1704   3.106   5.972   3.653
  269SOL     OW 1705   1.799   1.337   4.784
  269SOL    HW1 1706   1.807   1.266   4.854
  269SOL    HW2 1707   1.838   1.423   4.818
  270SOL     OW 1708   5.138   6.858   4.783
  270SOL    HW1 1709   5.218   6.831   4.729
  270SOL    HW2 1710   5.131   6.958   4.783
  271SOL     OW 1711   1.319   1.619   0.140
  271SOL    HW1 1712   1.327   1.566   0.225
  271SOL    HW2 1713   1.374   1.703   0.148
  272SOL     OW 1714   5.131   5.798   2.007
  272SOL    HW1 1715   5.179   5.775   2.092
  272SOL    HW2 1716   5.113   5.714   1.956
  273SOL     OW 1717   2.934   6.691   4.343
  273SOL    HW1 1718   3.015   6.748   4.327
  273SOL    HW2 1719   2.963   6.597   4.364
  274SOL     OW 1720   6.097   1.519   0.940
  274SOL    HW1 1721   6.097   1.539   0.842
  274SOL    HW2 1722   6.009   1.481   0.966
  275SOL     OW 1723   5.540   6.087   5.863
  275SOL    HW1 1724   5.475   6.139   5.808
  275SOL    HW2 1725   5.624   6.073   5.810
  276SOL     OW 1726   0.031   6.459   3.751
  276SOL    HW1 1727   0.099   6.403   3.798
  276SOL    HW2 1728   6.986   6.485   3.816
  277SOL     OW 1729   4.723   2.482   5.293
  277SOL    HW1 1730   4.658   2.546   5.252
  277SOL    HW2 1731   4.792   2.456   5.225
  278SOL     OW 1732   5.745   3.596   3.406
  278SOL    HW1 1733   5.804   3.656   3.351
  278SOL    HW2 1734   5.770   3.500   3.389
  279SOL     OW 1735   0.469   3.413   4.251
  279SOL    HW1 1736   0.415   3.462   4.321
  279SOL    HW2 1737   0.407   3.379   4.180
  280SOL     OW 1738   3.683   1.049   3.320
  280SOL    HW1 1739   3.664   1.052   3.222
  280SOL    HW2 1740   3.622   1.113   3.367
  281SOL     OW 1741   5.361   6.457   4.836
  281SOL    HW1 1742   5.318   6.433   4.748
  281SOL    HW2 1743   5.372   6.557   4.841
  282SOL     OW 1744   1.457   2.391   0.516
  282SOL    HW1 1745   1.491   2.481   0.488
  282SOL    HW2 1746   1.529   2.343   0.567
  283SOL     OW 1747   5.335   3.241   4.779
  283SOL    HW1 1748   5.372   3.187   4.703
  283SOL    HW2 1749   5.404   3.252   4.849
  284SOL     OW 1750   5.239   5.832   2.868
  284SOL    HW1 1751   5.311   5.790   2.812
  284SOL    HW2 1752   5.151   5.791   2.845
  285SOL     OW 1753   4.274   0.827   6.057
  285SOL    HW1 1754   4.269   0.883   5.975
  285SOL    HW2 1755   4.361   0.778   6.059
  286SOL     OW 1756   2.992   4.926   5.442
  286SOL    HW1 1757   3.086   4.953   5.421
  286SOL    HW2 1758   2.994   4.841   5.495
  287SOL     OW 1759   3.557   0.099   6.711
  287SOL    HW1 1760   3.613   0.163   6.763
  287SOL    HW2 1761   3.595   0.007   6.719
  288SOL     OW 1762   4.667   1.408   0.698
  288SOL    HW1 1763   4.680   1.494   0.648
  288SOL    HW2 1764   4.635   1.428   0.791
  289SOL     OW 1765   6.539   5.440   4.240
  289SOL    HW1 1766   6.445   5.468   4.220
  289SOL    HW2 1767   6.601   5.516   4.218
  290SOL     OW 1768   3.826   0.953   6.264
  290SOL    HW1 1769   3.898   1.000   6.214
  290SOL    HW2 1770   3.850   0.949   6.361
  291SOL     OW 1771   3.772   0.446   5.661
  291SOL    HW1 1772   3.810   0.449   5.754
  291SOL    HW2 1773   3.680   0.485   5.661
  292SOL     OW 1774   4.464   0.256   3.903
  292SOL    HW1 1775   4.498   0.280   3.813
  292SOL    HW2 1776   4.406   0.330   3.938
  293SOL     OW 1777   5.558   6.446   2.757
  293SOL    HW1 1778   5.500   6.517   2.797
  293SOL    HW2 1779   5.653   6.461   2.784
  294SOL     OW 1780   6.226   0.866   6.474
  294SOL    HW1 1781   6.215   0.965   6.472
  294SOL    HW2 1782   6.206   0.828   6.384
  295SOL     OW 1783   1.091   0.842   4.807
  295SOL    HW1 1784   1.058   0.936   4.810
  295SOL    HW2 1785   1.018   0.780   4.838
  296SOL     OW 1786   0.905   2.472   1.765
  296SOL    HW1 1787   0.852   2.395   1.802
  296SOL    HW2 1788   0.957   2.514   1.839
  297SOL     OW 1789   5.072   3.476   3.194
  297SOL    HW1 1790   5.062   3.378   3.173
  297SOL    HW2 1791   5.102   3.525   3.113
  298SOL     OW 1792   4.522   0.663   6.069
  298SOL    HW1 1793   4.568   0.579   6.097
  298SOL    HW2 1794   4.499   0.658   5.971
  299SOL     OW 1795   1.015   0.442   6.741
  299SOL    HW1 1796   0.943   0.502   6.705
  299SOL    HW2 1797   0.974   0.357   6.774
  300SOL     OW 1798   3.762   0.088   3.645
  300SOL    HW1 1799   3.802   7.024   3.648
  300SOL    HW2 1800   3.745   0.120   3.738
  301SOL     OW 1801   6.777   5.188   0.173
  301SOL    HW1 1802   6.772   5.171   0.074
  301SOL    HW2 1803   6.686   5.177   0.213
  302SOL     OW 1804   6.842   5.474   2.258
  302SOL    HW1 1805   6.773   5.504   2.193
  302SOL    HW2 1806   6.887   5.392   2.223
  303SOL     OW 1807   5.617   5.601   3.540
  303SOL    HW1 1808   5.533   5.583   3.488
  303SOL    HW2 1809   5.617   5.544   3.622
  304SOL     OW 1810   2.669   6.110   4.806
  304SOL    HW1 1811   2.621   6.080   4.888
  304SOL    HW2 1812   2.615   6.181   4.760
  305SOL     OW 1813   1.268   2.509   2.050
  305SOL    HW1 1814   1.242   2.532   1.957
  305SOL    HW2 1815   1.348   2.563   2.077
  306SOL     OW 1816   0.202   0.240   3.546
  306SOL    HW1 1817   0.250   0.153   3.557
  306SOL    HW2 1818   0.244   0.292   3.471
  307SOL     OW 1819   3.586   3.393   4.114
  307SOL    HW1 1820   3.517   3.359   4.177
  307SOL    HW2 1821   3.614   3.485   4.142
  308SOL     OW 1822   6.324   2.361   2.652
  308SOL    HW1 1823   6.403   2.419   2.672
  308SOL    HW2 1824   6.355   2.268   2.632
  309SOL     OW 1825   1.380   5.821   6.608
  309SOL    HW1 1826   1.295   5.785   6.570
  309SOL    HW2 1827   1.411   5.899   6.555
  310SOL     OW 1828   5.493   6.502   5.230
  310SOL    HW1 1829   5.546   6.587   5.231
  310SOL    HW2 1830   5.433   6.501   5.151
  311SOL     OW 1831   1.633   5.607   2.674
  311SOL    HW1 1832   1.655   5.582   2.580
  311SOL    HW2 1833   1.706   5.665   2.711
  312SOL     OW 1834   3.745   0.462   3.775
  312SOL    HW1 1835   3.798   0.386   3.738
  312SOL    HW2 1836   3.687   0.428   3.850
  313SOL     OW 1837   3.390   3.885   2.837
  313SOL    HW1 1838   3.337   3.898   2.921
  313SOL    HW2 1839   3.352   3.943   2.764
  314SOL     OW 1840   3.320   5.787   6.123
  314SOL    HW1 1841   3.295   5.803   6.219
  314SOL    HW2 1842   3.320   5.875   6.074
  315SOL     OW 1843   6.136   0.924   4.691
  315SOL    HW1 1844   6.157   1.010   4.646
  315SOL    HW2 1845   6.061   0.878   4.643
  316SOL     OW 1846   4.384   0.911   6.492
  316SOL    HW1 1847   4.458   0.945   6.435
  316SOL    HW2 1848   4.326   0.850   6.437
  317SOL     OW 1849   1.117   1.740   0.990
  317SOL    HW1 1850   1.119   1.663   1.054
  317SOL    HW2 1851   1.173   1.719   0.910
  318SOL     OW 1852   0.405   6.979   5.276
  318SOL    HW1 1853   0.406   0.052   5.278
  318SOL    HW2 1854   0.499   6.945   5.275
  319SOL     OW 1855   0.482   1.393   3.386
  319SOL    HW1 1856   0.570   1.351   3.362
  319SOL    HW2 1857   0.410   1.353   3.330
  320SOL     OW 1858   5.633   2.001   6.444
  320SOL    HW1 1859   5.623   1.965   6.351
  320SOL    HW2 1860   5.691   1.940   6.498
  321SOL     OW 1861   4.592   2.798   0.690
  321SOL    HW1 1862   4.633   2.820   0.778
  321SOL    HW2 1863   4.525   2.868   0.666
  322SOL     OW 1864   2.970   2.958   6.642
  322SOL    HW1 1865   2.963   3.057   6.650
  322SOL    HW2 1866   3.030   2.923   6.714
  323SOL     OW 1867   2.052   4.029   2.421
  323SOL    HW1 1868   2.027   3.988   2.509
  323SOL    HW2 1869   2.027   3.968   2.347
  324SOL     OW 1870   0.660   0.223   2.948
  324SOL    HW1 1871   0.596   0.160   2.905
  324SOL    HW2 1872   0.694   0.288   2.880
  325SOL     OW 1873   0.014   4.196   0.941
  325SOL    HW1 1874   0.021   4.189   1.041
  325SOL    HW2 1875   0.045   4.286   0.911
  326SOL     OW 1876   0.852   6.259   6.763
  326SOL    HW1 1877   0.927   6.285   6.703
  326SOL    HW2 1878   0.872   6.288   6.857
  327SOL     OW 1879   5.232   5.379   5.062
  327SOL    HW1 1880   5.155   5.442   5.068
  327SOL    HW2 1881   5.248   5.336   5.150
  328SOL     OW 1882   1.512   4.144   3.106
  328SOL    HW1 1883   1.579   4.073   3.087
  328SOL    HW2 1884   1.443   4.146   3.034
  329SOL     OW 1885   3.104   3.155   1.593
  329SOL    HW1 1886   3.159   3.073   1.605
  329SOL    HW2 1887   3.062   3.180   1.681
  330SOL     OW 1888   2.653   4.568   0.768
  330SOL    HW1 1889   2.654   4.651   0.823
  330SOL    HW2 1890   2.601   4.584   0.684
  331SOL     OW 1891   6.509   5.100   5.913
  331SOL    HW1 1892   6.557   5.183   5.939
  331SOL    HW2 1893   6.428   5.089   5.971
  332SOL     OW 1894   5.818   2.573   3.218
  332SOL    HW1 1895   5.841   2.566   3.315
  332SOL    HW2 1896   5.733   2.523   3.201
  333SOL     OW 1897   3.496   0.946   5.368
  333SOL    HW1 1898   3.462   0.920   5.278
  333SOL    HW2 1899   3.447   1.027   5.400
  334SOL     OW 1900   4.111   3.679   3.440
  334SOL    HW1 1901   4.123   3.584   3.409
  334SOL    HW2 1902   4.103   3.739   3.360
  335SOL     OW 1903   4.321   1.603   1.324
  335SOL    HW1 1904   4.314   1.700   1.345
  335SOL    HW2 1905   4.238   1.573   1.278
  336SOL     OW 1906   3.013   1.558   4.355
  336SOL    HW1 1907   3.089   1.575   4.292
  336SOL    HW2 1908   2.955   1.640   4.358
  337SOL     OW 1909   1.412   0.976   5.118
  337SOL    HW1 1910   1.343   0.904   5.109
  337SOL    HW2 1911   1.497   0.936   5.154
  338SOL     OW 1912   4.255   1.263   1.698
  338SOL    HW1 1913   4.284   1.168   1.703
  338SOL    HW2 1914   4.317   1.314   1.639
  339SOL     OW 1915   4.172   6.260   5.750
  339SOL    HW1 1916   4.182   6.164   5.724
  339SOL    HW2 1917   4.118   6.308   5.681
  340SOL     OW 1918   4.936   1.999   4.312
  340SOL    HW1 1919   5.035   2.000   4.296
  340SOL    HW2 1920   4.903   1.905   4.306
  341SOL     OW 1921   6.757   6.230   2.916
  341SOL    HW1 1922   6.686   6.259   2.980
  341SOL    HW2 1923   6.822   6.170   2.963
  342SOL     OW 1924   5.081   2.120   2.236
  342SOL    HW1 1925   5.068   2.138   2.138
  342SOL    HW2 1926   5.095   2.022   2.250
  343SOL     OW 1927   6.759   6.360   2.681
  343SOL    HW1 1928   6.790   6.321   2.768
  343SOL    HW2 1929   6.664   6.391   2.690
  344SOL     OW 1930   0.716   1.715   0.547
  344SOL    HW1 1931   0.757   1.734   0.636
  344SOL    HW2 1932   0.685   1.800   0.506
  345SOL     OW 1933   6.937   3.142   4.364
  345SOL    HW1 1934   6.873   3.115   4.436
  345SOL    HW2 1935   6.892   3.135   4.275
  346SOL     OW 1936   2.211   6.756   3.712
  346SOL    HW1 1937   2.254   6.694   3.647
  346SOL    HW2 1938   2.197   6.845   3.669
  347SOL     OW 1939   2.067   4.683   0.778
  347SOL    HW1 1940   2.134   4.757   0.775
  347SOL    HW2 1941   2.041   4.658   0.684
  348SOL     OW 1942   4.568   5.525   1.692
  348SOL    HW1 1943   4.537   5.445   1.744
  348SOL    HW2 1944   4.549   5.511   1.595
  349SOL     OW 1945   5.672   4.007   1.147
  349SOL    HW1 1946   5.728   3.986   1.066
  349SOL    HW2 1947   5.731   4.038   1.221
  350SOL     OW 1948   3.664   2.854   0.338
  350SOL    HW1 1949   3.730   2.815   0.402
  350SOL    HW2 1950   3.698   2.842   0.244
  351SOL     OW 1951   3.221   4.626   1.000
  351SOL    HW1 1952   3.222   4.547   1.061
  351SOL    HW2 1953   3.183   4.600   0.911
  352SOL     OW 1954   4.422   0.321   2.511
  352SOL    HW1 1955   4.349   0.254   2.501
  352SOL    HW2 1956   4.402   0.380   2.590
  353SOL     OW 1957   1.641   0.082   6.501
  353SOL    HW1 1958   1.646   0.105   6.403
  353SOL    HW2 1959   1.714   0.129   6.549
  354SOL     OW 1960   0.213   2.215   0.062
  354SOL    HW1 1961   0.304   2.244   0.032
  354SOL    HW2 1962   0.199   2.119   0.040
  355SOL     OW 1963   1.238   1.941   2.903
  355SOL    HW1 1964   1.209   2.033   2.931
  355SOL    HW2 1965   1.278   1.945   2.812
  356SOL     OW 1966   1.762   0.894   5.760
  356SOL    HW1 1967   1.693   0.847   5.706
  356SOL    HW2 1968   1.780   0.842   5.844
  357SOL     OW 1969   4.980   0.355   4.990
  357SOL    HW1 1970   4.920   0.435   4.994
  357SOL    HW2 1971   5.053   0.364   5.058
  358SOL     OW 1972   3.524   5.982   6.838
  358SOL    HW1 1973   3.507   5.984   6.739
  358SOL    HW2 1974   3.440   5.958   6.886
  359SOL     OW 1975   2.124   2.118   2.397
  359SOL    HW1 1976   2.222   2.132   2.405
  359SOL    HW2 1977   2.075   2.199   2.429
  360SOL     OW 1978   0.898   4.737   4.118
  360SOL    HW1 1979   0.835   4.791   4.061
  360SOL    HW2 1980   0.897   4.642   4.086
  361SOL     OW 1981   6.661   2.000   3.014
  361SOL    HW1 1982   6.726   2.061   2.969
  361SOL    HW2 1983   6.699   1.970   3.102
  362SOL     OW 1984   3.740   3.927   0.737
  362SOL    HW1 1985   3.657   3.876   0.761
  362SOL    HW2 1986   3.765   3.905   0.642
  363SOL     OW 1987   5.376   5.522   1.642
  363SOL    HW1 1988   5.294   5.570   1.610
  363SOL    HW2 1989   5.439   5.509   1.566
  364SOL     OW 1990   0.877   6.672   6.384
  364SOL    HW1 1991   0.902   6.749   6.442
  364SOL    HW2 1992   0.834   6.601   6.440
  365SOL     OW 1993   4.602   1.916   3.577
  365SOL    HW1 1994   4.601   1.849   3.651
  365SOL    HW2 1995   4.591   1.870   3.489
  366SOL     OW 1996   5.339   1.311   7.013
  366SOL    HW1 1997   5.302   1.255   0.060
  366SOL    HW2 1998   5.420   1.360   0.018
  367SOL     OW 1999   5.633   1.407   6.285
  367SOL    HW1 2000   5.674   1.329   6.333
  367SOL    HW2 2001   5.563   1.374   6.221
  368SOL     OW 2002   6.962   1.823   5.559
  368SOL    HW1 2003   6.873   1.868   5.548
  368SOL    HW2 2004   6.978   1.804   5.655
  369SOL     OW 2005   6.936   3.617   1.693
  369SOL    HW1 2006   6.849   3.663   1.677
  369SOL    HW2 2007   6.922   3.518   1.696
  370SOL     OW 2008   1.359   3.129   3.973
  370SOL    HW1 2009   1.394   3.052   3.919
  370SOL    HW2 2010   1.358   3.212   3.917
  371SOL     OW 2011   0.919   4.601   6.787
  371SOL    HW1 2012   0.880   4.514   6.818
  371SOL    HW2 2013   1.005   4.617   6.835
  372SOL     OW 2014   3.757   6.116   6.249
  372SOL    HW1 2015   3.848   6.155   6.263
  372SOL    HW2 2016   3.762   6.017   6.251
  373SOL     OW 2017   5.835   5.297   3.807
  373SOL    HW1 2018   5.913   5.353   3.834
  373SOL    HW2 2019   5.825   5.299   3.707
  374SOL     OW 2020   2.685   1.765   2.926
  374SOL    HW1 2021   2.761   1.820   2.890
  374SOL    HW2 2022   2.599   1.813   2.909
  375SOL     OW 2023   1.261   5.327   4.569
  375SOL    HW1 2024   1.244   5.240   4.615
  375SOL    HW2 2025   1.280   5.310   4.472
  376SOL     OW 2026   2.912   1.096   3.701
  376SOL    HW1 2027   2.989   1.150   3.736
  376SOL    HW2 2028   2.921   1.088   3.601
  377SOL     OW 2029   1.021   1.729   6.846
  377SOL    HW1 2030   0.960   1.650   6.835
  377SOL    HW2 2031   1.055   1.757   6.756
  378SOL     OW 2032   4.068   0.826   2.217
  378SOL    HW1 2033   4.059   0.864   2.125
  378SOL    HW2 2034   4.131   0.748   2.214
  379SOL     OW 2035   5.652   1.830   6.240
  379SOL    HW1 2036   5.712   1.793   6.169
  379SOL    HW2 2037   5.604   1.755   6.285
  380SOL     OW 2038   4.241   2.798   0.212
  380SOL    HW1 2039   4.178   2.831   0.141
  380SOL    HW2 2040   4.255   2.870   0.280
  381SOL     OW 2041   1.849   3.597   3.252
  381SOL    HW1 2042   1.946   3.576   3.258
  381SOL    HW2 2043   1.824   3.660   3.325
  382SOL     OW 2044   4.611   0.560   0.063
  382SOL    HW1 2045   4.661   0.545   7.005
  382SOL    HW2 2046   4.642   0.644   0.106
  383SOL     OW 2047   5.275   2.036   0.823
  383SOL    HW1 2048   5.247   1.943   0.845
  383SOL    HW2 2049   5.219   2.101   0.875
  384SOL     OW 2050   6.513   3.649   4.761
  384SOL    HW1 2051   6.451   3.705   4.705
  384SOL    HW2 2052   6.531   3.696   4.847
  385SOL     OW 2053   4.411   3.573   0.189
  385SOL    HW1 2054   4.381   3.524   0.270
  385SOL    HW2 2055   4.508   3.555   0.172
  386SOL     OW 2056   3.870   6.096   3.493
  386SOL    HW1 2057   3.806   6.105   3.417
  386SOL    HW2 2058   3.960   6.069   3.458
  387SOL     OW 2059   3.098   6.593   3.302
  387SOL    HW1 2060   3.099   6.526   3.376
  387SOL    HW2 2061   3.037   6.561   3.230
  388SOL     OW 2062   1.522   4.381   6.749
  388SOL    HW1 2063   1.450   4.368   6.681
  388SOL    HW2 2064   1.494   4.452   6.813
  389SOL     OW 2065   2.922   3.402   3.136
  389SOL    HW1 2066   2.902   3.489   3.091
  389SOL    HW2 2067   2.980   3.346   3.076
  390SOL     OW 2068   2.064   1.397   3.844
  390SOL    HW1 2069   2.144   1.371   3.897
  390SOL    HW2 2070   2.032   1.319   3.791
  391SOL     OW 2071   0.627   2.957   0.213
  391SOL    HW1 2072   0.606   2.871   0.167
  391SOL    HW2 2073   0.544   2.994   0.255
  392SOL     OW 2074   2.971   5.668   2.591
  392SOL    HW1 2075   3.048   5.646   2.532
  392SOL    HW2 2076   2.888   5.680   2.535
  393SOL     OW 2077   5.621   4.337   4.866
  393SOL    HW1 2078   5.557   4.287   4.924
  393SOL    HW2 2079   5.713   4.330   4.903
  394SOL     OW 2080   2.515   0.617   6.786
  394SOL    HW1 2081   2.419   0.637   6.809
  394SOL    HW2 2082   2.520   0.578   6.694
  395SOL     OW 2083   6.392   3.483   1.064
  395SOL    HW1 2084   6.396   3.583   1.064
  395SOL    HW2 2085   6.458   3.446   0.999
  396SOL     OW 2086   2.870   3.709   4.260
  396SOL    HW1 2087   2.788   3.762   4.281
  396SOL    HW2 2088   2.944   3.736   4.321
  397SOL     OW 2089   4.226   2.405   6.339
  397SOL    HW1 2090   4.258   2.412   6.244
  397SOL    HW2 2091   4.259   2.320   6.379
  398SOL     OW 2092   1.243   5.274   1.518
  398SOL    HW1 2093   1.170   5.286   1.450
  398SOL    HW2 2094   1.277   5.364   1.546
  399SOL     OW 2095   5.159   5.172   2.074
  399SOL    HW1 2096   5.077   5.118   2.056
  399SOL    HW2 2097   5.236   5.135   2.021
  400SOL     OW 2098   1.329   5.656   5.458
  400SOL    HW1 2099   1.390   5.729   5.426
  400SOL    HW2 2100   1.370   5.610   5.536
  401SOL     OW 2101   5.260   1.280   6.757
  401SOL    HW1 2102   5.161   1.289   6.765
  401SOL    HW2 2103   5.302   1.295   6.847
  402SOL     OW 2104   5.925   5.116   0.891
  402SOL    HW1 2105   6.005   5.175   0.878
  402SOL    HW2 2106   5.883   5.137   0.980
  403SOL     OW 2107   4.953   3.188   6.308
  403SOL    HW1 2108   5.043   3.145   6.315
  403SOL    HW2 2109   4.920   3.213   6.399
  404SOL     OW 2110   0.286   0.296   4.594
  404SOL    HW1 2111   0.330   0.287   4.505
  404SOL    HW2 2112   0.267   0.205   4.631
  405SOL     OW 2113   0.501   2.502   0.266
  405SOL    HW1 2114   0.490   2.413   0.221
  405SOL    HW2 2115   0.584   2.501   0.321
  406SOL     OW 2116   1.781   3.199   3.968
  406SOL    HW1 2117   1.851   3.252   4.015
  406SOL    HW2 2118   1.788   3.103   3.995
  407SOL     OW 2119   2.466   0.607   4.618
  407SOL    HW1 2120   2.471   0.669   4.540
  407SOL    HW2 2121   2.375   0.565   4.622
  408SOL     OW 2122   1.971   0.315   3.067
  408SOL    HW1 2123   2.018   0.227   3.065
  408SOL    HW2 2124   1.879   0.305   3.028
  409SOL     OW 2125   6.529   3.434   3.651
  409SOL    HW1 2126   6.537   3.389   3.740
  409SOL    HW2 2127   6.475   3.517   3.661
  410SOL     OW 2128   2.702   1.417   6.425
  410SOL    HW1 2129   2.668   1.498   6.473
  410SOL    HW2 2130   2.793   1.394   6.458
  411SOL     OW 2131   6.327   4.540   5.605
  411SOL    HW1 2132   6.317   4.458   5.661
  411SOL    HW2 2133   6.379   4.609   5.655
  412SOL     OW 2134   3.337   0.268   2.881
  412SOL    HW1 2135   3.336   0.315   2.792
  412SOL    HW2 2136   3.269   0.309   2.941
  413SOL     OW 2137   2.429   6.742   0.929
  413SOL    HW1 2138   2.333   6.721   0.948
  413SOL    HW2 2139   2.445   6.735   0.830
  414SOL     OW 2140   3.846   3.847   0.494
  414SOL    HW1 2141   3.827   3.863   0.397
  414SOL    HW2 2142   3.940   3.876   0.515
  415SOL     OW 2143   2.951   6.301   1.320
  415SOL    HW1 2144   3.039   6.349   1.328
  415SOL    HW2 2145   2.888   6.336   1.389
  416SOL     OW 2146   3.956   6.165   4.964
  416SOL    HW1 2147   3.867   6.211   4.963
  416SOL    HW2 2148   3.942   6.067   4.946
  417SOL     OW 2149   4.883   5.806   1.361
  417SOL    HW1 2150   4.828   5.839   1.437
  417SOL    HW2 2151   4.831   5.813   1.276
  418SOL     OW 2152   5.473   4.979   1.091
  418SOL    HW1 2153   5.417   5.038   1.033
  418SOL    HW2 2154   5.513   4.906   1.035
  419SOL     OW 2155   6.358   6.699   1.305
  419SOL    HW1 2156   6.329   6.623   1.247
  419SOL    HW2 2157   6.455   6.718   1.290
  420SOL     OW 2158   4.449   4.983   0.211
  420SOL    HW1 2159   4.438   4.946   0.303
  420SOL    HW2 2160   4.462   5.082   0.215
  421SOL     OW 2161   1.885   6.157   6.400
  421SOL    HW1 2162   1.877   6.203   6.488
  421SOL    HW2 2163   1.831   6.073   6.400
  422SOL     OW 2164   5.654   3.717   6.754
  422SOL    HW1 2165   5.655   3.725   6.853
  422SOL    HW2 2166   5.583   3.777   6.717
  423SOL     OW 2167   0.291   2.988   0.072
  423SOL    HW1 2168   0.351   2.919   0.033
  423SOL    HW2 2169   0.200   2.981   0.032
  424SOL     OW 2170   2.717   3.873   0.210
  424SOL    HW1 2171   2.783   3.799   0.199
  424SOL    HW2 2172   2.636   3.839   0.259
  425SOL     OW 2173   3.222   1.577   0.623
  425SOL    HW1 2174   3.259   1.528   0.544
  425SOL    HW2 2175   3.213   1.513   0.700
  426SOL     OW 2176   5.470   4.010   5.742
  426SOL    HW1 2177   5.491   3.920   5.779
  426SOL    HW2 2178   5.505   4.016   5.648
  427SOL     OW 2179   5.408   3.920   0.810
  427SOL    HW1 2180   5.477   3.989   0.832
  427SOL    HW2 2181   5.321   3.965   0.791
  428SOL     OW 2182   3.702   1.090   5.148
  428SOL    HW1 2183   3.658   1.178   5.130
  428SOL    HW2 2184   3.656   1.046   5.225
  429SOL     OW 2185   1.469   5.063   6.902
  429SOL    HW1 2186   1.400   5.134   6.886
  429SOL    HW2 2187   1.558   5.105   6.914
  430SOL     OW 2188   1.341   0.518   5.466
  430SOL    HW1 2189   1.429   0.471   5.462
  430SOL    HW2 2190   1.345   0.602   5.412
  431SOL     OW 2191   3.777   1.695   0.679
  431SOL    HW1 2192   3.858   1.684   0.736
  431SOL    HW2 2193   3.695   1.675   0.733
  432SOL     OW 2194   0.316   1.683   1.102
  432SOL    HW1 2195   0.231   1.713   1.059
  432SOL    HW2 2196   0.297   1.605   1.162
  433SOL     OW 2197   3.450   6.846   5.403
  433SOL    HW1 2198   3.490   6.813   5.488
  433SOL    HW2 2199   3.494   6.801   5.326
  434SOL     OW 2200   6.891   3.756   1.257
  434SOL    HW1 2201   6.828   3.832   1.239
  434SOL    HW2 2202   6.972   3.791   1.304
  435SOL     OW 2203   3.478   4.360   0.112
  435SOL    HW1 2204   3.421   4.287   0.151
  435SOL    HW2 2205   3.507   4.334   0.020
  436SOL     OW 2206   1.871   0.978   6.971
  436SOL    HW1 2207   1.959   1.010   7.005
  436SOL    HW2 2208   1.807   1.055   6.966
  437SOL     OW 2209   6.631   6.924   6.626
  437SOL    HW1 2210   6.629   6.924   6.726
  437SOL    HW2 2211   6.699   6.990   6.593
  438SOL     OW 2212   1.336   3.004   1.963
  438SOL    HW1 2213   1.258   2.947   1.990
  438SOL    HW2 2214   1.388   2.959   1.891
  439SOL     OW 2215   6.832   4.901   3.062
  439SOL    HW1 2216   6.866   4.837   2.992
  439SOL    HW2 2217   6.795   4.849   3.139
  440SOL     OW 2218   1.360   2.800   4.045
  440SOL    HW1 2219   1.418   2.878   4.022
  440SOL    HW2 2220   1.365   2.782   4.144
  441SOL     OW 2221   0.897   1.632   3.627
  441SOL    HW1 2222   0.814   1.684   3.607
  441SOL    HW2 2223   0.971   1.661   3.566
  442SOL     OW 2224   0.072   3.831   0.020
  442SOL    HW1 2225   7.021   3.798   6.994
  442SOL    HW2 2226   0.065   3.795   0.113
  443SOL     OW 2227   0.601   4.063   5.476
  443SOL    HW1 2228   0.576   4.046   5.381
  443SOL    HW2 2229   0.663   4.141   5.482
  444SOL     OW 2230   4.250   3.064   6.406
  444SOL    HW1 2231   4.273   2.976   6.446
  444SOL    HW2 2232   4.189   3.050   6.328
  445SOL     OW 2233   2.081   4.199   3.056
  445SOL    HW1 2234   2.123   4.132   2.994
  445SOL    HW2 2235   2.105   4.291   3.026
  446SOL     OW 2236   4.629   4.935   4.056
  446SOL    HW1 2237   4.663   4.949   3.963
  446SOL    HW2 2238   4.547   4.990   4.070
  447SOL     OW 2239   6.602   5.486   0.657
  447SOL    HW1 2240   6.566   5.396   0.680
  447SOL    HW2 2241   6.700   5.480   0.638
  448SOL     OW 2242   4.128   1.037   5.058
  448SOL    HW1 2243   4.178   0.973   5.116
  448SOL    HW2 2244   4.156   1.024   4.963
  449SOL     OW 2245   5.205   0.616   4.869
  449SOL    HW1 2246   5.278   0.549   4.881
  449SOL    HW2 2247   5.231   0.702   4.913
  450SOL     OW 2248   0.328   6.183   3.543
  450SOL    HW1 2249   0.388   6.117   3.498
  450SOL    HW2 2250   0.233   6.162   3.521
  451SOL     OW 2251   0.767   2.457   2.884
  451SOL    HW1 2252   0.762   2.358   2.896
  451SOL    HW2 2253   0.742   2.502   2.969
  452SOL     OW 2254   0.014   4.836   6.660
  452SOL    HW1 2255   0.026   4.776   6.581
  452SOL    HW2 2256   6.988   4.789   6.731
  453SOL     OW 2257   3.120   1.177   6.399
  453SOL    HW1 2258   3.030   1.149   6.435
  453SOL    HW2 2259   3.170   1.228   6.469
  454SOL     OW 2260   1.076   6.256   6.555
  454SOL    HW1 2261   1.071   6.226   6.460
  454SOL    HW2 2262   1.103   6.352   6.559
  455SOL     OW 2263   5.049   1.038   5.357
  455SOL    HW1 2264   4.972   1.101   5.357
  455SOL    HW2 2265   5.032   0.965   5.290
  456SOL     OW 2266   4.588   5.890   6.147
  456SOL    HW1 2267   4.637   5.972   6.117
  456SOL    HW2 2268   4.498   5.889   6.104
  457SOL     OW 2269   2.286   4.893   3.184
  457SOL    HW1 2270   2.381   4.870   3.167
  457SOL    HW2 2271   2.230   4.810   3.182
  458SOL     OW 2272   6.317   5.237   5.592
  458SOL    HW1 2273   6.289   5.219   5.498
  458SOL    HW2 2274   6.276   5.168   5.652
  459SOL     OW 2275   1.878   0.691   2.725
  459SOL    HW1 2276   1.944   0.765   2.718
  459SOL    HW2 2277   1.922   0.610   2.765
  460SOL     OW 2278   6.914   1.844   2.794
  460SOL    HW1 2279   6.892   1.940   2.805
  460SOL    HW2 2280   6.939   1.805   2.883
  461SOL     OW 2281   4.800   6.259   5.393
  461SOL    HW1 2282   4.831   6.164   5.395
  461SOL    HW2 2283   4.775   6.288   5.486
  462SOL     OW 2284   3.343   3.022   6.764
  462SOL    HW1 2285   3.380   2.946   6.709
  462SOL    HW2 2286   3.407   3.099   6.762
  463SOL     OW 2287   6.686   4.974   2.351
  463SOL    HW1 2288   6.634   5.030   2.415
  463SOL    HW2 2289   6.639   4.973   2.262
  464SOL     OW 2290   1.766   1.332   5.878
  464SOL    HW1 2291   1.820   1.415   5.888
  464SOL    HW2 2292   1.673   1.348   5.910
  465SOL     OW 2293   6.873   2.529   3.918
  465SOL    HW1 2294   6.773   2.532   3.907
  465SOL    HW2 2295   6.895   2.538   4.015
  466SOL     OW 2296   1.245   6.945   3.964
  466SOL    HW1 2297   1.325   6.933   3.905
  466SOL    HW2 2298   1.218   6.857   4.003
  467SOL     OW 2299   1.317   0.802   5.470
  467SOL    HW1 2300   1.312   0.890   5.422
  467SOL    HW2 2301   1.303   0.816   5.568
  468SOL     OW 2302   3.590   4.570   1.021
  468SOL    HW1 2303   3.551   4.481   1.045
  468SOL    HW2 2304   3.613   4.619   1.105
  469SOL     OW 2305   2.052   5.663   6.821
  469SOL    HW1 2306   2.023   5.619   6.736
  469SOL    HW2 2307   2.012   5.754   6.827
  470SOL     OW 2308   4.044   0.458   2.420
  470SOL    HW1 2309   4.088   0.420   2.338
  470SOL    HW2 2310   4.113   0.502   2.477
  471SOL     OW 2311   2.245   2.774   4.821
  471SOL    HW1 2312   2.243   2.874   4.818
  471SOL    HW2 2313   2.258   2.738   4.728
  472SOL     OW 2314   3.908   5.308   5.925
  472SOL    HW1 2315   3.864   5.322   6.013
  472SOL    HW2 2316   3.907   5.211   5.902
  473SOL     OW 2317   1.550   3.150   2.998
  473SOL    HW1 2318   1.465   3.112   3.035
  473SOL    HW2 2319   1.529   3.204   2.916
  474SOL     OW 2320   4.313   5.188   4.779
  474SOL    HW1 2321   4.412   5.185   4.783
  474SOL    HW2 2322   4.282   5.167   4.686
  475SOL     OW 2323   6.812   6.828   6.217
  475SOL    HW1 2324   6.840   6.771   6.139
  475SOL    HW2 2325   6.871   6.909   6.221
  476SOL     OW 2326   6.682   4.557   2.837
  476SOL    HW1 2327   6.643   4.465   2.837
  476SOL    HW2 2328   6.780   4.552   2.854
  477SOL     OW 2329   2.229   5.155   3.596
  477SOL    HW1 2330   2.255   5.081   3.534
  477SOL    HW2 2331   2.145   5.198   3.564
  478SOL     OW 2332   3.785   5.364   3.617
  478SOL    HW1 2333   3.718   5.375   3.543
  478SOL    HW2 2334   3.803   5.452   3.659
  479SOL     OW 2335   3.420   2.754   0.896
  479SOL    HW1 2336   3.455   2.807   0.819
  479SOL    HW2 2337   3.498   2.717   0.948
  480SOL     OW 2338   0.667   6.762   2.251
  480SOL    HW1 2339   0.658   6.759   2.351
  480SOL    HW2 2340   0.589   6.810   2.212
  481SOL     OW 2341   3.854   0.165   1.401
  481SOL    HW1 2342   3.828   0.261   1.410
  481SOL    HW2 2343   3.808   0.111   1.471
  482SOL     OW 2344   5.805   4.458   2.342
  482SOL    HW1 2345   5.897   4.467   2.381
  482SOL    HW2 2346   5.743   4.521   2.389
  483SOL     OW 2347   5.588   1.947   2.130
  483SOL    HW1 2348   5.643   1.971   2.051
  483SOL    HW2 2349   5.603   2.013   2.204
  484SOL     OW 2350   0.315   2.893   4.632
  484SOL    HW1 2351   0.414   2.897   4.642
  484SOL    HW2 2352   0.290   2.912   4.537
  485SOL     OW 2353   3.356   5.260   2.126
  485SOL    HW1 2354   3.370   5.249   2.224
  485SOL    HW2 2355   3.260   5.240   2.103
  486SOL     OW 2356   0.812   0.260   0.570
  486SOL    HW1 2357   0.727   0.313   0.566
  486SOL    HW2 2358   0.856   0.274   0.658
  487SOL     OW 2359   0.284   2.648   0.007
  487SOL    HW1 2360   0.249   2.637   0.100
  487SOL    HW2 2361   0.380   2.678   0.011
  488SOL     OW 2362   0.208   2.174   2.194
  488SOL    HW1 2363   0.303   2.161   2.221
  488SOL    HW2 2364   0.150   2.171   2.275
  489SOL     OW 2365   3.113   5.876   6.596
  489SOL    HW1 2366   3.068   5.787   6.591
  489SOL    HW2 2367   3.081   5.925   6.678
  490SOL     OW 2368   6.133   6.325   4.322
  490SOL    HW1 2369   6.166   6.415   4.293
  490SOL    HW2 2370   6.055   6.298   4.265
  491SOL     OW 2371   1.238   2.809   2.227
  491SOL    HW1 2372   1.171   2.868   2.182
  491SOL    HW2 2373   1.196   2.720   2.247
  492SOL     OW 2374   2.195   0.256   5.588
  492SOL    HW1 2375   2.266   0.295   5.529
  492SOL    HW2 2376   2.105   0.277   5.550
  493SOL     OW 2377   6.020   4.491   5.354
  493SOL    HW1 2378   6.029   4.569   5.292
  493SOL    HW2 2379   6.098   4.429   5.342
  494SOL     OW 2380   0.352   0.235   0.828
  494SOL    HW1 2381   0.274   0.295   0.809
  494SOL    HW2 2382   0.399   0.213   0.743
  495SOL     OW 2383   4.951   4.930   1.544
  495SOL    HW1 2384   4.960   4.831   1.558
  495SOL    HW2 2385   4.907   4.971   1.623
  496SOL     OW 2386   5.506   3.370   2.743
  496SOL    HW1 2387   5.543   3.365   2.835
  496SOL    HW2 2388   5.581   3.381   2.678
  497SOL     OW 2389   3.920   0.968   4.703
  497SOL    HW1 2390   3.930   0.928   4.794
  497SOL    HW2 2391   3.952   1.063   4.704
  498SOL     OW 2392   0.459   3.126   2.964
  498SOL    HW1 2393   0.434   3.116   3.060
  498SOL    HW2 2394   0.555   3.103   2.952
  499SOL     OW 2395   3.395   0.909   5.127
  499SOL    HW1 2396   3.345   0.828   5.096
  499SOL    HW2 2397   3.410   0.970   5.049
  500SOL     OW 2398   1.042   3.516   2.961
  500SOL    HW1 2399   1.055   3.614   2.975
  500SOL    HW2 2400   0.951   3.489   2.995
  501SOL     OW 2401   1.668   2.828   6.926
  501SOL    HW1 2402   1.674   2.815   7.025
  501SOL    HW2 2403   1.612   2.755   6.886
  502SOL     OW 2404   4.084   5.165   0.278
  502SOL    HW1 2405   4.029   5.246   0.302
  502SOL    HW2 2406   4.079   5.150   0.180
  503SOL     OW 2407   5.790   4.746   5.522
  503SOL    HW1 2408   5.731   4.693   5.584
  503SOL    HW2 2409   5.871   4.692   5.500
  504SOL     OW 2410   2.245   6.627   4.128
  504SOL    HW1 2411   2.275   6.591   4.039
  504SOL    HW2 2412   2.153   6.594   4.148
  505SOL     OW 2413   4.311   0.153   5.650
  505SOL    HW1 2414   4.229   0.110   5.688
  505SOL    HW2 2415   4.375   0.082   5.620
  506SOL     OW 2416   1.965   4.293   5.526
  506SOL    HW1 2417   1.930   4.333   5.610
  506SOL    HW2 2418   2.049   4.242   5.546
  507SOL     OW 2419   3.273   0.243   4.863
  507SOL    HW1 2420   3.286   0.146   4.841
  507SOL    HW2 2421   3.297   0.259   4.959
  508SOL     OW 2422   6.463   3.891   3.132
  508SOL    HW1 2423   6.467   3.953   3.053
  508SOL    HW2 2424   6.533   3.820   3.121
  509SOL     OW 2425   4.808   1.256   1.995
  509SOL    HW1 2426   4.783   1.348   1.963
  509SOL    HW2 2427   4.805   1.193   1.917
  510SOL     OW 2428   6.860   4.593   4.727
  510SOL    HW1 2429   6.778   4.628   4.772
  510SOL    HW2 2430   6.888   4.656   4.654
  511SOL     OW 2431   0.731   6.599   0.224
  511SOL    HW1 2432   0.818   6.640   0.196
  511SOL    HW2 2433   0.669   6.597   0.146
  512SOL     OW 2434   1.045   4.050   6.453
  512SOL    HW1 2435   1.114   3.984   6.484
  512SOL    HW2 2436   0.955   4.007   6.454
  513SOL     OW 2437   6.567   5.743   4.314
  513SOL    HW1 2438   6.620   5.803   4.252
  513SOL    HW2 2439   6.626   5.712   4.388
  514SOL     OW 2440   6.380   2.049   4.343
  514SOL    HW1 2441   6.316   1.973   4.338
  514SOL    HW2 2442   6.393   2.075   4.439
  515SOL     OW 2443   2.146   6.493   5.840
  515SOL    HW1 2444   2.163   6.582   5.797
  515SOL    HW2 2445   2.107   6.507   5.931
  516SOL     OW 2446   2.396   5.006   1.864
  516SOL    HW1 2447   2.432   5.038   1.952
  516SOL    HW2 2448   2.357   5.083   1.814
  517SOL     OW 2449   4.426   6.894   1.408
  517SOL    HW1 2450   4.487   6.973   1.395
  517SOL    HW2 2451   4.346   6.903   1.349
  518SOL     OW 2452   2.448   2.584   1.524
  518SOL    HW1 2453   2.485   2.543   1.607
  518SOL    HW2 2454   2.439   2.514   1.453
  519SOL     OW 2455   0.082   0.041   5.979
  519SOL    HW1 2456   0.059   0.072   5.887
  519SOL    HW2 2457   0.055   0.111   6.045
  520SOL     OW 2458   5.405   4.803   5.903
  520SOL    HW1 2459   5.336   4.730   5.896
  520SOL    HW2 2460   5.359   4.890   5.920
  521SOL     OW 2461   6.820   1.819   0.094
  521SOL    HW1 2462   6.859   1.908   0.068
  521SOL    HW2 2463   6.818   1.812   0.193
  522SOL     OW 2464   4.089   3.320   3.965
  522SOL    HW1 2465   3.992   3.299   3.975
  522SOL    HW2 2466   4.117   3.302   3.871
  523SOL     OW 2467   6.718   6.839   4.692
  523SOL    HW1 2468   6.771   6.773   4.639
  523SOL    HW2 2469   6.740   6.829   4.789
  524SOL     OW 2470   2.768   0.999   6.197
  524SOL    HW1 2471   2.701   1.016   6.125
  524SOL    HW2 2472   2.731   1.029   6.285
  525SOL     OW 2473   2.576   4.152   6.783
  525SOL    HW1 2474   2.531   4.096   6.852
  525SOL    HW2 2475   2.667   4.115   6.765
  526SOL     OW 2476   3.511   5.718   4.789
  526SOL    HW1 2477   3.539   5.723   4.885
  526SOL    HW2 2478   3.591   5.728   4.731
  527SOL     OW 2479   0.006   1.020   0.150
  527SOL    HW1 2480   0.047   1.074   0.077
  527SOL    HW2 2481   0.058   1.032   0.235
  528SOL     OW 2482   2.358   1.442   5.190
  528SOL    HW1 2483   2.452   1.427   5.161
  528SOL    HW2 2484   2.332   1.537   5.171
  529SOL     OW 2485   1.399   5.167   4.315
  529SOL    HW1 2486   1.441   5.086   4.273
  529SOL    HW2 2487   1.320   5.195   4.261
  530SOL     OW 2488   2.260   3.134   5.336
  530SOL    HW1 2489   2.306   3.223   5.330
  530SOL    HW2 2490   2.327   3.061   5.320
  531SOL     OW 2491   1.184   0.368   1.036
  531SOL    HW1 2492   1.184   0.316   0.951
  531SOL    HW2 2493   1.275   0.405   1.053
  532SOL     OW 2494   0.998   1.408   5.471
  532SOL    HW1 2495   1.095   1.427   5.457
  532SOL    HW2 2496   0.952   1.403   5.383
  533SOL     OW 2497   5.427   6.954   4.860
  533SOL    HW1 2498   5.522   6.961   4.892
  533SOL    HW2 2499   5.413   6.865   4.816
  534SOL     OW 2500   4.759   5.221   2.229
  534SOL    HW1 2501   4.738   5.154   2.157
  534SOL    HW2 2502   4.819   5.292   2.192
  535SOL     OW 2503   0.359   3.662   3.543
  535SOL    HW1 2504   0.262   3.682   3.535
  535SOL    HW2 2505   0.395   3.636   3.454
  536SOL     OW 2506   1.920   5.574   1.149
  536SOL    HW1 2507   1.863   5.494   1.163
  536SOL    HW2 2508   1.868   5.657   1.168
  537SOL     OW 2509   2.272   0.115   2.377
  537SOL    HW1 2510   2.304   0.180   2.308
  537SOL    HW2 2511   2.291   0.151   2.468
  538SOL     OW 2512   0.929   6.238   3.024
  538SOL    HW1 2513   0.943   6.336   3.007
  538SOL    HW2 2514   0.896   6.195   2.940
  539SOL     OW 2515   1.954   4.883   2.008
  539SOL    HW1 2516   1.897   4.959   2.038
  539SOL    HW2 2517   1.969   4.890   1.909
  540SOL     OW 2518   2.002   2.332   2.539
  540SOL    HW1 2519   1.905   2.325   2.513
  540SOL    HW2 2520   2.039   2.419   2.507
  541SOL     OW 2521   2.856   5.743   5.674
  541SOL    HW1 2522   2.826   5.724   5.580
  541SOL    HW2 2523   2.921   5.819   5.673
  542SOL     OW 2524   6.092   5.396   6.912
  542SOL    HW1 2525   6.129   5.403   6.819
  542SOL    HW2 2526   6.035   5.476   6.931
  543SOL     OW 2527   1.250   4.972   0.051
  543SOL    HW1 2528   1.312   5.034   0.003
  543SOL    HW2 2529   1.291   4.881   0.057
  544SOL     OW 2530   1.031   4.645   0.630
  544SOL    HW1 2531   1.024   4.557   0.677
  544SOL    HW2 2532   0.947   4.661   0.577
  545SOL     OW 2533   3.781   1.240   2.957
  545SOL    HW1 2534   3.756   1.280   2.869
  545SOL    HW2 2535   3.760   1.142   2.956
  546SOL     OW 2536   1.908   3.543   0.587
  546SOL    HW1 2537   1.862   3.617   0.636
  546SOL    HW2 2538   1.861   3.457   0.607
  547SOL     OW 2539   2.857   3.572   0.130
  547SOL    HW1 2540   2.845   3.476   0.105
  547SOL    HW2 2541   2.893   3.623   0.051
  548SOL     OW 2542   3.489   2.864   4.234
  548SOL    HW1 2543   3.470   2.766   4.225
  548SOL    HW2 2544   3.453   2.912   4.154
  549SOL     OW 2545   5.820   3.648   1.784
  549SOL    HW1 2546   5.886   3.585   1.741
  549SOL    HW2 2547   5.758   3.596   1.842
  550SOL     OW 2548   6.972   4.010   2.271
  550SOL    HW1 2549   0.037   4.027   2.304
  550SOL    HW2 2550   6.972   4.007   2.171
  551SOL     OW 2551   6.503   1.944   0.897
  551SOL    HW1 2552   6.571   1.925   0.968
  551SOL    HW2 2553   6.453   2.027   0.920
  552SOL     OW 2554   3.524   5.822   0.684
  552SOL    HW1 2555   3.563   5.859   0.600
  552SOL    HW2 2556   3.426   5.844   0.688
  553SOL     OW 2557   2.118   1.393   1.533
  553SOL    HW1 2558   2.028   1.362   1.564
  553SOL    HW2 2559   2.107   1.473   1.473
  554SOL     OW 2560   5.634   6.279   5.212
  554SOL    HW1 2561   5.603   6.368   5.246
  554SOL    HW2 2562   5.558   6.214   5.214
  555SOL     OW 2563   1.208   4.498   4.045
  555SOL    HW1 2564   1.198   4.472   4.141
  555SOL    HW2 2565   1.121   4.485   3.997
  556SOL     OW 2566   5.570   2.725   4.016
  556SOL    HW1 2567   5.557   2.705   3.919
  556SOL    HW2 2568   5.556   2.822   4.032
  557SOL     OW 2569   0.497   6.728   5.748
  557SOL    HW1 2570   0.502   6.691   5.841
  557SOL    HW2 2571   0.543   6.665   5.685
  558SOL     OW 2572   4.140   3.904   5.198
  558SOL    HW1 2573   4.046   3.936   5.210
  558SOL    HW2 2574   4.152   3.818   5.248
  559SOL     OW 2575   0.094   6.052   6.139
  559SOL    HW1 2576   0.004   6.028   6.100
  559SOL    HW2 2577   0.121   6.142   6.105
  560SOL     OW 2578   4.185   0.101   0.298
  560SOL    HW1 2579   4.093   0.081   0.264
  560SOL    HW2 2580   4.179   0.163   0.376
  561SOL     OW 2581   5.201   0.039   0.470
  561SOL    HW1 2582   5.294   0.008   0.454
  561SOL    HW2 2583   5.168   0.004   0.558
  562SOL     OW 2584   5.409   1.432   5.779
  562SOL    HW1 2585   5.489   1.414   5.723
  562SOL    HW2 2586   5.339   1.363   5.761
  563SOL     OW 2587   3.192   6.602   4.133
  563SOL    HW1 2588   3.189   6.668   4.208
  563SOL    HW2 2589   3.226   6.515   4.167
  564SOL     OW 2590   0.185   1.160   6.974
  564SOL    HW1 2591   0.277   1.160   7.014
  564SOL    HW2 2592   0.191   1.136   6.877
  565SOL     OW 2593   4.607   3.854   5.360
  565SOL    HW1 2594   4.564   3.943   5.374
  565SOL    HW2 2595   4.590   3.795   5.439
  566SOL     OW 2596   5.089   4.556   2.581
  566SOL    HW1 2597   5.095   4.653   2.555
  566SOL    HW2 2598   5.031   4.508   2.516
  567SOL     OW 2599   3.556   3.269   4.386
  567SOL    HW1 2600   3.538   3.173   4.367
  567SOL    HW2 2601   3.650   3.279   4.420
  568SOL     OW 2602   2.775   1.554   6.878
  568SOL    HW1 2603   2.863   1.564   6.925
  568SOL    HW2 2604   2.750   1.457   6.873
  569SOL     OW 2605   2.042   2.811   1.078
  569SOL    HW1 2606   2.007   2.828   1.170
  569SOL    HW2 2607   1.971   2.764   1.024
  570SOL     OW 2608   6.828   6.269   1.205
  570SOL    HW1 2609   6.745   6.313   1.239
  570SOL    HW2 2610   6.861   6.203   1.272
  571SOL     OW 2611   4.436   5.333   2.923
  571SOL    HW1 2612   4.362   5.391   2.889
  571SOL    HW2 2613   4.520   5.354   2.874
  572SOL     OW 2614   1.367   3.552   5.160
  572SOL    HW1 2615   1.432   3.607   5.108
  572SOL    HW2 2616   1.314   3.611   5.220
  573SOL     OW 2617   3.832   2.495   5.895
  573SOL    HW1 2618   3.930   2.490   5.914
  573SOL    HW2 2619   3.791   2.405   5.909
  574SOL     OW 2620   1.901   1.217   4.335
  574SOL    HW1 2621   1.909   1.138   4.274
  574SOL    HW2 2622   1.871   1.187   4.426
  575SOL     OW 2623   5.546   2.367   0.248
  575SOL    HW1 2624   5.595   2.335   0.330
  575SOL    HW2 2625   5.612   2.403   0.182
  576SOL     OW 2626   1.137   1.397   2.372
  576SOL    HW1 2627   1.072   1.469   2.347
  576SOL    HW2 2628   1.088   1.320   2.413
  577SOL     OW 2629   3.176   2.165   3.528
  577SOL    HW1 2630   3.235   2.191   3.605
  577SOL    HW2 2631   3.115   2.090   3.557
  578SOL     OW 2632   6.976   3.420   3.775
  578SOL    HW1 2633   6.936   3.452   3.861
  578SOL    HW2 2634   0.046   3.402   3.788
  579SOL     OW 2635   4.563   2.842   6.705
  579SOL    HW1 2636   4.541   2.911   6.774
  579SOL    HW2 2637   4.580   2.754   6.750
  580SOL     OW 2638   1.172   5.416   6.645
  580SOL    HW1 2639   1.268   5.391   6.638
  580SOL    HW2 2640   1.118   5.359   6.584
  581SOL     OW 2641   4.142   3.389   2.973
  581SOL    HW1 2642   4.115   3.294   2.959
  581SOL    HW2 2643   4.236   3.402   2.940
  582SOL     OW 2644   6.049   3.771   2.138
  582SOL    HW1 2645   6.035   3.777   2.039
  582SOL    HW2 2646   6.104   3.849   2.169
  583SOL     OW 2647   2.505   4.783   6.951
  583SOL    HW1 2648   2.453   4.741   6.876
  583SOL    HW2 2649   2.477   4.878   6.962
  584SOL     OW 2650   0.480   4.842   5.001
  584SOL    HW1 2651   0.417   4.769   5.028
  584SOL    HW2 2652   0.511   4.826   4.907
  585SOL     OW 2653   0.095   1.410   7.018
  585SOL    HW1 2654   0.125   1.325   6.976
  585SOL    HW2 2655   0.168   1.446   0.049
  586SOL     OW 2656   2.721   6.397   0.775
  586SOL    HW1 2657   2.762   6.355   0.857
  586SOL    HW2 2658   2.784   6.386   0.698
  587SOL     OW 2659   0.814   2.992   5.245
  587SOL    HW1 2660   0.818   2.922   5.317
  587SOL    HW2 2661   0.837   3.081   5.284
  588SOL     OW 2662   3.307   6.592   1.647
  588SOL    HW1 2663   3.396   6.556   1.675
  588SOL    HW2 2664   3.240   6.518   1.649
  589SOL     OW 2665   4.308   5.006   2.595
  589SOL    HW1 2666   4.357   5.044   2.673
  589SOL    HW2 2667   4.249   4.931   2.626
  590SOL     OW 2668   0.214   1.853   2.078
  590SOL    HW1 2669   0.137   1.900   2.121
  590SOL    HW2 2670   0.229   1.890   1.986
  591SOL     OW 2671   3.628   6.688   3.164
  591SOL    HW1 2672   3.555   6.626   3.135
  591SOL    HW2 2673   3.626   6.697   3.264
  592SOL     OW 2674   5.156   0.970   0.507
  592SOL    HW1 2675   5.107   1.005   0.587
  592SOL    HW2 2676   5.096   0.977   0.426
  593SOL     OW 2677   5.166   1.953   3.690
  593SOL    HW1 2678   5.083   2.002   3.716
  593SOL    HW2 2679   5.223   2.012   3.633
  594SOL     OW 2680   3.849   2.480   1.444
  594SOL    HW1 2681   3.754   2.447   1.442
  594SOL    HW2 2682   3.853   2.567   1.493
  595SOL     OW 2683   3.860   6.823   4.074
  595SOL    HW1 2684   3.910   6.856   3.995
  595SOL    HW2 2685   3.763   6.846   4.065
  596SOL     OW 2686   1.478   4.509   2.895
  596SOL    HW1 2687   1.448   4.465   2.811
  596SOL    HW2 2688   1.432   4.598   2.905
  597SOL     OW 2689   3.858   2.036   5.563
  597SOL    HW1 2690   3.776   2.059   5.617
  597SOL    HW2 2691   3.862   2.095   5.482
  598SOL     OW 2692   3.653   4.578   0.670
  598SOL    HW1 2693   3.591   4.628   0.731
  598SOL    HW2 2694   3.619   4.485   0.656
  599SOL     OW 2695   6.500   6.485   2.751
  599SOL    HW1 2696   6.434   6.495   2.676
  599SOL    HW2 2697   6.457   6.513   2.837
  600SOL     OW 2698   2.212   7.004   6.917
  600SOL    HW1 2699   2.127   6.980   6.965
  600SOL    HW2 2700   2.265   0.041   6.973
  601SOL     OW 2701   3.417   5.469   4.058
  601SOL    HW1 2702   3.342   5.411   4.025
  601SOL    HW2 2703   3.418   5.555   4.006
  602SOL     OW 2704   2.081   0.982   0.814
  602SOL    HW1 2705   2.152   0.913   0.807
  602SOL    HW2 2706   1.998   0.940   0.851
  603SOL     OW 2707   3.779   2.039   3.257
  603SOL    HW1 2708   3.783   1.949   3.300
  603SOL    HW2 2709   3.747   2.106   3.324
  604SOL     OW 2710   0.174   4.170   6.402
  604SOL    HW1 2711   0.088   4.154   6.450
  604SOL    HW2 2712   0.183   4.104   6.327
  605SOL     OW 2713   6.067   0.547   4.414
  605SOL    HW1 2714   6.072   0.542   4.514
  605SOL    HW2 2715   6.022   0.465   4.379
  606SOL     OW 2716   3.386   6.937   3.508
  606SOL    HW1 2717   3.472   6.976   3.476
  606SOL    HW2 2718   3.368   6.851   3.461
  607SOL     OW 2719   4.704   1.115   4.030
  607SOL    HW1 2720   4.677   1.024   4.000
  607SOL    HW2 2721   4.671   1.183   3.964
  608SOL     OW 2722   4.500   1.096   1.322
  608SOL    HW1 2723   4.418   1.153   1.331
  608SOL    HW2 2724   4.510   1.068   1.227
  609SOL     OW 2725   3.707   4.111   4.432
  609SOL    HW1 2726   3.779   4.150   4.490
  609SOL    HW2 2727   3.725   4.013   4.419
  610SOL     OW 2728   4.972   2.106   4.061
  610SOL    HW1 2729   4.987   2.100   4.160
  610SOL    HW2 2730   4.874   2.094   4.042
  611SOL     OW 2731   0.775   6.853   0.860
  611SOL    HW1 2732   0.790   6.939   0.909
  611SOL    HW2 2733   0.701   6.866   0.793
  612SOL     OW 2734   3.216   5.431   5.267
  612SOL    HW1 2735   3.202   5.423   5.366
  612SOL    HW2 2736   3.280   5.505   5.248
  613SOL     OW 2737   3.269   2.083   0.007
  613SOL    HW1 2738   3.300   2.058   0.099
  613SOL    HW2 2739   3.259   2.000   6.979
  614SOL     OW 2740   5.033   4.520   1.010
  614SOL    HW1 2741   5.039   4.496   1.107
  614SOL    HW2 2742   5.047   4.618   0.999
  615SOL     OW 2743   6.175   6.686   0.753
  615SOL    HW1 2744   6.173   6.669   0.852
  615SOL    HW2 2745   6.153   6.782   0.735
  616SOL     OW 2746   5.620   1.675   4.626
  616SOL    HW1 2747   5.581   1.766   4.613
  616SOL    HW2 2748   5.575   1.611   4.563
  617SOL     OW 2749   0.103   5.496   5.190
  617SOL    HW1 2750   0.040   5.464   5.260
  617SOL    HW2 2751   0.161   5.420   5.160
  618SOL     OW 2752   6.346   3.597   0.608
  618SOL    HW1 2753   6.386   3.645   0.686
  618SOL    HW2 2754   6.388   3.507   0.599
  619SOL     OW 2755   2.596   0.499   6.044
  619SOL    HW1 2756   2.631   0.588   6.015
  619SOL    HW2 2757   2.503   0.488   6.008
  620SOL     OW 2758   6.994   1.925   2.213
  620SOL    HW1 2759   6.967   1.841   2.261
  620SOL    HW2 2760   6.996   2.001   2.278
  621SOL     OW 2761   3.550   1.391   6.644
  621SOL    HW1 2762   3.500   1.458   6.698
  621SOL    HW2 2763   3.500   1.304   6.645
  622SOL     OW 2764   1.321   2.020   4.906
  622SOL    HW1 2765   1.248   2.082   4.933
  622SOL    HW2 2766   1.398   2.029   4.970
  623SOL     OW 2767   6.116   6.921   4.242
  623SOL    HW1 2768   6.104   6.859   4.319
  623SOL    HW2 2769   6.035   6.979   4.233
  624SOL     OW 2770   6.372   0.408   6.439
  624SOL    HW1 2771   6.401   0.503   6.450
  624SOL    HW2 2772   6.357   0.389   6.342
  625SOL     OW 2773   2.513   1.661   0.608
  625SOL    HW1 2774   2.522   1.661   0.708
  625SOL    HW2 2775   2.416   1.669   0.584
  626SOL     OW 2776   0.102   5.272   3.863
  626SOL    HW1 2777   0.133   5.192   3.915
  626SOL    HW2 2778   0.173   5.342   3.863
  627SOL     OW 2779   6.024   0.445   6.796
  627SOL    HW1 2780   5.982   0.365   6.838
  627SOL    HW2 2781   6.111   0.420   6.754
  628SOL     OW 2782   4.405   4.534   5.886
  628SOL    HW1 2783   4.371   4.441   5.875
  628SOL    HW2 2784   4.412   4.557   5.983
  629SOL     OW 2785   0.749   6.962   5.609
  629SOL    HW1 2786   0.717   7.008   5.526
  629SOL    HW2 2787   0.683   6.974   5.682
  630SOL     OW 2788   6.579   1.102   1.403
  630SOL    HW1 2789   6.620   1.032   1.461
  630SOL    HW2 2790   6.599   1.193   1.441
  631SOL     OW 2791   1.858   2.948   3.993
  631SOL    HW1 2792   1.952   2.947   4.027
  631SOL    HW2 2793   1.858   2.954   3.894
  632SOL     OW 2794   3.025   3.684   6.957
  632SOL    HW1 2795   3.032   3.585   6.970
  632SOL    HW2 2796   3.011   3.704   6.860
  633SOL     OW 2797   1.602   6.308   1.177
  633SOL    HW1 2798   1.576   6.221   1.135
  633SOL    HW2 2799   1.524   6.347   1.225
  634SOL     OW 2800   3.100   3.211   4.530
  634SOL    HW1 2801   3.045   3.195   4.612
  634SOL    HW2 2802   3.075   3.299   4.490
  635SOL     OW 2803   5.446   0.684   6.919
  635SOL    HW1 2804   5.419   0.780   6.928
  635SOL    HW2 2805   5.545   0.679   6.906
  636SOL     OW 2806   2.702   0.741   5.906
  636SOL    HW1 2807   2.798   0.767   5.921
  636SOL    HW2 2808   2.680   0.749   5.809
  637SOL     OW 2809   6.675   0.653   2.616
  637SOL    HW1 2810   6.742   0.665   2.690
  637SOL    HW2 2811   6.583   0.645   2.655
  638SOL     OW 2812   6.332   3.374   4.502
  638SOL    HW1 2813   6.278   3.293   4.521
  638SOL    HW2 2814   6.385   3.360   4.418
  639SOL     OW 2815   5.642   4.645   2.459
  639SOL    HW1 2816   5.650   4.723   2.398
  639SOL    HW2 2817   5.652   4.675   2.554
  640SOL     OW 2818   0.526   2.317   1.943
  640SOL    HW1 2819   0.535   2.415   1.923
  640SOL    HW2 2820   0.510   2.304   2.040
  641SOL     OW 2821   2.449   5.162   4.281
  641SOL    HW1 2822   2.441   5.230   4.208
  641SOL    HW2 2823   2.476   5.207   4.366
  642SOL     OW 2824   0.768   4.205   4.700
  642SOL    HW1 2825   0.797   4.228   4.792
  642SOL    HW2 2826   0.834   4.143   4.658
  643SOL     OW 2827   5.071   5.603   0.541
  643SOL    HW1 2828   4.985   5.650   0.561
  643SOL    HW2 2829   5.116   5.647   0.463
  644SOL     OW 2830   6.572   6.509   5.344
  644SOL    HW1 2831   6.634   6.437   5.376
  644SOL    HW2 2832   6.590   6.593   5.396
  645SOL     OW 2833   3.650   5.229   2.117
  645SOL    HW1 2834   3.706   5.296   2.069
  645SOL    HW2 2835   3.555   5.260   2.117
  646SOL     OW 2836   3.684   1.959   5.246
  646SOL    HW1 2837   3.656   1.934   5.154
  646SOL    HW2 2838   3.742   1.887   5.284
  647SOL     OW 2839   4.040   2.796   6.094
  647SOL    HW1 2840   4.025   2.886   6.134
  647SOL    HW2 2841   3.994   2.790   6.005
  648SOL     OW 2842   6.288   1.156   2.889
  648SOL    HW1 2843   6.216   1.104   2.844
  648SOL    HW2 2844   6.353   1.190   2.821
  649SOL     OW 2845   1.951   5.594   0.556
  649SOL    HW1 2846   2.028   5.651   0.585
  649SOL    HW2 2847   1.918   5.624   0.467
  650SOL     OW 2848   0.409   3.909   1.107
  650SOL    HW1 2849   0.335   3.902   1.039
  650SOL    HW2 2850   0.480   3.843   1.085
  651SOL     OW 2851   1.390   0.380   4.865
  651SOL    HW1 2852   1.395   0.409   4.960
  651SOL    HW2 2853   1.301   0.407   4.826
  652SOL     OW 2854   3.709   6.266   1.863
  652SOL    HW1 2855   3.765   6.205   1.806
  652SOL    HW2 2856   3.767   6.339   1.900
  653SOL     OW 2857   1.170   6.906   2.229
  653SOL    HW1 2858   1.194   6.869   2.318
  653SOL    HW2 2859   1.071   6.907   2.217
  654SOL     OW 2860   0.159   0.076   4.961
  654SOL    HW1 2861   0.223   0.056   4.887
  654SOL    HW2 2862   0.184   0.163   5.004
  655SOL     OW 2863   6.666   3.999   1.907
  655SOL    HW1 2864   6.687   3.925   1.843
  655SOL    HW2 2865   6.594   3.970   1.970
  656SOL     OW 2866   3.232   5.874   0.541
  656SOL    HW1 2867   3.251   5.868   0.639
  656SOL    HW2 2868   3.220   5.969   0.515
  657SOL     OW 2869   3.789   3.289   2.195
  657SOL    HW1 2870   3.781   3.329   2.104
  657SOL    HW2 2871   3.826   3.196   2.187
  658SOL     OW 2872   1.511   2.380   5.085
  658SOL    HW1 2873   1.521   2.284   5.110
  658SOL    HW2 2874   1.597   2.428   5.103
  659SOL     OW 2875   2.128   5.874   6.407
  659SOL    HW1 2876   2.095   5.915   6.323
  659SOL    HW2 2877   2.065   5.802   6.436
  660SOL     OW 2878   4.873   4.441   2.442
  660SOL    HW1 2879   4.794   4.384   2.466
  660SOL    HW2 2880   4.851   4.495   2.360
  661SOL     OW 2881   4.843   4.142   4.449
  661SOL    HW1 2882   4.803   4.088   4.523
  661SOL    HW2 2883   4.904   4.084   4.394
  662SOL     OW 2884   5.014   3.596   0.059
  662SOL    HW1 2885   5.112   3.575   0.058
  662SOL    HW2 2886   4.967   3.533   0.121
  663SOL     OW 2887   0.464   3.804   0.126
  663SOL    HW1 2888   0.369   3.826   0.105
  663SOL    HW2 2889   0.519   3.810   0.043
  664SOL     OW 2890   2.298   6.725   6.822
  664SOL    HW1 2891   2.276   6.823   6.816
  664SOL    HW2 2892   2.240   6.683   6.893
  665SOL     OW 2893   4.037   4.887   1.506
  665SOL    HW1 2894   4.023   4.821   1.580
  665SOL    HW2 2895   4.087   4.844   1.432
  666SOL     OW 2896   3.757   1.664   0.152
  666SOL    HW1 2897   3.782   1.674   0.249
  666SOL    HW2 2898   3.803   1.734   0.098
  667SOL     OW 2899   1.023   3.193   3.548
  667SOL    HW1 2900   1.020   3.122   3.477
  667SOL    HW2 2901   1.041   3.281   3.505
  668SOL     OW 2902   4.785   6.972   0.492
  668SOL    HW1 2903   4.841   7.026   0.430
  668SOL    HW2 2904   4.804   6.998   0.587
  669SOL     OW 2905   1.981   5.667   3.074
  669SOL    HW1 2906   2.070   5.633   3.047
  669SOL    HW2 2907   1.966   5.649   3.172
  670SOL     OW 2908   3.263   2.948   3.337
  670SOL    HW1 2909   3.231   2.862   3.377
  670SOL    HW2 2910   3.187   2.995   3.294
  671SOL     OW 2911   1.286   0.304   6.075
  671SOL    HW1 2912   1.226   0.240   6.027
  671SOL    HW2 2913   1.322   0.372   6.011
  672SOL     OW 2914   2.436   2.293   3.804
  672SOL    HW1 2915   2.496   2.214   3.792
  672SOL    HW2 2916   2.476   2.355   3.872
  673SOL     OW 2917   5.636   6.517   1.056
  673SOL    HW1 2918   5.669   6.428   1.089
  673SOL    HW2 2919   5.684   6.541   0.972
  674SOL     OW 2920   0.218   2.274   3.600
  674SOL    HW1 2921   0.120   2.256   3.588
  674SOL    HW2 2922   0.232   2.335   3.678
  675SOL     OW 2923   6.082   2.419   4.939
  675SOL    HW1 2924   6.000   2.453   4.893
  675SOL    HW2 2925   6.164   2.452   4.891
  676SOL     OW 2926   2.063   4.643   4.524
  676SOL    HW1 2927   1.995   4.575   4.555
  676SOL    HW2 2928   2.016   4.722   4.487
  677SOL     OW 2929   5.484   6.895   0.598
  677SOL    HW1 2930   5.516   6.990   0.610
  677SOL    HW2 2931   5.562   6.833   0.602
  678SOL     OW 2932   2.497   2.021   6.192
  678SOL    HW1 2933   2.505   2.119   6.175
  678SOL    HW2 2934   2.544   1.971   6.119
  679SOL     OW 2935   5.749   6.862   2.750
  679SOL    HW1 2936   5.683   6.893   2.680
  679SOL    HW2 2937   5.701   6.810   2.820
  680SOL     OW 2938   5.138   4.086   5.037
  680SOL    HW1 2939   5.100   4.030   5.110
  680SOL    HW2 2940   5.090   4.066   4.951
  681SOL     OW 2941   1.539   6.963   2.071
  681SOL    HW1 2942   1.550   7.018   2.153
  681SOL    HW2 2943   1.471   6.891   2.088
  682SOL     OW 2944   1.024   6.046   0.548
  682SOL    HW1 2945   1.024   6.009   0.455
  682SOL    HW2 2946   1.105   6.103   0.561
  683SOL     OW 2947   5.195   1.523   0.252
  683SOL    HW1 2948   5.220   1.570   0.168
  683SOL    HW2 2949   5.096   1.508   0.254
  684SOL     OW 2950   0.179   6.039   6.431
  684SOL    HW1 2951   0.144   6.051   6.338
  684SOL    HW2 2952   0.169   5.943   6.458
  685SOL     OW 2953   5.671   0.967   5.746
  685SOL    HW1 2954   5.720   1.016   5.818
  685SOL    HW2 2955   5.637   1.031   5.678
  686SOL     OW 2956   5.618   5.216   3.331
  686SOL    HW1 2957   5.547   5.268   3.379
  686SOL    HW2 2958   5.616   5.240   3.234
  687SOL     OW 2959   6.334   3.061   5.328
  687SOL    HW1 2960   6.410   3.110   5.370
  687SOL    HW2 2961   6.323   2.972   5.372
  688SOL     OW 2962   6.904   3.801   4.969
  688SOL    HW1 2963   6.954   3.721   5.001
  688SOL    HW2 2964   6.896   3.798   4.869
  689SOL     OW 2965   6.040   3.812   6.265
  689SOL    HW1 2966   5.966   3.877   6.247
  689SOL    HW2 2967   6.117   3.831   6.203
  690SOL     OW 2968   1.086   2.208   3.243
  690SOL    HW1 2969   1.156   2.266   3.284
  690SOL    HW2 2970   0.996   2.238   3.273
  691SOL     OW 2971   0.476   3.246   7.023
  691SOL    HW1 2972   0.511   3.298   6.945
  691SOL    HW2 2973   0.468   3.150   6.998
  692SOL     OW 2974   2.087   0.078   3.049
  692SOL    HW1 2975   2.028   7.025   3.063
  692SOL    HW2 2976   2.157   0.056   2.981
  693SOL     OW 2977   7.005   1.256   1.961
  693SOL    HW1 2978   0.077   1.269   1.972
  693SOL    HW2 2979   6.983   1.160   1.976
  694SOL     OW 2980   1.736   0.376   1.592
  694SOL    HW1 2981   1.770   0.344   1.680
  694SOL    HW2 2982   1.689   0.302   1.545
  695SOL     OW 2983   3.692   6.449   6.066
  695SOL    HW1 2984   3.692   6.487   6.159
  695SOL    HW2 2985   3.627   6.372   6.062
  696SOL     OW 2986   4.842   5.508   2.429
  696SOL    HW1 2987   4.866   5.524   2.334
  696SOL    HW2 2988   4.756   5.457   2.434
  697SOL     OW 2989   1.211   4.006   3.914
  697SOL    HW1 2990   1.285   4.042   3.857
  697SOL    HW2 2991   1.230   3.910   3.936
  698SOL     OW 2992   4.312   6.446   3.726
  698SOL    HW1 2993   4.319   6.358   3.679
  698SOL    HW2 2994   4.387   6.506   3.697
  699SOL     OW 2995   1.803   4.715   0.804
  699SOL    HW1 2996   1.902   4.724   0.789
  699SOL    HW2 2997   1.762   4.672   0.724
  700SOL     OW 2998   1.941   0.929   4.215
  700SOL    HW1 2999   1.921   0.848   4.270
  700SOL    HW2 3000   1.879   0.933   4.137
  701SOL     OW 3001   0.283   4.533   5.811
  701SOL    HW1 3002   0.268   4.589   5.892
  701SOL    HW2 3003   0.275   4.589   5.729
  702SOL     OW 3004   5.848   5.461   4.903
  702SOL    HW1 3005   5.761   5.447   4.857
  702SOL    HW2 3006   5.866   5.560   4.910
  703SOL     OW 3007   3.848   4.141   6.743
  703SOL    HW1 3008   3.948   4.142   6.741
  703SOL    HW2 3009   3.814   4.082   6.670
  704SOL     OW 3010   2.461   0.041   0.579
  704SOL    HW1 3011   2.368   0.005   0.584
  704SOL    HW2 3012   2.459   0.136   0.549
  705SOL     OW 3013   5.944   2.578   2.660
  705SOL    HW1 3014   5.952   2.663   2.610
  705SOL    HW2 3015   5.849   2.546   2.658
  706SOL     OW 3016   3.988   1.914   3.889
  706SOL    HW1 3017   3.935   1.829   3.888
  706SOL    HW2 3018   4.061   1.909   3.821
  707SOL     OW 3019   5.134   1.041   1.440
  707SOL    HW1 3020   5.204   1.087   1.494
  707SOL    HW2 3021   5.142   1.068   1.344
  708SOL     OW 3022   4.204   0.768   1.757
  708SOL    HW1 3023   4.212   0.810   1.667
  708SOL    HW2 3024   4.205   0.839   1.828
  709SOL     OW 3025   1.206   4.688   0.094
  709SOL    HW1 3026   1.265   4.623   0.045
  709SOL    HW2 3027   1.140   4.637   0.149
  710SOL     OW 3028   3.311   4.011   2.623
  710SOL    HW1 3029   3.214   3.987   2.623
  710SOL    HW2 3030   3.345   4.013   2.529
  711SOL     OW 3031   0.642   0.674   3.922
  711SOL    HW1 3032   0.579   0.609   3.880
  711SOL    HW2 3033   0.697   0.718   3.850
  712SOL     OW 3034   1.532   3.820   1.261
  712SOL    HW1 3035   1.463   3.891   1.242
  712SOL    HW2 3036   1.527   3.793   1.357
  713SOL     OW 3037   4.015   3.148   2.923
  713SOL    HW1 3038   3.956   3.082   2.969
  713SOL    HW2 3039   4.011   3.132   2.824
  714SOL     OW 3040   4.761   5.490   5.278
  714SOL    HW1 3041   4.752   5.587   5.257
  714SOL    HW2 3042   4.749   5.476   5.376
  715SOL     OW 3043   4.457   0.593   6.449
  715SOL    HW1 3044   4.518   0.532   6.397
  715SOL    HW2 3045   4.398   0.643   6.386
  716SOL     OW 3046   0.106   5.166   1.820
  716SOL    HW1 3047   0.052   5.082   1.815
  716SOL    HW2 3048   0.197   5.145   1.856
  717SOL     OW 3049   6.210   2.381   0.627
  717SOL    HW1 3050   6.224   2.319   0.549
  717SOL    HW2 3051   6.146   2.453   0.601
  718SOL     OW 3052   3.539   3.820   6.505
  718SOL    HW1 3053   3.565   3.731   6.541
  718SOL    HW2 3054   3.490   3.809   6.419
  719SOL     OW 3055   5.482   4.320   0.657
  719SOL    HW1 3056   5.443   4.389   0.717
  719SOL    HW2 3057   5.518   4.244   0.713
  720SOL     OW 3058   2.424   0.971   6.137
  720SOL    HW1 3059   2.476   0.965   6.051
  720SOL    HW2 3060   2.328   0.993   6.116
  721SOL     OW 3061   1.631   6.860   5.983
  721SOL    HW1 3062   1.651   6.952   5.950
  721SOL    HW2 3063   1.715   6.818   6.018
  722SOL     OW 3064   4.478   6.988   5.544
  722SOL    HW1 3065   4.435   6.909   5.501
  722SOL    HW2 3066   4.494   0.032   5.476
  723SOL     OW 3067   0.854   3.459   1.810
  723SOL    HW1 3068   0.763   3.492   1.783
  723SOL    HW2 3069   0.914   3.460   1.730
  724SOL     OW 3070   6.784   1.265   5.132
  724SOL    HW1 3071   6.830   1.351   5.109
  724SOL    HW2 3072   6.851   1.200   5.169
  725SOL     OW 3073   2.077   5.362   1.086
  725SOL    HW1 3074   2.013   5.438   1.080
  725SOL    HW2 3075   2.026   5.276   1.094
  726SOL     OW 3076   3.903   0.313   6.632
  726SOL    HW1 3077   3.984   0.324   6.575
  726SOL    HW2 3078   3.822   0.340   6.580
  727SOL     OW 3079   3.049   4.822   4.173
  727SOL    HW1 3080   3.062   4.733   4.129
  727SOL    HW2 3081   3.137   4.869   4.180
  728SOL     OW 3082   6.627   3.702   5.000
  728SOL    HW1 3083   6.638   3.614   5.045
  728SOL    HW2 3084   6.716   3.747   4.991
  729SOL     OW 3085   2.850   0.222   1.270
  729SOL    HW1 3086   2.834   0.188   1.363
  729SOL    HW2 3087   2.928   0.284   1.271
  730SOL     OW 3088   5.975   0.305   4.329
  730SOL    HW1 3089   5.957   0.224   4.385
  730SOL    HW2 3090   6.036   0.281   4.254
  731SOL     OW 3091   5.714   3.754   3.632
  731SOL    HW1 3092   5.672   3.737   3.721
  731SOL    HW2 3093   5.718   3.668   3.580
  732SOL     OW 3094   6.777   2.912   1.723
  732SOL    HW1 3095   6.795   2.841   1.656
  732SOL    HW2 3096   6.693   2.890   1.774
  733SOL     OW 3097   4.743   4.344   3.818
  733SOL    HW1 3098   4.674   4.358   3.747
  733SOL    HW2 3099   4.813   4.282   3.784
  734SOL     OW 3100   6.934   4.364   0.708
  734SOL    HW1 3101   6.874   4.410   0.642
  734SOL    HW2 3102   6.905   4.269   0.718
  735SOL     OW 3103   1.644   4.805   6.383
  735SOL    HW1 3104   1.604   4.792   6.292
  735SOL    HW2 3105   1.598   4.743   6.447
  736SOL     OW 3106   6.133   1.271   3.291
  736SOL    HW1 3107   6.159   1.327   3.213
  736SOL    HW2 3108   6.160   1.176   3.276
  737SOL     OW 3109   5.255   3.194   0.504
  737SOL    HW1 3110   5.162   3.185   0.540
  737SOL    HW2 3111   5.273   3.120   0.439
  738SOL     OW 3112   1.017   3.803   4.167
  738SOL    HW1 3113   1.069   3.725   4.201
  738SOL    HW2 3114   0.997   3.790   4.070
  739SOL     OW 3115   4.813   6.299   6.490
  739SOL    HW1 3116   4.744   6.371   6.493
  739SOL    HW2 3117   4.824   6.267   6.396
  740SOL     OW 3118   6.022   6.601   1.584
  740SOL    HW1 3119   5.929   6.567   1.570
  740SOL    HW2 3120   6.035   6.685   1.532
  741SOL     OW 3121   2.152   0.803   2.267
  741SOL    HW1 3122   2.241   0.839   2.241
  741SOL    HW2 3123   2.140   0.811   2.366
  742SOL     OW 3124   1.353   0.068   2.946
  742SOL    HW1 3125   1.373   0.023   2.858
  742SOL    HW2 3126   1.256   0.089   2.951
  743SOL     OW 3127   2.172   4.317   4.673
  743SOL    HW1 3128   2.084   4.354   4.645
  743SOL    HW2 3129   2.245   4.359   4.620
  744SOL     OW 3130   0.178   5.640   0.563
  744SOL    HW1 3131   0.157   5.621   0.467
  744SOL    HW2 3132   0.130   5.722   0.593
  745SOL     OW 3133   1.500   5.904   2.693
  745SOL    HW1 3134   1.413   5.952   2.702
  745SOL    HW2 3135   1.495   5.817   2.742
  746SOL     OW 3136   1.890   0.937   4.682
  746SOL    HW1 3137   1.854   0.947   4.774
  746SOL    HW2 3138   1.910   0.841   4.664
  747SOL     OW 3139   5.173   4.917   2.706
  747SOL    HW1 3140   5.126   4.894   2.621
  747SOL    HW2 3141   5.106   4.945   2.775
  748SOL     OW 3142   4.671   3.526   1.287
  748SOL    HW1 3143   4.579   3.511   1.252
  748SOL    HW2 3144   4.738   3.486   1.224
  749SOL     OW 3145   6.797   1.531   5.385
  749SOL    HW1 3146   6.763   1.600   5.321
  749SOL    HW2 3147   6.736   1.525   5.463
  750SOL     OW 3148   2.231   4.226   0.562
  750SOL    HW1 3149   2.284   4.145   0.538
  750SOL    HW2 3150   2.232   4.290   0.486
  751SOL     OW 3151   4.724   0.748   0.218
  751SOL    HW1 3152   4.730   0.674   0.284
  751SOL    HW2 3153   4.659   0.817   0.251
  752SOL     OW 3154   4.922   2.084   2.002
  752SOL    HW1 3155   4.904   2.182   2.004
  752SOL    HW2 3156   4.860   2.037   2.065
  753SOL     OW 3157   2.030   2.652   4.082
  753SOL    HW1 3158   2.094   2.710   4.131
  753SOL    HW2 3159   2.064   2.635   3.990
  754SOL     OW 3160   4.542   5.602   6.996
  754SOL    HW1 3161   4.583   5.674   6.940
  754SOL    HW2 3162   4.615   5.543   0.004
  755SOL     OW 3163   0.340   5.993   0.946
  755SOL    HW1 3164   0.419   5.977   0.887
  755SOL    HW2 3165   0.369   6.041   1.028
  756SOL     OW 3166   5.318   0.131   3.642
  756SOL    HW1 3167   5.378   0.210   3.629
  756SOL    HW2 3168   5.338   0.089   3.731
  757SOL     OW 3169   0.156   0.520   3.995
  757SOL    HW1 3170   0.063   0.525   3.960
  757SOL    HW2 3171   0.209   0.455   3.940
  758SOL     OW 3172   3.951   2.413   1.147
  758SOL    HW1 3173   4.045   2.448   1.147
  758SOL    HW2 3174   3.901   2.453   1.223
  759SOL     OW 3175   1.259   0.971   6.756
  759SOL    HW1 3176   1.167   0.933   6.746
  759SOL    HW2 3177   1.260   1.066   6.725
  760SOL     OW 3178   4.733   1.809   5.985
  760SOL    HW1 3179   4.674   1.761   5.921
  760SOL    HW2 3180   4.798   1.866   5.934
  761SOL     OW 3181   5.838   2.250   6.900
  761SOL    HW1 3182   5.908   2.191   6.938
  761SOL    HW2 3183   5.876   2.302   6.823
  762SOL     OW 3184   2.603   6.537   3.784
  762SOL    HW1 3185   2.515   6.492   3.767
  762SOL    HW2 3186   2.674   6.468   3.799
  763SOL     OW 3187   4.009   5.955   6.948
  763SOL    HW1 3188   3.920   5.981   6.986
  763SOL    HW2 3189   4.081   6.004   6.997
  764SOL     OW 3190   4.461   1.401   2.415
  764SOL    HW1 3191   4.408   1.484   2.430
  764SOL    HW2 3192   4.436   1.360   2.328
  765SOL     OW 3193   6.693   0.159   3.465
  765SOL    HW1 3194   6.636   0.105   3.527
  765SOL    HW2 3195   6.759   0.212   3.518
  766SOL     OW 3196   0.120   6.374   6.810
  766SOL    HW1 3197   0.172   6.313   6.750
  766SOL    HW2 3198   0.057   6.430   6.756
  767SOL     OW 3199   5.684   0.003   2.448
  767SOL    HW1 3200   5.607   0.058   2.418
  767SOL    HW2 3201   5.769   0.054   2.435
  768SOL     OW 3202   3.098   6.221   3.222
  768SOL    HW1 3203   3.112   6.320   3.231
  768SOL    HW2 3204   3.139   6.174   3.299
  769SOL     OW 3205   4.083   1.156   5.478
  769SOL    HW1 3206   4.144   1.225   5.516
  769SOL    HW2 3207   4.029   1.195   5.404
  770SOL     OW 3208   3.271   4.936   4.072
  770SOL    HW1 3209   3.230   4.981   3.993
  770SOL    HW2 3210   3.361   4.976   4.091
  771SOL     OW 3211   1.027   5.396   3.602
  771SOL    HW1 3212   0.968   5.316   3.588
  771SOL    HW2 3213   0.982   5.460   3.664
  772SOL     OW 3214   6.691   3.919   6.190
  772SOL    HW1 3215   6.651   3.860   6.121
  772SOL    HW2 3216   6.619   3.955   6.250
  773SOL     OW 3217   0.153   3.786   2.472
  773SOL    HW1 3218   0.175   3.744   2.384
  773SOL    HW2 3219   0.057   3.817   2.471
  774SOL     OW 3220   1.492   1.176   1.388
  774SOL    HW1 3221   1.564   1.230   1.345
  774SOL    HW2 3222   1.527   1.133   1.471
  775SOL     OW 3223   1.765   2.230   4.786
  775SOL    HW1 3224   1.793   2.323   4.809
  775SOL    HW2 3225   1.794   2.208   4.693
  776SOL     OW 3226   1.868   0.442   6.147
  776SOL    HW1 3227   1.957   0.439   6.194
  776SOL    HW2 3228   1.798   0.476   6.211
  777SOL     OW 3229   4.382   1.201   0.737
  777SOL    HW1 3230   4.302   1.254   0.707
  777SOL    HW2 3231   4.466   1.248   0.709
  778SOL     OW 3232   4.076   6.644   4.471
  778SOL    HW1 3233   4.070   6.744   4.465
  778SOL    HW2 3234   4.001   6.603   4.418
  779SOL     OW 3235   1.306   1.499   2.196
  779SOL    HW1 3236   1.388   1.443   2.191
  779SOL    HW2 3237   1.237   1.453   2.253
  780SOL     OW 3238   6.012   3.286   5.001
  780SOL    HW1 3239   6.093   3.238   5.032
  780SOL    HW2 3240   6.013   3.380   5.036
  781SOL     OW 3241   6.995   1.017   5.910
  781SOL    HW1 3242   0.014   1.099   5.943
  781SOL    HW2 3243   6.945   0.975   5.985
  782SOL     OW 3244   6.867   2.915   1.046
  782SOL    HW1 3245   6.887   3.007   1.011
  782SOL    HW2 3246   6.839   2.922   1.142
  783SOL     OW 3247   2.537   4.896   0.622
  783SOL    HW1 3248   2.464   4.901   0.554
  783SOL    HW2 3249   2.594   4.815   0.604
  784SOL     OW 3250   4.506   0.552   5.029
  784SOL    HW1 3251   4.409   0.528   5.024
  784SOL    HW2 3252   4.561   0.473   5.002
  785SOL     OW 3253   6.480   2.882   3.131
  785SOL    HW1 3254   6.483   2.955   3.063
  785SOL    HW2 3255   6.413   2.813   3.103
  786SOL     OW 3256   6.911   6.629   0.056
  786SOL    HW1 3257   6.857   6.711   0.036
  786SOL    HW2 3258   6.953   6.637   0.146
  787SOL     OW 3259   3.003   2.294   6.414
  787SOL    HW1 3260   2.985   2.376   6.360
  787SOL    HW2 3261   3.087   2.250   6.380
  788SOL     OW 3262   1.862   3.734   4.374
  788SOL    HW1 3263   1.867   3.808   4.441
  788SOL    HW2 3264   1.954   3.714   4.339
  789SOL     OW 3265   5.506   4.198   1.306
  789SOL    HW1 3266   5.562   4.123   1.270
  789SOL    HW2 3267   5.490   4.265   1.233
  790SOL     OW 3268   2.921   1.633   3.682
  790SOL    HW1 3269   2.851   1.592   3.624
  790SOL    HW2 3270   2.881   1.704   3.739
  791SOL     OW 3271   3.004   1.556   4.033
  791SOL    HW1 3272   2.957   1.645   4.038
  791SOL    HW2 3273   2.947   1.491   3.984
  792SOL     OW 3274   5.671   0.667   3.926
  792SOL    HW1 3275   5.645   0.759   3.955
  792SOL    HW2 3276   5.725   0.624   3.998
  793SOL     OW 3277   5.303   0.152   6.919
  793SOL    HW1 3278   5.381   0.094   6.943
  793SOL    HW2 3279   5.314   0.242   6.960
  794SOL     OW 3280   2.370   5.218   5.645
  794SOL    HW1 3281   2.358   5.123   5.673
  794SOL    HW2 3282   2.398   5.222   5.549
  795SOL     OW 3283   4.636   4.372   6.404
  795SOL    HW1 3284   4.541   4.344   6.393
  795SOL    HW2 3285   4.649   4.408   6.497
  796SOL     OW 3286   0.202   2.507   6.811
  796SOL    HW1 3287   0.236   2.551   6.895
  796SOL    HW2 3288   0.176   2.578   6.745
  797SOL     OW 3289   5.774   3.010   3.746
  797SOL    HW1 3290   5.768   3.017   3.647
  797SOL    HW2 3291   5.789   3.101   3.785
  798SOL     OW 3292   5.300   1.083   6.065
  798SOL    HW1 3293   5.374   1.132   6.112
  798SOL    HW2 3294   5.335   1.044   5.980
  799SOL     OW 3295   6.814   3.216   3.068
  799SOL    HW1 3296   6.811   3.167   3.156
  799SOL    HW2 3297   6.884   3.287   3.072
  800SOL     OW 3298   6.544   1.480   2.189
  800SOL    HW1 3299   6.485   1.561   2.193
  800SOL    HW2 3300   6.520   1.418   2.264
  801SOL     OW 3301   0.395   2.486   3.183
  801SOL    HW1 3302   0.352   2.419   3.121
  801SOL    HW2 3303   0.328   2.516   3.251
  802SOL     OW 3304   5.465   1.255   0.585
  802SOL    HW1 3305   5.414   1.340   0.601
  802SOL    HW2 3306   5.401   1.179   0.575
  803SOL     OW 3307   6.496   6.904   5.165
  803SOL    HW1 3308   6.588   6.944   5.168
  803SOL    HW2 3309   6.441   6.952   5.096
  804SOL     OW 3310   0.451   6.793   0.428
  804SOL    HW1 3311   0.451   6.695   0.409
  804SOL    HW2 3312   0.363   6.819   0.467
  805SOL     OW 3313   2.780   2.986   6.196
  805SOL    HW1 3314   2.794   2.949   6.288
  805SOL    HW2 3315   2.867   2.991   6.148
  806SOL     OW 3316   5.358   0.831   0.475
  806SOL    HW1 3317   5.347   0.834   0.376
  806SOL    HW2 3318   5.278   0.870   0.519
  807SOL     OW 3319   1.456   0.080   3.387
  807SOL    HW1 3320   1.384   0.042   3.444
  807SOL    HW2 3321   1.451   0.040   3.296
  808SOL     OW 3322   5.171   3.174   5.546
  808SOL    HW1 3323   5.214   3.187   5.635
  808SOL    HW2 3324   5.209   3.093   5.502
  809SOL     OW 3325   0.223   4.482   6.519
  809SOL    HW1 3326   0.167   4.404   6.547
  809SOL    HW2 3327   0.226   4.550   6.592
  810SOL     OW 3328   5.721   4.375   6.996
  810SOL    HW1 3329   5.686   4.329   6.914
  810SOL    HW2 3330   5.777   4.310   0.021
  811SOL     OW 3331   5.167   5.132   3.836
  811SOL    HW1 3332   5.088   5.145   3.896
  811SOL    HW2 3333   5.136   5.111   3.744
  812SOL     OW 3334   0.243   6.720   1.770
  812SOL    HW1 3335   0.207   6.808   1.737
  812SOL    HW2 3336   0.182   6.684   1.841
  813SOL     OW 3337   5.340   5.636   2.663
  813SOL    HW1 3338   5.399   5.562   2.631
  813SOL    HW2 3339   5.274   5.659   2.592
  814SOL     OW 3340   6.183   6.331   1.948
  814SOL    HW1 3341   6.169   6.423   1.909
  814SOL    HW2 3342   6.113   6.314   2.017
  815SOL     OW 3343   6.807   2.378   1.097
  815SOL    HW1 3344   6.901   2.382   1.131
  815SOL    HW2 3345   6.757   2.306   1.146
  816SOL     OW 3346   6.540   6.591   0.888
  816SOL    HW1 3347   6.573   6.509   0.840
  816SOL    HW2 3348   6.513   6.660   0.821
  817SOL     OW 3349   1.888   3.206   2.471
  817SOL    HW1 3350   1.928   3.293   2.497
  817SOL    HW2 3351   1.959   3.135   2.471
  818SOL     OW 3352   6.464   1.450   1.432
  818SOL    HW1 3353   6.479   1.548   1.447
  818SOL    HW2 3354   6.468   1.430   1.334
  819SOL     OW 3355   6.660   3.376   4.098
  819SOL    HW1 3356   6.651   3.299   4.035
  819SOL    HW2 3357   6.625   3.351   4.188
  820SOL     OW 3358   1.295   3.359   4.900
  820SOL    HW1 3359   1.277   3.344   4.803
  820SOL    HW2 3360   1.389   3.392   4.912
  821SOL     OW 3361   1.021   3.493   6.804
  821SOL    HW1 3362   1.084   3.459   6.734
  821SOL    HW2 3363   0.980   3.416   6.852
  822SOL     OW 3364   1.525   3.979   4.852
  822SOL    HW1 3365   1.541   4.013   4.759
  822SOL    HW2 3366   1.432   3.944   4.859
  823SOL     OW 3367   3.951   4.264   0.205
  823SOL    HW1 3368   3.868   4.294   0.252
  823SOL    HW2 3369   3.932   4.181   0.153
  824SOL     OW 3370   5.055   2.270   5.809
  824SOL    HW1 3371   5.077   2.187   5.860
  824SOL    HW2 3372   5.139   2.315   5.781
  825SOL     OW 3373   2.261   4.282   2.148
  825SOL    HW1 3374   2.314   4.356   2.191
  825SOL    HW2 3375   2.309   4.251   2.066
  826SOL     OW 3376   6.914   4.023   6.336
  826SOL    HW1 3377   6.839   3.963   6.308
  826SOL    HW2 3378   6.877   4.108   6.373
  827SOL     OW 3379   3.485   6.259   0.181
  827SOL    HW1 3380   3.488   6.359   0.183
  827SOL    HW2 3381   3.561   6.225   0.125
  828SOL     OW 3382   5.808   0.380   5.677
  828SOL    HW1 3383   5.815   0.288   5.715
  828SOL    HW2 3384   5.866   0.443   5.729
  829SOL     OW 3385   3.288   3.043   4.665
  829SOL    HW1 3386   3.360   2.998   4.611
  829SOL    HW2 3387   3.225   3.090   4.603
  830SOL     OW 3388   4.519   4.187   5.413
  830SOL    HW1 3389   4.564   4.205   5.326
  830SOL    HW2 3390   4.421   4.174   5.398
  831SOL     OW 3391   6.562   1.362   4.432
  831SOL    HW1 3392   6.486   1.298   4.439
  831SOL    HW2 3393   6.538   1.436   4.370
  832SOL     OW 3394   2.012   1.622   6.138
  832SOL    HW1 3395   2.001   1.597   6.234
  832SOL    HW2 3396   2.028   1.721   6.130
  833SOL     OW 3397   6.369   0.004   6.030
  833SOL    HW1 3398   6.296   0.054   6.077
  833SOL    HW2 3399   6.375   6.939   6.069
  834SOL     OW 3400   3.073   4.076   4.903
  834SOL    HW1 3401   3.016   4.141   4.955
  834SOL    HW2 3402   3.023   3.991   4.892
  835SOL     OW 3403   3.748   6.669   3.438
  835SOL    HW1 3404   3.769   6.575   3.412
  835SOL    HW2 3405   3.801   6.694   3.518
  836SOL     OW 3406   2.744   1.103   0.416
  836SOL    HW1 3407   2.765   1.200   0.424
  836SOL    HW2 3408   2.828   1.050   0.419
  837SOL     OW 3409   4.958   1.076   5.901
  837SOL    HW1 3410   4.935   1.129   5.982
  837SOL    HW2 3411   4.922   1.122   5.820
  838SOL     OW 3412   2.037   5.473   3.549
  838SOL    HW1 3413   1.964   5.405   3.539
  838SOL    HW2 3414   2.113   5.448   3.488
  839SOL     OW 3415   2.904   1.996   2.875
  839SOL    HW1 3416   2.965   2.068   2.841
  839SOL    HW2 3417   2.827   2.037   2.922
  840SOL     OW 3418   0.978   1.238   6.749
  840SOL    HW1 3419   0.937   1.317   6.794
  840SOL    HW2 3420   0.925   1.156   6.770
  841SOL     OW 3421   0.881   3.340   6.969
  841SOL    HW1 3422   0.804   3.396   7.000
  841SOL    HW2 3423   0.892   3.262   0.004
  842SOL     OW 3424   3.642   5.185   3.296
  842SOL    HW1 3425   3.676   5.151   3.208
  842SOL    HW2 3426   3.602   5.109   3.348
  843SOL     OW 3427   6.375   2.176   2.119
  843SOL    HW1 3428   6.473   2.160   2.111
  843SOL    HW2 3429   6.359   2.272   2.144
  844SOL     OW 3430   5.217   5.983   0.648
  844SOL    HW1 3431   5.228   6.014   0.743
  844SOL    HW2 3432   5.122   5.992   0.621
  845SOL     OW 3433   0.720   4.978   5.440
  845SOL    HW1 3434   0.798   5.040   5.438
  845SOL    HW2 3435   0.680   4.972   5.348
  846SOL     OW 3436   6.291   1.702   6.821
  846SOL    HW1 3437   6.324   1.782   6.770
  846SOL    HW2 3438   6.361   1.631   6.820
  847SOL     OW 3439   4.978   3.277   2.121
  847SOL    HW1 3440   4.952   3.214   2.048
  847SOL    HW2 3441   5.009   3.363   2.080
  848SOL     OW 3442   5.744   0.731   5.680
  848SOL    HW1 3443   5.805   0.686   5.745
  848SOL    HW2 3444   5.722   0.823   5.713
  849SOL     OW 3445   0.584   5.363   4.509
  849SOL    HW1 3446   0.512   5.347   4.441
  849SOL    HW2 3447   0.613   5.458   4.505
  850SOL     OW 3448   3.677   0.742   2.561
  850SOL    HW1 3449   3.776   0.753   2.564
  850SOL    HW2 3450   3.640   0.784   2.478
  851SOL     OW 3451   1.350   0.224   6.807
  851SOL    HW1 3452   1.359   0.149   6.741
  851SOL    HW2 3453   1.309   0.303   6.763
  852SOL     OW 3454   2.008   3.856   6.542
  852SOL    HW1 3455   2.034   3.940   6.495
  852SOL    HW2 3456   1.918   3.826   6.510
  853SOL     OW 3457   1.768   3.861   1.674
  853SOL    HW1 3458   1.710   3.914   1.612
  853SOL    HW2 3459   1.780   3.768   1.639
  854SOL     OW 3460   5.328   5.060   1.890
  854SOL    HW1 3461   5.370   4.970   1.901
  854SOL    HW2 3462   5.309   5.078   1.794
  855SOL     OW 3463   4.823   0.289   1.740
  855SOL    HW1 3464   4.890   0.357   1.710
  855SOL    HW2 3465   4.861   0.197   1.727
  856SOL     OW 3466   1.907   6.925   5.342
  856SOL    HW1 3467   1.904   6.826   5.352
  856SOL    HW2 3468   1.937   6.949   5.250
  857SOL     OW 3469   6.703   3.646   2.022
  857SOL    HW1 3470   6.744   3.615   1.936
  857SOL    HW2 3471   6.759   3.615   2.099
  858SOL     OW 3472   3.247   4.446   1.202
  858SOL    HW1 3473   3.278   4.351   1.197
  858SOL    HW2 3474   3.303   4.496   1.268
  859SOL     OW 3475   6.665   4.810   6.696
  859SOL    HW1 3476   6.568   4.793   6.715
  859SOL    HW2 3477   6.720   4.738   6.737
  860SOL     OW 3478   1.944   5.066   1.431
  860SOL    HW1 3479   1.941   5.161   1.462
  860SOL    HW2 3480   1.969   5.064   1.334
  861SOL     OW 3481   3.550   5.742   5.603
  861SOL    HW1 3482   3.564   5.840   5.617
  861SOL    HW2 3483   3.639   5.697   5.592
  862SOL     OW 3484   4.886   4.342   4.258
  862SOL    HW1 3485   4.797   4.389   4.252
  862SOL    HW2 3486   4.887   4.284   4.339
  863SOL     OW 3487   6.077   1.192   1.378
  863SOL    HW1 3488   6.149   1.230   1.436
  863SOL    HW2 3489   6.090   1.094   1.369
  864SOL     OW 3490   5.744   4.194   3.061
  864SOL    HW1 3491   5.670   4.130   3.084
  864SOL    HW2 3492   5.711   4.259   2.992
  865SOL     OW 3493   1.782   6.978   4.554
  865SOL    HW1 3494   1.809   6.883   4.534
  865SOL    HW2 3495   1.688   6.992   4.525
  866SOL     OW 3496   3.216   1.948   1.961
  866SOL    HW1 3497   3.249   1.880   1.895
  866SOL    HW2 3498   3.123   1.976   1.938
  867SOL     OW 3499   1.559   2.927   6.127
  867SOL    HW1 3500   1.507   3.007   6.097
  867SOL    HW2 3501   1.652   2.933   6.092
  868SOL     OW 3502   5.272   2.746   3.221
  868SOL    HW1 3503   5.251   2.679   3.292
  868SOL    HW2 3504   5.201   2.816   3.219
  869SOL     OW 3505   6.483   4.931   2.769
  869SOL    HW1 3506   6.438   4.849   2.804
  869SOL    HW2 3507   6.549   4.965   2.836
  870SOL     OW 3508   6.996   1.586   0.995
  870SOL    HW1 3509   7.001   1.493   1.031
  870SOL    HW2 3510   6.905   1.602   0.957
  871SOL     OW 3511   6.032   3.362   0.852
  871SOL    HW1 3512   6.054   3.404   0.764
  871SOL    HW2 3513   6.058   3.266   0.851
  872SOL     OW 3514   5.749   2.013   3.185
  872SOL    HW1 3515   5.796   1.993   3.271
  872SOL    HW2 3516   5.792   2.092   3.142
  873SOL     OW 3517   4.382   6.713   5.521
  873SOL    HW1 3518   4.393   6.715   5.421
  873SOL    HW2 3519   4.460   6.666   5.562
  874SOL     OW 3520   0.700   3.335   5.862
  874SOL    HW1 3521   0.727   3.427   5.832
  874SOL    HW2 3522   0.782   3.281   5.880
  875SOL     OW 3523   6.305   4.438   6.784
  875SOL    HW1 3524   6.322   4.491   6.866
  875SOL    HW2 3525   6.331   4.492   6.703
  876SOL     OW 3526   0.697   3.216   2.153
  876SOL    HW1 3527   0.736   3.307   2.165
  876SOL    HW2 3528   0.659   3.184   2.240
  877SOL     OW 3529   5.962   5.887   0.547
  877SOL    HW1 3530   5.865   5.895   0.571
  877SOL    HW2 3531   5.977   5.801   0.497
  878SOL     OW 3532   3.157   4.687   0.414
  878SOL    HW1 3533   3.180   4.686   0.511
  878SOL    HW2 3534   3.228   4.639   0.363
  879SOL     OW 3535   4.595   2.234   1.908
  879SOL    HW1 3536   4.613   2.245   2.006
  879SOL    HW2 3537   4.585   2.325   1.866
  880SOL     OW 3538   3.929   4.974   0.991
  880SOL    HW1 3539   3.979   4.891   1.016
  880SOL    HW2 3540   3.836   4.969   1.028
  881SOL     OW 3541   4.334   5.362   5.006
  881SOL    HW1 3542   4.252   5.416   4.986
  881SOL    HW2 3543   4.350   5.296   4.932
  882SOL     OW 3544   0.981   1.116   4.806
  882SOL    HW1 3545   0.962   1.098   4.902
  882SOL    HW2 3546   0.936   1.201   4.778
  883SOL     OW 3547   3.098   5.097   6.197
  883SOL    HW1 3548   3.026   5.152   6.155
  883SOL    HW2 3549   3.073   5.000   6.194
  884SOL     OW 3550   4.448   3.896   1.306
  884SOL    HW1 3551   4.530   3.926   1.355
  884SOL    HW2 3552   4.422   3.805   1.338
  885SOL     OW 3553   4.345   6.274   6.986
  885SOL    HW1 3554   4.307   6.183   7.001
  885SOL    HW2 3555   4.277   6.343   7.011
  886SOL     OW 3556   4.571   1.451   6.191
  886SOL    HW1 3557   4.637   1.460   6.116
  886SOL    HW2 3558   4.517   1.535   6.197
  887SOL     OW 3559   4.697   0.784   6.601
  887SOL    HW1 3560   4.787   0.764   6.561
  887SOL    HW2 3561   4.627   0.778   6.530
  888SOL     OW 3562   6.666   5.789   3.374
  888SOL    HW1 3563   6.669   5.840   3.288
  888SOL    HW2 3564   6.588   5.727   3.374
  889SOL     OW 3565   0.525   6.958   4.625
  889SOL    HW1 3566   0.497   6.955   4.529
  889SOL    HW2 3567   0.604   6.898   4.639
  890SOL     OW 3568   2.719   4.713   2.184
  890SOL    HW1 3569   2.788   4.785   2.191
  890SOL    HW2 3570   2.752   4.641   2.123
  891SOL     OW 3571   5.523   3.289   6.476
  891SOL    HW1 3572   5.604   3.345   6.461
  891SOL    HW2 3573   5.527   3.207   6.419
  892SOL     OW 3574   2.753   5.103   1.686
  892SOL    HW1 3575   2.787   5.093   1.779
  892SOL    HW2 3576   2.764   5.016   1.637
  893SOL     OW 3577   1.852   0.258   0.238
  893SOL    HW1 3578   1.787   0.330   0.260
  893SOL    HW2 3579   1.805   0.170   0.234
  894SOL     OW 3580   0.864   5.779   3.701
  894SOL    HW1 3581   0.856   5.837   3.782
  894SOL    HW2 3582   0.849   5.833   3.618
  895SOL     OW 3583   2.053   6.676   5.048
  895SOL    HW1 3584   1.968   6.729   5.047
  895SOL    HW2 3585   2.048   6.606   5.119
  896SOL     OW 3586   5.497   6.831   3.365
  896SOL    HW1 3587   5.542   6.763   3.307
  896SOL    HW2 3588   5.428   6.785   3.422
  897SOL     OW 3589   5.362   2.707   6.089
  897SOL    HW1 3590   5.357   2.648   6.170
  897SOL    HW2 3591   5.362   2.651   6.007
  898SOL     OW 3592   5.826   6.513   4.085
  898SOL    HW1 3593   5.893   6.493   4.014
  898SOL    HW2 3594   5.734   6.512   4.046
  899SOL     OW 3595   0.327   4.820   6.263
  899SOL    HW1 3596   0.407   4.846   6.317
  899SOL    HW2 3597   0.303   4.895   6.201
  900SOL     OW 3598   0.851   5.925   3.473
  900SOL    HW1 3599   0.921   5.994   3.490
  900SOL    HW2 3600   0.890   5.851   3.419
  901SOL     OW 3601   6.065   2.418   3.621
  901SOL    HW1 3602   6.160   2.448   3.631
  901SOL    HW2 3603   6.055   2.328   3.663
  902SOL     OW 3604   7.024   6.220   7.017
  902SOL    HW1 3605   0.049   6.278   6.955
  902SOL    HW2 3606   6.960   6.276   0.042
  903SOL     OW 3607   1.186   4.723   0.431
  903SOL    HW1 3608   1.159   4.667   0.352
  903SOL    HW2 3609   1.125   4.705   0.507
  904SOL     OW 3610   1.887   1.505   3.222
  904SOL    HW1 3611   1.935   1.569   3.162
  904SOL    HW2 3612   1.904   1.531   3.317
  905SOL     OW 3613   5.321   2.259   5.129
  905SOL    HW1 3614   5.311   2.294   5.036
  905SOL    HW2 3615   5.291   2.164   5.132
  906SOL     OW 3616   6.172   4.011   5.459
  906SOL    HW1 3617   6.149   3.941   5.391
  906SOL    HW2 3618   6.269   4.004   5.483
  907SOL     OW 3619   6.622   3.534   1.756
  907SOL    HW1 3620   6.596   3.452   1.704
  907SOL    HW2 3621   6.565   3.611   1.728
  908SOL     OW 3622   2.042   0.721   3.526
  908SOL    HW1 3623   2.004   0.814   3.526
  908SOL    HW2 3624   2.020   0.677   3.613
  909SOL     OW 3625   3.609   0.976   1.642
  909SOL    HW1 3626   3.628   0.878   1.637
  909SOL    HW2 3627   3.680   1.027   1.594
  910SOL     OW 3628   1.951   2.076   1.047
  910SOL    HW1 3629   2.038   2.038   1.018
  910SOL    HW2 3630   1.878   2.041   0.987
  911SOL     OW 3631   0.340   4.253   1.250
  911SOL    HW1 3632   0.427   4.279   1.290
  911SOL    HW2 3633   0.311   4.165   1.286
  912SOL     OW 3634   1.079   0.429   5.879
  912SOL    HW1 3635   1.142   0.456   5.806
  912SOL    HW2 3636   1.021   0.506   5.902
  913SOL     OW 3637   2.688   1.574   2.048
  913SOL    HW1 3638   2.645   1.632   2.118
  913SOL    HW2 3639   2.782   1.605   2.033
  914SOL     OW 3640   3.260   6.538   2.564
  914SOL    HW1 3641   3.346   6.584   2.540
  914SOL    HW2 3642   3.183   6.586   2.521
  915SOL     OW 3643   0.520   2.724   0.122
  915SOL    HW1 3644   0.607   2.725   0.072
  915SOL    HW2 3645   0.515   2.644   0.181
  916SOL     OW 3646   2.130   3.366   3.146
  916SOL    HW1 3647   2.142   3.448   3.091
  916SOL    HW2 3648   2.115   3.392   3.242
  917SOL     OW 3649   3.361   2.287   6.853
  917SOL    HW1 3650   3.352   2.242   6.765
  917SOL    HW2 3651   3.319   2.230   6.924
  918SOL     OW 3652   1.011   0.890   5.698
  918SOL    HW1 3653   0.986   0.906   5.793
  918SOL    HW2 3654   0.933   0.851   5.649
  919SOL     OW 3655   2.451   6.209   1.634
  919SOL    HW1 3656   2.440   6.300   1.594
  919SOL    HW2 3657   2.503   6.152   1.571
  920SOL     OW 3658   2.165   0.466   4.326
  920SOL    HW1 3659   2.202   0.388   4.376
  920SOL    HW2 3660   2.205   0.469   4.235
  921SOL     OW 3661   5.568   5.075   5.832
  921SOL    HW1 3662   5.506   5.016   5.781
  921SOL    HW2 3663   5.645   5.102   5.774
  922SOL     OW 3664   2.235   3.734   6.684
  922SOL    HW1 3665   2.157   3.790   6.655
  922SOL    HW2 3666   2.292   3.788   6.748
  923SOL     OW 3667   3.893   0.675   6.572
  923SOL    HW1 3668   3.979   0.685   6.622
  923SOL    HW2 3669   3.911   0.639   6.481
  924SOL     OW 3670   6.020   3.519   3.178
  924SOL    HW1 3671   6.057   3.476   3.261
  924SOL    HW2 3672   6.095   3.556   3.123
  925SOL     OW 3673   6.821   1.877   3.235
  925SOL    HW1 3674   6.802   1.810   3.306
  925SOL    HW2 3675   6.918   1.873   3.209
  926SOL     OW 3676   5.453   6.266   0.777
  926SOL    HW1 3677   5.408   6.205   0.841
  926SOL    HW2 3678   5.452   6.226   0.685
  927SOL     OW 3679   4.120   5.150   5.241
  927SOL    HW1 3680   4.201   5.208   5.240
  927SOL    HW2 3681   4.144   5.058   5.211
  928SOL     OW 3682   0.614   1.225   1.366
  928SOL    HW1 3683   0.520   1.217   1.399
  928SOL    HW2 3684   0.675   1.173   1.426
  929SOL     OW 3685   0.831   2.789   2.537
  929SOL    HW1 3686   0.887   2.721   2.584
  929SOL    HW2 3687   0.837   2.775   2.438
  930SOL     OW 3688   4.891   6.080   3.453
  930SOL    HW1 3689   4.909   5.983   3.467
  930SOL    HW2 3690   4.811   6.108   3.507
  931SOL     OW 3691   1.641   2.896   2.058
  931SOL    HW1 3692   1.739   2.905   2.076
  931SOL    HW2 3693   1.599   2.987   2.058
  932SOL     OW 3694   4.609   6.086   1.295
  932SOL    HW1 3695   4.658   6.104   1.380
  932SOL    HW2 3696   4.670   6.104   1.217
  933SOL     OW 3697   2.070   6.068   3.020
  933SOL    HW1 3698   2.050   6.042   2.926
  933SOL    HW2 3699   2.169   6.065   3.035
  934SOL     OW 3700   3.208   1.427   5.619
  934SOL    HW1 3701   3.280   1.469   5.563
  934SOL    HW2 3702   3.219   1.454   5.714
  935SOL     OW 3703   2.694   3.238   6.606
  935SOL    HW1 3704   2.676   3.253   6.703
  935SOL    HW2 3705   2.647   3.155   6.575
  936SOL     OW 3706   0.403   1.678   1.528
  936SOL    HW1 3707   0.481   1.673   1.590
  936SOL    HW2 3708   0.430   1.724   1.444
  937SOL     OW 3709   4.670   2.116   4.038
  937SOL    HW1 3710   4.637   2.183   4.104
  937SOL    HW2 3711   4.673   2.157   3.947
  938SOL     OW 3712   0.009   2.333   6.948
  938SOL    HW1 3713   0.056   2.271   7.011
  938SOL    HW2 3714   0.071   2.356   6.873
  939SOL     OW 3715   6.197   1.109   6.007
  939SOL    HW1 3716   6.263   1.159   6.063
  939SOL    HW2 3717   6.105   1.121   6.044
  940SOL     OW 3718   0.465   0.956   4.384
  940SOL    HW1 3719   0.557   0.976   4.417
  940SOL    HW2 3720   0.461   0.861   4.353
  941SOL     OW 3721   5.340   2.553   4.848
  941SOL    HW1 3722   5.385   2.569   4.936
  941SOL    HW2 3723   5.288   2.634   4.822
  942SOL     OW 3724   5.446   0.152   5.162
  942SOL    HW1 3725   5.425   0.227   5.226
  942SOL    HW2 3726   5.362   0.120   5.120
  943SOL     OW 3727   5.448   1.648   0.463
  943SOL    HW1 3728   5.396   1.563   0.449
  943SOL    HW2 3729   5.430   1.710   0.387
  944SOL     OW 3730   6.408   3.945   4.856
  944SOL    HW1 3731   6.330   4.003   4.830
  944SOL    HW2 3732   6.466   3.930   4.776
  945SOL     OW 3733   5.392   4.161   4.980
  945SOL    HW1 3734   5.302   4.120   4.995
  945SOL    HW2 3735   5.421   4.210   5.062
  946SOL     OW 3736   5.649   2.827   5.758
  946SOL    HW1 3737   5.621   2.866   5.846
  946SOL    HW2 3738   5.602   2.739   5.745
  947SOL     OW 3739   1.908   3.153   5.722
  947SOL    HW1 3740   1.842   3.122   5.653
  947SOL    HW2 3741   1.975   3.214   5.679
  948SOL     OW 3742   3.602   2.035   0.134
  948SOL    HW1 3743   3.698   2.062   0.144
  948SOL    HW2 3744   3.543   2.113   0.154
  949SOL     OW 3745   5.318   5.862   6.429
  949SOL    HW1 3746   5.349   5.767   6.418
  949SOL    HW2 3747   5.271   5.891   6.346
  950SOL     OW 3748   3.747   5.303   1.273
  950SOL    HW1 3749   3.833   5.353   1.283
  950SOL    HW2 3750   3.743   5.263   1.181
  951SOL     OW 3751   1.429   2.437   2.879
  951SOL    HW1 3752   1.337   2.426   2.916
  951SOL    HW2 3753   1.424   2.467   2.783
  952SOL     OW 3754   5.253   1.687   2.009
  952SOL    HW1 3755   5.324   1.651   1.950
  952SOL    HW2 3756   5.199   1.755   1.959
  953SOL     OW 3757   3.682   0.092   6.381
  953SOL    HW1 3758   3.599   0.106   6.326
  953SOL    HW2 3759   3.712   0.180   6.418
  954SOL     OW 3760   6.651   5.974   0.385
  954SOL    HW1 3761   6.735   6.007   0.427
  954SOL    HW2 3762   6.635   5.879   0.411
  955SOL     OW 3763   6.556   0.030   2.757
  955SOL    HW1 3764   6.598   7.001   2.686
  955SOL    HW2 3765   6.478   7.008   2.796
  956SOL     OW 3766   0.664   2.292   0.771
  956SOL    HW1 3767   0.572   2.297   0.731
  956SOL    HW2 3768   0.662   2.233   0.852
  957SOL     OW 3769   2.706   6.521   5.197
  957SOL    HW1 3770   2.643   6.589   5.234
  957SOL    HW2 3771   2.779   6.566   5.145
  958SOL     OW 3772   5.084   2.331   0.548
  958SOL    HW1 3773   5.074   2.335   0.449
  958SOL    HW2 3774   5.157   2.268   0.572
  959SOL     OW 3775   1.344   4.376   2.689
  959SOL    HW1 3776   1.266   4.396   2.629
  959SOL    HW2 3777   1.413   4.324   2.637
  960SOL     OW 3778   1.673   5.508   5.441
  960SOL    HW1 3779   1.638   5.415   5.434
  960SOL    HW2 3780   1.674   5.536   5.538
  961SOL     OW 3781   3.840   6.656   1.883
  961SOL    HW1 3782   3.903   6.660   1.961
  961SOL    HW2 3783   3.781   6.737   1.883
  962SOL     OW 3784   1.522   0.008   4.477
  962SOL    HW1 3785   1.473   6.949   4.468
  962SOL    HW2 3786   1.478   0.064   4.548
  963SOL     OW 3787   6.266   0.322   1.502
  963SOL    HW1 3788   6.312   0.310   1.414
  963SOL    HW2 3789   6.284   0.242   1.560
  964SOL     OW 3790   4.945   4.222   1.434
  964SOL    HW1 3791   4.857   4.188   1.469
  964SOL    HW2 3792   5.002   4.144   1.406
  965SOL     OW 3793   0.741   2.127   0.989
  965SOL    HW1 3794   0.836   2.103   1.005
  965SOL    HW2 3795   0.683   2.086   1.060
  966SOL     OW 3796   0.217   1.921   1.824
  966SOL    HW1 3797   0.291   1.982   1.794
  966SOL    HW2 3798   0.173   1.880   1.744
  967SOL     OW 3799   0.710   5.958   2.574
  967SOL    HW1 3800   0.761   6.043   2.566
  967SOL    HW2 3801   0.665   5.953   2.663
  968SOL     OW 3802   6.018   3.467   2.393
  968SOL    HW1 3803   6.033   3.437   2.299
  968SOL    HW2 3804   5.953   3.543   2.393
  969SOL     OW 3805   4.527   6.055   5.680
  969SOL    HW1 3806   4.611   6.020   5.638
  969SOL    HW2 3807   4.472   5.979   5.714
  970SOL     OW 3808   4.450   2.301   5.205
  970SOL    HW1 3809   4.388   2.237   5.250
  970SOL    HW2 3810   4.511   2.251   5.144
  971SOL     OW 3811   6.624   1.950   1.795
  971SOL    HW1 3812   6.642   2.030   1.851
  971SOL    HW2 3813   6.628   1.868   1.852
  972SOL     OW 3814   6.798   5.390   1.004
  972SOL    HW1 3815   6.768   5.483   0.981
  972SOL    HW2 3816   6.730   5.324   0.972
  973SOL     OW 3817   5.825   4.170   5.819
  973SOL    HW1 3818   5.758   4.206   5.754
  973SOL    HW2 3819   5.910   4.149   5.770
  974SOL     OW 3820   2.901   1.319   4.287
  974SOL    HW1 3821   2.966   1.395   4.290
  974SOL    HW2 3822   2.911   1.271   4.199
  975SOL     OW 3823   3.443   6.950   5.801
  975SOL    HW1 3824   3.373   6.896   5.754
  975SOL    HW2 3825   3.468   6.905   5.887
  976SOL     OW 3826   0.485   5.180   4.019
  976SOL    HW1 3827   0.513   5.084   4.021
  976SOL    HW2 3828   0.486   5.214   3.925
  977SOL     OW 3829   1.499   1.108   3.790
  977SOL    HW1 3830   1.425   1.132   3.727
  977SOL    HW2 3831   1.490   1.160   3.874
  978SOL     OW 3832   5.960   3.221   4.694
  978SOL    HW1 3833   5.961   3.321   4.694
  978SOL    HW2 3834   5.937   3.188   4.786
  979SOL     OW 3835   5.646   0.893   3.289
  979SOL    HW1 3836   5.644   0.861   3.194
  979SOL    HW2 3837   5.673   0.989   3.291
  980SOL     OW 3838   5.911   1.234   5.063
  980SOL    HW1 3839   5.957   1.222   5.151
  980SOL    HW2 3840   5.820   1.272   5.079
  981SOL     OW 3841   0.016   2.859   5.840
  981SOL    HW1 3842   0.088   2.839   5.906
  981SOL    HW2 3843   0.002   2.958   5.834
  982SOL     OW 3844   1.471   2.639   1.588
  982SOL    HW1 3845   1.513   2.551   1.566
  982SOL    HW2 3846   1.457   2.691   1.503
  983SOL     OW 3847   5.639   1.511   2.994
  983SOL    HW1 3848   5.596   1.450   2.928
  983SOL    HW2 3849   5.728   1.541   2.959
  984SOL     OW 3850   4.942   0.959   3.994
  984SOL    HW1 3851   4.859   1.010   4.018
  984SOL    HW2 3852   4.917   0.868   3.961
  985SOL     OW 3853   3.213   5.629   7.025
  985SOL    HW1 3854   3.132   5.671   0.037
  985SOL    HW2 3855   3.192   5.536   6.995
  986SOL     OW 3856   4.483   5.110   6.048
  986SOL    HW1 3857   4.397   5.152   6.077
  986SOL    HW2 3858   4.530   5.172   5.985
  987SOL     OW 3859   3.850   0.087   2.723
  987SOL    HW1 3860   3.920   0.023   2.693
  987SOL    HW2 3861   3.764   0.067   2.677
  988SOL     OW 3862   3.464   4.020   1.866
  988SOL    HW1 3863   3.366   4.036   1.866
  988SOL    HW2 3864   3.494   3.994   1.774
  989SOL     OW 3865   0.848   6.698   5.525
  989SOL    HW1 3866   0.832   6.795   5.546
  989SOL    HW2 3867   0.922   6.663   5.582
  990SOL     OW 3868   4.644   6.211   3.543
  990SOL    HW1 3869   4.707   6.230   3.618
  990SOL    HW2 3870   4.560   6.263   3.555
  991SOL     OW 3871   6.057   1.998   5.021
  991SOL    HW1 3872   6.140   1.984   4.967
  991SOL    HW2 3873   6.072   2.073   5.087
  992SOL     OW 3874   0.638   3.129   1.020
  992SOL    HW1 3875   0.623   3.058   1.089
  992SOL    HW2 3876   0.677   3.088   0.937
  993SOL     OW 3877   3.362   5.255   3.640
  993SOL    HW1 3878   3.336   5.314   3.564
  993SOL    HW2 3879   3.302   5.175   3.642
  994SOL     OW 3880   3.025   3.580   2.689
  994SOL    HW1 3881   2.990   3.584   2.782
  994SOL    HW2 3882   3.022   3.485   2.657
  995SOL     OW 3883   1.095   1.412   5.016
  995SOL    HW1 3884   1.127   1.455   4.931
  995SOL    HW2 3885   1.137   1.323   5.027
  996SOL     OW 3886   1.477   3.672   2.685
  996SOL    HW1 3887   1.449   3.584   2.725
  996SOL    HW2 3888   1.446   3.676   2.590
  997SOL     OW 3889   6.647   0.938   1.616
  997SOL    HW1 3890   6.553   0.908   1.600
  997SOL    HW2 3891   6.659   0.964   1.712
  998SOL     OW 3892   5.128   6.769   3.182
  998SOL    HW1 3893   5.181   6.834   3.127
  998SOL    HW2 3894   5.118   6.805   3.275
  999SOL     OW 3895   0.346   5.089   1.267
  999SOL    HW1 3896   0.333   5.027   1.344
  999SOL    HW2 3897   0.352   5.036   1.182
 1000SOL     OW 3898   3.892   1.654   3.865
 1000SOL    HW1 3899   3.981   1.613   3.884
 1000SOL    HW2 3900   3.882   1.671   3.767
 1001SOL     OW 3901   4.676   0.392   5.253
 1001SOL    HW1 3902   4.614   0.404   5.330
 1001SOL    HW2 3903   4.628   0.348   5.178
 1002SOL     OW 3904   6.594   1.701   1.513
 1002SOL    HW1 3905   6.669   1.761   1.485
 1002SOL    HW2 3906   6.601   1.682   1.611
 1003SOL     OW 3907   4.615   5.376   2.390
 1003SOL    HW1 3908   4.534   5.420   2.351
 1003SOL    HW2 3909   4.657   5.316   2.321
 1004SOL     OW 3910   6.064   6.081   6.901
 1004SOL    HW1 3911   6.077   6.056   6.805
 1004SOL    HW2 3912   6.139   6.044   6.955
 1005SOL     OW 3913   6.802   6.626   3.491
 1005SOL    HW1 3914   6.848   6.645   3.578
 1005SOL    HW2 3915   6.851   6.554   3.443
 1006SOL     OW 3916   2.146   4.577   1.140
 1006SOL    HW1 3917   2.232   4.622   1.165
 1006SOL    HW2 3918   2.154   4.538   1.049
 1007SOL     OW 3919   0.285   1.212   3.623
 1007SOL    HW1 3920   0.204   1.157   3.599
 1007SOL    HW2 3921   0.335   1.236   3.540
 1008SOL     OW 3922   2.172   3.224   3.632
 1008SOL    HW1 3923   2.152   3.322   3.637
 1008SOL    HW2 3924   2.141   3.187   3.544
 1009SOL     OW 3925   1.175   6.248   5.182
 1009SOL    HW1 3926   1.080   6.217   5.174
 1009SOL    HW2 3927   1.176   6.345   5.204
 1010SOL     OW 3928   4.825   1.715   0.241
 1010SOL    HW1 3929   4.741   1.727   0.189
 1010SOL    HW2 3930   4.890   1.786   0.215
 1011SOL     OW 3931   3.509   6.309   3.198
 1011SOL    HW1 3932   3.454   6.278   3.276
 1011SOL    HW2 3933   3.605   6.290   3.216
 1012SOL     OW 3934   4.802   5.614   6.765
 1012SOL    HW1 3935   4.796   5.529   6.818
 1012SOL    HW2 3936   4.886   5.663   6.789
 1013SOL     OW 3937   0.717   0.990   1.469
 1013SOL    HW1 3938   0.632   0.940   1.478
 1013SOL    HW2 3939   0.778   0.943   1.405
 1014SOL     OW 3940   4.384   0.383   5.807
 1014SOL    HW1 3941   4.383   0.350   5.713
 1014SOL    HW2 3942   4.412   0.309   5.868
 1015SOL     OW 3943   3.379   5.915   4.020
 1015SOL    HW1 3944   3.307   5.982   3.999
 1015SOL    HW2 3945   3.348   5.855   4.094
 1016SOL     OW 3946   4.424   2.729   1.413
 1016SOL    HW1 3947   4.404   2.823   1.440
 1016SOL    HW2 3948   4.340   2.684   1.383
 1017SOL     OW 3949   4.185   1.451   6.632
 1017SOL    HW1 3950   4.111   1.387   6.652
 1017SOL    HW2 3951   4.147   1.538   6.602
 1018SOL     OW 3952   1.787   3.719   3.028
 1018SOL    HW1 3953   1.774   3.663   2.946
 1018SOL    HW2 3954   1.813   3.660   3.105
 1019SOL     OW 3955   6.351   0.937   0.413
 1019SOL    HW1 3956   6.433   0.993   0.408
 1019SOL    HW2 3957   6.281   0.983   0.468
 1020SOL     OW 3958   2.563   1.740   1.641
 1020SOL    HW1 3959   2.558   1.737   1.541
 1020SOL    HW2 3960   2.655   1.767   1.670
 1021SOL     OW 3961   6.715   1.288   1.068
 1021SOL    HW1 3962   6.678   1.254   0.981
 1021SOL    HW2 3963   6.643   1.334   1.119
 1022SOL     OW 3964   4.070   3.372   6.632
 1022SOL    HW1 3965   4.137   3.298   6.626
 1022SOL    HW2 3966   4.020   3.379   6.546
 1023SOL     OW 3967   5.294   1.053   3.161
 1023SOL    HW1 3968   5.335   0.962   3.166
 1023SOL    HW2 3969   5.364   1.119   3.135
 1024SOL     OW 3970   6.692   1.577   3.302
 1024SOL    HW1 3971   6.637   1.660   3.310
 1024SOL    HW2 3972   6.675   1.519   3.382
 1025SOL     OW 3973   2.953   4.686   1.199
 1025SOL    HW1 3974   2.974   4.707   1.294
 1025SOL    HW2 3975   2.860   4.649   1.192
 1026SOL     OW 3976   1.159   2.286   0.372
 1026SOL    HW1 3977   1.139   2.189   0.363
 1026SOL    HW2 3978   1.241   2.308   0.320
 1027SOL     OW 3979   2.762   4.747   2.598
 1027SOL    HW1 3980   2.796   4.721   2.688
 1027SOL    HW2 3981   2.836   4.789   2.545
 1028SOL     OW 3982   1.388   6.595   0.432
 1028SOL    HW1 3983   1.425   6.502   0.439
 1028SOL    HW2 3984   1.341   6.606   0.345
 1029SOL     OW 3985   2.931   0.478   6.214
 1029SOL    HW1 3986   2.839   0.446   6.236
 1029SOL    HW2 3987   2.926   0.572   6.180
 1030SOL     OW 3988   4.027   3.932   4.932
 1030SOL    HW1 3989   3.985   4.020   4.954
 1030SOL    HW2 3990   4.085   3.902   5.008
 1031SOL     OW 3991   1.989   5.824   1.503
 1031SOL    HW1 3992   2.048   5.892   1.548
 1031SOL    HW2 3993   1.973   5.852   1.408
 1032SOL     OW 3994   1.728   0.576   4.175
 1032SOL    HW1 3995   1.662   0.523   4.228
 1032SOL    HW2 3996   1.763   0.651   4.230
 1033SOL     OW 3997   2.674   6.069   3.328
 1033SOL    HW1 3998   2.612   5.991   3.338
 1033SOL    HW2 3999   2.731   6.056   3.247
 1034SOL     OW 4000   1.304   4.867   3.936
 1034SOL    HW1 4001   1.350   4.790   3.982
 1034SOL    HW2 4002   1.240   4.910   4.000
 1035SOL     OW 4003   2.583   1.385   4.547
 1035SOL    HW1 4004   2.549   1.464   4.597
 1035SOL    HW2 4005   2.611   1.413   4.456
 1036SOL     OW 4006   4.964   2.132   0.287
 1036SOL    HW1 4007   4.869   2.142   0.256
 1036SOL    HW2 4008   4.965   2.090   0.377
 1037SOL     OW 4009   2.372   2.301   6.773
 1037SOL    HW1 4010   2.465   2.336   6.778
 1037SOL    HW2 4011   2.364   2.237   6.697
 1038SOL     OW 4012   2.355   1.031   4.778
 1038SOL    HW1 4013   2.433   1.029   4.715
 1038SOL    HW2 4014   2.354   1.119   4.826
 1039SOL     OW 4015   3.963   1.683   3.583
 1039SOL    HW1 4016   3.872   1.716   3.556
 1039SOL    HW2 4017   3.975   1.589   3.552
 1040SOL     OW 4018   6.349   4.196   3.397
 1040SOL    HW1 4019   6.325   4.167   3.489
 1040SOL    HW2 4020   6.297   4.141   3.331
 1041SOL     OW 4021   0.999   0.527   4.241
 1041SOL    HW1 4022   1.035   0.510   4.149
 1041SOL    HW2 4023   0.983   0.625   4.254
 1042SOL     OW 4024   5.356   4.485   0.835
 1042SOL    HW1 4025   5.332   4.579   0.859
 1042SOL    HW2 4026   5.288   4.448   0.771
 1043SOL     OW 4027   3.109   0.896   6.887
 1043SOL    HW1 4028   3.082   0.873   6.793
 1043SOL    HW2 4029   3.169   0.824   6.923
 1044SOL     OW 4030   4.364   3.409   1.759
 1044SOL    HW1 4031   4.314   3.439   1.841
 1044SOL    HW2 4032   4.436   3.474   1.737
 1045SOL     OW 4033   3.102   1.625   3.279
 1045SOL    HW1 4034   3.046   1.543   3.296
 1045SOL    HW2 4035   3.131   1.664   3.366
 1046SOL     OW 4036   3.929   0.491   2.070
 1046SOL    HW1 4037   3.903   0.535   2.156
 1046SOL    HW2 4038   3.931   0.559   1.997
 1047SOL     OW 4039   1.080   4.992   2.205
 1047SOL    HW1 4040   1.033   4.956   2.285
 1047SOL    HW2 4041   1.018   5.051   2.154
 1048SOL     OW 4042   5.634   4.362   5.708
 1048SOL    HW1 4043   5.538   4.333   5.706
 1048SOL    HW2 4044   5.669   4.367   5.614
 1049SOL     OW 4045   0.498   3.274   5.068
 1049SOL    HW1 4046   0.524   3.246   4.976
 1049SOL    HW2 4047   0.576   3.318   5.113
 1050SOL     OW 4048   3.123   0.396   6.820
 1050SOL    HW1 4049   3.185   0.321   6.796
 1050SOL    HW2 4050   3.085   0.379   6.911
 1051SOL     OW 4051   4.683   4.360   1.491
 1051SOL    HW1 4052   4.716   4.450   1.464
 1051SOL    HW2 4053   4.647   4.312   1.411
 1052SOL     OW 4054   3.499   0.203   4.338
 1052SOL    HW1 4055   3.539   0.207   4.247
 1052SOL    HW2 4056   3.460   0.291   4.362
 1053SOL     OW 4057   4.364   4.911   3.820
 1053SOL    HW1 4058   4.416   4.826   3.809
 1053SOL    HW2 4059   4.382   4.971   3.742
 1054SOL     OW 4060   3.838   6.304   4.376
 1054SOL    HW1 4061   3.898   6.301   4.455
 1054SOL    HW2 4062   3.783   6.388   4.379
 1055SOL     OW 4063   4.609   5.117   4.854
 1055SOL    HW1 4064   4.600   5.069   4.942
 1055SOL    HW2 4065   4.653   5.205   4.869
 1056SOL     OW 4066   1.302   6.830   5.224
 1056SOL    HW1 4067   1.399   6.809   5.218
 1056SOL    HW2 4068   1.274   6.832   5.320
 1057SOL     OW 4069   3.722   3.979   2.047
 1057SOL    HW1 4070   3.715   3.879   2.040
 1057SOL    HW2 4071   3.817   4.004   2.063
 1058SOL     OW 4072   3.975   1.001   1.600
 1058SOL    HW1 4073   4.070   0.969   1.596
 1058SOL    HW2 4074   3.914   0.923   1.584
 1059SOL     OW 4075   3.569   1.619   0.827
 1059SOL    HW1 4076   3.507   1.697   0.840
 1059SOL    HW2 4077   3.517   1.534   0.829
 1060SOL     OW 4078   2.623   2.438   5.221
 1060SOL    HW1 4079   2.599   2.402   5.131
 1060SOL    HW2 4080   2.584   2.379   5.292
 1061SOL     OW 4081   3.054   5.742   1.681
 1061SOL    HW1 4082   3.151   5.746   1.704
 1061SOL    HW2 4083   3.026   5.827   1.636
 1062SOL     OW 4084   5.650   4.627   4.881
 1062SOL    HW1 4085   5.622   4.532   4.890
 1062SOL    HW2 4086   5.569   4.685   4.875
 1063SOL     OW 4087   1.869   2.833   6.495
 1063SOL    HW1 4088   1.826   2.767   6.433
 1063SOL    HW2 4089   1.800   2.868   6.559
 1064SOL     OW 4090   7.013   3.036   1.679
 1064SOL    HW1 4091   0.002   3.095   1.758
 1064SOL    HW2 4092   6.927   2.985   1.693
 1065SOL     OW 4093   6.218   5.942   5.197
 1065SOL    HW1 4094   6.255   5.849   5.200
 1065SOL    HW2 4095   6.195   5.965   5.102
 1066SOL     OW 4096   3.661   0.582   3.341
 1066SOL    HW1 4097   3.576   0.582   3.287
 1066SOL    HW2 4098   3.736   0.549   3.284
 1067SOL     OW 4099   1.641   3.063   1.385
 1067SOL    HW1 4100   1.681   3.071   1.476
 1067SOL    HW2 4101   1.545   3.038   1.393
 1068SOL     OW 4102   0.568   3.479   1.725
 1068SOL    HW1 4103   0.490   3.538   1.747
 1068SOL    HW2 4104   0.558   3.392   1.772
 1069SOL     OW 4105   3.658   3.715   1.696
 1069SOL    HW1 4106   3.630   3.636   1.751
 1069SOL    HW2 4107   3.756   3.731   1.708
 1070SOL     OW 4108   2.205   1.007   6.844
 1070SOL    HW1 4109   2.170   1.018   6.937
 1070SOL    HW2 4110   2.136   0.961   6.788
 1071SOL     OW 4111   4.042   6.432   3.501
 1071SOL    HW1 4112   4.116   6.386   3.452
 1071SOL    HW2 4113   4.060   6.428   3.600
 1072SOL     OW 4114   4.014   5.664   2.983
 1072SOL    HW1 4115   3.950   5.734   3.016
 1072SOL    HW2 4116   4.100   5.671   3.034
 1073SOL     OW 4117   2.496   4.668   2.762
 1073SOL    HW1 4118   2.570   4.664   2.828
 1073SOL    HW2 4119   2.495   4.585   2.707
 1074SOL     OW 4120   1.311   5.381   1.919
 1074SOL    HW1 4121   1.317   5.462   1.978
 1074SOL    HW2 4122   1.358   5.400   1.832
 1075SOL     OW 4123   0.195   4.050   3.736
 1075SOL    HW1 4124   0.131   3.991   3.686
 1075SOL    HW2 4125   0.248   4.104   3.670
 1076SOL     OW 4126   0.496   5.268   3.600
 1076SOL    HW1 4127   0.527   5.350   3.553
 1076SOL    HW2 4128   0.451   5.206   3.535
 1077SOL     OW 4129   4.671   0.227   0.745
 1077SOL    HW1 4130   4.633   0.314   0.713
 1077SOL    HW2 4131   4.596   0.163   0.764
 1078SOL     OW 4132   0.570   2.017   1.169
 1078SOL    HW1 4133   0.629   1.997   1.248
 1078SOL    HW2 4134   0.502   1.945   1.160
 1079SOL     OW 4135   2.222   5.563   3.022
 1079SOL    HW1 4136   2.310   5.584   2.981
 1079SOL    HW2 4137   2.216   5.466   3.042
 1080SOL     OW 4138   1.837   5.060   4.420
 1080SOL    HW1 4139   1.882   5.149   4.420
 1080SOL    HW2 4140   1.743   5.070   4.454
 1081SOL     OW 4141   1.370   0.882   6.977
 1081SOL    HW1 4142   1.360   0.973   7.018
 1081SOL    HW2 4143   1.327   0.882   6.886
 1082SOL     OW 4144   2.134   0.021   6.669
 1082SOL    HW1 4145   2.182   0.021   6.757
 1082SOL    HW2 4146   2.192   7.008   6.599
 1083SOL     OW 4147   4.027   3.184   1.328
 1083SOL    HW1 4148   3.958   3.173   1.399
 1083SOL    HW2 4149   4.066   3.095   1.305
 1084SOL     OW 4150   6.446   3.738   0.835
 1084SOL    HW1 4151   6.460   3.828   0.795
 1084SOL    HW2 4152   6.360   3.738   0.887
 1085SOL     OW 4153   2.112   3.774   3.843
 1085SOL    HW1 4154   2.142   3.835   3.917
 1085SOL    HW2 4155   2.053   3.703   3.881
 1086SOL     OW 4156   4.089   5.128   1.831
 1086SOL    HW1 4157   4.052   5.082   1.912
 1086SOL    HW2 4158   4.159   5.193   1.859
 1087SOL     OW 4159   4.362   3.011   5.381
 1087SOL    HW1 4160   4.280   3.066   5.367
 1087SOL    HW2 4161   4.337   2.914   5.382
 1088SOL     OW 4162   5.244   3.723   3.308
 1088SOL    HW1 4163   5.315   3.655   3.330
 1088SOL    HW2 4164   5.203   3.701   3.220
 1089SOL     OW 4165   6.065   0.357   3.409
 1089SOL    HW1 4166   6.118   0.343   3.493
 1089SOL    HW2 4167   5.970   0.379   3.434
 1090SOL     OW 4168   0.280   2.106   5.680
 1090SOL    HW1 4169   0.370   2.071   5.651
 1090SOL    HW2 4170   0.283   2.206   5.685
 1091SOL     OW 4171   1.277   1.811   4.731
 1091SOL    HW1 4172   1.270   1.817   4.831
 1091SOL    HW2 4173   1.336   1.883   4.697
 1092SOL     OW 4174   2.390   4.658   1.222
 1092SOL    HW1 4175   2.408   4.723   1.295
 1092SOL    HW2 4176   2.442   4.574   1.237
 1093SOL     OW 4177   0.858   1.826   2.534
 1093SOL    HW1 4178   0.860   1.736   2.577
 1093SOL    HW2 4179   0.770   1.837   2.486
 1094SOL     OW 4180   0.862   6.279   1.704
 1094SOL    HW1 4181   0.786   6.289   1.640
 1094SOL    HW2 4182   0.843   6.202   1.766
 1095SOL     OW 4183   6.221   3.597   6.508
 1095SOL    HW1 4184   6.251   3.655   6.432
 1095SOL    HW2 4185   6.140   3.545   6.481
 1096SOL     OW 4186   3.437   4.279   1.715
 1096SOL    HW1 4187   3.439   4.210   1.788
 1096SOL    HW2 4188   3.349   4.274   1.668
 1097SOL     OW 4189   1.848   4.914   5.435
 1097SOL    HW1 4190   1.828   4.854   5.512
 1097SOL    HW2 4191   1.762   4.947   5.395
 1098SOL     OW 4192   4.197   1.317   2.945
 1098SOL    HW1 4193   4.148   1.240   2.904
 1098SOL    HW2 4194   4.267   1.281   3.008
 1099SOL     OW 4195   3.498   1.864   2.734
 1099SOL    HW1 4196   3.502   1.832   2.829
 1099SOL    HW2 4197   3.589   1.892   2.705
 1100SOL     OW 4198   0.977   0.457   0.422
 1100SOL    HW1 4199   0.955   0.376   0.477
 1100SOL    HW2 4200   0.995   0.429   0.328
 1101SOL     OW 4201   5.430   2.797   0.782
 1101SOL    HW1 4202   5.501   2.727   0.782
 1101SOL    HW2 4203   5.457   2.871   0.720
 1102SOL     OW 4204   0.777   4.984   3.173
 1102SOL    HW1 4205   0.851   5.010   3.110
 1102SOL    HW2 4206   0.712   5.059   3.180
 1103SOL     OW 4207   0.575   2.917   1.254
 1103SOL    HW1 4208   0.569   2.825   1.294
 1103SOL    HW2 4209   0.655   2.964   1.291
 1104SOL     OW 4210   2.712   4.972   5.488
 1104SOL    HW1 4211   2.673   5.001   5.401
 1104SOL    HW2 4212   2.811   4.959   5.479
 1105SOL     OW 4213   4.213   5.698   0.288
 1105SOL    HW1 4214   4.240   5.776   0.344
 1105SOL    HW2 4215   4.220   5.723   0.191
 1106SOL     OW 4216   0.282   1.981   6.090
 1106SOL    HW1 4217   0.221   2.038   6.034
 1106SOL    HW2 4218   0.270   1.885   6.064
 1107SOL     OW 4219   1.733   0.295   1.201
 1107SOL    HW1 4220   1.718   0.324   1.296
 1107SOL    HW2 4221   1.650   0.309   1.148
 1108SOL     OW 4222   0.887   2.071   6.017
 1108SOL    HW1 4223   0.953   2.124   5.965
 1108SOL    HW2 4224   0.853   2.125   6.094
 1109SOL     OW 4225   5.104   0.776   4.458
 1109SOL    HW1 4226   5.046   0.841   4.410
 1109SOL    HW2 4227   5.193   0.818   4.478
 1110SOL     OW 4228   3.771   2.935   1.956
 1110SOL    HW1 4229   3.738   2.969   1.868
 1110SOL    HW2 4230   3.720   2.853   1.982
 1111SOL     OW 4231   5.668   6.607   0.027
 1111SOL    HW1 4232   5.653   6.674   0.099
 1111SOL    HW2 4233   5.748   6.552   0.049
 1112SOL     OW 4234   6.021   0.742   2.654
 1112SOL    HW1 4235   6.075   0.677   2.709
 1112SOL    HW2 4236   6.073   0.767   2.572
 1113SOL     OW 4237   6.495   4.007   1.681
 1113SOL    HW1 4238   6.590   4.028   1.704
 1113SOL    HW2 4239   6.451   3.960   1.758
 1114SOL     OW 4240   5.081   1.563   5.059
 1114SOL    HW1 4241   4.986   1.576   5.028
 1114SOL    HW2 4242   5.143   1.597   4.989
 1115SOL     OW 4243   2.269   2.869   0.925
 1115SOL    HW1 4244   2.276   2.798   0.855
 1115SOL    HW2 4245   2.190   2.851   0.983
 1116SOL     OW 4246   4.415   5.981   4.622
 1116SOL    HW1 4247   4.433   5.901   4.678
 1116SOL    HW2 4248   4.407   5.953   4.526
 1117SOL     OW 4249   2.487   3.278   0.587
 1117SOL    HW1 4250   2.456   3.355   0.530
 1117SOL    HW2 4251   2.408   3.236   0.632
 1118SOL     OW 4252   2.130   3.693   3.596
 1118SOL    HW1 4253   2.123   3.722   3.691
 1118SOL    HW2 4254   2.147   3.773   3.538
 1119SOL     OW 4255   3.617   4.143   2.235
 1119SOL    HW1 4256   3.587   4.231   2.197
 1119SOL    HW2 4257   3.653   4.086   2.161
 1120SOL     OW 4258   4.419   0.631   4.109
 1120SOL    HW1 4259   4.379   0.610   4.198
 1120SOL    HW2 4260   4.502   0.577   4.096
 1121SOL     OW 4261   5.337   3.313   2.116
 1121SOL    HW1 4262   5.385   3.365   2.044
 1121SOL    HW2 4263   5.272   3.374   2.162
 1122SOL     OW 4264   5.064   4.637   6.817
 1122SOL    HW1 4265   5.090   4.546   6.785
 1122SOL    HW2 4266   4.972   4.633   6.856
 1123SOL     OW 4267   3.473   0.874   2.051
 1123SOL    HW1 4268   3.420   0.791   2.066
 1123SOL    HW2 4269   3.539   0.887   2.125
 1124SOL     OW 4270   1.089   4.442   4.680
 1124SOL    HW1 4271   1.050   4.448   4.773
 1124SOL    HW2 4272   1.186   4.419   4.687
 1125SOL     OW 4273   3.855   3.408   5.091
 1125SOL    HW1 4274   3.942   3.444   5.057
 1125SOL    HW2 4275   3.831   3.326   5.038
 1126SOL     OW 4276   5.888   6.715   2.173
 1126SOL    HW1 4277   5.914   6.811   2.163
 1126SOL    HW2 4278   5.797   6.702   2.133
 1127SOL     OW 4279   1.452   4.688   0.443
 1127SOL    HW1 4280   1.356   4.716   0.445
 1127SOL    HW2 4281   1.507   4.759   0.400
 1128SOL     OW 4282   2.863   1.787   4.433
 1128SOL    HW1 4283   2.799   1.774   4.508
 1128SOL    HW2 4284   2.825   1.853   4.368
 1129SOL     OW 4285   5.499   0.024   0.028
 1129SOL    HW1 4286   5.495   0.041   0.126
 1129SOL    HW2 4287   5.594   0.015   7.027
 1130SOL     OW 4288   6.911   4.735   5.825
 1130SOL    HW1 4289   6.859   4.807   5.873
 1130SOL    HW2 4290   6.932   4.766   5.732
 1131SOL     OW 4291   0.611   4.951   6.444
 1131SOL    HW1 4292   0.640   4.997   6.528
 1131SOL    HW2 4293   0.678   4.880   6.420
 1132SOL     OW 4294   4.671   0.280   5.693
 1132SOL    HW1 4295   4.717   0.351   5.745
 1132SOL    HW2 4296   4.704   0.190   5.723
 1133SOL     OW 4297   0.985   3.078   1.202
 1133SOL    HW1 4298   1.075   3.083   1.245
 1133SOL    HW2 4299   0.916   3.057   1.271
 1134SOL     OW 4300   5.893   3.261   5.971
 1134SOL    HW1 4301   5.888   3.282   5.873
 1134SOL    HW2 4302   5.985   3.281   6.005
 1135SOL     OW 4303   4.547   1.720   3.323
 1135SOL    HW1 4304   4.501   1.808   3.314
 1135SOL    HW2 4305   4.478   1.647   3.330
 1136SOL     OW 4306   3.758   5.299   4.495
 1136SOL    HW1 4307   3.663   5.324   4.515
 1136SOL    HW2 4308   3.774   5.305   4.396
 1137SOL     OW 4309   1.744   1.137   5.478
 1137SOL    HW1 4310   1.684   1.110   5.553
 1137SOL    HW2 4311   1.780   1.228   5.494
 1138SOL     OW 4312   0.785   4.306   5.495
 1138SOL    HW1 4313   0.785   4.349   5.404
 1138SOL    HW2 4314   0.878   4.310   5.533
 1139SOL     OW 4315   1.303   6.550   1.611
 1139SOL    HW1 4316   1.345   6.528   1.522
 1139SOL    HW2 4317   1.217   6.500   1.620
 1140SOL     OW 4318   3.318   1.826   3.853
 1140SOL    HW1 4319   3.355   1.805   3.763
 1140SOL    HW2 4320   3.304   1.741   3.904
 1141SOL     OW 4321   6.709   5.457   5.697
 1141SOL    HW1 4322   6.777   5.389   5.670
 1141SOL    HW2 4323   6.693   5.450   5.795
 1142SOL     OW 4324   6.035   1.111   3.752
 1142SOL    HW1 4325   5.994   1.169   3.823
 1142SOL    HW2 4326   5.971   1.098   3.677
 1143SOL     OW 4327   4.794   1.929   2.945
 1143SOL    HW1 4328   4.762   1.900   3.035
 1143SOL    HW2 4329   4.879   1.881   2.923
 1144SOL     OW 4330   0.148   6.479   5.040
 1144SOL    HW1 4331   0.156   6.423   5.123
 1144SOL    HW2 4332   0.068   6.449   4.988
 1145SOL     OW 4333   0.890   5.296   5.134
 1145SOL    HW1 4334   0.791   5.286   5.139
 1145SOL    HW2 4335   0.934   5.208   5.156
 1146SOL     OW 4336   5.622   2.250   0.819
 1146SOL    HW1 4337   5.694   2.318   0.802
 1146SOL    HW2 4338   5.643   2.166   0.768
 1147SOL     OW 4339   6.182   2.597   1.606
 1147SOL    HW1 4340   6.279   2.573   1.608
 1147SOL    HW2 4341   6.130   2.520   1.569
 1148SOL     OW 4342   3.676   0.144   0.478
 1148SOL    HW1 4343   3.630   0.135   0.567
 1148SOL    HW2 4344   3.708   0.238   0.467
 1149SOL     OW 4345   6.919   3.481   2.701
 1149SOL    HW1 4346   6.892   3.575   2.722
 1149SOL    HW2 4347   6.895   3.459   2.606
 1150SOL     OW 4348   1.426   4.769   6.588
 1150SOL    HW1 4349   1.495   4.815   6.644
 1150SOL    HW2 4350   1.396   4.830   6.515
 1151SOL     OW 4351   4.800   5.505   7.019
 1151SOL    HW1 4352   4.850   5.586   0.023
 1151SOL    HW2 4353   4.842   5.423   0.031
 1152SOL     OW 4354   0.238   0.637   4.585
 1152SOL    HW1 4355   0.174   0.713   4.596
 1152SOL    HW2 4356   0.188   0.554   4.559
 1153SOL     OW 4357   2.671   5.448   2.494
 1153SOL    HW1 4358   2.676   5.490   2.403
 1153SOL    HW2 4359   2.702   5.353   2.489
 1154SOL     OW 4360   1.644   4.908   1.697
 1154SOL    HW1 4361   1.611   4.916   1.791
 1154SOL    HW2 4362   1.728   4.854   1.696
 1155SOL     OW 4363   3.405   5.707   2.062
 1155SOL    HW1 4364   3.345   5.785   2.047
 1155SOL    HW2 4365   3.358   5.640   2.120
 1156SOL     OW 4366   1.868   0.699   3.967
 1156SOL    HW1 4367   1.820   0.638   4.030
 1156SOL    HW2 4368   1.834   0.792   3.978
 1157SOL     OW 4369   1.164   2.613   4.226
 1157SOL    HW1 4370   1.208   2.591   4.138
 1157SOL    HW2 4371   1.234   2.621   4.297
 1158SOL     OW 4372   4.348   5.305   5.278
 1158SOL    HW1 4373   4.423   5.307   5.344
 1158SOL    HW2 4374   4.382   5.335   5.189
 1159SOL     OW 4375   4.788   4.894   3.099
 1159SOL    HW1 4376   4.697   4.922   3.129
 1159SOL    HW2 4377   4.857   4.942   3.153
 1160SOL     OW 4378   2.903   3.389   0.504
 1160SOL    HW1 4379   2.967   3.337   0.560
 1160SOL    HW2 4380   2.843   3.325   0.455
 1161SOL     OW 4381   4.166   0.166   3.830
 1161SOL    HW1 4382   4.246   0.147   3.888
 1161SOL    HW2 4383   4.195   0.172   3.735
 1162SOL     OW 4384   3.636   4.458   1.682
 1162SOL    HW1 4385   3.575   4.379   1.695
 1162SOL    HW2 4386   3.602   4.535   1.736
 1163SOL     OW 4387   4.853   2.848   2.581
 1163SOL    HW1 4388   4.760   2.813   2.588
 1163SOL    HW2 4389   4.908   2.813   2.657
 1164SOL     OW 4390   6.005   3.231   3.670
 1164SOL    HW1 4391   6.010   3.200   3.576
 1164SOL    HW2 4392   5.915   3.273   3.687
 1165SOL     OW 4393   1.434   4.781   2.155
 1165SOL    HW1 4394   1.391   4.701   2.198
 1165SOL    HW2 4395   1.391   4.864   2.190
 1166SOL     OW 4396   3.570   3.197   6.534
 1166SOL    HW1 4397   3.490   3.167   6.480
 1166SOL    HW2 4398   3.653   3.184   6.479
 1167SOL     OW 4399   4.842   1.626   4.966
 1167SOL    HW1 4400   4.744   1.608   4.978
 1167SOL    HW2 4401   4.854   1.717   4.928
 1168SOL     OW 4402   6.233   5.903   3.856
 1168SOL    HW1 4403   6.209   5.941   3.946
 1168SOL    HW2 4404   6.291   5.823   3.868
 1169SOL     OW 4405   1.167   3.757   1.796
 1169SOL    HW1 4406   1.174   3.839   1.740
 1169SOL    HW2 4407   1.251   3.745   1.849
 1170SOL     OW 4408   3.208   0.614   1.043
 1170SOL    HW1 4409   3.195   0.703   1.087
 1170SOL    HW2 4410   3.178   0.619   0.948
 1171SOL     OW 4411   1.914   6.403   0.269
 1171SOL    HW1 4412   1.832   6.459   0.258
 1171SOL    HW2 4413   1.988   6.442   0.215
 1172SOL     OW 4414   3.238   3.622   5.056
 1172SOL    HW1 4415   3.139   3.627   5.046
 1172SOL    HW2 4416   3.282   3.680   4.987
 1173SOL     OW 4417   4.591   1.003   6.333
 1173SOL    HW1 4418   4.581   0.938   6.258
 1173SOL    HW2 4419   4.688   1.026   6.345
 1174SOL     OW 4420   3.237   6.009   1.007
 1174SOL    HW1 4421   3.204   6.102   1.017
 1174SOL    HW2 4422   3.305   5.990   1.078
 1175SOL     OW 4423   6.170   4.868   5.372
 1175SOL    HW1 4424   6.164   4.853   5.471
 1175SOL    HW2 4425   6.215   4.956   5.355
 1176SOL     OW 4426   6.071   3.854   0.784
 1176SOL    HW1 4427   6.061   3.950   0.811
 1176SOL    HW2 4428   6.140   3.811   0.842
 1177SOL     OW 4429   6.142   2.810   6.834
 1177SOL    HW1 4430   6.157   2.844   6.927
 1177SOL    HW2 4431   6.229   2.810   6.784
 1178SOL     OW 4432   5.370   4.217   1.985
 1178SOL    HW1 4433   5.441   4.182   2.046
 1178SOL    HW2 4434   5.387   4.314   1.967
 1179SOL     OW 4435   2.698   6.219   6.352
 1179SOL    HW1 4436   2.667   6.194   6.443
 1179SOL    HW2 4437   2.720   6.317   6.350
 1180SOL     OW 4438   2.279   1.940   3.964
 1180SOL    HW1 4439   2.225   1.936   4.049
 1180SOL    HW2 4440   2.376   1.936   3.986
 1181SOL     OW 4441   2.386   4.286   2.798
 1181SOL    HW1 4442   2.407   4.188   2.795
 1181SOL    HW2 4443   2.435   4.332   2.723
 1182SOL     OW 4444   1.359   4.155   2.901
 1182SOL    HW1 4445   1.369   4.088   2.828
 1182SOL    HW2 4446   1.329   4.242   2.862
 1183SOL     OW 4447   4.606   5.664   1.382
 1183SOL    HW1 4448   4.595   5.705   1.472
 1183SOL    HW2 4449   4.544   5.707   1.317
 1184SOL     OW 4450   2.991   3.155   5.199
 1184SOL    HW1 4451   2.921   3.084   5.213
 1184SOL    HW2 4452   3.066   3.117   5.145
 1185SOL     OW 4453   1.909   1.763   6.838
 1185SOL    HW1 4454   1.991   1.817   6.817
 1185SOL    HW2 4455   1.888   1.703   6.761
 1186SOL     OW 4456   4.092   1.446   5.285
 1186SOL    HW1 4457   4.035   1.398   5.352
 1186SOL    HW2 4458   4.152   1.380   5.240
 1187SOL     OW 4459   6.620   1.051   5.149
 1187SOL    HW1 4460   6.687   1.121   5.124
 1187SOL    HW2 4461   6.531   1.094   5.164
 1188SOL     OW 4462   1.089   0.318   5.493
 1188SOL    HW1 4463   1.064   0.403   5.541
 1188SOL    HW2 4464   1.169   0.278   5.537
 1189SOL     OW 4465   6.569   0.713   1.854
 1189SOL    HW1 4466   6.594   0.739   1.947
 1189SOL    HW2 4467   6.597   0.618   1.837
 1190SOL     OW 4468   4.296   4.732   2.950
 1190SOL    HW1 4469   4.283   4.741   3.049
 1190SOL    HW2 4470   4.369   4.794   2.921
 1191SOL     OW 4471   3.467   5.117   6.744
 1191SOL    HW1 4472   3.537   5.065   6.695
 1191SOL    HW2 4473   3.441   5.197   6.689
 1192SOL     OW 4474   4.642   5.015   2.065
 1192SOL    HW1 4475   4.628   4.916   2.053
 1192SOL    HW2 4476   4.554   5.061   2.069
 1193SOL     OW 4477   4.360   6.755   3.659
 1193SOL    HW1 4478   4.398   6.764   3.567
 1193SOL    HW2 4479   4.431   6.720   3.721
 1194SOL     OW 4480   6.152   0.079   0.891
 1194SOL    HW1 4481   6.226   0.145   0.904
 1194SOL    HW2 4482   6.125   0.041   0.979
 1195SOL     OW 4483   3.998   0.601   6.311
 1195SOL    HW1 4484   3.907   0.561   6.299
 1195SOL    HW2 4485   4.066   0.544   6.267
 1196SOL     OW 4486   6.940   5.445   2.511
 1196SOL    HW1 4487   6.870   5.395   2.562
 1196SOL    HW2 4488   6.918   5.445   2.414
 1197SOL     OW 4489   3.060   4.984   5.791
 1197SOL    HW1 4490   3.090   4.959   5.883
 1197SOL    HW2 4491   3.117   4.938   5.724
 1198SOL     OW 4492   3.051   1.746   2.838
 1198SOL    HW1 4493   2.988   1.670   2.821
 1198SOL    HW2 4494   3.009   1.831   2.808
 1199SOL     OW 4495   3.798   4.047   3.276
 1199SOL    HW1 4496   3.825   3.953   3.299
 1199SOL    HW2 4497   3.810   4.062   3.178
 1200SOL     OW 4498   3.613   4.568   0.180
 1200SOL    HW1 4499   3.536   4.504   0.172
 1200SOL    HW2 4500   3.618   4.603   0.273
 1201SOL     OW 4501   1.484   1.024   4.857
 1201SOL    HW1 4502   1.442   0.957   4.797
 1201SOL    HW2 4503   1.465   1.001   4.953
 1202SOL     OW 4504   6.037   0.228   4.818
 1202SOL    HW1 4505   6.129   0.267   4.814
 1202SOL    HW2 4506   6.034   0.156   4.886
 1203SOL     OW 4507   5.971   6.925   1.863
 1203SOL    HW1 4508   5.968   6.866   1.943
 1203SOL    HW2 4509   5.925   7.012   1.883
 1204SOL     OW 4510   3.328   0.400   0.540
 1204SOL    HW1 4511   3.387   0.344   0.481
 1204SOL    HW2 4512   3.245   0.349   0.562
 1205SOL     OW 4513   0.277   2.176   5.285
 1205SOL    HW1 4514   0.375   2.170   5.303
 1205SOL    HW2 4515   0.254   2.124   5.203
 1206SOL     OW 4516   1.148   1.533   4.753
 1206SOL    HW1 4517   1.194   1.490   4.675
 1206SOL    HW2 4518   1.126   1.628   4.731
 1207SOL     OW 4519   5.451   6.188   0.068
 1207SOL    HW1 4520   5.545   6.156   0.070
 1207SOL    HW2 4521   5.419   6.194   7.001
 1208SOL     OW 4522   4.033   3.735   3.881
 1208SOL    HW1 4523   4.103   3.800   3.910
 1208SOL    HW2 4524   4.067   3.680   3.805
 1209SOL     OW 4525   6.242   5.106   4.298
 1209SOL    HW1 4526   6.199   5.176   4.241
 1209SOL    HW2 4527   6.238   5.135   4.394
 1210SOL     OW 4528   3.111   0.083   2.528
 1210SOL    HW1 4529   3.043   0.144   2.569
 1210SOL    HW2 4530   3.200   0.096   2.574
 1211SOL     OW 4531   1.373   3.664   4.724
 1211SOL    HW1 4532   1.320   3.665   4.639
 1211SOL    HW2 4533   1.319   3.707   4.797
 1212SOL     OW 4534   2.076   3.978   4.475
 1212SOL    HW1 4535   2.115   3.995   4.566
 1212SOL    HW2 4536   1.977   3.967   4.483
 1213SOL     OW 4537   5.959   2.851   5.742
 1213SOL    HW1 4538   5.859   2.855   5.755
 1213SOL    HW2 4539   5.987   2.756   5.729
 1214SOL     OW 4540   2.107   2.750   3.179
 1214SOL    HW1 4541   2.073   2.773   3.271
 1214SOL    HW2 4542   2.147   2.659   3.180
 1215SOL     OW 4543   0.629   4.952   1.423
 1215SOL    HW1 4544   0.603   5.048   1.418
 1215SOL    HW2 4545   0.691   4.937   1.500
 1216SOL     OW 4546   2.854   7.027   1.901
 1216SOL    HW1 4547   2.756   7.009   1.897
 1216SOL    HW2 4548   2.870   0.084   1.953
 1217SOL     OW 4549   1.273   1.133   2.673
 1217SOL    HW1 4550   1.327   1.049   2.674
 1217SOL    HW2 4551   1.243   1.154   2.766
 1218SOL     OW 4552   0.676   3.537   4.095
 1218SOL    HW1 4553   0.592   3.486   4.116
 1218SOL    HW2 4554   0.654   3.618   4.042
 1219SOL     OW 4555   2.863   6.003   2.744
 1219SOL    HW1 4556   2.794   6.033   2.679
 1219SOL    HW2 4557   2.882   5.905   2.731
 1220SOL     OW 4558   6.605   3.798   2.850
 1220SOL    HW1 4559   6.633   3.764   2.939
 1220SOL    HW2 4560   6.555   3.884   2.861
 1221SOL     OW 4561   5.066   3.265   6.839
 1221SOL    HW1 4562   5.037   3.201   6.768
 1221SOL    HW2 4563   4.999   3.264   6.914
 1222SOL     OW 4564   6.379   6.417   1.272
 1222SOL    HW1 4565   6.318   6.425   1.351
 1222SOL    HW2 4566   6.390   6.321   1.249
 1223SOL     OW 4567   6.324   6.144   5.361
 1223SOL    HW1 4568   6.272   6.229   5.352
 1223SOL    HW2 4569   6.267   6.067   5.331
 1224SOL     OW 4570   5.681   4.996   2.110
 1224SOL    HW1 4571   5.757   4.946   2.067
 1224SOL    HW2 4572   5.661   5.078   2.057
 1225SOL     OW 4573   5.160   1.519   6.997
 1225SOL    HW1 4574   5.070   1.485   7.025
 1225SOL    HW2 4575   5.230   1.452   7.018
 1226SOL     OW 4576   5.233   4.663   0.291
 1226SOL    HW1 4577   5.308   4.725   0.313
 1226SOL    HW2 4578   5.182   4.700   0.213
 1227SOL     OW 4579   5.088   4.363   6.813
 1227SOL    HW1 4580   5.167   4.332   6.760
 1227SOL    HW2 4581   5.014   4.296   6.804
 1228SOL     OW 4582   3.868   3.105   3.719
 1228SOL    HW1 4583   3.858   3.202   3.742
 1228SOL    HW2 4584   3.868   3.051   3.803
 1229SOL     OW 4585   1.905   5.342   3.015
 1229SOL    HW1 4586   1.819   5.385   3.045
 1229SOL    HW2 4587   1.958   5.407   2.962
 1230SOL     OW 4588   5.475   4.530   1.453
 1230SOL    HW1 4589   5.556   4.552   1.397
 1230SOL    HW2 4590   5.505   4.495   1.542
 1231SOL     OW 4591   1.754   1.984   6.773
 1231SOL    HW1 4592   1.785   1.920   6.843
 1231SOL    HW2 4593   1.657   2.005   6.787
 1232SOL     OW 4594   2.664   0.677   5.353
 1232SOL    HW1 4595   2.762   0.685   5.371
 1232SOL    HW2 4596   2.648   0.604   5.287
 1233SOL     OW 4597   0.768   5.649   5.319
 1233SOL    HW1 4598   0.743   5.736   5.277
 1233SOL    HW2 4599   0.846   5.610   5.270
 1234SOL     OW 4600   6.887   3.350   0.525
 1234SOL    HW1 4601   6.952   3.275   0.518
 1234SOL    HW2 4602   6.935   3.434   0.553
 1235SOL     OW 4603   6.117   4.615   1.350
 1235SOL    HW1 4604   6.190   4.674   1.318
 1235SOL    HW2 4605   6.110   4.621   1.449
 1236SOL     OW 4606   1.646   1.337   2.531
 1236SOL    HW1 4607   1.695   1.398   2.470
 1236SOL    HW2 4608   1.548   1.356   2.525
 1237SOL     OW 4609   0.332   6.800   5.066
 1237SOL    HW1 4610   0.329   6.883   5.122
 1237SOL    HW2 4611   0.373   6.726   5.119
 1238SOL     OW 4612   0.492   0.461   4.429
 1238SOL    HW1 4613   0.475   0.508   4.516
 1238SOL    HW2 4614   0.576   0.406   4.437
 1239SOL     OW 4615   5.458   5.160   4.793
 1239SOL    HW1 4616   5.414   5.241   4.833
 1239SOL    HW2 4617   5.414   5.138   4.706
 1240SOL     OW 4618   0.179   4.097   2.360
 1240SOL    HW1 4619   0.163   4.147   2.445
 1240SOL    HW2 4620   0.263   4.043   2.368
 1241SOL     OW 4621   4.579   4.901   5.034
 1241SOL    HW1 4622   4.620   4.867   5.119
 1241SOL    HW2 4623   4.514   4.834   4.999
 1242SOL     OW 4624   1.591   5.057   0.810
 1242SOL    HW1 4625   1.617   5.019   0.898
 1242SOL    HW2 4626   1.492   5.074   0.809
 1243SOL     OW 4627   1.171   4.286   5.099
 1243SOL    HW1 4628   1.260   4.259   5.062
 1243SOL    HW2 4629   1.161   4.247   5.191
 1244SOL     OW 4630   5.886   0.377   5.148
 1244SOL    HW1 4631   5.964   0.315   5.141
 1244SOL    HW2 4632   5.914   0.460   5.195
 1245SOL     OW 4633   4.824   6.716   1.160
 1245SOL    HW1 4634   4.751   6.739   1.224
 1245SOL    HW2 4635   4.789   6.650   1.092
 1246SOL     OW 4636   4.741   0.485   0.590
 1246SOL    HW1 4637   4.821   0.441   0.632
 1246SOL    HW2 4638   4.763   0.509   0.495
 1247SOL     OW 4639   6.539   0.176   3.051
 1247SOL    HW1 4640   6.598   0.129   3.116
 1247SOL    HW2 4641   6.443   0.162   3.075
 1248SOL     OW 4642   1.408   6.383   4.681
 1248SOL    HW1 4643   1.476   6.394   4.753
 1248SOL    HW2 4644   1.396   6.285   4.662
 1249SOL     OW 4645   5.416   5.790   6.996
 1249SOL    HW1 4646   5.369   5.734   6.928
 1249SOL    HW2 4647   5.349   5.842   0.022
 1250SOL     OW 4648   6.663   3.473   5.162
 1250SOL    HW1 4649   6.580   3.437   5.205
 1250SOL    HW2 4650   6.732   3.401   5.158
 1251SOL     OW 4651   2.925   0.733   2.505
 1251SOL    HW1 4652   2.937   0.831   2.487
 1251SOL    HW2 4653   2.952   0.714   2.600
 1252SOL     OW 4654   1.954   6.289   6.643
 1252SOL    HW1 4655   2.031   6.351   6.626
 1252SOL    HW2 4656   1.886   6.337   6.699
 1253SOL     OW 4657   3.136   0.357   0.265
 1253SOL    HW1 4658   3.143   0.376   0.363
 1253SOL    HW2 4659   3.156   0.261   0.248
 1254SOL     OW 4660   5.827   0.086   2.694
 1254SOL    HW1 4661   5.835   0.130   2.784
 1254SOL    HW2 4662   5.820   7.014   2.707
 1255SOL     OW 4663   5.674   1.713   5.364
 1255SOL    HW1 4664   5.586   1.681   5.398
 1255SOL    HW2 4665   5.660   1.792   5.305
 1256SOL     OW 4666   0.783   5.160   4.476
 1256SOL    HW1 4667   0.844   5.238   4.484
 1256SOL    HW2 4668   0.690   5.188   4.500
 1257SOL     OW 4669   0.673   6.553   3.779
 1257SOL    HW1 4670   0.704   6.579   3.870
 1257SOL    HW2 4671   0.686   6.454   3.767
 1258SOL     OW 4672   4.315   6.229   5.270
 1258SOL    HW1 4673   4.302   6.300   5.340
 1258SOL    HW2 4674   4.404   6.241   5.227
 1259SOL     OW 4675   5.804   0.114   4.756
 1259SOL    HW1 4676   5.894   0.154   4.767
 1259SOL    HW2 4677   5.761   0.100   4.845
 1260SOL     OW 4678   2.767   1.409   1.392
 1260SOL    HW1 4679   2.825   1.331   1.368
 1260SOL    HW2 4680   2.719   1.390   1.477
 1261SOL     OW 4681   6.267   4.290   6.100
 1261SOL    HW1 4682   6.208   4.331   6.031
 1261SOL    HW2 4683   6.357   4.273   6.061
 1262SOL     OW 4684   4.259   4.958   0.790
 1262SOL    HW1 4685   4.281   4.861   0.800
 1262SOL    HW2 4686   4.161   4.969   0.775
 1263SOL     OW 4687   6.796   1.888   1.586
 1263SOL    HW1 4688   6.818   1.975   1.541
 1263SOL    HW2 4689   6.722   1.902   1.651
 1264SOL     OW 4690   0.322   3.281   4.027
 1264SOL    HW1 4691   0.234   3.257   4.067
 1264SOL    HW2 4692   0.375   3.198   4.009
 1265SOL     OW 4693   6.985   5.469   4.771
 1265SOL    HW1 4694   0.045   5.419   4.777
 1265SOL    HW2 4695   6.915   5.408   4.735
 1266SOL     OW 4696   1.959   1.683   4.444
 1266SOL    HW1 4697   2.049   1.673   4.402
 1266SOL    HW2 4698   1.970   1.709   4.540
 1267SOL     OW 4699   6.938   4.867   2.461
 1267SOL    HW1 4700   6.874   4.799   2.496
 1267SOL    HW2 4701   6.889   4.933   2.403
 1268SOL     OW 4702   6.840   3.102   0.234
 1268SOL    HW1 4703   6.792   3.169   0.291
 1268SOL    HW2 4704   6.938   3.107   0.252
 1269SOL     OW 4705   0.046   5.441   6.144
 1269SOL    HW1 4706   0.020   5.497   6.064
 1269SOL    HW2 4707   0.005   5.480   6.226
 1270SOL     OW 4708   1.539   3.101   4.782
 1270SOL    HW1 4709   1.454   3.098   4.729
 1270SOL    HW2 4710   1.566   3.008   4.807
 1271SOL     OW 4711   4.974   1.747   2.824
 1271SOL    HW1 4712   4.968   1.694   2.739
 1271SOL    HW2 4713   5.062   1.796   2.826
 1272SOL     OW 4714   0.685   6.177   1.504
 1272SOL    HW1 4715   0.588   6.156   1.516
 1272SOL    HW2 4716   0.737   6.091   1.497
 1273SOL     OW 4717   2.837   6.838   6.173
 1273SOL    HW1 4718   2.862   6.819   6.268
 1273SOL    HW2 4719   2.822   6.936   6.161
 1274SOL     OW 4720   6.470   2.935   1.755
 1274SOL    HW1 4721   6.437   2.947   1.661
 1274SOL    HW2 4722   6.496   3.025   1.792
 1275SOL     OW 4723   3.632   1.876   4.235
 1275SOL    HW1 4724   3.588   1.955   4.279
 1275SOL    HW2 4725   3.600   1.869   4.140
 1276SOL     OW 4726   6.206   0.212   3.657
 1276SOL    HW1 4727   6.295   0.253   3.677
 1276SOL    HW2 4728   6.146   0.221   3.737
 1277SOL     OW 4729   0.388   0.987   5.188
 1277SOL    HW1 4730   0.342   1.074   5.171
 1277SOL    HW2 4731   0.409   0.978   5.285
 1278SOL     OW 4732   2.111   1.674   5.608
 1278SOL    HW1 4733   2.168   1.723   5.673
 1278SOL    HW2 4734   2.143   1.579   5.601
 1279SOL     OW 4735   2.454   5.455   6.603
 1279SOL    HW1 4736   2.511   5.407   6.537
 1279SOL    HW2 4737   2.501   5.538   6.633
 1280SOL     OW 4738   1.907   6.936   3.340
 1280SOL    HW1 4739   2.001   6.911   3.318
 1280SOL    HW2 4740   1.844   6.866   3.306
 1281SOL     OW 4741   1.021   6.540   3.750
 1281SOL    HW1 4742   0.981   6.586   3.830
 1281SOL    HW2 4743   1.089   6.474   3.781
 1282SOL     OW 4744   1.212   0.149   1.860
 1282SOL    HW1 4745   1.214   0.246   1.839
 1282SOL    HW2 4746   1.305   0.112   1.862
 1283SOL     OW 4747   5.485   5.641   6.455
 1283SOL    HW1 4748   5.501   5.562   6.396
 1283SOL    HW2 4749   5.441   5.611   6.540
 1284SOL     OW 4750   2.715   2.009   1.903
 1284SOL    HW1 4751   2.657   2.072   1.851
 1284SOL    HW2 4752   2.798   2.055   1.931
 1285SOL     OW 4753   4.866   2.386   5.534
 1285SOL    HW1 4754   4.888   2.430   5.621
 1285SOL    HW2 4755   4.850   2.456   5.464
 1286SOL     OW 4756   6.398   5.008   1.460
 1286SOL    HW1 4757   6.449   5.063   1.393
 1286SOL    HW2 4758   6.322   5.062   1.496
 1287SOL     OW 4759   6.873   4.710   6.402
 1287SOL    HW1 4760   6.966   4.711   6.363
 1287SOL    HW2 4761   6.844   4.805   6.419
 1288SOL     OW 4762   6.305   3.204   2.250
 1288SOL    HW1 4763   6.229   3.241   2.197
 1288SOL    HW2 4764   6.310   3.105   2.236
 1289SOL     OW 4765   0.150   6.643   2.979
 1289SOL    HW1 4766   0.052   6.640   2.964
 1289SOL    HW2 4767   0.174   6.591   3.061
 1290SOL     OW 4768   0.711   6.433   1.426
 1290SOL    HW1 4769   0.729   6.335   1.434
 1290SOL    HW2 4770   0.649   6.462   1.498
 1291SOL     OW 4771   2.337   6.310   0.375
 1291SOL    HW1 4772   2.307   6.226   0.421
 1291SOL    HW2 4773   2.263   6.344   0.317
 1292SOL     OW 4774   1.112   5.655   0.617
 1292SOL    HW1 4775   1.031   5.633   0.563
 1292SOL    HW2 4776   1.098   5.740   0.668
 1293SOL     OW 4777   0.115   2.047   5.876
 1293SOL    HW1 4778   0.179   2.036   5.800
 1293SOL    HW2 4779   0.085   2.142   5.880
 1294SOL     OW 4780   0.722   2.076   2.331
 1294SOL    HW1 4781   0.681   1.989   2.356
 1294SOL    HW2 4782   0.787   2.104   2.403
 1295SOL     OW 4783   6.343   3.211   1.303
 1295SOL    HW1 4784   6.376   3.306   1.300
 1295SOL    HW2 4785   6.413   3.151   1.265
 1296SOL     OW 4786   4.039   2.167   5.957
 1296SOL    HW1 4787   4.014   2.184   6.053
 1296SOL    HW2 4788   4.066   2.254   5.915
 1297SOL     OW 4789   6.330   1.274   6.222
 1297SOL    HW1 4790   6.365   1.308   6.309
 1297SOL    HW2 4791   6.277   1.346   6.177
 1298SOL     OW 4792   5.219   3.168   3.065
 1298SOL    HW1 4793   5.275   3.244   3.097
 1298SOL    HW2 4794   5.272   3.112   3.001
 1299SOL     OW 4795   1.053   4.217   4.015
 1299SOL    HW1 4796   1.125   4.171   3.963
 1299SOL    HW2 4797   0.965   4.173   3.998
 1300SOL     OW 4798   3.047   3.443   1.597
 1300SOL    HW1 4799   3.086   3.357   1.630
 1300SOL    HW2 4800   2.970   3.424   1.537
 1301SOL     OW 4801   0.468   0.222   3.164
 1301SOL    HW1 4802   0.547   0.217   3.103
 1301SOL    HW2 4803   0.459   0.135   3.214
 1302SOL     OW 4804   2.910   6.245   4.789
 1302SOL    HW1 4805   2.819   6.206   4.800
 1302SOL    HW2 4806   2.973   6.176   4.755
 1303SOL     OW 4807   4.070   1.633   1.204
 1303SOL    HW1 4808   4.083   1.728   1.233
 1303SOL    HW2 4809   3.983   1.626   1.153
 1304SOL     OW 4810   2.447   0.903   6.921
 1304SOL    HW1 4811   2.362   0.956   6.924
 1304SOL    HW2 4812   2.523   0.963   6.898
 1305SOL     OW 4813   4.634   6.442   5.029
 1305SOL    HW1 4814   4.638   6.501   5.109
 1305SOL    HW2 4815   4.563   6.475   4.966
 1306SOL     OW 4816   1.133   4.473   4.334
 1306SOL    HW1 4817   1.189   4.422   4.400
 1306SOL    HW2 4818   1.037   4.447   4.345
 1307SOL     OW 4819   1.400   2.194   4.521
 1307SOL    HW1 4820   1.390   2.186   4.422
 1307SOL    HW2 4821   1.465   2.267   4.542
 1308SOL     OW 4822   5.264   6.022   3.055
 1308SOL    HW1 4823   5.236   5.942   3.002
 1308SOL    HW2 4824   5.358   6.045   3.032
 1309SOL     OW 4825   5.600   2.852   4.444
 1309SOL    HW1 4826   5.661   2.928   4.467
 1309SOL    HW2 4827   5.563   2.812   4.528
 1310SOL     OW 4828   4.819   3.615   5.387
 1310SOL    HW1 4829   4.748   3.644   5.451
 1310SOL    HW2 4830   4.776   3.575   5.306
 1311SOL     OW 4831   5.812   5.834   5.270
 1311SOL    HW1 4832   5.900   5.792   5.248
 1311SOL    HW2 4833   5.803   5.843   5.369
 1312SOL     OW 4834   0.735   6.538   0.479
 1312SOL    HW1 4835   0.825   6.498   0.497
 1312SOL    HW2 4836   0.726   6.559   0.382
 1313SOL     OW 4837   3.276   5.194   5.163
 1313SOL    HW1 4838   3.274   5.102   5.124
 1313SOL    HW2 4839   3.184   5.233   5.162
 1314SOL     OW 4840   6.913   1.348   4.772
 1314SOL    HW1 4841   6.815   1.328   4.778
 1314SOL    HW2 4842   6.955   1.290   4.703
 1315SOL     OW 4843   2.023   1.346   2.377
 1315SOL    HW1 4844   2.014   1.260   2.327
 1315SOL    HW2 4845   2.107   1.392   2.348
 1316SOL     OW 4846   2.899   6.905   2.518
 1316SOL    HW1 4847   2.881   6.877   2.612
 1316SOL    HW2 4848   2.965   6.981   2.517
 1317SOL     OW 4849   0.115   5.952   3.992
 1317SOL    HW1 4850   0.211   5.927   3.979
 1317SOL    HW2 4851   0.061   5.914   3.917
 1318SOL     OW 4852   6.962   6.479   0.584
 1318SOL    HW1 4853   6.910   6.557   0.619
 1318SOL    HW2 4854   0.012   6.460   0.644
 1319SOL     OW 4855   6.423   0.661   6.884
 1319SOL    HW1 4856   6.331   0.700   6.883
 1319SOL    HW2 4857   6.483   0.715   6.823
 1320SOL     OW 4858   5.293   5.474   6.597
 1320SOL    HW1 4859   5.341   5.431   6.520
 1320SOL    HW2 4860   5.205   5.509   6.566
 1321SOL     OW 4861   3.914   2.519   6.792
 1321SOL    HW1 4862   4.006   2.494   6.761
 1321SOL    HW2 4863   3.911   2.517   6.892
 1322SOL     OW 4864   6.315   1.735   4.765
 1322SOL    HW1 4865   6.350   1.729   4.671
 1322SOL    HW2 4866   6.216   1.720   4.764
 1323SOL     OW 4867   6.560   1.746   4.903
 1323SOL    HW1 4868   6.544   1.804   4.983
 1323SOL    HW2 4869   6.479   1.748   4.844
 1324SOL     OW 4870   1.800   3.673   0.826
 1324SOL    HW1 4871   1.892   3.635   0.838
 1324SOL    HW2 4872   1.732   3.602   0.843
 1325SOL     OW 4873   3.022   5.986   2.419
 1325SOL    HW1 4874   3.050   5.996   2.323
 1325SOL    HW2 4875   3.080   6.043   2.477
 1326SOL     OW 4876   5.287   3.418   4.135
 1326SOL    HW1 4877   5.237   3.464   4.062
 1326SOL    HW2 4878   5.311   3.325   4.105
 1327SOL     OW 4879   3.713   5.398   3.042
 1327SOL    HW1 4880   3.622   5.375   3.077
 1327SOL    HW2 4881   3.716   5.496   3.019
 1328SOL     OW 4882   1.543   2.748   6.508
 1328SOL    HW1 4883   1.558   2.844   6.483
 1328SOL    HW2 4884   1.573   2.733   6.602
 1329SOL     OW 4885   0.553   0.401   0.570
 1329SOL    HW1 4886   0.487   0.326   0.580
 1329SOL    HW2 4887   0.555   0.430   0.475
 1330SOL     OW 4888   5.628   6.239   1.134
 1330SOL    HW1 4889   5.654   6.251   1.039
 1330SOL    HW2 4890   5.549   6.177   1.140
 1331SOL     OW 4891   5.657   0.463   1.845
 1331SOL    HW1 4892   5.574   0.421   1.810
 1331SOL    HW2 4893   5.636   0.519   1.925
 1332SOL     OW 4894   4.645   1.242   1.742
 1332SOL    HW1 4895   4.645   1.290   1.829
 1332SOL    HW2 4896   4.709   1.287   1.679
 1333SOL     OW 4897   3.748   4.214   5.259
 1333SOL    HW1 4898   3.659   4.177   5.234
 1333SOL    HW2 4899   3.754   4.310   5.231
 1334SOL     OW 4900   0.142   3.858   4.632
 1334SOL    HW1 4901   0.094   3.915   4.699
 1334SOL    HW2 4902   0.232   3.832   4.669
 1335SOL     OW 4903   2.661   5.144   3.299
 1335SOL    HW1 4904   2.617   5.060   3.268
 1335SOL    HW2 4905   2.671   5.207   3.222
 1336SOL     OW 4906   0.126   0.706   5.030
 1336SOL    HW1 4907   0.219   0.720   5.065
 1336SOL    HW2 4908   0.097   0.787   4.980
 1337SOL     OW 4909   2.213   1.883   6.077
 1337SOL    HW1 4910   2.176   1.965   6.032
 1337SOL    HW2 4911   2.259   1.910   6.162
 1338SOL     OW 4912   4.018   5.258   0.921
 1338SOL    HW1 4913   3.981   5.179   0.971
 1338SOL    HW2 4914   4.012   5.241   0.823
 1339SOL     OW 4915   6.819   4.407   5.467
 1339SOL    HW1 4916   6.727   4.381   5.439
 1339SOL    HW2 4917   6.825   4.408   5.567
 1340SOL     OW 4918   1.730   1.877   6.332
 1340SOL    HW1 4919   1.814   1.931   6.331
 1340SOL    HW2 4920   1.714   1.842   6.424
 1341SOL     OW 4921   4.098   1.272   3.565
 1341SOL    HW1 4922   4.044   1.334   3.507
 1341SOL    HW2 4923   4.039   1.197   3.596
 1342SOL     OW 4924   0.232   6.418   0.899
 1342SOL    HW1 4925   0.177   6.335   0.902
 1342SOL    HW2 4926   0.327   6.395   0.882
 1343SOL     OW 4927   4.076   5.026   3.236
 1343SOL    HW1 4928   4.093   5.040   3.139
 1343SOL    HW2 4929   4.051   5.113   3.279
 1344SOL     OW 4930   6.488   0.969   2.735
 1344SOL    HW1 4931   6.424   0.942   2.808
 1344SOL    HW2 4932   6.446   1.041   2.680
 1345SOL     OW 4933   0.451   0.032   3.566
 1345SOL    HW1 4934   0.423   7.011   3.649
 1345SOL    HW2 4935   0.489   6.994   3.501
 1346SOL     OW 4936   0.340   1.091   4.106
 1346SOL    HW1 4937   0.325   1.105   4.204
 1346SOL    HW2 4938   0.253   1.102   4.057
 1347SOL     OW 4939   5.728   0.463   3.080
 1347SOL    HW1 4940   5.800   0.530   3.062
 1347SOL    HW2 4941   5.758   0.398   3.150
 1348SOL     OW 4942   5.129   4.522   5.129
 1348SOL    HW1 4943   5.030   4.523   5.118
 1348SOL    HW2 4944   5.173   4.562   5.048
 1349SOL     OW 4945   4.260   3.223   6.966
 1349SOL    HW1 4946   4.250   3.306   7.021
 1349SOL    HW2 4947   4.171   3.182   6.949
 1350SOL     OW 4948   2.919   0.755   6.196
 1350SOL    HW1 4949   3.000   0.767   6.254
 1350SOL    HW2 4950   2.857   0.833   6.209
 1351SOL     OW 4951   0.589   0.901   4.731
 1351SOL    HW1 4952   0.595   0.975   4.798
 1351SOL    HW2 4953   0.664   0.909   4.665
 1352SOL     OW 4954   0.479   0.986   3.380
 1352SOL    HW1 4955   0.407   1.056   3.383
 1352SOL    HW2 4956   0.567   1.029   3.361
 1353SOL     OW 4957   1.429   4.115   3.717
 1353SOL    HW1 4958   1.457   4.190   3.777
 1353SOL    HW2 4959   1.510   4.071   3.679
 1354SOL     OW 4960   0.686   7.009   1.876
 1354SOL    HW1 4961   0.774   6.976   1.843
 1354SOL    HW2 4962   0.697   0.020   1.967
 1355SOL     OW 4963   4.831   3.083   6.832
 1355SOL    HW1 4964   4.869   3.062   6.742
 1355SOL    HW2 4965   4.788   3.173   6.829
 1356SOL     OW 4966   3.031   3.954   2.578
 1356SOL    HW1 4967   3.022   4.018   2.502
 1356SOL    HW2 4968   2.998   3.863   2.550
 1357SOL     OW 4969   2.815   3.129   5.496
 1357SOL    HW1 4970   2.796   3.060   5.427
 1357SOL    HW2 4971   2.887   3.096   5.558
 1358SOL     OW 4972   1.934   2.398   5.687
 1358SOL    HW1 4973   1.835   2.390   5.687
 1358SOL    HW2 4974   1.962   2.463   5.758
 1359SOL     OW 4975   6.387   1.151   6.964
 1359SOL    HW1 4976   6.294   1.119   6.985
 1359SOL    HW2 4977   6.386   1.202   6.878
 1360SOL     OW 4978   3.493   3.857   4.504
 1360SOL    HW1 4979   3.572   3.904   4.543
 1360SOL    HW2 4980   3.466   3.903   4.419
 1361SOL     OW 4981   0.746   6.293   0.209
 1361SOL    HW1 4982   0.817   6.290   0.138
 1361SOL    HW2 4983   0.748   6.382   0.254
 1362SOL     OW 4984   2.997   3.240   6.293
 1362SOL    HW1 4985   2.984   3.142   6.274
 1362SOL    HW2 4986   3.092   3.264   6.278
 1363SOL     OW 4987   5.697   6.603   2.396
 1363SOL    HW1 4988   5.710   6.649   2.309
 1363SOL    HW2 4989   5.659   6.512   2.380
 1364SOL     OW 4990   0.648   3.264   1.411
 1364SOL    HW1 4991   0.599   3.279   1.325
 1364SOL    HW2 4992   0.663   3.352   1.456
 1365SOL     OW 4993   0.841   3.645   5.949
 1365SOL    HW1 4994   0.747   3.653   5.981
 1365SOL    HW2 4995   0.857   3.712   5.877
 1366SOL     OW 4996   5.513   0.696   0.826
 1366SOL    HW1 4997   5.442   0.638   0.787
 1366SOL    HW2 4998   5.542   0.764   0.759
 1367SOL     OW 4999   0.796   5.766   4.323
 1367SOL    HW1 5000   0.892   5.767   4.351
 1367SOL    HW2 5001   0.789   5.764   4.224
 1368SOL     OW 5002   0.968   6.243   5.687
 1368SOL    HW1 5003   0.925   6.333   5.696
 1368SOL    HW2 5004   1.063   6.254   5.660
 1369SOL     OW 5005   2.925   6.488   3.136
 1369SOL    HW1 5006   2.896   6.392   3.125
 1369SOL    HW2 5007   2.846   6.548   3.127
 1370SOL     OW 5008   6.169   2.560   2.832
 1370SOL    HW1 5009   6.080   2.568   2.786
 1370SOL    HW2 5010   6.232   2.511   2.773
 1371SOL     OW 5011   5.905   1.737   5.516
 1371SOL    HW1 5012   5.914   1.659   5.578
 1371SOL    HW2 5013   5.833   1.718   5.450
 1372SOL     OW 5014   6.195   2.598   0.273
 1372SOL    HW1 5015   6.272   2.586   0.335
 1372SOL    HW2 5016   6.188   2.518   0.212
 1373SOL     OW 5017   5.109   2.682   1.792
 1373SOL    HW1 5018   5.029   2.731   1.828
 1373SOL    HW2 5019   5.080   2.621   1.719
 1374SOL     OW 5020   4.090   4.457   0.085
 1374SOL    HW1 5021   4.100   4.543   0.134
 1374SOL    HW2 5022   4.054   4.387   0.146
 1375SOL     OW 5023   5.392   5.812   4.365
 1375SOL    HW1 5024   5.387   5.819   4.464
 1375SOL    HW2 5025   5.443   5.890   4.328
 1376SOL     OW 5026   2.628   4.922   5.750
 1376SOL    HW1 5027   2.677   4.846   5.792
 1376SOL    HW2 5028   2.660   4.935   5.656
 1377SOL     OW 5029   1.843   1.278   3.105
 1377SOL    HW1 5030   1.797   1.329   3.033
 1377SOL    HW2 5031   1.874   1.341   3.177
 1378SOL     OW 5032   4.781   2.317   4.290
 1378SOL    HW1 5033   4.830   2.364   4.217
 1378SOL    HW2 5034   4.689   2.292   4.258
 1379SOL     OW 5035   5.070   5.483   1.293
 1379SOL    HW1 5036   5.062   5.383   1.299
 1379SOL    HW2 5037   5.144   5.514   1.352
 1380SOL     OW 5038   0.040   5.657   2.059
 1380SOL    HW1 5039   0.013   5.561   2.068
 1380SOL    HW2 5040   0.020   5.706   2.144
 1381SOL     OW 5041   5.970   2.360   5.715
 1381SOL    HW1 5042   6.042   2.430   5.717
 1381SOL    HW2 5043   5.890   2.395   5.763
 1382SOL     OW 5044   4.809   2.581   0.273
 1382SOL    HW1 5045   4.874   2.578   0.350
 1382SOL    HW2 5046   4.794   2.676   0.247
 1383SOL     OW 5047   0.233   1.204   1.984
 1383SOL    HW1 5048   0.198   1.140   2.052
 1383SOL    HW2 5049   0.333   1.207   1.990
 1384SOL     OW 5050   6.061   1.306   1.845
 1384SOL    HW1 5051   6.013   1.378   1.796
 1384SOL    HW2 5052   6.034   1.306   1.941
 1385SOL     OW 5053   1.091   5.666   1.817
 1385SOL    HW1 5054   1.048   5.742   1.768
 1385SOL    HW2 5055   1.077   5.581   1.766
 1386SOL     OW 5056   2.479   5.902   4.309
 1386SOL    HW1 5057   2.540   5.860   4.242
 1386SOL    HW2 5058   2.533   5.953   4.376
 1387SOL     OW 5059   3.150   5.608   2.412
 1387SOL    HW1 5060   3.097   5.601   2.328
 1387SOL    HW2 5061   3.186   5.701   2.422
 1388SOL     OW 5062   6.672   0.276   1.668
 1388SOL    HW1 5063   6.746   0.269   1.735
 1388SOL    HW2 5064   6.661   0.189   1.621
 1389SOL     OW 5065   6.412   1.203   2.623
 1389SOL    HW1 5066   6.348   1.190   2.548
 1389SOL    HW2 5067   6.430   1.301   2.635
 1390SOL     OW 5068   7.019   2.075   6.172
 1390SOL    HW1 5069   0.024   1.990   6.214
 1390SOL    HW2 5070   6.939   2.108   6.222
 1391SOL     OW 5071   0.838   3.081   2.679
 1391SOL    HW1 5072   0.763   3.129   2.632
 1391SOL    HW2 5073   0.868   3.005   2.622
 1392SOL     OW 5074   4.836   4.825   5.258
 1392SOL    HW1 5075   4.823   4.745   5.316
 1392SOL    HW2 5076   4.928   4.821   5.218
 1393SOL     OW 5077   3.649   6.548   5.820
 1393SOL    HW1 5078   3.653   6.536   5.919
 1393SOL    HW2 5079   3.577   6.613   5.796
 1394SOL     OW 5080   2.435   6.196   5.392
 1394SOL    HW1 5081   2.439   6.123   5.461
 1394SOL    HW2 5082   2.523   6.242   5.388
 1395SOL     OW 5083   3.647   4.692   5.647
 1395SOL    HW1 5084   3.551   4.665   5.641
 1395SOL    HW2 5085   3.654   4.782   5.688
 1396SOL     OW 5086   5.859   5.886   4.399
 1396SOL    HW1 5087   5.806   5.849   4.322
 1396SOL    HW2 5088   5.815   5.970   4.432
 1397SOL     OW 5089   4.597   6.091   4.793
 1397SOL    HW1 5090   4.530   6.096   4.719
 1397SOL    HW2 5091   4.550   6.087   4.881
 1398SOL     OW 5092   1.557   1.420   4.896
 1398SOL    HW1 5093   1.633   1.399   4.835
 1398SOL    HW2 5094   1.556   1.356   4.973
 1399SOL     OW 5095   3.136   6.387   1.593
 1399SOL    HW1 5096   3.090   6.374   1.681
 1399SOL    HW2 5097   3.196   6.310   1.575
 1400SOL     OW 5098   1.049   0.043   1.519
 1400SOL    HW1 5099   1.023   0.115   1.583
 1400SOL    HW2 5100   1.064   6.985   1.569
 1401SOL     OW 5101   6.973   1.089   4.629
 1401SOL    HW1 5102   0.041   1.112   4.610
 1401SOL    HW2 5103   6.963   1.070   4.727
 1402SOL     OW 5104   6.452   2.557   0.392
 1402SOL    HW1 5105   6.483   2.592   0.480
 1402SOL    HW2 5106   6.470   2.458   0.388
 1403SOL     OW 5107   2.447   0.086   1.923
 1403SOL    HW1 5108   2.481   0.180   1.915
 1403SOL    HW2 5109   2.506   0.025   1.871
 1404SOL     OW 5110   5.650   0.284   0.417
 1404SOL    HW1 5111   5.727   0.331   0.461
 1404SOL    HW2 5112   5.596   0.350   0.365
 1405SOL     OW 5113   2.066   3.619   0.845
 1405SOL    HW1 5114   2.101   3.707   0.813
 1405SOL    HW2 5115   2.064   3.554   0.768
 1406SOL     OW 5116   1.885   4.405   1.193
 1406SOL    HW1 5117   1.884   4.500   1.163
 1406SOL    HW2 5118   1.952   4.353   1.140
 1407SOL     OW 5119   6.673   1.840   2.260
 1407SOL    HW1 5120   6.759   1.800   2.292
 1407SOL    HW2 5121   6.621   1.873   2.339
 1408SOL     OW 5122   5.381   0.425   6.167
 1408SOL    HW1 5123   5.441   0.356   6.128
 1408SOL    HW2 5124   5.369   0.407   6.265
 1409SOL     OW 5125   7.014   0.518   4.487
 1409SOL    HW1 5126   6.965   0.547   4.570
 1409SOL    HW2 5127   7.014   0.593   4.421
 1410SOL     OW 5128   0.236   3.212   6.786
 1410SOL    HW1 5129   0.289   3.127   6.785
 1410SOL    HW2 5130   0.287   3.283   6.834
 1411SOL     OW 5131   1.939   6.638   2.195
 1411SOL    HW1 5132   1.966   6.656   2.289
 1411SOL    HW2 5133   1.853   6.587   2.194
 1412SOL     OW 5134   1.355   2.943   0.866
 1412SOL    HW1 5135   1.434   2.899   0.910
 1412SOL    HW2 5136   1.385   3.025   0.817
 1413SOL     OW 5137   2.566   0.420   3.972
 1413SOL    HW1 5138   2.581   0.499   4.032
 1413SOL    HW2 5139   2.631   0.348   3.996
 1414SOL     OW 5140   2.137   1.635   1.709
 1414SOL    HW1 5141   2.159   1.597   1.619
 1414SOL    HW2 5142   2.132   1.562   1.776
 1415SOL     OW 5143   3.693   6.304   5.727
 1415SOL    HW1 5144   3.679   6.393   5.772
 1415SOL    HW2 5145   3.791   6.292   5.708
 1416SOL     OW 5146   4.384   5.000   1.840
 1416SOL    HW1 5147   4.301   5.049   1.814
 1416SOL    HW2 5148   4.386   4.989   1.940
 1417SOL     OW 5149   2.732   1.849   6.256
 1417SOL    HW1 5150   2.684   1.917   6.312
 1417SOL    HW2 5151   2.697   1.852   6.163
 1418SOL     OW 5152   3.183   4.045   3.019
 1418SOL    HW1 5153   3.185   4.065   3.117
 1418SOL    HW2 5154   3.268   4.077   2.977
 1419SOL     OW 5155   3.875   6.781   4.806
 1419SOL    HW1 5156   3.800   6.766   4.742
 1419SOL    HW2 5157   3.858   6.866   4.857
 1420SOL     OW 5158   1.034   5.685   2.103
 1420SOL    HW1 5159   1.060   5.690   2.007
 1420SOL    HW2 5160   0.936   5.668   2.110
 1421SOL     OW 5161   2.812   2.225   2.319
 1421SOL    HW1 5162   2.851   2.278   2.244
 1421SOL    HW2 5163   2.772   2.288   2.386
 1422SOL     OW 5164   1.910   5.033   0.782
 1422SOL    HW1 5165   1.813   5.014   0.800
 1422SOL    HW2 5166   1.927   5.028   0.683
 1423SOL     OW 5167   4.964   6.904   2.801
 1423SOL    HW1 5168   4.901   6.981   2.803
 1423SOL    HW2 5169   4.981   6.878   2.706
 1424SOL     OW 5170   6.011   5.239   4.801
 1424SOL    HW1 5171   6.083   5.184   4.844
 1424SOL    HW2 5172   6.004   5.328   4.848
 1425SOL     OW 5173   2.220   7.008   3.589
 1425SOL    HW1 5174   2.198   0.052   3.522
 1425SOL    HW2 5175   2.268   0.023   3.667
 1426SOL     OW 5176   1.275   1.409   5.777
 1426SOL    HW1 5177   1.177   1.415   5.794
 1426SOL    HW2 5178   1.314   1.501   5.773
 1427SOL     OW 5179   6.050   0.248   3.876
 1427SOL    HW1 5180   6.076   0.239   3.972
 1427SOL    HW2 5181   5.950   0.251   3.869
 1428SOL     OW 5182   5.695   2.026   6.827
 1428SOL    HW1 5183   5.619   2.032   6.892
 1428SOL    HW2 5184   5.744   2.113   6.824
 1429SOL     OW 5185   6.977   0.599   0.819
 1429SOL    HW1 5186   6.976   0.554   0.908
 1429SOL    HW2 5187   7.012   0.692   0.828
 1430SOL     OW 5188   1.830   4.715   3.302
 1430SOL    HW1 5189   1.734   4.688   3.309
 1430SOL    HW2 5190   1.873   4.665   3.228
 1431SOL     OW 5191   2.933   0.853   1.571
 1431SOL    HW1 5192   3.028   0.868   1.596
 1431SOL    HW2 5193   2.891   0.787   1.633
 1432SOL     OW 5194   2.356   1.096   2.579
 1432SOL    HW1 5195   2.284   1.164   2.593
 1432SOL    HW2 5196   2.315   1.005   2.572
 1433SOL     OW 5197   4.027   0.374   3.998
 1433SOL    HW1 5198   4.090   0.314   3.949
 1433SOL    HW2 5199   4.008   0.455   3.943
 1434SOL     OW 5200   1.052   0.907   5.338
 1434SOL    HW1 5201   0.983   0.971   5.374
 1434SOL    HW2 5202   1.143   0.945   5.353
 1435SOL     OW 5203   6.461   1.793   2.695
 1435SOL    HW1 5204   6.416   1.848   2.766
 1435SOL    HW2 5205   6.530   1.735   2.737
 1436SOL     OW 5206   4.170   3.894   0.147
 1436SOL    HW1 5207   4.107   3.887   0.069
 1436SOL    HW2 5208   4.263   3.871   0.116
 1437SOL     OW 5209   3.254   0.817   2.634
 1437SOL    HW1 5210   3.221   0.907   2.609
 1437SOL    HW2 5211   3.292   0.771   2.554
 1438SOL     OW 5212   3.208   6.282   0.992
 1438SOL    HW1 5213   3.288   6.338   0.973
 1438SOL    HW2 5214   3.135   6.339   1.030
 1439SOL     OW 5215   7.003   6.146   2.401
 1439SOL    HW1 5216   0.041   6.196   2.343
 1439SOL    HW2 5217   0.025   6.075   2.451
 1440SOL     OW 5218   2.793   3.610   0.611
 1440SOL    HW1 5219   2.821   3.527   0.564
 1440SOL    HW2 5220   2.856   3.629   0.686
 1441SOL     OW 5221   5.913   6.614   1.197
 1441SOL    HW1 5222   5.878   6.522   1.217
 1441SOL    HW2 5223   5.860   6.654   1.122
 1442SOL     OW 5224   5.952   5.363   0.444
 1442SOL    HW1 5225   5.852   5.354   0.439
 1442SOL    HW2 5226   5.993   5.319   0.364
 1443SOL     OW 5227   1.687   2.649   2.918
 1443SOL    HW1 5228   1.655   2.743   2.906
 1443SOL    HW2 5229   1.696   2.605   2.829
 1444SOL     OW 5230   6.135   5.713   7.020
 1444SOL    HW1 5231   6.182   5.802   7.017
 1444SOL    HW2 5232   6.042   5.726   0.027
 1445SOL     OW 5233   1.187   3.344   2.515
 1445SOL    HW1 5234   1.262   3.286   2.483
 1445SOL    HW2 5235   1.141   3.299   2.591
 1446SOL     OW 5236   6.794   0.101   6.506
 1446SOL    HW1 5237   6.843   0.139   6.584
 1446SOL    HW2 5238   6.736   0.171   6.465
 1447SOL     OW 5239   5.817   5.044   4.758
 1447SOL    HW1 5240   5.763   5.029   4.841
 1447SOL    HW2 5241   5.883   5.117   4.773
 1448SOL     OW 5242   0.908   2.999   5.787
 1448SOL    HW1 5243   0.867   3.020   5.698
 1448SOL    HW2 5244   0.939   3.084   5.830
 1449SOL     OW 5245   1.532   4.185   4.321
 1449SOL    HW1 5246   1.501   4.106   4.269
 1449SOL    HW2 5247   1.582   4.247   4.261
 1450SOL     OW 5248   2.087   2.274   5.097
 1450SOL    HW1 5249   2.078   2.349   5.161
 1450SOL    HW2 5250   2.065   2.306   5.005
 1451SOL     OW 5251   2.613   6.916   1.798
 1451SOL    HW1 5252   2.660   6.929   1.711
 1451SOL    HW2 5253   2.557   6.833   1.793
 1452SOL     OW 5254   4.824   3.179   6.057
 1452SOL    HW1 5255   4.739   3.224   6.083
 1452SOL    HW2 5256   4.884   3.172   6.137
 1453SOL     OW 5257   0.725   4.404   5.225
 1453SOL    HW1 5258   0.673   4.454   5.156
 1453SOL    HW2 5259   0.814   4.378   5.188
 1454SOL     OW 5260   2.746   1.888   3.476
 1454SOL    HW1 5261   2.779   1.849   3.389
 1454SOL    HW2 5262   2.647   1.879   3.481
 1455SOL     OW 5263   1.304   5.601   2.096
 1455SOL    HW1 5264   1.352   5.629   2.179
 1455SOL    HW2 5265   1.205   5.614   2.109
 1456SOL     OW 5266   6.375   5.631   5.890
 1456SOL    HW1 5267   6.406   5.672   5.805
 1456SOL    HW2 5268   6.425   5.546   5.907
 1457SOL     OW 5269   0.348   3.941   6.116
 1457SOL    HW1 5270   0.383   4.034   6.130
 1457SOL    HW2 5271   0.407   3.876   6.163
 1458SOL     OW 5272   5.377   4.652   5.241
 1458SOL    HW1 5273   5.343   4.743   5.265
 1458SOL    HW2 5274   5.300   4.595   5.212
 1459SOL     OW 5275   4.907   6.668   5.217
 1459SOL    HW1 5276   4.891   6.765   5.237
 1459SOL    HW2 5277   4.824   6.616   5.237
 1460SOL     OW 5278   1.880   6.400   5.091
 1460SOL    HW1 5279   1.873   6.321   5.151
 1460SOL    HW2 5280   1.930   6.375   5.008
 1461SOL     OW 5281   0.142   3.111   3.047
 1461SOL    HW1 5282   0.241   3.110   3.035
 1461SOL    HW2 5283   0.101   3.179   2.986
 1462SOL     OW 5284   0.648   0.002   0.626
 1462SOL    HW1 5285   0.692   6.965   0.563
 1462SOL    HW2 5286   0.709   0.080   0.642
 1463SOL     OW 5287   1.568   5.617   6.580
 1463SOL    HW1 5288   1.636   5.639   6.650
 1463SOL    HW2 5289   1.484   5.668   6.597
 1464SOL     OW 5290   0.023   4.619   4.464
 1464SOL    HW1 5291   6.952   4.606   4.479
 1464SOL    HW2 5292   0.073   4.541   4.500
 1465SOL     OW 5293   1.308   1.724   3.074
 1465SOL    HW1 5294   1.403   1.752   3.088
 1465SOL    HW2 5295   1.261   1.791   3.017
 1466SOL     OW 5296   4.137   1.961   1.744
 1466SOL    HW1 5297   4.127   1.870   1.784
 1466SOL    HW2 5298   4.122   2.030   1.815
 1467SOL     OW 5299   1.539   0.651   3.971
 1467SOL    HW1 5300   1.619   0.608   4.013
 1467SOL    HW2 5301   1.477   0.580   3.938
 1468SOL     OW 5302   2.088   6.072   2.471
 1468SOL    HW1 5303   2.128   6.131   2.401
 1468SOL    HW2 5304   2.069   5.982   2.432
 1469SOL     OW 5305   6.399   5.220   3.333
 1469SOL    HW1 5306   6.485   5.260   3.300
 1469SOL    HW2 5307   6.325   5.286   3.321
 1470SOL     OW 5308   6.565   1.922   0.564
 1470SOL    HW1 5309   6.503   1.996   0.589
 1470SOL    HW2 5310   6.540   1.838   0.613
 1471SOL     OW 5311   5.238   6.949   1.623
 1471SOL    HW1 5312   5.272   0.016   1.615
 1471SOL    HW2 5313   5.302   6.896   1.678
 1472SOL     OW 5314   1.902   6.858   6.150
 1472SOL    HW1 5315   1.946   6.832   6.236
 1472SOL    HW2 5316   1.939   6.945   6.118
 1473SOL     OW 5317   2.988   5.116   4.497
 1473SOL    HW1 5318   2.962   5.186   4.564
 1473SOL    HW2 5319   3.063   5.150   4.441
 1474SOL     OW 5320   4.493   4.840   1.530
 1474SOL    HW1 5321   4.576   4.797   1.565
 1474SOL    HW2 5322   4.414   4.812   1.585
 1475SOL     OW 5323   4.598   0.288   0.200
 1475SOL    HW1 5324   4.526   0.231   0.160
 1475SOL    HW2 5325   4.579   0.384   0.181
 1476SOL     OW 5326   3.777   0.872   1.918
 1476SOL    HW1 5327   3.685   0.869   1.957
 1476SOL    HW2 5328   3.824   0.954   1.949
 1477SOL     OW 5329   4.273   5.214   1.608
 1477SOL    HW1 5330   4.229   5.177   1.526
 1477SOL    HW2 5331   4.214   5.198   1.687
 1478SOL     OW 5332   5.309   5.684   5.647
 1478SOL    HW1 5333   5.307   5.584   5.634
 1478SOL    HW2 5334   5.229   5.725   5.603
 1479SOL     OW 5335   3.566   3.194   1.323
 1479SOL    HW1 5336   3.511   3.221   1.402
 1479SOL    HW2 5337   3.508   3.144   1.258
 1480SOL     OW 5338   2.678   0.441   4.581
 1480SOL    HW1 5339   2.762   0.440   4.636
 1480SOL    HW2 5340   2.625   0.522   4.604
 1481SOL     OW 5341   5.253   2.423   5.657
 1481SOL    HW1 5342   5.290   2.363   5.586
 1481SOL    HW2 5343   5.220   2.508   5.615
 1482SOL     OW 5344   4.324   1.427   0.390
 1482SOL    HW1 5345   4.378   1.507   0.417
 1482SOL    HW2 5346   4.234   1.455   0.360
 1483SOL     OW 5347   4.918   1.306   6.175
 1483SOL    HW1 5348   4.846   1.334   6.112
 1483SOL    HW2 5349   4.903   1.347   6.265
 1484SOL     OW 5350   3.051   6.046   4.683
 1484SOL    HW1 5351   3.100   5.974   4.733
 1484SOL    HW2 5352   3.017   6.009   4.597
 1485SOL     OW 5353   5.047   2.349   2.806
 1485SOL    HW1 5354   5.002   2.411   2.741
 1485SOL    HW2 5355   5.137   2.386   2.830
 1486SOL     OW 5356   4.876   6.931   3.977
 1486SOL    HW1 5357   4.809   6.929   3.904
 1486SOL    HW2 5358   4.937   6.851   3.969
 1487SOL     OW 5359   6.731   0.190   0.562
 1487SOL    HW1 5360   6.632   0.177   0.560
 1487SOL    HW2 5361   6.752   0.282   0.597
 1488SOL     OW 5362   5.965   0.874   3.165
 1488SOL    HW1 5363   5.951   0.881   3.263
 1488SOL    HW2 5364   6.061   0.892   3.142
 1489SOL     OW 5365   4.433   4.552   6.174
 1489SOL    HW1 5366   4.350   4.585   6.219
 1489SOL    HW2 5367   4.503   4.623   6.178
 1490SOL     OW 5368   0.513   2.229   2.213
 1490SOL    HW1 5369   0.488   2.314   2.260
 1490SOL    HW2 5370   0.582   2.180   2.267
 1491SOL     OW 5371   6.963   3.125   2.479
 1491SOL    HW1 5372   0.012   3.146   2.540
 1491SOL    HW2 5373   6.997   3.078   2.398
 1492SOL     OW 5374   6.218   1.358   3.045
 1492SOL    HW1 5375   6.251   1.276   2.998
 1492SOL    HW2 5376   6.292   1.425   3.052
 1493SOL     OW 5377   4.560   2.576   5.809
 1493SOL    HW1 5378   4.649   2.578   5.854
 1493SOL    HW2 5379   4.572   2.589   5.710
 1494SOL     OW 5380   6.123   3.776   5.819
 1494SOL    HW1 5381   6.152   3.831   5.897
 1494SOL    HW2 5382   6.194   3.709   5.798
 1495SOL     OW 5383   6.291   4.154   4.269
 1495SOL    HW1 5384   6.378   4.105   4.274
 1495SOL    HW2 5385   6.283   4.201   4.181
 1496SOL     OW 5386   0.041   5.671   6.707
 1496SOL    HW1 5387   7.003   5.747   6.708
 1496SOL    HW2 5388   0.093   5.670   6.792
 1497SOL     OW 5389   5.398   3.179   2.576
 1497SOL    HW1 5390   5.300   3.170   2.560
 1497SOL    HW2 5391   5.414   3.231   2.660
 1498SOL     OW 5392   2.811   4.957   0.994
 1498SOL    HW1 5393   2.852   4.984   1.081
 1498SOL    HW2 5394   2.877   4.970   0.921
 1499SOL     OW 5395   0.428   4.166   5.683
 1499SOL    HW1 5396   0.336   4.150   5.646
 1499SOL    HW2 5397   0.496   4.140   5.615
 1500SOL     OW 5398   0.710   5.391   1.188
 1500SOL    HW1 5399   0.712   5.378   1.089
 1500SOL    HW2 5400   0.617   5.374   1.222
 1501SOL     OW 5401   5.489   1.636   6.339
 1501SOL    HW1 5402   5.459   1.641   6.434
 1501SOL    HW2 5403   5.532   1.547   6.323
 1502SOL     OW 5404   6.079   0.094   6.592
 1502SOL    HW1 5405   6.076   0.134   6.683
 1502SOL    HW2 5406   6.164   0.120   6.546
 1503SOL     OW 5407   0.358   4.190   1.969
 1503SOL    HW1 5408   0.439   4.214   1.915
 1503SOL    HW2 5409   0.345   4.258   2.041
 1504SOL     OW 5410   0.600   0.899   3.001
 1504SOL    HW1 5411   0.692   0.927   2.974
 1504SOL    HW2 5412   0.599   0.874   3.097
 1505SOL     OW 5413   5.028   6.055   4.869
 1505SOL    HW1 5414   4.959   5.985   4.885
 1505SOL    HW2 5415   5.115   6.011   4.845
 1506SOL     OW 5416   0.785   0.939   0.629
 1506SOL    HW1 5417   0.826   0.854   0.596
 1506SOL    HW2 5418   0.713   0.919   0.695
 1507SOL     OW 5419   1.987   2.548   4.711
 1507SOL    HW1 5420   1.971   2.578   4.805
 1507SOL    HW2 5421   2.031   2.458   4.712
 1508SOL     OW 5422   0.890   0.693   0.559
 1508SOL    HW1 5423   0.921   0.613   0.508
 1508SOL    HW2 5424   0.907   0.678   0.657
 1509SOL     OW 5425   5.234   0.424   4.065
 1509SOL    HW1 5426   5.221   0.508   4.117
 1509SOL    HW2 5427   5.189   0.348   4.112
 1510SOL     OW 5428   3.848   5.813   3.932
 1510SOL    HW1 5429   3.755   5.841   3.956
 1510SOL    HW2 5430   3.904   5.895   3.917
 1511SOL     OW 5431   3.850   3.322   4.398
 1511SOL    HW1 5432   3.849   3.316   4.498
 1511SOL    HW2 5433   3.915   3.256   4.362
 1512SOL     OW 5434   6.573   6.030   0.958
 1512SOL    HW1 5435   6.660   6.079   0.960
 1512SOL    HW2 5436   6.590   5.933   0.942
 1513SOL     OW 5437   3.089   0.269   6.212
 1513SOL    HW1 5438   3.015   0.202   6.211
 1513SOL    HW2 5439   3.050   0.361   6.202
 1514SOL     OW 5440   3.403   2.405   5.734
 1514SOL    HW1 5441   3.394   2.353   5.649
 1514SOL    HW2 5442   3.497   2.435   5.745
 1515SOL     OW 5443   6.291   1.931   2.211
 1515SOL    HW1 5444   6.337   2.007   2.166
 1515SOL    HW2 5445   6.315   1.930   2.308
 1516SOL     OW 5446   6.130   6.473   4.772
 1516SOL    HW1 5447   6.066   6.397   4.764
 1516SOL    HW2 5448   6.162   6.500   4.681
 1517SOL     OW 5449   3.885   6.203   3.740
 1517SOL    HW1 5450   3.950   6.279   3.745
 1517SOL    HW2 5451   3.863   6.184   3.644
 1518SOL     OW 5452   0.489   2.308   0.497
 1518SOL    HW1 5453   0.413   2.271   0.445
 1518SOL    HW2 5454   0.520   2.394   0.456
 1519SOL     OW 5455   6.871   4.222   7.017
 1519SOL    HW1 5456   6.922   4.268   6.945
 1519SOL    HW2 5457   6.799   4.166   6.976
 1520SOL     OW 5458   0.036   5.846   2.256
 1520SOL    HW1 5459   7.002   5.816   2.329
 1520SOL    HW2 5460   7.016   5.914   2.200
 1521SOL     OW 5461   2.016   5.315   6.137
 1521SOL    HW1 5462   2.112   5.290   6.123
 1521SOL    HW2 5463   1.966   5.235   6.171
 1522SOL     OW 5464   4.970   5.280   4.904
 1522SOL    HW1 5465   5.069   5.267   4.914
 1522SOL    HW2 5466   4.922   5.208   4.954
 1523SOL     OW 5467   3.848   6.188   6.607
 1523SOL    HW1 5468   3.896   6.186   6.519
 1523SOL    HW2 5469   3.775   6.257   6.603
 1524SOL     OW 5470   2.196   1.819   2.305
 1524SOL    HW1 5471   2.174   1.797   2.210
 1524SOL    HW2 5472   2.254   1.748   2.344
 1525SOL     OW 5473   5.134   2.774   0.519
 1525SOL    HW1 5474   5.192   2.711   0.571
 1525SOL    HW2 5475   5.190   2.829   0.457
 1526SOL     OW 5476   1.011   1.079   0.578
 1526SOL    HW1 5477   1.020   1.170   0.618
 1526SOL    HW2 5478   0.916   1.048   0.586
 1527SOL     OW 5479   3.620   1.313   4.286
 1527SOL    HW1 5480   3.598   1.218   4.309
 1527SOL    HW2 5481   3.546   1.352   4.230
 1528SOL     OW 5482   4.618   3.989   0.873
 1528SOL    HW1 5483   4.705   3.952   0.841
 1528SOL    HW2 5484   4.631   4.036   0.961
 1529SOL     OW 5485   4.767   1.491   6.000
 1529SOL    HW1 5486   4.806   1.583   5.998
 1529SOL    HW2 5487   4.742   1.463   5.907
 1530SOL     OW 5488   4.060   6.668   1.331
 1530SOL    HW1 5489   4.025   6.593   1.386
 1530SOL    HW2 5490   4.019   6.754   1.362
 1531SOL     OW 5491   3.198   6.593   4.513
 1531SOL    HW1 5492   3.159   6.602   4.605
 1531SOL    HW2 5493   3.283   6.540   4.518
 1532SOL     OW 5494   2.733   5.530   5.819
 1532SOL    HW1 5495   2.799   5.470   5.863
 1532SOL    HW2 5496   2.781   5.602   5.769
 1533SOL     OW 5497   5.520   5.459   1.429
 1533SOL    HW1 5498   5.580   5.386   1.461
 1533SOL    HW2 5499   5.436   5.419   1.393
 1534SOL     OW 5500   3.778   5.938   6.738
 1534SOL    HW1 5501   3.700   5.946   6.801
 1534SOL    HW2 5502   3.802   6.029   6.703
 1535SOL     OW 5503   6.286   6.527   4.552
 1535SOL    HW1 5504   6.333   6.611   4.578
 1535SOL    HW2 5505   6.331   6.449   4.596
 1536SOL     OW 5506   4.363   4.331   6.511
 1536SOL    HW1 5507   4.369   4.430   6.496
 1536SOL    HW2 5508   4.331   4.314   6.605
 1537SOL     OW 5509   3.286   5.402   3.426
 1537SOL    HW1 5510   3.217   5.342   3.384
 1537SOL    HW2 5511   3.246   5.492   3.442
 1538SOL     OW 5512   3.347   1.368   0.007
 1538SOL    HW1 5513   3.377   1.463   7.024
 1538SOL    HW2 5514   3.422   1.306   7.009
 1539SOL     OW 5515   5.601   3.460   1.083
 1539SOL    HW1 5516   5.698   3.483   1.080
 1539SOL    HW2 5517   5.549   3.540   1.113
 1540SOL     OW 5518   2.683   0.281   4.936
 1540SOL    HW1 5519   2.745   0.221   4.885
 1540SOL    HW2 5520   2.685   0.373   4.896
 1541SOL     OW 5521   3.698   2.935   4.642
 1541SOL    HW1 5522   3.763   2.937   4.567
 1541SOL    HW2 5523   3.736   2.986   4.720
 1542SOL     OW 5524   6.609   0.443   2.441
 1542SOL    HW1 5525   6.675   0.372   2.466
 1542SOL    HW2 5526   6.643   0.532   2.470
 1543SOL     OW 5527   2.610   5.328   6.434
 1543SOL    HW1 5528   2.567   5.245   6.468
 1543SOL    HW2 5529   2.705   5.332   6.464
 1544SOL     OW 5530   3.650   2.929   3.360
 1544SOL    HW1 5531   3.581   2.896   3.295
 1544SOL    HW2 5532   3.608   2.994   3.423
 1545SOL     OW 5533   6.172   6.741   2.843
 1545SOL    HW1 5534   6.199   6.644   2.844
 1545SOL    HW2 5535   6.247   6.797   2.880
 1546SOL     OW 5536   4.916   6.514   5.760
 1546SOL    HW1 5537   4.951   6.555   5.676
 1546SOL    HW2 5538   4.840   6.570   5.795
 1547SOL     OW 5539   1.369   4.175   6.350
 1547SOL    HW1 5540   1.434   4.099   6.343
 1547SOL    HW2 5541   1.325   4.189   6.262
 1548SOL     OW 5542   5.781   1.855   0.028
 1548SOL    HW1 5543   5.833   1.893   0.104
 1548SOL    HW2 5544   5.794   1.912   6.974
 1549SOL     OW 5545   4.291   1.382   4.636
 1549SOL    HW1 5546   4.287   1.288   4.602
 1549SOL    HW2 5547   4.263   1.445   4.564
 1550SOL     OW 5548   3.652   3.024   2.881
 1550SOL    HW1 5549   3.682   3.071   2.798
 1550SOL    HW2 5550   3.708   2.943   2.895
 1551SOL     OW 5551   0.201   5.285   6.472
 1551SOL    HW1 5552   0.179   5.188   6.458
 1551SOL    HW2 5553   0.140   5.324   6.541
 1552SOL     OW 5554   2.559   4.191   1.535
 1552SOL    HW1 5555   2.483   4.222   1.478
 1552SOL    HW2 5556   2.579   4.260   1.604
 1553SOL     OW 5557   6.590   1.640   5.642
 1553SOL    HW1 5558   6.573   1.706   5.570
 1553SOL    HW2 5559   6.503   1.604   5.676
 1554SOL     OW 5560   3.011   1.967   3.561
 1554SOL    HW1 5561   3.073   1.890   3.542
 1554SOL    HW2 5562   2.917   1.938   3.546
 1555SOL     OW 5563   6.470   3.237   6.182
 1555SOL    HW1 5564   6.462   3.217   6.279
 1555SOL    HW2 5565   6.556   3.287   6.166
 1556SOL     OW 5566   1.995   1.247   5.736
 1556SOL    HW1 5567   1.906   1.267   5.777
 1556SOL    HW2 5568   1.997   1.152   5.705
 1557SOL     OW 5569   0.868   3.376   6.570
 1557SOL    HW1 5570   0.914   3.440   6.632
 1557SOL    HW2 5571   0.797   3.425   6.519
 1558SOL     OW 5572   6.938   0.707   5.392
 1558SOL    HW1 5573   7.024   0.681   5.349
 1558SOL    HW2 5574   6.941   0.685   5.490
 1559SOL     OW 5575   0.477   2.414   5.936
 1559SOL    HW1 5576   0.421   2.420   5.853
 1559SOL    HW2 5577   0.459   2.327   5.982
 1560SOL     OW 5578   6.981   0.429   6.319
 1560SOL    HW1 5579   6.957   0.459   6.412
 1560SOL    HW2 5580   0.038   0.473   6.290
 1561SOL     OW 5581   5.614   5.936   2.557
 1561SOL    HW1 5582   5.682   5.990   2.507
 1561SOL    HW2 5583   5.523   5.971   2.537
 1562SOL     OW 5584   5.416   0.464   3.050
 1562SOL    HW1 5585   5.512   0.481   3.026
 1562SOL    HW2 5586   5.365   0.442   2.966
 1563SOL     OW 5587   3.499   1.535   5.878
 1563SOL    HW1 5588   3.497   1.619   5.933
 1563SOL    HW2 5589   3.417   1.481   5.898
 1564SOL     OW 5590   2.132   2.092   2.076
 1564SOL    HW1 5591   2.097   2.093   2.169
 1564SOL    HW2 5592   2.205   2.159   2.067
 1565SOL     OW 5593   5.200   3.869   1.732
 1565SOL    HW1 5594   5.177   3.775   1.755
 1565SOL    HW2 5595   5.296   3.886   1.755
 1566SOL     OW 5596   5.371   4.051   3.581
 1566SOL    HW1 5597   5.303   4.031   3.511
 1566SOL    HW2 5598   5.456   4.001   3.561
 1567SOL     OW 5599   6.956   5.399   5.561
 1567SOL    HW1 5600   6.944   5.309   5.519
 1567SOL    HW2 5601   0.017   5.402   5.609
 1568SOL     OW 5602   0.612   0.548   0.822
 1568SOL    HW1 5603   0.602   0.502   0.734
 1568SOL    HW2 5604   0.605   0.481   0.896
 1569SOL     OW 5605   3.911   6.237   5.552
 1569SOL    HW1 5606   3.895   6.140   5.534
 1569SOL    HW2 5607   3.993   6.267   5.504
 1570SOL     OW 5608   3.042   1.916   1.596
 1570SOL    HW1 5609   3.003   1.852   1.530
 1570SOL    HW2 5610   3.082   1.993   1.548
 1571SOL     OW 5611   6.645   3.682   1.367
 1571SOL    HW1 5612   6.603   3.591   1.368
 1571SOL    HW2 5613   6.735   3.677   1.324
 1572SOL     OW 5614   1.481   0.102   1.836
 1572SOL    HW1 5615   1.495   0.055   1.749
 1572SOL    HW2 5616   1.483   0.036   1.911
 1573SOL     OW 5617   4.162   0.300   1.972
 1573SOL    HW1 5618   4.072   0.324   1.934
 1573SOL    HW2 5619   4.228   0.370   1.947
 1574SOL     OW 5620   6.622   2.101   2.175
 1574SOL    HW1 5621   6.629   2.165   2.252
 1574SOL    HW2 5622   6.641   2.008   2.206
 1575SOL     OW 5623   2.074   2.017   0.574
 1575SOL    HW1 5624   2.048   1.946   0.510
 1575SOL    HW2 5625   2.156   2.064   0.541
 1576SOL     OW 5626   5.701   6.172   3.980
 1576SOL    HW1 5627   5.763   6.153   3.904
 1576SOL    HW2 5628   5.674   6.268   3.976
 1577SOL     OW 5629   2.611   0.433   5.712
 1577SOL    HW1 5630   2.529   0.386   5.743
 1577SOL    HW2 5631   2.594   0.531   5.706
 1578SOL     OW 5632   5.794   4.552   5.817
 1578SOL    HW1 5633   5.730   4.483   5.783
 1578SOL    HW2 5634   5.746   4.616   5.876
 1579SOL     OW 5635   0.822   0.747   3.684
 1579SOL    HW1 5636   0.875   0.774   3.764
 1579SOL    HW2 5637   0.880   0.751   3.603
 1580SOL     OW 5638   2.969   4.326   5.337
 1580SOL    HW1 5639   3.059   4.294   5.307
 1580SOL    HW2 5640   2.938   4.399   5.277
 1581SOL     OW 5641   6.779   4.604   4.432
 1581SOL    HW1 5642   6.711   4.537   4.459
 1581SOL    HW2 5643   6.757   4.639   4.341
 1582SOL     OW 5644   0.243   4.945   4.463
 1582SOL    HW1 5645   0.304   4.909   4.393
 1582SOL    HW2 5646   0.295   4.958   4.548
 1583SOL     OW 5647   1.641   3.119   3.430
 1583SOL    HW1 5648   1.702   3.128   3.351
 1583SOL    HW2 5649   1.688   3.150   3.512
 1584SOL     OW 5650   2.096   0.037   5.837
 1584SOL    HW1 5651   2.113   0.017   5.741
 1584SOL    HW2 5652   2.044   0.122   5.845
 1585SOL     OW 5653   5.178   1.695   4.191
 1585SOL    HW1 5654   5.220   1.619   4.141
 1585SOL    HW2 5655   5.156   1.769   4.128
 1586SOL     OW 5656   3.844   3.935   2.816
 1586SOL    HW1 5657   3.885   3.948   2.726
 1586SOL    HW2 5658   3.773   3.864   2.810
 1587SOL     OW 5659   3.467   6.780   6.859
 1587SOL    HW1 5660   3.376   6.767   6.898
 1587SOL    HW2 5661   3.461   6.778   6.759
 1588SOL     OW 5662   5.953   2.847   1.855
 1588SOL    HW1 5663   5.878   2.909   1.879
 1588SOL    HW2 5664   5.980   2.863   1.760
 1589SOL     OW 5665   5.828   4.289   4.510
 1589SOL    HW1 5666   5.887   4.348   4.456
 1589SOL    HW2 5667   5.748   4.342   4.541
 1590SOL     OW 5668   1.669   0.445   6.360
 1590SOL    HW1 5669   1.574   0.423   6.342
 1590SOL    HW2 5670   1.675   0.531   6.410
 1591SOL     OW 5671   1.093   4.535   2.092
 1591SOL    HW1 5672   1.102   4.630   2.063
 1591SOL    HW2 5673   1.110   4.475   2.013
 1592SOL     OW 5674   3.276   3.625   2.675
 1592SOL    HW1 5675   3.183   3.590   2.685
 1592SOL    HW2 5676   3.292   3.653   2.581
 1593SOL     OW 5677   1.115   5.565   4.931
 1593SOL    HW1 5678   1.067   5.626   4.868
 1593SOL    HW2 5679   1.199   5.533   4.889
 1594SOL     OW 5680   6.955   5.065   2.866
 1594SOL    HW1 5681   7.009   4.993   2.820
 1594SOL    HW2 5682   6.904   5.025   2.942
 1595SOL     OW 5683   6.610   4.666   6.304
 1595SOL    HW1 5684   6.708   4.648   6.316
 1595SOL    HW2 5685   6.596   4.765   6.294
 1596SOL     OW 5686   2.672   5.207   5.692
 1596SOL    HW1 5687   2.676   5.108   5.704
 1596SOL    HW2 5688   2.576   5.236   5.689
 1597SOL     OW 5689   3.225   6.154   1.393
 1597SOL    HW1 5690   3.261   6.092   1.324
 1597SOL    HW2 5691   3.126   6.161   1.384
 1598SOL     OW 5692   6.909   5.233   1.191
 1598SOL    HW1 5693   6.867   5.290   1.120
 1598SOL    HW2 5694   7.006   5.254   1.198
 1599SOL     OW 5695   3.769   5.152   0.031
 1599SOL    HW1 5696   3.775   5.166   6.959
 1599SOL    HW2 5697   3.742   5.058   0.051
 1600SOL     OW 5698   4.564   1.197   4.444
 1600SOL    HW1 5699   4.626   1.266   4.407
 1600SOL    HW2 5700   4.617   1.118   4.475
 1601SOL     OW 5701   1.522   5.072   3.988
 1601SOL    HW1 5702   1.451   5.008   4.017
 1601SOL    HW2 5703   1.493   5.118   3.903
 1602SOL     OW 5704   1.053   5.065   3.745
 1602SOL    HW1 5705   1.016   5.095   3.657
 1602SOL    HW2 5706   1.099   5.141   3.790
 1603SOL     OW 5707   6.885   6.749   2.016
 1603SOL    HW1 5708   6.881   6.812   1.939
 1603SOL    HW2 5709   6.822   6.673   1.999
 1604SOL     OW 5710   0.681   5.203   6.585
 1604SOL    HW1 5711   0.703   5.257   6.504
 1604SOL    HW2 5712   0.633   5.260   6.652
 1605SOL     OW 5713   5.667   6.631   3.282
 1605SOL    HW1 5714   5.711   6.719   3.266
 1605SOL    HW2 5715   5.655   6.583   3.195
 1606SOL     OW 5716   5.062   6.818   6.131
 1606SOL    HW1 5717   4.963   6.807   6.136
 1606SOL    HW2 5718   5.085   6.880   6.057
 1607SOL     OW 5719   4.214   2.446   1.157
 1607SOL    HW1 5720   4.267   2.477   1.077
 1607SOL    HW2 5721   4.243   2.354   1.182
 1608SOL     OW 5722   2.513   7.003   0.322
 1608SOL    HW1 5723   2.497   7.018   0.419
 1608SOL    HW2 5724   2.567   0.052   0.285
 1609SOL     OW 5725   4.999   2.126   5.532
 1609SOL    HW1 5726   4.918   2.072   5.557
 1609SOL    HW2 5727   4.972   2.220   5.513
 1610SOL     OW 5728   6.281   5.382   4.397
 1610SOL    HW1 5729   6.355   5.317   4.375
 1610SOL    HW2 5730   6.267   5.383   4.496
 1611SOL     OW 5731   3.004   3.861   1.544
 1611SOL    HW1 5732   3.093   3.824   1.570
 1611SOL    HW2 5733   2.966   3.807   1.469
 1612SOL     OW 5734   2.720   0.924   4.568
 1612SOL    HW1 5735   2.811   0.883   4.564
 1612SOL    HW2 5736   2.689   0.927   4.663
 1613SOL     OW 5737   2.129   5.777   0.634
 1613SOL    HW1 5738   2.124   5.744   0.728
 1613SOL    HW2 5739   2.218   5.817   0.617
 1614SOL     OW 5740   5.988   2.061   0.002
 1614SOL    HW1 5741   5.973   2.042   0.099
 1614SOL    HW2 5742   6.015   1.977   6.982
 1615SOL     OW 5743   6.317   4.525   0.024
 1615SOL    HW1 5744   6.327   4.624   0.037
 1615SOL    HW2 5745   6.404   4.480   0.044
 1616SOL     OW 5746   3.243   2.031   6.077
 1616SOL    HW1 5747   3.313   2.098   6.051
 1616SOL    HW2 5748   3.239   1.959   6.008
 1617SOL     OW 5749   5.075   0.249   3.598
 1617SOL    HW1 5750   4.996   0.194   3.626
 1617SOL    HW2 5751   5.159   0.203   3.627
 1618SOL     OW 5752   5.442   2.772   1.192
 1618SOL    HW1 5753   5.402   2.723   1.115
 1618SOL    HW2 5754   5.525   2.819   1.163
 1619SOL     OW 5755   1.651   3.284   4.538
 1619SOL    HW1 5756   1.729   3.223   4.553
 1619SOL    HW2 5757   1.649   3.355   4.608
 1620SOL     OW 5758   2.921   5.310   1.553
 1620SOL    HW1 5759   3.003   5.260   1.583
 1620SOL    HW2 5760   2.840   5.264   1.589
 1621SOL     OW 5761   1.674   0.969   1.080
 1621SOL    HW1 5762   1.684   1.065   1.055
 1621SOL    HW2 5763   1.717   0.952   1.168
 1622SOL     OW 5764   2.449   2.112   5.003
 1622SOL    HW1 5765   2.431   2.048   5.077
 1622SOL    HW2 5766   2.426   2.205   5.033
 1623SOL     OW 5767   2.856   2.261   5.117
 1623SOL    HW1 5768   2.946   2.287   5.082
 1623SOL    HW2 5769   2.800   2.343   5.130
 1624SOL     OW 5770   2.517   1.403   0.067
 1624SOL    HW1 5771   2.475   1.410   7.004
 1624SOL    HW2 5772   2.532   1.307   0.089
 1625SOL     OW 5773   0.574   5.302   1.856
 1625SOL    HW1 5774   0.571   5.375   1.788
 1625SOL    HW2 5775   0.634   5.228   1.824
 1626SOL     OW 5776   1.834   2.352   6.476
 1626SOL    HW1 5777   1.777   2.294   6.418
 1626SOL    HW2 5778   1.829   2.319   6.571
 1627SOL     OW 5779   5.430   3.026   3.432
 1627SOL    HW1 5780   5.469   3.009   3.523
 1627SOL    HW2 5781   5.462   2.956   3.369
 1628SOL     OW 5782   3.078   4.304   0.376
 1628SOL    HW1 5783   3.013   4.238   0.338
 1628SOL    HW2 5784   3.049   4.397   0.352
 1629SOL     OW 5785   3.839   2.150   3.869
 1629SOL    HW1 5786   3.903   2.077   3.894
 1629SOL    HW2 5787   3.745   2.115   3.874
 1630SOL     OW 5788   0.178   4.850   5.178
 1630SOL    HW1 5789   0.116   4.918   5.138
 1630SOL    HW2 5790   0.206   4.879   5.269
 1631SOL     OW 5791   6.948   6.883   5.732
 1631SOL    HW1 5792   7.020   6.835   5.783
 1631SOL    HW2 5793   6.859   6.853   5.766
 1632SOL     OW 5794   6.158   0.936   1.321
 1632SOL    HW1 5795   6.240   0.927   1.266
 1632SOL    HW2 5796   6.077   0.935   1.262
 1633SOL     OW 5797   6.016   2.500   4.035
 1633SOL    HW1 5798   5.954   2.572   4.007
 1633SOL    HW2 5799   5.973   2.445   4.108
 1634SOL     OW 5800   3.477   1.122   6.602
 1634SOL    HW1 5801   3.479   1.041   6.661
 1634SOL    HW2 5802   3.447   1.096   6.510
 1635SOL     OW 5803   0.295   5.603   4.642
 1635SOL    HW1 5804   0.346   5.637   4.562
 1635SOL    HW2 5805   0.259   5.512   4.622
 1636SOL     OW 5806   2.051   6.007   1.258
 1636SOL    HW1 5807   2.070   5.947   1.181
 1636SOL    HW2 5808   1.964   6.055   1.244
 1637SOL     OW 5809   0.200   3.362   1.737
 1637SOL    HW1 5810   0.209   3.461   1.734
 1637SOL    HW2 5811   0.109   3.337   1.772
 1638SOL     OW 5812   0.699   3.407   5.192
 1638SOL    HW1 5813   0.778   3.401   5.253
 1638SOL    HW2 5814   0.667   3.502   5.189
 1639SOL     OW 5815   5.560   5.279   2.296
 1639SOL    HW1 5816   5.487   5.212   2.287
 1639SOL    HW2 5817   5.545   5.335   2.377
 1640SOL     OW 5818   6.384   0.427   1.187
 1640SOL    HW1 5819   6.462   0.489   1.180
 1640SOL    HW2 5820   6.305   0.466   1.139
 1641SOL     OW 5821   5.744   2.568   5.370
 1641SOL    HW1 5822   5.804   2.607   5.299
 1641SOL    HW2 5823   5.669   2.631   5.389
 1642SOL     OW 5824   6.778   2.205   1.606
 1642SOL    HW1 5825   6.795   2.163   1.696
 1642SOL    HW2 5826   6.861   2.199   1.551
 1643SOL     OW 5827   4.570   0.482   5.523
 1643SOL    HW1 5828   4.601   0.574   5.547
 1643SOL    HW2 5829   4.591   0.419   5.598
 1644SOL     OW 5830   3.146   1.100   1.527
 1644SOL    HW1 5831   3.104   1.044   1.598
 1644SOL    HW2 5832   3.198   1.174   1.569
 1645SOL     OW 5833   2.342   6.995   6.480
 1645SOL    HW1 5834   2.434   7.006   6.517
 1645SOL    HW2 5835   2.348   6.961   6.386
 1646SOL     OW 5836   0.836   3.931   1.109
 1646SOL    HW1 5837   0.931   3.900   1.118
 1646SOL    HW2 5838   0.779   3.855   1.078
 1647SOL     OW 5839   5.485   3.295   3.750
 1647SOL    HW1 5840   5.415   3.223   3.759
 1647SOL    HW2 5841   5.485   3.328   3.656
 1648SOL     OW 5842   4.709   7.023   2.186
 1648SOL    HW1 5843   4.670   6.932   2.199
 1648SOL    HW2 5844   4.732   0.008   2.089
 1649SOL     OW 5845   3.388   0.545   3.635
 1649SOL    HW1 5846   3.437   0.576   3.553
 1649SOL    HW2 5847   3.290   0.557   3.621
 1650SOL     OW 5848   3.012   6.568   3.709
 1650SOL    HW1 5849   3.042   6.625   3.785
 1650SOL    HW2 5850   2.936   6.614   3.662
 1651SOL     OW 5851   1.132   6.991   0.470
 1651SOL    HW1 5852   1.149   6.966   0.375
 1651SOL    HW2 5853   1.048   0.017   0.477
 1652SOL     OW 5854   2.757   2.325   1.707
 1652SOL    HW1 5855   2.762   2.227   1.684
 1652SOL    HW2 5856   2.827   2.346   1.775
 1653SOL     OW 5857   1.031   5.769   1.385
 1653SOL    HW1 5858   1.073   5.837   1.325
 1653SOL    HW2 5859   0.990   5.697   1.330
 1654SOL     OW 5860   0.267   3.381   3.197
 1654SOL    HW1 5861   0.241   3.424   3.111
 1654SOL    HW2 5862   0.321   3.446   3.251
 1655SOL     OW 5863   5.032   4.837   6.425
 1655SOL    HW1 5864   5.084   4.813   6.507
 1655SOL    HW2 5865   5.074   4.796   6.345
 1656SOL     OW 5866   0.920   5.126   3.516
 1656SOL    HW1 5867   0.832   5.079   3.516
 1656SOL    HW2 5868   0.977   5.090   3.443
 1657SOL     OW 5869   1.669   0.806   5.233
 1657SOL    HW1 5870   1.673   0.749   5.315
 1657SOL    HW2 5871   1.631   0.752   5.158
 1658SOL     OW 5872   6.146   6.029   3.034
 1658SOL    HW1 5873   6.170   5.932   3.040
 1658SOL    HW2 5874   6.047   6.039   3.038
 1659SOL     OW 5875   3.903   2.784   5.849
 1659SOL    HW1 5876   3.966   2.764   5.774
 1659SOL    HW2 5877   3.835   2.711   5.856
 1660SOL     OW 5878   1.928   5.746   3.554
 1660SOL    HW1 5879   1.884   5.747   3.644
 1660SOL    HW2 5880   1.996   5.672   3.552
 1661SOL     OW 5881   2.974   0.256   2.226
 1661SOL    HW1 5882   3.065   0.220   2.205
 1661SOL    HW2 5883   2.983   0.348   2.264
 1662SOL     OW 5884   0.667   0.694   3.226
 1662SOL    HW1 5885   0.595   0.639   3.184
 1662SOL    HW2 5886   0.638   0.724   3.317
 1663SOL     OW 5887   2.740   0.027   2.922
 1663SOL    HW1 5888   2.750   0.113   2.973
 1663SOL    HW2 5889   2.830   7.021   2.894
 1664SOL     OW 5890   2.180   5.816   3.847
 1664SOL    HW1 5891   2.111   5.887   3.846
 1664SOL    HW2 5892   2.246   5.832   3.773
 1665SOL     OW 5893   6.819   0.700   4.023
 1665SOL    HW1 5894   6.753   0.627   4.040
 1665SOL    HW2 5895   6.812   0.769   4.096
 1666SOL     OW 5896   5.780   2.858   6.227
 1666SOL    HW1 5897   5.737   2.819   6.309
 1666SOL    HW2 5898   5.852   2.921   6.254
 1667SOL     OW 5899   6.357   0.275   5.782
 1667SOL    HW1 5900   6.282   0.320   5.831
 1667SOL    HW2 5901   6.443   0.319   5.806
 1668SOL     OW 5902   3.639   1.279   5.566
 1668SOL    HW1 5903   3.670   1.286   5.661
 1668SOL    HW2 5904   3.553   1.229   5.562
 1669SOL     OW 5905   5.752   6.588   6.139
 1669SOL    HW1 5906   5.802   6.661   6.093
 1669SOL    HW2 5907   5.781   6.500   6.103
 1670SOL     OW 5908   5.456   4.176   5.943
 1670SOL    HW1 5909   5.548   4.182   5.982
 1670SOL    HW2 5910   5.457   4.111   5.867
 1671SOL     OW 5911   5.172   3.181   0.204
 1671SOL    HW1 5912   5.077   3.148   0.203
 1671SOL    HW2 5913   5.174   3.276   0.233
 1672SOL     OW 5914   1.863   5.042   2.644
 1672SOL    HW1 5915   1.822   4.971   2.702
 1672SOL    HW2 5916   1.843   5.132   2.683
 1673SOL     OW 5917   7.017   2.812   4.029
 1673SOL    HW1 5918   0.070   2.774   3.983
 1673SOL    HW2 5919   7.024   2.795   4.127
 1674SOL     OW 5920   0.673   4.299   6.497
 1674SOL    HW1 5921   0.615   4.218   6.484
 1674SOL    HW2 5922   0.637   4.374   6.443
 1675SOL     OW 5923   4.756   1.800   6.808
 1675SOL    HW1 5924   4.798   1.796   6.717
 1675SOL    HW2 5925   4.725   1.893   6.826
 1676SOL     OW 5926   1.366   6.952   2.696
 1676SOL    HW1 5927   1.380   6.857   2.723
 1676SOL    HW2 5928   1.443   6.982   2.640
 1677SOL     OW 5929   5.838   1.832   5.044
 1677SOL    HW1 5930   5.863   1.736   5.061
 1677SOL    HW2 5931   5.916   1.880   5.003
 1678SOL     OW 5932   5.168   0.325   1.398
 1678SOL    HW1 5933   5.126   0.297   1.312
 1678SOL    HW2 5934   5.188   0.245   1.454
 1679SOL     OW 5935   0.522   3.392   6.818
 1679SOL    HW1 5936   0.519   3.472   6.879
 1679SOL    HW2 5937   0.483   3.417   6.729
 1680SOL     OW 5938   1.111   1.710   4.477
 1680SOL    HW1 5939   1.150   1.663   4.398
 1680SOL    HW2 5940   1.124   1.809   4.466
 1681SOL     OW 5941   6.468   5.414   1.136
 1681SOL    HW1 5942   6.507   5.505   1.152
 1681SOL    HW2 5943   6.369   5.421   1.126
 1682SOL     OW 5944   6.520   3.593   5.448
 1682SOL    HW1 5945   6.510   3.604   5.547
 1682SOL    HW2 5946   6.575   3.512   5.428
 1683SOL     OW 5947   5.466   6.044   0.953
 1683SOL    HW1 5948   5.531   5.996   0.895
 1683SOL    HW2 5949   5.435   5.984   1.027
 1684SOL     OW 5950   1.000   6.128   4.676
 1684SOL    HW1 5951   1.070   6.065   4.709
 1684SOL    HW2 5952   0.952   6.167   4.754
 1685SOL     OW 5953   1.450   1.450   6.971
 1685SOL    HW1 5954   1.530   1.409   7.015
 1685SOL    HW2 5955   1.395   1.498   0.012
 1686SOL     OW 5956   1.539   6.931   0.194
 1686SOL    HW1 5957   1.510   6.957   0.102
 1686SOL    HW2 5958   1.520   7.005   0.258
 1687SOL     OW 5959   1.464   6.552   1.858
 1687SOL    HW1 5960   1.421   6.554   1.768
 1687SOL    HW2 5961   1.549   6.499   1.853
 1688SOL     OW 5962   1.164   2.224   2.987
 1688SOL    HW1 5963   1.151   2.202   3.084
 1688SOL    HW2 5964   1.138   2.320   2.971
 1689SOL     OW 5965   2.136   1.707   2.972
 1689SOL    HW1 5966   2.152   1.797   3.014
 1689SOL    HW2 5967   2.038   1.696   2.953
 1690SOL     OW 5968   1.303   1.246   1.078
 1690SOL    HW1 5969   1.402   1.246   1.061
 1690SOL    HW2 5970   1.258   1.302   1.009
 1691SOL     OW 5971   5.255   4.382   2.686
 1691SOL    HW1 5972   5.295   4.423   2.768
 1691SOL    HW2 5973   5.201   4.451   2.636
 1692SOL     OW 5974   1.345   0.364   2.643
 1692SOL    HW1 5975   1.372   0.367   2.547
 1692SOL    HW2 5976   1.291   0.281   2.660
 1693SOL     OW 5977   2.859   2.246   3.510
 1693SOL    HW1 5978   2.875   2.203   3.599
 1693SOL    HW2 5979   2.939   2.300   3.484
 1694SOL     OW 5980   5.430   6.004   5.005
 1694SOL    HW1 5981   5.438   6.103   4.990
 1694SOL    HW2 5982   5.362   5.966   4.943
 1695SOL     OW 5983   2.904   2.671   5.802
 1695SOL    HW1 5984   2.907   2.584   5.851
 1695SOL    HW2 5985   2.940   2.658   5.709
 1696SOL     OW 5986   4.250   5.951   0.883
 1696SOL    HW1 5987   4.337   5.985   0.918
 1696SOL    HW2 5988   4.192   5.923   0.960
 1697SOL     OW 5989   1.011   1.272   1.781
 1697SOL    HW1 5990   1.050   1.255   1.691
 1697SOL    HW2 5991   0.991   1.370   1.790
 1698SOL     OW 5992   4.733   1.847   1.657
 1698SOL    HW1 5993   4.696   1.936   1.631
 1698SOL    HW2 5994   4.831   1.845   1.638
 1699SOL     OW 5995   2.227   3.352   1.164
 1699SOL    HW1 5996   2.221   3.335   1.263
 1699SOL    HW2 5997   2.242   3.265   1.117
 1700SOL     OW 5998   6.705   3.335   3.335
 1700SOL    HW1 5999   6.654   3.304   3.254
 1700SOL    HW2 6000   6.682   3.276   3.412
 1701SOL     OW 6001   5.659   3.325   4.261
 1701SOL    HW1 6002   5.598   3.405   4.262
 1701SOL    HW2 6003   5.687   3.306   4.167
 1702SOL     OW 6004   4.622   3.549   0.645
 1702SOL    HW1 6005   4.693   3.487   0.612
 1702SOL    HW2 6006   4.639   3.570   0.741
 1703SOL     OW 6007   1.685   3.670   0.160
 1703SOL    HW1 6008   1.701   3.733   0.084
 1703SOL    HW2 6009   1.657   3.581   0.124
 1704SOL     OW 6010   0.885   1.076   2.271
 1704SOL    HW1 6011   0.900   1.163   2.224
 1704SOL    HW2 6012   0.823   1.090   2.348
 1705SOL     OW 6013   4.354   3.134   1.689
 1705SOL    HW1 6014   4.332   3.230   1.704
 1705SOL    HW2 6015   4.417   3.103   1.760
 1706SOL     OW 6016   3.268   0.701   0.365
 1706SOL    HW1 6017   3.321   0.782   0.339
 1706SOL    HW2 6018   3.328   0.634   0.409
 1707SOL     OW 6019   5.337   2.102   3.561
 1707SOL    HW1 6020   5.395   2.181   3.581
 1707SOL    HW2 6021   5.296   2.114   3.471
 1708SOL     OW 6022   0.247   5.101   3.152
 1708SOL    HW1 6023   0.278   5.147   3.069
 1708SOL    HW2 6024   0.198   5.017   3.128
 1709SOL     OW 6025   2.665   6.147   2.310
 1709SOL    HW1 6026   2.685   6.238   2.347
 1709SOL    HW2 6027   2.688   6.078   2.378
 1710SOL     OW 6028   0.658   5.636   4.534
 1710SOL    HW1 6029   0.708   5.644   4.620
 1710SOL    HW2 6030   0.718   5.657   4.457
 1711SOL     OW 6031   1.481   4.721   5.567
 1711SOL    HW1 6032   1.400   4.779   5.557
 1711SOL    HW2 6033   1.512   4.691   5.476
 1712SOL     OW 6034   0.619   4.388   0.652
 1712SOL    HW1 6035   0.543   4.323   0.660
 1712SOL    HW2 6036   0.697   4.343   0.610
 1713SOL     OW 6037   1.200   2.851   1.082
 1713SOL    HW1 6038   1.255   2.867   1.000
 1713SOL    HW2 6039   1.110   2.893   1.071
 1714SOL     OW 6040   3.120   1.747   0.801
 1714SOL    HW1 6041   3.024   1.777   0.797
 1714SOL    HW2 6042   3.140   1.690   0.722
 1715SOL     OW 6043   0.118   3.141   3.477
 1715SOL    HW1 6044   0.092   3.238   3.474
 1715SOL    HW2 6045   0.097   3.103   3.567
 1716SOL     OW 6046   0.301   6.209   0.253
 1716SOL    HW1 6047   0.329   6.253   0.338
 1716SOL    HW2 6048   0.244   6.273   0.199
 1717SOL     OW 6049   2.911   0.535   6.730
 1717SOL    HW1 6050   3.000   0.495   6.749
 1717SOL    HW2 6051   2.861   0.548   6.815
 1718SOL     OW 6052   1.253   4.499   6.427
 1718SOL    HW1 6053   1.347   4.489   6.458
 1718SOL    HW2 6054   1.194   4.523   6.504
 1719SOL     OW 6055   2.220   3.587   1.425
 1719SOL    HW1 6056   2.221   3.488   1.417
 1719SOL    HW2 6057   2.271   3.615   1.506
 1720SOL     OW 6058   6.754   0.421   1.274
 1720SOL    HW1 6059   6.720   0.493   1.213
 1720SOL    HW2 6060   6.714   0.433   1.365
 1721SOL     OW 6061   2.346   6.139   3.353
 1721SOL    HW1 6062   2.444   6.144   3.337
 1721SOL    HW2 6063   2.302   6.224   3.323
 1722SOL     OW 6064   6.031   6.473   2.447
 1722SOL    HW1 6065   6.075   6.502   2.362
 1722SOL    HW2 6066   5.957   6.537   2.469
 1723SOL     OW 6067   6.615   1.618   2.502
 1723SOL    HW1 6068   6.628   1.716   2.490
 1723SOL    HW2 6069   6.644   1.570   2.419
 1724SOL     OW 6070   4.985   0.919   0.290
 1724SOL    HW1 6071   4.913   0.859   0.324
 1724SOL    HW2 6072   4.945   0.986   0.227
 1725SOL     OW 6073   3.891   4.337   1.703
 1725SOL    HW1 6074   3.823   4.267   1.725
 1725SOL    HW2 6075   3.955   4.300   1.634
 1726SOL     OW 6076   0.578   4.190   4.506
 1726SOL    HW1 6077   0.644   4.204   4.579
 1726SOL    HW2 6078   0.538   4.098   4.514
 1727SOL     OW 6079   3.630   3.889   5.401
 1727SOL    HW1 6080   3.546   3.905   5.351
 1727SOL    HW2 6081   3.613   3.899   5.499
 1728SOL     OW 6082   4.454   4.497   3.027
 1728SOL    HW1 6083   4.368   4.544   3.006
 1728SOL    HW2 6084   4.493   4.461   2.943
 1729SOL     OW 6085   2.033   3.809   3.001
 1729SOL    HW1 6086   1.956   3.818   3.064
 1729SOL    HW2 6087   2.046   3.895   2.952
 1730SOL     OW 6088   5.901   2.703   5.198
 1730SOL    HW1 6089   5.926   2.747   5.285
 1730SOL    HW2 6090   5.898   2.773   5.126
 1731SOL     OW 6091   1.728   5.281   0.875
 1731SOL    HW1 6092   1.673   5.204   0.843
 1731SOL    HW2 6093   1.805   5.295   0.813
 1732SOL     OW 6094   0.408   4.458   6.851
 1732SOL    HW1 6095   0.481   4.519   6.821
 1732SOL    HW2 6096   0.324   4.510   6.864
 1733SOL     OW 6097   1.777   3.334   0.660
 1733SOL    HW1 6098   1.704   3.280   0.618
 1733SOL    HW2 6099   1.791   3.304   0.754
 1734SOL     OW 6100   4.895   2.120   1.163
 1734SOL    HW1 6101   4.853   2.031   1.180
 1734SOL    HW2 6102   4.824   2.189   1.150
 1735SOL     OW 6103   6.549   5.220   1.331
 1735SOL    HW1 6104   6.553   5.281   1.410
 1735SOL    HW2 6105   6.539   5.273   1.248
 1736SOL     OW 6106   3.773   3.206   0.155
 1736SOL    HW1 6107   3.721   3.267   0.215
 1736SOL    HW2 6108   3.724   3.194   0.069
 1737SOL     OW 6109   2.068   6.553   3.489
 1737SOL    HW1 6110   2.065   6.488   3.565
 1737SOL    HW2 6111   2.040   6.508   3.405
 1738SOL     OW 6112   2.163   3.163   2.391
 1738SOL    HW1 6113   2.136   3.204   2.304
 1738SOL    HW2 6114   2.240   3.101   2.377
 1739SOL     OW 6115   4.363   1.889   5.010
 1739SOL    HW1 6116   4.299   1.961   5.034
 1739SOL    HW2 6117   4.406   1.910   4.922
 1740SOL     OW 6118   0.579   1.306   5.798
 1740SOL    HW1 6119   0.524   1.256   5.731
 1740SOL    HW2 6120   0.658   1.251   5.823
 1741SOL     OW 6121   1.174   0.116   2.691
 1741SOL    HW1 6122   1.240   0.041   2.689
 1741SOL    HW2 6123   1.149   0.140   2.597
 1742SOL     OW 6124   6.391   0.719   4.600
 1742SOL    HW1 6125   6.373   0.665   4.518
 1742SOL    HW2 6126   6.438   0.803   4.575
 1743SOL     OW 6127   4.214   1.249   1.317
 1743SOL    HW1 6128   4.281   1.282   1.383
 1743SOL    HW2 6129   4.133   1.215   1.365
 1744SOL     OW 6130   3.088   0.469   1.325
 1744SOL    HW1 6131   3.171   0.507   1.365
 1744SOL    HW2 6132   3.009   0.521   1.357
 1745SOL     OW 6133   0.342   2.375   2.913
 1745SOL    HW1 6134   0.288   2.459   2.907
 1745SOL    HW2 6135   0.433   2.392   2.876
 1746SOL     OW 6136   2.614   1.015   5.913
 1746SOL    HW1 6137   2.606   1.109   5.946
 1746SOL    HW2 6138   2.649   1.014   5.819
 1747SOL     OW 6139   3.236   0.308   2.032
 1747SOL    HW1 6140   3.201   0.402   2.027
 1747SOL    HW2 6141   3.251   0.274   1.939
 1748SOL     OW 6142   5.236   2.048   2.499
 1748SOL    HW1 6143   5.146   2.068   2.459
 1748SOL    HW2 6144   5.307   2.082   2.438
 1749SOL     OW 6145   4.075   0.279   6.389
 1749SOL    HW1 6146   4.087   0.357   6.327
 1749SOL    HW2 6147   4.154   0.274   6.450
 1750SOL     OW 6148   4.408   1.286   3.136
 1750SOL    HW1 6149   4.382   1.355   3.204
 1750SOL    HW2 6150   4.490   1.317   3.088
 1751SOL     OW 6151   1.728   5.454   3.647
 1751SOL    HW1 6152   1.663   5.378   3.644
 1751SOL    HW2 6153   1.691   5.526   3.706
 1752SOL     OW 6154   6.221   1.945   0.550
 1752SOL    HW1 6155   6.141   1.907   0.503
 1752SOL    HW2 6156   6.271   1.871   0.595
 1753SOL     OW 6157   1.608   0.192   1.450
 1753SOL    HW1 6158   1.570   0.115   1.502
 1753SOL    HW2 6159   1.541   0.224   1.383
 1754SOL     OW 6160   4.007   3.184   0.540
 1754SOL    HW1 6161   4.101   3.179   0.575
 1754SOL    HW2 6162   3.959   3.260   0.583
 1755SOL     OW 6163   5.543   4.162   0.908
 1755SOL    HW1 6164   5.505   4.247   0.946
 1755SOL    HW2 6165   5.602   4.119   0.976
 1756SOL     OW 6166   6.780   5.565   4.519
 1756SOL    HW1 6167   6.732   5.483   4.488
 1756SOL    HW2 6168   6.851   5.540   4.585
 1757SOL     OW 6169   3.133   6.635   4.767
 1757SOL    HW1 6170   3.145   6.633   4.867
 1757SOL    HW2 6171   3.088   6.721   4.741
 1758SOL     OW 6172   1.995   0.511   3.297
 1758SOL    HW1 6173   1.914   0.511   3.355
 1758SOL    HW2 6174   1.977   0.458   3.214
 1759SOL     OW 6175   0.566   5.838   6.425
 1759SOL    HW1 6176   0.557   5.874   6.332
 1759SOL    HW2 6177   0.644   5.883   6.470
 1760SOL     OW 6178   5.926   0.644   3.027
 1760SOL    HW1 6179   5.942   0.725   3.084
 1760SOL    HW2 6180   5.985   0.648   2.947
 1761SOL     OW 6181   6.774   1.984   1.055
 1761SOL    HW1 6182   6.822   1.923   1.118
 1761SOL    HW2 6183   6.736   2.061   1.105
 1762SOL     OW 6184   6.158   1.547   6.134
 1762SOL    HW1 6185   6.173   1.566   6.231
 1762SOL    HW2 6186   6.062   1.564   6.112
 1763SOL     OW 6187   2.118   3.890   4.086
 1763SOL    HW1 6188   2.026   3.920   4.110
 1763SOL    HW2 6189   2.154   3.832   4.158
 1764SOL     OW 6190   0.223   3.443   3.841
 1764SOL    HW1 6191   0.272   3.407   3.762
 1764SOL    HW2 6192   0.252   3.395   3.924
 1765SOL     OW 6193   2.740   2.181   6.448
 1765SOL    HW1 6194   2.734   2.125   6.530
 1765SOL    HW2 6195   2.835   2.210   6.433
 1766SOL     OW 6196   5.317   2.824   5.018
 1766SOL    HW1 6197   5.379   2.878   5.074
 1766SOL    HW2 6198   5.249   2.779   5.076
 1767SOL     OW 6199   5.468   3.153   2.306
 1767SOL    HW1 6200   5.435   3.159   2.400
 1767SOL    HW2 6201   5.428   3.226   2.251
 1768SOL     OW 6202   5.135   6.510   4.087
 1768SOL    HW1 6203   5.161   6.420   4.121
 1768SOL    HW2 6204   5.168   6.580   4.150
 1769SOL     OW 6205   3.927   1.301   2.521
 1769SOL    HW1 6206   3.990   1.367   2.561
 1769SOL    HW2 6207   3.849   1.348   2.480
 1770SOL     OW 6208   2.384   5.958   5.245
 1770SOL    HW1 6209   2.390   6.026   5.319
 1770SOL    HW2 6210   2.439   5.988   5.167
 1771SOL     OW 6211   4.246   5.685   6.816
 1771SOL    HW1 6212   4.253   5.589   6.841
 1771SOL    HW2 6213   4.156   5.703   6.777
 1772SOL     OW 6214   3.509   6.271   2.884
 1772SOL    HW1 6215   3.514   6.319   2.972
 1772SOL    HW2 6216   3.423   6.295   2.839
 1773SOL     OW 6217   1.450   5.652   6.328
 1773SOL    HW1 6218   1.491   5.614   6.245
 1773SOL    HW2 6219   1.499   5.617   6.408
 1774SOL     OW 6220   4.326   5.675   1.559
 1774SOL    HW1 6221   4.317   5.762   1.608
 1774SOL    HW2 6222   4.364   5.606   1.620
 1775SOL     OW 6223   0.654   3.861   2.201
 1775SOL    HW1 6224   0.680   3.815   2.286
 1775SOL    HW2 6225   0.611   3.795   2.140
 1776SOL     OW 6226   3.698   6.202   5.017
 1776SOL    HW1 6227   3.730   6.211   5.111
 1776SOL    HW2 6228   3.613   6.151   5.015
 1777SOL     OW 6229   4.089   6.165   0.769
 1777SOL    HW1 6230   4.085   6.067   0.790
 1777SOL    HW2 6231   4.022   6.213   0.826
 1778SOL     OW 6232   5.226   3.627   5.650
 1778SOL    HW1 6233   5.179   3.542   5.674
 1778SOL    HW2 6234   5.284   3.656   5.726
 1779SOL     OW 6235   3.893   0.418   5.027
 1779SOL    HW1 6236   3.888   0.393   5.123
 1779SOL    HW2 6237   3.810   0.467   5.000
 1780SOL     OW 6238   3.249   3.266   6.222
 1780SOL    HW1 6239   3.305   3.198   6.268
 1780SOL    HW2 6240   3.307   3.339   6.187
 1781SOL     OW 6241   4.012   5.373   2.952
 1781SOL    HW1 6242   3.951   5.333   3.020
 1781SOL    HW2 6243   4.043   5.463   2.982
 1782SOL     OW 6244   2.889   1.083   3.413
 1782SOL    HW1 6245   2.957   1.070   3.341
 1782SOL    HW2 6246   2.802   1.112   3.371
 1783SOL     OW 6247   1.946   5.913   6.785
 1783SOL    HW1 6248   1.981   5.951   6.700
 1783SOL    HW2 6249   1.986   5.961   6.863
 1784SOL     OW 6250   3.198   0.092   6.042
 1784SOL    HW1 6251   3.146   0.153   6.102
 1784SOL    HW2 6252   3.192   7.025   6.077
 1785SOL     OW 6253   6.380   3.297   2.673
 1785SOL    HW1 6254   6.393   3.290   2.574
 1785SOL    HW2 6255   6.417   3.384   2.706
 1786SOL     OW 6256   2.814   2.292   0.533
 1786SOL    HW1 6257   2.751   2.216   0.516
 1786SOL    HW2 6258   2.908   2.259   0.530
 1787SOL     OW 6259   3.354   1.633   6.139
 1787SOL    HW1 6260   3.352   1.681   6.051
 1787SOL    HW2 6261   3.272   1.657   6.191
 1788SOL     OW 6262   1.789   5.230   5.478
 1788SOL    HW1 6263   1.729   5.195   5.406
 1788SOL    HW2 6264   1.883   5.200   5.461
 1789SOL     OW 6265   6.126   1.537   0.253
 1789SOL    HW1 6266   6.221   1.520   0.228
 1789SOL    HW2 6267   6.075   1.565   0.171
 1790SOL     OW 6268   4.030   6.458   3.782
 1790SOL    HW1 6269   4.121   6.499   3.776
 1790SOL    HW2 6270   3.973   6.512   3.844
 1791SOL     OW 6271   6.962   6.927   2.592
 1791SOL    HW1 6272   0.003   6.997   2.570
 1791SOL    HW2 6273   6.939   6.933   2.689
 1792SOL     OW 6274   0.891   3.463   5.390
 1792SOL    HW1 6275   0.913   3.376   5.434
 1792SOL    HW2 6276   0.825   3.513   5.447
 1793SOL     OW 6277   6.958   0.629   3.802
 1793SOL    HW1 6278   0.005   0.695   3.795
 1793SOL    HW2 6279   6.909   0.643   3.888
 1794SOL     OW 6280   5.037   5.469   6.219
 1794SOL    HW1 6281   5.129   5.487   6.186
 1794SOL    HW2 6282   4.971   5.478   6.144
 1795SOL     OW 6283   0.198   2.814   0.662
 1795SOL    HW1 6284   0.128   2.787   0.595
 1795SOL    HW2 6285   0.156   2.821   0.752
 1796SOL     OW 6286   2.398   0.760   5.894
 1796SOL    HW1 6287   2.498   0.768   5.887
 1796SOL    HW2 6288   2.355   0.829   5.836
 1797SOL     OW 6289   1.178   6.701   0.555
 1797SOL    HW1 6290   1.266   6.663   0.524
 1797SOL    HW2 6291   1.180   6.800   0.545
 1798SOL     OW 6292   4.707   2.571   3.167
 1798SOL    HW1 6293   4.726   2.474   3.156
 1798SOL    HW2 6294   4.683   2.589   3.262
 1799SOL     OW 6295   0.810   2.201   6.250
 1799SOL    HW1 6296   0.790   2.298   6.263
 1799SOL    HW2 6297   0.909   2.186   6.259
 1800SOL     OW 6298   4.198   4.543   1.284
 1800SOL    HW1 6299   4.280   4.543   1.227
 1800SOL    HW2 6300   4.170   4.449   1.302
 1801SOL     OW 6301   0.085   0.099   2.543
 1801SOL    HW1 6302   0.045   0.169   2.602
 1801SOL    HW2 6303   0.167   0.135   2.499
 1802SOL     OW 6304   6.392   5.663   4.626
 1802SOL    HW1 6305   6.369   5.573   4.663
 1802SOL    HW2 6306   6.328   5.687   4.553
 1803SOL     OW 6307   0.103   5.516   0.318
 1803SOL    HW1 6308   0.010   5.516   0.281
 1803SOL    HW2 6309   0.159   5.582   0.269
 1804SOL     OW 6310   3.061   3.900   5.299
 1804SOL    HW1 6311   2.983   3.958   5.323
 1804SOL    HW2 6312   3.030   3.805   5.290
 1805SOL     OW 6313   5.177   3.760   6.024
 1805SOL    HW1 6314   5.124   3.790   6.103
 1805SOL    HW2 6315   5.147   3.669   5.997
 1806SOL     OW 6316   1.781   6.872   1.260
 1806SOL    HW1 6317   1.868   6.908   1.224
 1806SOL    HW2 6318   1.734   6.945   1.309
 1807SOL     OW 6319   6.266   1.975   4.841
 1807SOL    HW1 6320   6.316   1.987   4.927
 1807SOL    HW2 6321   6.282   1.883   4.806
 1808SOL     OW 6322   0.622   4.516   4.424
 1808SOL    HW1 6323   0.587   4.423   4.414
 1808SOL    HW2 6324   0.556   4.571   4.476
 1809SOL     OW 6325   2.756   2.215   5.956
 1809SOL    HW1 6326   2.685   2.170   5.904
 1809SOL    HW2 6327   2.840   2.160   5.954
 1810SOL     OW 6328   3.185   6.439   2.954
 1810SOL    HW1 6329   3.093   6.475   2.973
 1810SOL    HW2 6330   3.189   6.405   2.860
 1811SOL     OW 6331   6.144   5.379   3.330
 1811SOL    HW1 6332   6.058   5.353   3.374
 1811SOL    HW2 6333   6.126   5.407   3.236
 1812SOL     OW 6334   4.006   5.687   5.767
 1812SOL    HW1 6335   3.980   5.735   5.851
 1812SOL    HW2 6336   4.047   5.598   5.790
 1813SOL     OW 6337   6.054   4.491   0.084
 1813SOL    HW1 6338   6.151   4.485   0.061
 1813SOL    HW2 6339   6.022   4.402   0.118
 1814SOL     OW 6340   4.362   6.977   2.396
 1814SOL    HW1 6341   4.327   0.034   2.438
 1814SOL    HW2 6342   4.322   6.898   2.443
 1815SOL     OW 6343   0.143   0.709   3.109
 1815SOL    HW1 6344   0.167   0.639   3.042
 1815SOL    HW2 6345   0.226   0.746   3.151
 1816SOL     OW 6346   1.580   3.566   6.864
 1816SOL    HW1 6347   1.679   3.550   6.874
 1816SOL    HW2 6348   1.537   3.486   6.821
 1817SOL     OW 6349   1.877   5.370   2.404
 1817SOL    HW1 6350   1.969   5.352   2.369
 1817SOL    HW2 6351   1.874   5.349   2.502
 1818SOL     OW 6352   1.693   0.600   2.913
 1818SOL    HW1 6353   1.709   0.503   2.927
 1818SOL    HW2 6354   1.606   0.626   2.954
 1819SOL     OW 6355   1.616   4.345   1.157
 1819SOL    HW1 6356   1.709   4.353   1.192
 1819SOL    HW2 6357   1.552   4.337   1.233
 1820SOL     OW 6358   5.029   0.429   2.812
 1820SOL    HW1 6359   5.063   0.519   2.839
 1820SOL    HW2 6360   5.011   0.429   2.713
 1821SOL     OW 6361   2.179   2.087   3.256
 1821SOL    HW1 6362   2.120   2.006   3.251
 1821SOL    HW2 6363   2.274   2.058   3.261
 1822SOL     OW 6364   3.413   2.661   1.796
 1822SOL    HW1 6365   3.421   2.761   1.796
 1822SOL    HW2 6366   3.333   2.635   1.742
 1823SOL     OW 6367   4.375   6.622   2.220
 1823SOL    HW1 6368   4.411   6.533   2.194
 1823SOL    HW2 6369   4.286   6.636   2.178
 1824SOL     OW 6370   4.745   2.475   1.436
 1824SOL    HW1 6371   4.686   2.479   1.516
 1824SOL    HW2 6372   4.791   2.563   1.423
 1825SOL     OW 6373   1.248   0.299   1.500
 1825SOL    HW1 6374   1.298   0.276   1.417
 1825SOL    HW2 6375   1.215   0.393   1.495
 1826SOL     OW 6376   2.992   0.351   0.014
 1826SOL    HW1 6377   3.040   0.356   0.101
 1826SOL    HW2 6378   2.938   0.267   0.010
 1827SOL     OW 6379   6.669   5.706   1.615
 1827SOL    HW1 6380   6.736   5.698   1.690
 1827SOL    HW2 6381   6.578   5.719   1.654
 1828SOL     OW 6382   0.518   2.602   6.283
 1828SOL    HW1 6383   0.491   2.607   6.379
 1828SOL    HW2 6384   0.496   2.688   6.237
 1829SOL     OW 6385   5.670   5.814   2.797
 1829SOL    HW1 6386   5.641   5.845   2.707
 1829SOL    HW2 6387   5.631   5.874   2.867
 1830SOL     OW 6388   4.790   6.132   3.208
 1830SOL    HW1 6389   4.834   6.125   3.297
 1830SOL    HW2 6390   4.844   6.083   3.140
 1831SOL     OW 6391   5.346   6.483   1.863
 1831SOL    HW1 6392   5.414   6.411   1.851
 1831SOL    HW2 6393   5.307   6.507   1.773
 1832SOL     OW 6394   4.606   2.517   1.005
 1832SOL    HW1 6395   4.696   2.531   0.965
 1832SOL    HW2 6396   4.595   2.574   1.086
 1833SOL     OW 6397   4.450   0.602   4.720
 1833SOL    HW1 6398   4.366   0.557   4.749
 1833SOL    HW2 6399   4.427   0.680   4.661
 1834SOL     OW 6400   3.760   3.409   1.259
 1834SOL    HW1 6401   3.713   3.324   1.283
 1834SOL    HW2 6402   3.801   3.449   1.342
 1835SOL     OW 6403   1.450   5.276   1.031
 1835SOL    HW1 6404   1.444   5.318   1.122
 1835SOL    HW2 6405   1.393   5.194   1.028
 1836SOL     OW 6406   0.423   0.157   0.596
 1836SOL    HW1 6407   0.355   0.116   0.535
 1836SOL    HW2 6408   0.510   0.108   0.587
 1837SOL     OW 6409   1.037   2.413   4.380
 1837SOL    HW1 6410   1.110   2.406   4.447
 1837SOL    HW2 6411   1.058   2.486   4.315
 1838SOL     OW 6412   6.918   2.790   4.499
 1838SOL    HW1 6413   6.882   2.704   4.534
 1838SOL    HW2 6414   6.849   2.862   4.511
 1839SOL     OW 6415   6.415   2.810   5.462
 1839SOL    HW1 6416   6.418   2.765   5.551
 1839SOL    HW2 6417   6.506   2.807   5.421
 1840SOL     OW 6418   2.487   5.574   0.391
 1840SOL    HW1 6419   2.512   5.641   0.322
 1840SOL    HW2 6420   2.421   5.615   0.455
 1841SOL     OW 6421   2.204   2.842   3.617
 1841SOL    HW1 6422   2.216   2.812   3.711
 1841SOL    HW2 6423   2.284   2.816   3.563
 1842SOL     OW 6424   0.993   4.348   0.702
 1842SOL    HW1 6425   0.967   4.320   0.609
 1842SOL    HW2 6426   0.949   4.287   0.768
 1843SOL     OW 6427   2.589   1.591   4.948
 1843SOL    HW1 6428   2.523   1.641   5.004
 1843SOL    HW2 6429   2.682   1.621   4.971
 1844SOL     OW 6430   3.993   2.208   4.100
 1844SOL    HW1 6431   3.977   2.138   4.169
 1844SOL    HW2 6432   3.920   2.205   4.032
 1845SOL     OW 6433   3.359   0.224   6.893
 1845SOL    HW1 6434   3.419   0.179   6.828
 1845SOL    HW2 6435   3.347   0.166   6.974
 1846SOL     OW 6436   2.699   2.049   6.664
 1846SOL    HW1 6437   2.770   1.979   6.667
 1846SOL    HW2 6438   2.681   2.083   6.756
 1847SOL     OW 6439   0.756   0.521   1.170
 1847SOL    HW1 6440   0.707   0.608   1.177
 1847SOL    HW2 6441   0.696   0.452   1.130
 1848SOL     OW 6442   3.039   6.629   1.935
 1848SOL    HW1 6443   2.957   6.571   1.939
 1848SOL    HW2 6444   3.028   6.706   1.999
 1849SOL     OW 6445   3.423   1.972   6.719
 1849SOL    HW1 6446   3.421   1.906   6.643
 1849SOL    HW2 6447   3.364   2.050   6.697
 1850SOL     OW 6448   6.214   2.760   3.195
 1850SOL    HW1 6449   6.250   2.667   3.195
 1850SOL    HW2 6450   6.121   2.760   3.159
 1851SOL     OW 6451   0.593   2.603   2.393
 1851SOL    HW1 6452   0.534   2.524   2.380
 1851SOL    HW2 6453   0.560   2.658   2.470
 1852SOL     OW 6454   4.290   3.063   0.252
 1852SOL    HW1 6455   4.207   3.119   0.253
 1852SOL    HW2 6456   4.346   3.089   0.173
 1853SOL     OW 6457   1.216   4.226   1.536
 1853SOL    HW1 6458   1.135   4.255   1.587
 1853SOL    HW2 6459   1.231   4.288   1.458
 1854SOL     OW 6460   2.530   5.563   4.642
 1854SOL    HW1 6461   2.469   5.607   4.576
 1854SOL    HW2 6462   2.485   5.483   4.682
 1855SOL     OW 6463   5.665   4.989   0.634
 1855SOL    HW1 6464   5.616   4.902   0.621
 1855SOL    HW2 6465   5.674   5.035   0.546
 1856SOL     OW 6466   5.546   2.130   4.679
 1856SOL    HW1 6467   5.488   2.051   4.655
 1856SOL    HW2 6468   5.570   2.180   4.596
 1857SOL     OW 6469   3.981   1.018   3.750
 1857SOL    HW1 6470   3.969   0.990   3.845
 1857SOL    HW2 6471   4.075   0.999   3.721
 1858SOL     OW 6472   5.008   2.770   3.792
 1858SOL    HW1 6473   5.050   2.824   3.865
 1858SOL    HW2 6474   5.049   2.679   3.788
 1859SOL     OW 6475   4.421   2.436   3.199
 1859SOL    HW1 6476   4.507   2.470   3.159
 1859SOL    HW2 6477   4.428   2.439   3.299
 1860SOL     OW 6478   5.885   1.200   4.594
 1860SOL    HW1 6479   5.835   1.285   4.612
 1860SOL    HW2 6480   5.981   1.212   4.621
 1861SOL     OW 6481   5.472   6.385   3.044
 1861SOL    HW1 6482   5.502   6.306   3.098
 1861SOL    HW2 6483   5.376   6.403   3.063
 1862SOL     OW 6484   2.346   1.369   0.377
 1862SOL    HW1 6485   2.335   1.357   0.278
 1862SOL    HW2 6486   2.296   1.450   0.406
 1863SOL     OW 6487   2.876   3.130   1.344
 1863SOL    HW1 6488   2.962   3.079   1.350
 1863SOL    HW2 6489   2.816   3.087   1.276
 1864SOL     OW 6490   0.981   6.716   4.816
 1864SOL    HW1 6491   1.019   6.624   4.822
 1864SOL    HW2 6492   0.980   6.758   4.907
 1865SOL     OW 6493   4.035   1.909   6.038
 1865SOL    HW1 6494   4.043   1.923   6.137
 1865SOL    HW2 6495   4.032   1.998   5.993
 1866SOL     OW 6496   4.596   4.384   2.248
 1866SOL    HW1 6497   4.583   4.330   2.165
 1866SOL    HW2 6498   4.538   4.465   2.244
 1867SOL     OW 6499   0.289   4.265   0.134
 1867SOL    HW1 6500   0.265   4.359   0.111
 1867SOL    HW2 6501   0.214   4.204   0.106
 1868SOL     OW 6502   5.836   4.354   6.062
 1868SOL    HW1 6503   5.740   4.360   6.087
 1868SOL    HW2 6504   5.848   4.285   5.991
 1869SOL     OW 6505   6.282   1.344   5.010
 1869SOL    HW1 6506   6.357   1.410   5.006
 1869SOL    HW2 6507   6.198   1.387   4.978
 1870SOL     OW 6508   1.560   5.403   4.605
 1870SOL    HW1 6509   1.556   5.464   4.684
 1870SOL    HW2 6510   1.574   5.456   4.522
 1871SOL     OW 6511   1.789   6.994   0.247
 1871SOL    HW1 6512   1.809   7.002   0.344
 1871SOL    HW2 6513   1.699   6.954   0.234
 1872SOL     OW 6514   1.988   4.198   0.137
 1872SOL    HW1 6515   1.998   4.098   0.134
 1872SOL    HW2 6516   1.911   4.226   0.081
 1873SOL     OW 6517   4.421   1.285   6.834
 1873SOL    HW1 6518   4.452   1.347   6.763
 1873SOL    HW2 6519   4.440   1.191   6.807
 1874SOL     OW 6520   1.535   1.639   2.373
 1874SOL    HW1 6521   1.483   1.604   2.295
 1874SOL    HW2 6522   1.621   1.589   2.380
 1875SOL     OW 6523   0.551   6.824   6.511
 1875SOL    HW1 6524   0.514   6.733   6.496
 1875SOL    HW2 6525   0.553   6.844   6.609
 1876SOL     OW 6526   2.804   0.088   4.081
 1876SOL    HW1 6527   2.730   0.020   4.083
 1876SOL    HW2 6528   2.837   0.103   4.174
 1877SOL     OW 6529   0.808   0.025   3.335
 1877SOL    HW1 6530   0.834   0.104   3.279
 1877SOL    HW2 6531   0.852   0.033   3.425
 1878SOL     OW 6532   6.593   2.592   4.788
 1878SOL    HW1 6533   6.639   2.525   4.846
 1878SOL    HW2 6534   6.605   2.683   4.827
 1879SOL     OW 6535   1.273   3.953   5.123
 1879SOL    HW1 6536   1.256   3.890   5.199
 1879SOL    HW2 6537   1.355   4.008   5.143
 1880SOL     OW 6538   5.605   1.283   4.722
 1880SOL    HW1 6539   5.652   1.363   4.758
 1880SOL    HW2 6540   5.506   1.296   4.730
 1881SOL     OW 6541   6.911   1.811   0.493
 1881SOL    HW1 6542   6.830   1.766   0.533
 1881SOL    HW2 6543   6.993   1.768   0.529
 1882SOL     OW 6544   0.836   4.099   6.120
 1882SOL    HW1 6545   0.793   4.092   6.030
 1882SOL    HW2 6546   0.894   4.180   6.123
 1883SOL     OW 6547   0.142   2.587   3.203
 1883SOL    HW1 6548   0.059   2.548   3.245
 1883SOL    HW2 6549   0.133   2.686   3.197
 1884SOL     OW 6550   7.018   2.138   1.520
 1884SOL    HW1 6551   0.058   2.070   1.489
 1884SOL    HW2 6552   0.036   2.206   1.578
 1885SOL     OW 6553   2.384   2.059   5.260
 1885SOL    HW1 6554   2.392   2.140   5.319
 1885SOL    HW2 6555   2.288   2.032   5.254
 1886SOL     OW 6556   1.480   6.694   3.437
 1886SOL    HW1 6557   1.557   6.679   3.375
 1886SOL    HW2 6558   1.463   6.792   3.446
 1887SOL     OW 6559   1.238   6.404   6.173
 1887SOL    HW1 6560   1.214   6.486   6.225
 1887SOL    HW2 6561   1.196   6.409   6.082
 1888SOL     OW 6562   2.888   1.150   1.388
 1888SOL    HW1 6563   2.805   1.116   1.431
 1888SOL    HW2 6564   2.964   1.145   1.454
 1889SOL     OW 6565   1.497   3.715   3.499
 1889SOL    HW1 6566   1.563   3.640   3.501
 1889SOL    HW2 6567   1.413   3.687   3.545
 1890SOL     OW 6568   0.756   6.013   3.975
 1890SOL    HW1 6569   0.759   5.913   3.971
 1890SOL    HW2 6570   0.802   6.045   4.058
 1891SOL     OW 6571   4.041   3.683   2.620
 1891SOL    HW1 6572   4.069   3.620   2.548
 1891SOL    HW2 6573   3.978   3.751   2.582
 1892SOL     OW 6574   0.814   0.460   2.048
 1892SOL    HW1 6575   0.861   0.378   2.079
 1892SOL    HW2 6576   0.794   0.452   1.950
 1893SOL     OW 6577   3.632   3.475   3.517
 1893SOL    HW1 6578   3.678   3.546   3.570
 1893SOL    HW2 6579   3.697   3.433   3.454
 1894SOL     OW 6580   4.002   3.975   4.602
 1894SOL    HW1 6581   4.021   3.970   4.700
 1894SOL    HW2 6582   4.020   4.068   4.569
 1895SOL     OW 6583   3.966   6.867   6.963
 1895SOL    HW1 6584   4.038   6.814   7.009
 1895SOL    HW2 6585   3.943   6.823   6.876
 1896SOL     OW 6586   5.467   1.849   1.124
 1896SOL    HW1 6587   5.536   1.897   1.177
 1896SOL    HW2 6588   5.493   1.848   1.028
 1897SOL     OW 6589   2.422   4.944   3.449
 1897SOL    HW1 6590   2.392   4.850   3.466
 1897SOL    HW2 6591   2.372   4.982   3.372
 1898SOL     OW 6592   1.644   6.180   3.536
 1898SOL    HW1 6593   1.694   6.252   3.584
 1898SOL    HW2 6594   1.635   6.100   3.596
 1899SOL     OW 6595   6.937   0.255   2.099
 1899SOL    HW1 6596   6.956   0.177   2.159
 1899SOL    HW2 6597   7.014   0.319   2.104
 1900SOL     OW 6598   2.633   0.206   0.228
 1900SOL    HW1 6599   2.704   0.256   0.278
 1900SOL    HW2 6600   2.665   0.185   0.136
 1901SOL     OW 6601   2.721   3.875   0.524
 1901SOL    HW1 6602   2.744   3.935   0.601
 1901SOL    HW2 6603   2.754   3.783   0.542
 1902SOL     OW 6604   1.534   6.602   4.563
 1902SOL    HW1 6605   1.508   6.512   4.596
 1902SOL    HW2 6606   1.597   6.645   4.628
 1903SOL     OW 6607   1.387   2.783   4.716
 1903SOL    HW1 6608   1.342   2.871   4.724
 1903SOL    HW2 6609   1.473   2.784   4.768
 1904SOL     OW 6610   5.855   5.432   2.571
 1904SOL    HW1 6611   5.868   5.375   2.490
 1904SOL    HW2 6612   5.803   5.514   2.546
 1905SOL     OW 6613   0.353   0.802   3.693
 1905SOL    HW1 6614   0.420   0.752   3.748
 1905SOL    HW2 6615   0.386   0.895   3.677
 1906SOL     OW 6616   2.422   7.003   5.470
 1906SOL    HW1 6617   2.507   0.011   5.507
 1906SOL    HW2 6618   2.408   6.909   5.502
 1907SOL     OW 6619   4.804   2.832   0.137
 1907SOL    HW1 6620   4.880   2.787   0.090
 1907SOL    HW2 6621   4.738   2.865   0.071
 1908SOL     OW 6622   3.701   1.383   1.218
 1908SOL    HW1 6623   3.777   1.398   1.280
 1908SOL    HW2 6624   3.620   1.358   1.270
 1909SOL     OW 6625   6.994   4.706   5.041
 1909SOL    HW1 6626   0.043   4.753   5.086
 1909SOL    HW2 6627   7.026   4.619   5.005
 1910SOL     OW 6628   6.389   6.343   5.794
 1910SOL    HW1 6629   6.304   6.338   5.742
 1910SOL    HW2 6630   6.368   6.374   5.887
 1911SOL     OW 6631   6.996   5.046   4.373
 1911SOL    HW1 6632   0.067   5.038   4.392
 1911SOL    HW2 6633   6.972   5.141   4.356
 1912SOL     OW 6634   2.511   4.953   2.779
 1912SOL    HW1 6635   2.499   4.854   2.773
 1912SOL    HW2 6636   2.436   4.999   2.731
 1913SOL     OW 6637   2.729   4.533   5.455
 1913SOL    HW1 6638   2.773   4.522   5.365
 1913SOL    HW2 6639   2.676   4.618   5.456
 1914SOL     OW 6640   2.451   4.151   6.504
 1914SOL    HW1 6641   2.439   4.215   6.580
 1914SOL    HW2 6642   2.476   4.061   6.541
 1915SOL     OW 6643   4.570   2.126   6.534
 1915SOL    HW1 6644   4.474   2.137   6.512
 1915SOL    HW2 6645   4.589   2.168   6.623
 1916SOL     OW 6646   3.792   0.552   2.338
 1916SOL    HW1 6647   3.873   0.504   2.370
 1916SOL    HW2 6648   3.786   0.641   2.383
 1917SOL     OW 6649   2.741   4.060   1.373
 1917SOL    HW1 6650   2.678   4.116   1.426
 1917SOL    HW2 6651   2.688   3.999   1.313
 1918SOL     OW 6652   6.584   2.283   4.322
 1918SOL    HW1 6653   6.536   2.197   4.303
 1918SOL    HW2 6654   6.518   2.357   4.330
 1919SOL     OW 6655   0.938   1.938   1.115
 1919SOL    HW1 6656   1.009   1.879   1.075
 1919SOL    HW2 6657   0.850   1.890   1.112
 1920SOL     OW 6658   5.013   2.134   0.862
 1920SOL    HW1 6659   4.995   2.130   0.960
 1920SOL    HW2 6660   4.956   2.205   0.820
 1921SOL     OW 6661   1.970   3.094   6.598
 1921SOL    HW1 6662   2.001   3.058   6.509
 1921SOL    HW2 6663   1.884   3.050   6.623
 1922SOL     OW 6664   3.057   3.842   2.238
 1922SOL    HW1 6665   3.020   3.793   2.317
 1922SOL    HW2 6666   3.009   3.814   2.155
 1923SOL     OW 6667   4.144   0.524   5.355
 1923SOL    HW1 6668   4.236   0.486   5.349
 1923SOL    HW2 6669   4.122   0.543   5.450
 1924SOL     OW 6670   4.489   0.082   1.042
 1924SOL    HW1 6671   4.497   0.039   0.952
 1924SOL    HW2 6672   4.576   0.126   1.067
 1925SOL     OW 6673   1.189   4.630   1.531
 1925SOL    HW1 6674   1.135   4.697   1.581
 1925SOL    HW2 6675   1.282   4.628   1.567
 1926SOL     OW 6676   3.414   6.981   2.116
 1926SOL    HW1 6677   3.442   6.885   2.111
 1926SOL    HW2 6678   3.471   0.008   2.054
 1927SOL     OW 6679   1.961   5.323   1.485
 1927SOL    HW1 6680   2.047   5.360   1.449
 1927SOL    HW2 6681   1.904   5.398   1.518
 1928SOL     OW 6682   4.941   4.061   2.943
 1928SOL    HW1 6683   4.846   4.081   2.919
 1928SOL    HW2 6684   4.999   4.074   2.863
 1929SOL     OW 6685   2.947   0.517   3.052
 1929SOL    HW1 6686   2.923   0.577   3.128
 1929SOL    HW2 6687   2.929   0.563   2.966
 1930SOL     OW 6688   4.696   2.999   6.477
 1930SOL    HW1 6689   4.675   2.959   6.566
 1930SOL    HW2 6690   4.614   3.044   6.441
 1931SOL     OW 6691   0.913   1.781   4.686
 1931SOL    HW1 6692   0.867   1.865   4.658
 1931SOL    HW2 6693   0.990   1.763   4.625
 1932SOL     OW 6694   4.664   2.608   2.375
 1932SOL    HW1 6695   4.621   2.624   2.286
 1932SOL    HW2 6696   4.675   2.695   2.422
 1933SOL     OW 6697   1.263   1.361   0.826
 1933SOL    HW1 6698   1.292   1.311   0.745
 1933SOL    HW2 6699   1.247   1.457   0.801
 1934SOL     OW 6700   0.339   0.213   5.973
 1934SOL    HW1 6701   0.302   0.305   5.959
 1934SOL    HW2 6702   0.265   0.146   5.960
 1935SOL     OW 6703   0.135   5.249   4.233
 1935SOL    HW1 6704   0.140   5.171   4.171
 1935SOL    HW2 6705   0.039   5.275   4.247
 1936SOL     OW 6706   4.646   3.032   5.273
 1936SOL    HW1 6707   4.692   3.121   5.278
 1936SOL    HW2 6708   4.549   3.045   5.255
 1937SOL     OW 6709   5.504   5.223   6.708
 1937SOL    HW1 6710   5.432   5.225   6.778
 1937SOL    HW2 6711   5.485   5.293   6.639
 1938SOL     OW 6712   0.699   2.867   6.465
 1938SOL    HW1 6713   0.748   2.814   6.397
 1938SOL    HW2 6714   0.622   2.914   6.422
 1939SOL     OW 6715   1.190   0.492   4.682
 1939SOL    HW1 6716   1.211   0.467   4.588
 1939SOL    HW2 6717   1.102   0.538   4.685
 1940SOL     OW 6718   6.635   4.921   0.781
 1940SOL    HW1 6719   6.692   4.978   0.721
 1940SOL    HW2 6720   6.694   4.855   0.829
 1941SOL     OW 6721   6.996   1.992   4.466
 1941SOL    HW1 6722   7.009   1.913   4.406
 1941SOL    HW2 6723   0.042   2.058   4.452
 1942SOL     OW 6724   5.845   3.691   2.407
 1942SOL    HW1 6725   5.855   3.738   2.319
 1942SOL    HW2 6726   5.822   3.758   2.478
 1943SOL     OW 6727   1.040   1.195   2.566
 1943SOL    HW1 6728   1.139   1.179   2.571
 1943SOL    HW2 6729   0.995   1.150   2.643
 1944SOL     OW 6730   0.139   3.112   2.663
 1944SOL    HW1 6731   0.232   3.149   2.663
 1944SOL    HW2 6732   0.139   3.023   2.710
 1945SOL     OW 6733   5.058   0.684   2.152
 1945SOL    HW1 6734   5.138   0.692   2.093
 1945SOL    HW2 6735   4.987   0.747   2.120
 1946SOL     OW 6736   6.159   5.146   1.449
 1946SOL    HW1 6737   6.143   5.152   1.350
 1946SOL    HW2 6738   6.200   5.230   1.482
 1947SOL     OW 6739   5.949   4.764   3.779
 1947SOL    HW1 6740   5.991   4.675   3.761
 1947SOL    HW2 6741   5.884   4.785   3.706
 1948SOL     OW 6742   4.873   3.572   3.344
 1948SOL    HW1 6743   4.861   3.666   3.312
 1948SOL    HW2 6744   4.946   3.528   3.292
 1949SOL     OW 6745   3.870   4.949   6.677
 1949SOL    HW1 6746   3.937   4.932   6.605
 1949SOL    HW2 6747   3.778   4.947   6.638
 1950SOL     OW 6748   3.197   4.105   3.657
 1950SOL    HW1 6749   3.293   4.121   3.632
 1950SOL    HW2 6750   3.178   4.007   3.652
 1951SOL     OW 6751   6.079   4.427   5.926
 1951SOL    HW1 6752   6.061   4.449   5.830
 1951SOL    HW2 6753   5.993   4.429   5.978
 1952SOL     OW 6754   5.457   5.224   0.044
 1952SOL    HW1 6755   5.400   5.242   6.990
 1952SOL    HW2 6756   5.442   5.130   0.075
 1953SOL     OW 6757   0.636   0.948   6.728
 1953SOL    HW1 6758   0.730   0.953   6.762
 1953SOL    HW2 6759   0.615   0.853   6.704
 1954SOL     OW 6760   4.301   0.065   2.078
 1954SOL    HW1 6761   4.353   0.113   2.149
 1954SOL    HW2 6762   4.233   0.127   2.039
 1955SOL     OW 6763   0.854   2.200   2.545
 1955SOL    HW1 6764   0.766   2.172   2.581
 1955SOL    HW2 6765   0.923   2.194   2.616
 1956SOL     OW 6766   5.767   0.326   1.626
 1956SOL    HW1 6767   5.809   0.329   1.716
 1956SOL    HW2 6768   5.679   0.374   1.628
 1957SOL     OW 6769   5.526   1.951   4.326
 1957SOL    HW1 6770   5.439   1.957   4.276
 1957SOL    HW2 6771   5.588   2.022   4.291
 1958SOL     OW 6772   4.479   1.739   1.000
 1958SOL    HW1 6773   4.518   1.825   0.967
 1958SOL    HW2 6774   4.385   1.730   0.968
 1959SOL     OW 6775   0.488   0.688   4.609
 1959SOL    HW1 6776   0.506   0.759   4.677
 1959SOL    HW2 6777   0.392   0.691   4.583
 1960SOL     OW 6778   6.051   3.995   4.258
 1960SOL    HW1 6779   5.960   4.011   4.298
 1960SOL    HW2 6780   6.112   4.069   4.284
 1961SOL     OW 6781   6.896   4.261   4.520
 1961SOL    HW1 6782   6.957   4.332   4.555
 1961SOL    HW2 6783   6.946   4.202   4.456
 1962SOL     OW 6784   0.897   6.963   2.257
 1962SOL    HW1 6785   0.815   6.907   2.250
 1962SOL    HW2 6786   0.933   6.957   2.350
 1963SOL     OW 6787   0.780   2.281   1.887
 1963SOL    HW1 6788   0.682   2.299   1.895
 1963SOL    HW2 6789   0.817   2.255   1.976
 1964SOL     OW 6790   5.427   3.945   1.453
 1964SOL    HW1 6791   5.397   4.010   1.524
 1964SOL    HW2 6792   5.446   3.995   1.369
 1965SOL     OW 6793   0.460   4.540   4.141
 1965SOL    HW1 6794   0.370   4.579   4.163
 1965SOL    HW2 6795   0.461   4.443   4.166
 1966SOL     OW 6796   1.981   4.825   6.970
 1966SOL    HW1 6797   2.060   4.777   6.933
 1966SOL    HW2 6798   1.922   4.856   6.895
 1967SOL     OW 6799   5.896   3.285   3.103
 1967SOL    HW1 6800   5.943   3.373   3.107
 1967SOL    HW2 6801   5.943   3.224   3.039
 1968SOL     OW 6802   2.978   1.520   5.341
 1968SOL    HW1 6803   3.003   1.606   5.385
 1968SOL    HW2 6804   2.911   1.472   5.398
 1969SOL     OW 6805   2.853   6.069   0.450
 1969SOL    HW1 6806   2.831   6.064   0.548
 1969SOL    HW2 6807   2.901   6.155   0.432
 1970SOL     OW 6808   6.261   5.394   5.242
 1970SOL    HW1 6809   6.184   5.338   5.271
 1970SOL    HW2 6810   6.257   5.482   5.288
 1971SOL     OW 6811   1.945   5.792   4.470
 1971SOL    HW1 6812   2.008   5.725   4.509
 1971SOL    HW2 6813   1.940   5.779   4.371
 1972SOL     OW 6814   6.319   2.777   2.712
 1972SOL    HW1 6815   6.284   2.706   2.774
 1972SOL    HW2 6816   6.250   2.849   2.703
 1973SOL     OW 6817   2.409   3.391   6.781
 1973SOL    HW1 6818   2.333   3.342   6.737
 1973SOL    HW2 6819   2.442   3.463   6.721
 1974SOL     OW 6820   3.404   6.477   4.922
 1974SOL    HW1 6821   3.386   6.463   5.020
 1974SOL    HW2 6822   3.342   6.421   4.868
 1975SOL     OW 6823   1.835   2.520   3.376
 1975SOL    HW1 6824   1.888   2.603   3.395
 1975SOL    HW2 6825   1.844   2.496   3.279
 1976SOL     OW 6826   6.976   7.012   6.322
 1976SOL    HW1 6827   0.007   6.942   6.365
 1976SOL    HW2 6828   6.909   0.018   6.389
 1977SOL     OW 6829   2.024   4.618   5.873
 1977SOL    HW1 6830   1.966   4.565   5.811
 1977SOL    HW2 6831   2.032   4.570   5.960
 1978SOL     OW 6832   2.671   6.918   1.499
 1978SOL    HW1 6833   2.711   6.828   1.483
 1978SOL    HW2 6834   2.586   6.927   1.447
 1979SOL     OW 6835   0.150   5.018   6.477
 1979SOL    HW1 6836   0.242   4.986   6.499
 1979SOL    HW2 6837   0.087   4.993   6.550
 1980SOL     OW 6838   3.671   1.327   0.936
 1980SOL    HW1 6839   3.687   1.330   1.035
 1980SOL    HW2 6840   3.591   1.383   0.914
 1981SOL     OW 6841   4.073   2.196   3.046
 1981SOL    HW1 6842   3.974   2.212   3.049
 1981SOL    HW2 6843   4.094   2.109   3.090
 1982SOL     OW 6844   6.968   2.864   5.549
 1982SOL    HW1 6845   6.982   2.808   5.630
 1982SOL    HW2 6846   6.871   2.887   5.541
 1983SOL     OW 6847   0.249   0.533   2.503
 1983SOL    HW1 6848   0.225   0.629   2.485
 1983SOL    HW2 6849   0.348   0.525   2.515
 1984SOL     OW 6850   5.309   2.975   5.430
 1984SOL    HW1 6851   5.340   3.013   5.343
 1984SOL    HW2 6852   5.264   2.887   5.414
 1985SOL     OW 6853   6.284   3.555   2.408
 1985SOL    HW1 6854   6.347   3.479   2.424
 1985SOL    HW2 6855   6.190   3.521   2.407
 1986SOL     OW 6856   4.124   2.469   1.566
 1986SOL    HW1 6857   4.155   2.401   1.632
 1986SOL    HW2 6858   4.043   2.435   1.518
 1987SOL     OW 6859   2.712   1.101   1.765
 1987SOL    HW1 6860   2.756   1.038   1.828
 1987SOL    HW2 6861   2.732   1.195   1.792
 1988SOL     OW 6862   0.009   2.301   1.242
 1988SOL    HW1 6863   0.001   2.339   1.334
 1988SOL    HW2 6864   0.023   2.202   1.247
 1989SOL     OW 6865   2.769   5.160   4.923
 1989SOL    HW1 6866   2.780   5.068   4.961
 1989SOL    HW2 6867   2.849   5.183   4.868
 1990SOL     OW 6868   3.692   0.419   0.890
 1990SOL    HW1 6869   3.665   0.368   0.808
 1990SOL    HW2 6870   3.766   0.371   0.936
 1991SOL     OW 6871   2.629   4.960   1.213
 1991SOL    HW1 6872   2.600   5.042   1.164
 1991SOL    HW2 6873   2.712   4.923   1.171
 1992SOL     OW 6874   0.427   5.951   1.376
 1992SOL    HW1 6875   0.353   5.918   1.435
 1992SOL    HW2 6876   0.405   6.042   1.343
 1993SOL     OW 6877   2.349   2.849   3.894
 1993SOL    HW1 6878   2.349   2.844   3.994
 1993SOL    HW2 6879   2.314   2.938   3.864
 1994SOL     OW 6880   3.164   2.619   0.785
 1994SOL    HW1 6881   3.261   2.640   0.787
 1994SOL    HW2 6882   3.132   2.598   0.878
 1995SOL     OW 6883   5.737   2.494   4.536
 1995SOL    HW1 6884   5.775   2.453   4.454
 1995SOL    HW2 6885   5.639   2.510   4.523
 1996SOL     OW 6886   3.991   1.690   0.842
 1996SOL    HW1 6887   3.937   1.654   0.918
 1996SOL    HW2 6888   4.076   1.729   0.878
 1997SOL     OW 6889   4.010   0.282   3.558
 1997SOL    HW1 6890   3.945   0.207   3.571
 1997SOL    HW2 6891   3.994   0.353   3.627
 1998SOL     OW 6892   1.882   3.317   1.150
 1998SOL    HW1 6893   1.932   3.290   1.232
 1998SOL    HW2 6894   1.815   3.387   1.173
 1999SOL     OW 6895   2.078   6.561   6.356
 1999SOL    HW1 6896   2.075   6.658   6.379
 1999SOL    HW2 6897   2.153   6.517   6.407
 2000SOL     OW 6898   3.901   4.402   5.911
 2000SOL    HW1 6899   3.833   4.371   5.977
 2000SOL    HW2 6900   3.973   4.453   5.959
 2001SOL     OW 6901   2.201   1.606   0.495
 2001SOL    HW1 6902   2.173   1.553   0.576
 2001SOL    HW2 6903   2.120   1.636   0.445
 2002SOL     OW 6904   0.026   4.440   0.111
 2002SOL    HW1 6905   7.017   4.347   0.117
 2002SOL    HW2 6906   6.978   4.505   0.119
 2003SOL     OW 6907   6.651   5.075   2.957
 2003SOL    HW1 6908   6.662   5.167   2.993
 2003SOL    HW2 6909   6.727   5.017   2.987
 2004SOL     OW 6910   3.331   6.724   3.330
 2004SOL    HW1 6911   3.352   6.755   3.238
 2004SOL    HW2 6912   3.246   6.672   3.329
 2005SOL     OW 6913   1.609   6.515   0.674
 2005SOL    HW1 6914   1.549   6.458   0.618
 2005SOL    HW2 6915   1.576   6.609   0.672
 2006SOL     OW 6916   5.969   6.885   2.923
 2006SOL    HW1 6917   5.893   6.879   2.857
 2006SOL    HW2 6918   6.039   6.819   2.898
 2007SOL     OW 6919   5.601   4.798   6.987
 2007SOL    HW1 6920   5.695   4.800   7.022
 2007SOL    HW2 6921   5.603   4.772   6.890
 2008SOL     OW 6922   1.538   3.685   4.084
 2008SOL    HW1 6923   1.569   3.677   4.179
 2008SOL    HW2 6924   1.615   3.672   4.022
 2009SOL     OW 6925   6.190   0.406   3.027
 2009SOL    HW1 6926   6.128   0.331   3.050
 2009SOL    HW2 6927   6.257   0.418   3.101
 2010SOL     OW 6928   1.302   1.753   1.546
 2010SOL    HW1 6929   1.271   1.753   1.641
 2010SOL    HW2 6930   1.321   1.847   1.517
 2011SOL     OW 6931   0.506   7.019   5.878
 2011SOL    HW1 6932   0.478   0.088   5.882
 2011SOL    HW2 6933   0.480   6.981   5.789
 2012SOL     OW 6934   1.716   3.426   1.769
 2012SOL    HW1 6935   1.624   3.467   1.770
 2012SOL    HW2 6936   1.708   3.327   1.774
 2013SOL     OW 6937   0.588   3.404   2.465
 2013SOL    HW1 6938   0.671   3.456   2.484
 2013SOL    HW2 6939   0.519   3.464   2.426
 2014SOL     OW 6940   3.519   0.795   4.497
 2014SOL    HW1 6941   3.559   0.732   4.563
 2014SOL    HW2 6942   3.532   0.760   4.405
 2015SOL     OW 6943   4.345   0.485   1.899
 2015SOL    HW1 6944   4.419   0.420   1.916
 2015SOL    HW2 6945   4.358   0.527   1.809
 2016SOL     OW 6946   1.428   0.440   5.883
 2016SOL    HW1 6947   1.346   0.484   5.846
 2016SOL    HW2 6948   1.483   0.508   5.931
 2017SOL     OW 6949   4.218   6.280   3.344
 2017SOL    HW1 6950   4.261   6.344   3.281
 2017SOL    HW2 6951   4.174   6.207   3.291
 2018SOL     OW 6952   1.054   1.146   3.787
 2018SOL    HW1 6953   1.086   1.239   3.766
 2018SOL    HW2 6954   1.074   1.125   3.883
 2019SOL     OW 6955   5.709   5.222   6.433
 2019SOL    HW1 6956   5.779   5.215   6.362
 2019SOL    HW2 6957   5.752   5.214   6.523
 2020SOL     OW 6958   2.436   5.930   6.491
 2020SOL    HW1 6959   2.383   5.914   6.574
 2020SOL    HW2 6960   2.379   5.976   6.423
 2021SOL     OW 6961   6.868   6.199   3.944
 2021SOL    HW1 6962   6.930   6.162   4.014
 2021SOL    HW2 6963   6.788   6.238   3.988
 2022SOL     OW 6964   1.569   3.998   5.193
 2022SOL    HW1 6965   1.524   4.070   5.246
 2022SOL    HW2 6966   1.654   4.032   5.154
 2023SOL     OW 6967   6.765   6.345   0.448
 2023SOL    HW1 6968   6.716   6.428   0.421
 2023SOL    HW2 6969   6.856   6.370   0.483
 2024SOL     OW 6970   0.574   6.000   4.253
 2024SOL    HW1 6971   0.568   5.903   4.227
 2024SOL    HW2 6972   0.635   6.009   4.332
 2025SOL     OW 6973   1.329   6.807   4.731
 2025SOL    HW1 6974   1.336   6.752   4.815
 2025SOL    HW2 6975   1.273   6.888   4.749
 2026SOL     OW 6976   6.761   0.030   5.945
 2026SOL    HW1 6977   6.697   0.047   6.020
 2026SOL    HW2 6978   6.794   0.117   5.908
 2027SOL     OW 6979   6.779   6.071   2.631
 2027SOL    HW1 6980   6.774   6.164   2.596
 2027SOL    HW2 6981   6.790   6.073   2.730
 2028SOL     OW 6982   3.183   5.197   4.286
 2028SOL    HW1 6983   3.201   5.157   4.196
 2028SOL    HW2 6984   3.255   5.262   4.309
 2029SOL     OW 6985   6.124   2.536   6.873
 2029SOL    HW1 6986   6.126   2.636   6.869
 2029SOL    HW2 6987   6.058   2.501   6.807
 2030SOL     OW 6988   2.380   6.640   2.415
 2030SOL    HW1 6989   2.314   6.703   2.456
 2030SOL    HW2 6990   2.332   6.572   2.360
 2031SOL     OW 6991   6.892   5.867   3.815
 2031SOL    HW1 6992   6.854   5.922   3.741
 2031SOL    HW2 6993   6.939   5.787   3.777
 2032SOL     OW 6994   2.637   1.874   5.998
 2032SOL    HW1 6995   2.637   1.930   5.916
 2032SOL    HW2 6996   2.595   1.785   5.979
 2033SOL     OW 6997   2.240   1.830   0.676
 2033SOL    HW1 6998   2.171   1.888   0.632
 2033SOL    HW2 6999   2.229   1.736   0.644
 2034SOL     OW 7000   6.932   4.187   5.071
 2034SOL    HW1 7001   6.982   4.228   5.147
 2034SOL    HW2 7002   6.956   4.235   4.986
 2035SOL     OW 7003   5.722   0.173   2.940
 2035SOL    HW1 7004   5.679   0.255   2.979
 2035SOL    HW2 7005   5.736   0.105   3.012
 2036SOL     OW 7006   1.217   3.966   1.606
 2036SOL    HW1 7007   1.201   4.062   1.584
 2036SOL    HW2 7008   1.316   3.950   1.618
 2037SOL     OW 7009   0.283   2.701   0.318
 2037SOL    HW1 7010   0.324   2.613   0.341
 2037SOL    HW2 7011   0.348   2.774   0.338
 2038SOL     OW 7012   1.395   1.071   6.254
 2038SOL    HW1 7013   1.458   1.147   6.240
 2038SOL    HW2 7014   1.349   1.082   6.343
 2039SOL     OW 7015   5.873   6.411   2.732
 2039SOL    HW1 7016   5.886   6.413   2.831
 2039SOL    HW2 7017   5.913   6.494   2.692
 2040SOL     OW 7018   1.770   2.595   1.206
 2040SOL    HW1 7019   1.788   2.670   1.270
 2040SOL    HW2 7020   1.762   2.633   1.113
 2041SOL     OW 7021   2.294   0.386   6.119
 2041SOL    HW1 7022   2.288   0.288   6.099
 2041SOL    HW2 7023   2.251   0.405   6.207
 2042SOL     OW 7024   5.095   1.357   5.494
 2042SOL    HW1 7025   5.143   1.300   5.561
 2042SOL    HW2 7026   5.161   1.396   5.430
 2043SOL     OW 7027   0.251   4.001   1.339
 2043SOL    HW1 7028   0.282   3.945   1.262
 2043SOL    HW2 7029   0.237   3.943   1.419
 2044SOL     OW 7030   4.283   0.473   0.944
 2044SOL    HW1 7031   4.193   0.506   0.916
 2044SOL    HW2 7032   4.344   0.551   0.960
 2045SOL     OW 7033   1.141   6.482   5.344
 2045SOL    HW1 7034   1.212   6.529   5.290
 2045SOL    HW2 7035   1.055   6.481   5.293
 2046SOL     OW 7036   1.055   1.888   4.921
 2046SOL    HW1 7037   1.063   1.988   4.925
 2046SOL    HW2 7038   1.028   1.861   4.829
 2047SOL     OW 7039   6.998   0.478   1.093
 2047SOL    HW1 7040   0.024   0.461   1.176
 2047SOL    HW2 7041   6.900   0.473   1.115
 2048SOL     OW 7042   0.802   2.053   4.610
 2048SOL    HW1 7043   0.706   2.030   4.622
 2048SOL    HW2 7044   0.828   2.124   4.676
 2049SOL     OW 7045   5.106   1.818   5.177
 2049SOL    HW1 7046   5.014   1.843   5.209
 2049SOL    HW2 7047   5.113   1.718   5.171
 2050SOL     OW 7048   0.623   1.459   3.805
 2050SOL    HW1 7049   0.659   1.403   3.879
 2050SOL    HW2 7050   0.675   1.440   3.721
 2051SOL     OW 7051   2.932   6.330   0.415
 2051SOL    HW1 7052   2.993   6.361   0.488
 2051SOL    HW2 7053   2.877   6.406   0.383
 2052SOL     OW 7054   0.954   4.573   6.467
 2052SOL    HW1 7055   0.989   4.480   6.457
 2052SOL    HW2 7056   0.965   4.603   6.561
 2053SOL     OW 7057   0.062   6.093   3.510
 2053SOL    HW1 7058   0.008   6.137   3.582
 2053SOL    HW2 7059   0.013   6.100   3.423
 2054SOL     OW 7060   3.190   3.676   3.197
 2054SOL    HW1 7061   3.248   3.749   3.160
 2054SOL    HW2 7062   3.247   3.598   3.223
 2055SOL     OW 7063   3.102   2.376   5.815
 2055SOL    HW1 7064   3.193   2.416   5.826
 2055SOL    HW2 7065   3.109   2.294   5.759
 2056SOL     OW 7066   3.880   4.492   0.956
 2056SOL    HW1 7067   3.909   4.441   0.875
 2056SOL    HW2 7068   3.796   4.542   0.936
 2057SOL     OW 7069   5.552   2.342   4.191
 2057SOL    HW1 7070   5.478   2.334   4.124
 2057SOL    HW2 7071   5.533   2.282   4.269
 2058SOL     OW 7072   6.931   6.692   2.861
 2058SOL    HW1 7073   6.904   6.785   2.882
 2058SOL    HW2 7074   6.914   6.633   2.940
 2059SOL     OW 7075   0.899   0.641   5.876
 2059SOL    HW1 7076   0.872   0.717   5.935
 2059SOL    HW2 7077   0.875   0.662   5.782
 2060SOL     OW 7078   1.435   2.591   6.905
 2060SOL    HW1 7079   1.475   2.562   6.992
 2060SOL    HW2 7080   1.337   2.602   6.916
 2061SOL     OW 7081   1.893   2.621   2.165
 2061SOL    HW1 7082   1.946   2.661   2.090
 2061SOL    HW2 7083   1.812   2.576   2.128
 2062SOL     OW 7084   0.517   5.252   4.740
 2062SOL    HW1 7085   0.558   5.282   4.654
 2062SOL    HW2 7086   0.479   5.331   4.788
 2063SOL     OW 7087   0.647   1.088   4.938
 2063SOL    HW1 7088   0.671   1.128   5.026
 2063SOL    HW2 7089   0.674   1.150   4.864
 2064SOL     OW 7090   0.739   2.955   3.739
 2064SOL    HW1 7091   0.794   2.921   3.815
 2064SOL    HW2 7092   0.755   3.053   3.728
 2065SOL     OW 7093   4.115   3.652   5.591
 2065SOL    HW1 7094   4.172   3.580   5.631
 2065SOL    HW2 7095   4.149   3.742   5.621
 2066SOL     OW 7096   0.535   3.143   5.769
 2066SOL    HW1 7097   0.461   3.145   5.837
 2066SOL    HW2 7098   0.590   3.227   5.778
 2067SOL     OW 7099   6.809   4.906   1.291
 2067SOL    HW1 7100   6.773   4.974   1.355
 2067SOL    HW2 7101   6.764   4.916   1.202
 2068SOL     OW 7102   4.314   0.920   4.353
 2068SOL    HW1 7103   4.260   0.836   4.362
 2068SOL    HW2 7104   4.391   0.903   4.292
 2069SOL     OW 7105   0.419   2.515   4.080
 2069SOL    HW1 7106   0.513   2.485   4.094
 2069SOL    HW2 7107   0.360   2.436   4.062
 2070SOL     OW 7108   0.742   4.807   0.903
 2070SOL    HW1 7109   0.832   4.814   0.945
 2070SOL    HW2 7110   0.671   4.829   0.970
 2071SOL     OW 7111   0.029   1.542   5.524
 2071SOL    HW1 7112   0.061   1.631   5.492
 2071SOL    HW2 7113   6.979   1.512   5.469
 2072SOL     OW 7114   4.317   4.439   5.482
 2072SOL    HW1 7115   4.330   4.354   5.533
 2072SOL    HW2 7116   4.253   4.498   5.531
 2073SOL     OW 7117   3.029   5.426   6.263
 2073SOL    HW1 7118   3.006   5.521   6.240
 2073SOL    HW2 7119   2.960   5.365   6.224
 2074SOL     OW 7120   1.038   4.315   5.606
 2074SOL    HW1 7121   0.966   4.309   5.675
 2074SOL    HW2 7122   1.101   4.389   5.629
 2075SOL     OW 7123   6.629   2.208   1.184
 2075SOL    HW1 7124   6.634   2.194   1.283
 2075SOL    HW2 7125   6.552   2.268   1.162
 2076SOL     OW 7126   6.151   6.930   4.583
 2076SOL    HW1 7127   6.135   6.834   4.558
 2076SOL    HW2 7128   6.142   6.940   4.683
 2077SOL     OW 7129   6.275   4.758   0.484
 2077SOL    HW1 7130   6.305   4.809   0.404
 2077SOL    HW2 7131   6.238   4.669   0.455
 2078SOL     OW 7132   1.052   2.984   5.452
 2078SOL    HW1 7133   0.996   3.065   5.468
 2078SOL    HW2 7134   1.136   2.989   5.507
 2079SOL     OW 7135   5.553   1.347   1.980
 2079SOL    HW1 7136   5.608   1.420   2.021
 2079SOL    HW2 7137   5.458   1.377   1.973
 2080SOL     OW 7138   2.347   3.122   6.334
 2080SOL    HW1 7139   2.419   3.063   6.372
 2080SOL    HW2 7140   2.272   3.066   6.299
 2081SOL     OW 7141   6.318   5.699   2.332
 2081SOL    HW1 7142   6.275   5.737   2.414
 2081SOL    HW2 7143   6.365   5.772   2.283
 2082SOL     OW 7144   6.303   5.721   4.375
 2082SOL    HW1 7145   6.261   5.645   4.325
 2082SOL    HW2 7146   6.402   5.718   4.362
 2083SOL     OW 7147   0.470   6.746   3.709
 2083SOL    HW1 7148   0.525   6.666   3.734
 2083SOL    HW2 7149   0.455   6.804   3.789
 2084SOL     OW 7150   5.886   2.170   1.024
 2084SOL    HW1 7151   5.865   2.073   1.021
 2084SOL    HW2 7152   5.938   2.196   0.943
 2085SOL     OW 7153   6.106   6.108   0.619
 2085SOL    HW1 7154   6.184   6.075   0.673
 2085SOL    HW2 7155   6.055   6.029   0.584
 2086SOL     OW 7156   5.072   0.826   6.725
 2086SOL    HW1 7157   5.050   0.852   6.631
 2086SOL    HW2 7158   5.144   0.885   6.760
 2087SOL     OW 7159   4.419   1.458   0.032
 2087SOL    HW1 7160   4.350   1.434   0.100
 2087SOL    HW2 7161   4.405   1.405   6.976
 2088SOL     OW 7162   0.956   5.708   6.253
 2088SOL    HW1 7163   0.909   5.754   6.178
 2088SOL    HW2 7164   0.930   5.611   6.254
 2089SOL     OW 7165   2.409   4.028   0.153
 2089SOL    HW1 7166   2.375   4.107   0.103
 2089SOL    HW2 7167   2.344   4.005   0.227
 2090SOL     OW 7168   5.214   3.125   5.899
 2090SOL    HW1 7169   5.275   3.058   5.858
 2090SOL    HW2 7170   5.125   3.081   5.918
 2091SOL     OW 7171   5.502   6.301   1.737
 2091SOL    HW1 7172   5.593   6.331   1.765
 2091SOL    HW2 7173   5.498   6.297   1.637
 2092SOL     OW 7174   4.093   3.412   2.057
 2092SOL    HW1 7175   4.123   3.318   2.038
 2092SOL    HW2 7176   4.047   3.449   1.977
 2093SOL     OW 7177   3.639   1.163   1.826
 2093SOL    HW1 7178   3.657   1.065   1.830
 2093SOL    HW2 7179   3.618   1.188   1.731
 2094SOL     OW 7180   5.263   2.257   6.389
 2094SOL    HW1 7181   5.358   2.240   6.416
 2094SOL    HW2 7182   5.213   2.295   6.466
 2095SOL     OW 7183   5.414   5.563   3.963
 2095SOL    HW1 7184   5.363   5.649   3.953
 2095SOL    HW2 7185   5.449   5.556   4.056
 2096SOL     OW 7186   4.983   0.167   1.998
 2096SOL    HW1 7187   4.992   0.129   2.090
 2096SOL    HW2 7188   4.930   0.104   1.941
 2097SOL     OW 7189   1.086   5.950   6.282
 2097SOL    HW1 7190   1.185   5.937   6.281
 2097SOL    HW2 7191   1.041   5.864   6.258
 2098SOL     OW 7192   3.228   6.170   3.656
 2098SOL    HW1 7193   3.207   6.258   3.615
 2098SOL    HW2 7194   3.310   6.132   3.614
 2099SOL     OW 7195   5.004   1.674   6.099
 2099SOL    HW1 7196   5.093   1.690   6.143
 2099SOL    HW2 7197   4.931   1.686   6.166
 2100SOL     OW 7198   4.888   0.004   1.462
 2100SOL    HW1 7199   4.828   0.083   1.476
 2100SOL    HW2 7200   4.924   0.006   1.368
 2101SOL     OW 7201   0.666   0.067   2.139
 2101SOL    HW1 7202   0.761   0.043   2.159
 2101SOL    HW2 7203   0.630   0.124   2.213
 2102SOL     OW 7204   3.591   2.248   0.854
 2102SOL    HW1 7205   3.663   2.186   0.825
 2102SOL    HW2 7206   3.594   2.259   0.953
 2103SOL     OW 7207   3.024   5.833   0.371
 2103SOL    HW1 7208   2.975   5.919   0.388
 2103SOL    HW2 7209   3.095   5.821   0.440
 2104SOL     OW 7210   1.843   4.326   3.097
 2104SOL    HW1 7211   1.804   4.318   3.005
 2104SOL    HW2 7212   1.906   4.251   3.114
 2105SOL     OW 7213   6.108   5.675   5.060
 2105SOL    HW1 7214   6.058   5.616   5.123
 2105SOL    HW2 7215   6.185   5.717   5.108
 2106SOL     OW 7216   4.234   3.272   0.739
 2106SOL    HW1 7217   4.178   3.348   0.774
 2106SOL    HW2 7218   4.246   3.205   0.812
 2107SOL     OW 7219   5.236   4.581   5.837
 2107SOL    HW1 7220   5.247   4.562   5.740
 2107SOL    HW2 7221   5.151   4.539   5.870
 2108SOL     OW 7222   5.192   0.438   5.173
 2108SOL    HW1 7223   5.203   0.422   5.271
 2108SOL    HW2 7224   5.276   0.412   5.126
 2109SOL     OW 7225   2.796   6.846   2.279
 2109SOL    HW1 7226   2.881   6.879   2.237
 2109SOL    HW2 7227   2.805   6.849   2.379
 2110SOL     OW 7228   3.828   6.597   0.323
 2110SOL    HW1 7229   3.830   6.509   0.371
 2110SOL    HW2 7230   3.922   6.629   0.309
 2111SOL     OW 7231   1.139   2.577   6.057
 2111SOL    HW1 7232   1.111   2.630   5.977
 2111SOL    HW2 7233   1.190   2.496   6.027
 2112SOL     OW 7234   0.797   0.666   6.723
 2112SOL    HW1 7235   0.800   0.608   6.804
 2112SOL    HW2 7236   0.720   0.637   6.665
 2113SOL     OW 7237   0.137   0.980   4.904
 2113SOL    HW1 7238   0.044   1.018   4.907
 2113SOL    HW2 7239   0.183   1.012   4.822
 2114SOL     OW 7240   1.093   1.420   6.165
 2114SOL    HW1 7241   1.130   1.510   6.190
 2114SOL    HW2 7242   1.017   1.398   6.226
 2115SOL     OW 7243   6.608   6.235   3.148
 2115SOL    HW1 7244   6.643   6.261   3.238
 2115SOL    HW2 7245   6.510   6.258   3.144
 2116SOL     OW 7246   0.986   2.144   0.071
 2116SOL    HW1 7247   1.015   2.086   0.148
 2116SOL    HW2 7248   0.912   2.204   0.102
 2117SOL     OW 7249   6.622   1.748   2.011
 2117SOL    HW1 7250   6.660   1.762   2.103
 2117SOL    HW2 7251   6.522   1.743   2.017
 2118SOL     OW 7252   6.844   2.754   2.295
 2118SOL    HW1 7253   6.755   2.801   2.290
 2118SOL    HW2 7254   6.858   2.720   2.388
 2119SOL     OW 7255   1.366   1.230   0.292
 2119SOL    HW1 7256   1.457   1.200   0.318
 2119SOL    HW2 7257   1.354   1.326   0.317
 2120SOL     OW 7258   5.868   1.436   1.049
 2120SOL    HW1 7259   5.777   1.465   1.019
 2120SOL    HW2 7260   5.886   1.471   1.141
 2121SOL     OW 7261   1.453   0.495   0.052
 2121SOL    HW1 7262   1.389   0.535   7.014
 2121SOL    HW2 7263   1.494   0.413   0.012
 2122SOL     OW 7264   6.248   1.300   3.990
 2122SOL    HW1 7265   6.150   1.295   3.975
 2122SOL    HW2 7266   6.291   1.215   3.958
 2123SOL     OW 7267   1.307   5.312   2.915
 2123SOL    HW1 7268   1.271   5.405   2.926
 2123SOL    HW2 7269   1.377   5.312   2.843
 2124SOL     OW 7270   4.017   3.850   6.185
 2124SOL    HW1 7271   4.068   3.924   6.228
 2124SOL    HW2 7272   4.067   3.818   6.104
 2125SOL     OW 7273   1.843   6.314   4.355
 2125SOL    HW1 7274   1.748   6.318   4.325
 2125SOL    HW2 7275   1.875   6.219   4.353
 2126SOL     OW 7276   2.938   4.565   0.263
 2126SOL    HW1 7277   2.991   4.584   0.181
 2126SOL    HW2 7278   2.969   4.625   0.337
 2127SOL     OW 7279   0.740   2.424   4.365
 2127SOL    HW1 7280   0.835   2.394   4.361
 2127SOL    HW2 7281   0.688   2.381   4.291
 2128SOL     OW 7282   5.189   3.166   1.352
 2128SOL    HW1 7283   5.179   3.240   1.419
 2128SOL    HW2 7284   5.225   3.204   1.266
 2129SOL     OW 7285   5.613   3.916   4.393
 2129SOL    HW1 7286   5.637   3.820   4.410
 2129SOL    HW2 7287   5.517   3.931   4.416
 2130SOL     OW 7288   2.979   1.349   1.642
 2130SOL    HW1 7289   3.072   1.368   1.675
 2130SOL    HW2 7290   2.917   1.422   1.673
 2131SOL     OW 7291   5.399   0.423   4.946
 2131SOL    HW1 7292   5.412   0.376   4.859
 2131SOL    HW2 7293   5.489   0.448   4.984
 2132SOL     OW 7294   2.269   2.499   0.931
 2132SOL    HW1 7295   2.260   2.547   1.019
 2132SOL    HW2 7296   2.355   2.448   0.931
 2133SOL     OW 7297   3.253   2.282   1.580
 2133SOL    HW1 7298   3.350   2.287   1.606
 2133SOL    HW2 7299   3.199   2.251   1.659
 2134SOL     OW 7300   1.991   6.544   4.269
 2134SOL    HW1 7301   1.941   6.570   4.186
 2134SOL    HW2 7302   1.953   6.459   4.305
 2135SOL     OW 7303   1.028   0.787   4.243
 2135SOL    HW1 7304   1.082   0.804   4.161
 2135SOL    HW2 7305   0.990   0.874   4.277
 2136SOL     OW 7306   0.895   4.428   3.732
 2136SOL    HW1 7307   0.880   4.426   3.831
 2136SOL    HW2 7308   0.871   4.519   3.696
 2137SOL     OW 7309   1.230   0.796   5.056
 2137SOL    HW1 7310   1.194   0.708   5.086
 2137SOL    HW2 7311   1.190   0.819   4.967
 2138SOL     OW 7312   0.411   2.873   0.500
 2138SOL    HW1 7313   0.325   2.861   0.550
 2138SOL    HW2 7314   0.484   2.825   0.548
 2139SOL     OW 7315   2.385   1.246   4.945
 2139SOL    HW1 7316   2.402   1.268   5.042
 2139SOL    HW2 7317   2.463   1.277   4.890
 2140SOL     OW 7318   1.970   6.021   3.828
 2140SOL    HW1 7319   1.953   6.055   3.736
 2140SOL    HW2 7320   1.943   6.090   3.895
 2141SOL     OW 7321   6.159   1.399   6.957
 2141SOL    HW1 7322   6.136   1.325   7.020
 2141SOL    HW2 7323   6.114   1.483   6.987
 2142SOL     OW 7324   2.894   1.799   3.263
 2142SOL    HW1 7325   2.914   1.849   3.179
 2142SOL    HW2 7326   2.946   1.713   3.264
 2143SOL     OW 7327   3.652   6.942   7.026
 2143SOL    HW1 7328   3.593   6.887   6.967
 2143SOL    HW2 7329   3.748   6.930   6.999
 2144SOL     OW 7330   0.078   0.966   3.010
 2144SOL    HW1 7331   7.015   0.980   3.052
 2144SOL    HW2 7332   0.120   0.884   3.048
 2145SOL     OW 7333   3.863   5.463   2.718
 2145SOL    HW1 7334   3.906   5.455   2.808
 2145SOL    HW2 7335   3.915   5.528   2.662
 2146SOL     OW 7336   3.773   3.013   1.365
 2146SOL    HW1 7337   3.696   3.075   1.351
 2146SOL    HW2 7338   3.744   2.936   1.422
 2147SOL     OW 7339   6.985   1.099   5.194
 2147SOL    HW1 7340   0.050   1.138   5.203
 2147SOL    HW2 7341   6.989   1.015   5.141
 2148SOL     OW 7342   4.952   3.247   3.010
 2148SOL    HW1 7343   5.050   3.236   2.995
 2148SOL    HW2 7344   4.922   3.335   2.973
 2149SOL     OW 7345   3.242   0.882   3.041
 2149SOL    HW1 7346   3.311   0.813   3.020
 2149SOL    HW2 7347   3.243   0.954   2.971
 2150SOL     OW 7348   3.656   1.366   2.712
 2150SOL    HW1 7349   3.680   1.383   2.616
 2150SOL    HW2 7350   3.622   1.451   2.754
 2151SOL     OW 7351   3.480   2.882   5.761
 2151SOL    HW1 7352   3.471   2.814   5.689
 2151SOL    HW2 7353   3.492   2.973   5.721
 2152SOL     OW 7354   6.400   6.019   1.991
 2152SOL    HW1 7355   6.403   6.112   1.954
 2152SOL    HW2 7356   6.312   5.977   1.970
 2153SOL     OW 7357   4.832   3.040   2.876
 2153SOL    HW1 7358   4.873   3.110   2.934
 2153SOL    HW2 7359   4.833   3.071   2.781
 2154SOL     OW 7360   4.602   5.838   5.029
 2154SOL    HW1 7361   4.532   5.908   5.046
 2154SOL    HW2 7362   4.556   5.751   5.007
 2155SOL     OW 7363   6.667   3.333   0.317
 2155SOL    HW1 7364   6.749   3.373   0.358
 2155SOL    HW2 7365   6.658   3.366   0.223
 2156SOL     OW 7366   1.228   1.317   1.387
 2156SOL    HW1 7367   1.278   1.361   1.462
 2156SOL    HW2 7368   1.292   1.263   1.332
 2157SOL     OW 7369   0.857   1.368   4.773
 2157SOL    HW1 7370   0.912   1.396   4.851
 2157SOL    HW2 7371   0.840   1.447   4.714
 2158SOL     OW 7372   4.695   6.248   2.485
 2158SOL    HW1 7373   4.615   6.211   2.436
 2158SOL    HW2 7374   4.668   6.332   2.532
 2159SOL     OW 7375   2.358   5.712   4.482
 2159SOL    HW1 7376   2.369   5.763   4.397
 2159SOL    HW2 7377   2.320   5.773   4.552
 2160SOL     OW 7378   3.084   3.548   0.361
 2160SOL    HW1 7379   3.051   3.504   0.444
 2160SOL    HW2 7380   3.013   3.546   0.291
 2161SOL     OW 7381   5.463   2.335   3.656
 2161SOL    HW1 7382   5.386   2.353   3.717
 2161SOL    HW2 7383   5.480   2.415   3.599
 2162SOL     OW 7384   0.628   1.729   6.904
 2162SOL    HW1 7385   0.578   1.789   6.967
 2162SOL    HW2 7386   0.567   1.658   6.870
 2163SOL     OW 7387   2.685   2.372   0.249
 2163SOL    HW1 7388   2.662   2.367   0.347
 2163SOL    HW2 7389   2.676   2.467   0.218
 2164SOL     OW 7390   1.154   6.758   1.339
 2164SOL    HW1 7391   1.090   6.775   1.264
 2164SOL    HW2 7392   1.106   6.714   1.415
 2165SOL     OW 7393   2.842   6.714   1.475
 2165SOL    HW1 7394   2.926   6.661   1.485
 2165SOL    HW2 7395   2.817   6.720   1.379
 2166SOL     OW 7396   6.521   1.976   6.915
 2166SOL    HW1 7397   6.519   2.075   6.932
 2166SOL    HW2 7398   6.481   1.957   6.826
 2167SOL     OW 7399   2.648   0.637   1.334
 2167SOL    HW1 7400   2.652   0.732   1.305
 2167SOL    HW2 7401   2.659   0.577   1.255
 2168SOL     OW 7402   6.134   5.596   4.761
 2168SOL    HW1 7403   6.104   5.618   4.854
 2168SOL    HW2 7404   6.057   5.603   4.699
 2169SOL     OW 7405   5.329   1.994   4.843
 2169SOL    HW1 7406   5.358   2.089   4.855
 2169SOL    HW2 7407   5.408   1.938   4.818
 2170SOL     OW 7408   5.158   4.925   4.606
 2170SOL    HW1 7409   5.229   4.897   4.541
 2170SOL    HW2 7410   5.162   5.024   4.619
 2171SOL     OW 7411   6.864   2.019   0.326
 2171SOL    HW1 7412   6.855   1.948   0.396
 2171SOL    HW2 7413   6.873   2.108   0.370
 2172SOL     OW 7414   3.055   0.947   0.654
 2172SOL    HW1 7415   3.030   0.853   0.633
 2172SOL    HW2 7416   3.064   0.999   0.569
 2173SOL     OW 7417   4.996   1.320   5.144
 2173SOL    HW1 7418   5.052   1.403   5.143
 2173SOL    HW2 7419   4.901   1.345   5.162
 2174SOL     OW 7420   1.341   5.226   5.021
 2174SOL    HW1 7421   1.315   5.294   4.952
 2174SOL    HW2 7422   1.378   5.145   4.977
 2175SOL     OW 7423   2.535   6.317   4.720
 2175SOL    HW1 7424   2.510   6.384   4.651
 2175SOL    HW2 7425   2.526   6.359   4.811
 2176SOL     OW 7426   1.989   2.372   2.004
 2176SOL    HW1 7427   1.910   2.368   1.942
 2176SOL    HW2 7428   2.011   2.280   2.036
 2177SOL     OW 7429   6.680   1.089   1.856
 2177SOL    HW1 7430   6.755   1.116   1.796
 2177SOL    HW2 7431   6.639   1.170   1.897
 2178SOL     OW 7432   0.684   5.086   0.453
 2178SOL    HW1 7433   0.698   5.005   0.509
 2178SOL    HW2 7434   0.638   5.060   0.368
 2179SOL     OW 7435   0.638   4.667   3.651
 2179SOL    HW1 7436   0.618   4.632   3.742
 2179SOL    HW2 7437   0.553   4.699   3.608
 2180SOL     OW 7438   4.170   3.174   1.975
 2180SOL    HW1 7439   4.256   3.124   1.969
 2180SOL    HW2 7440   4.103   3.134   1.913
 2181SOL     OW 7441   4.502   6.286   6.758
 2181SOL    HW1 7442   4.437   6.286   6.682
 2181SOL    HW2 7443   4.453   6.268   6.844
 2182SOL     OW 7444   6.086   1.778   0.407
 2182SOL    HW1 7445   5.998   1.755   0.448
 2182SOL    HW2 7446   6.130   1.695   0.371
 2183SOL     OW 7447   2.824   2.751   1.080
 2183SOL    HW1 7448   2.885   2.683   1.038
 2183SOL    HW2 7449   2.731   2.738   1.047
 2184SOL     OW 7450   4.020   3.058   6.187
 2184SOL    HW1 7451   3.995   3.129   6.254
 2184SOL    HW2 7452   4.003   3.092   6.095
 2185SOL     OW 7453   1.560   1.119   0.852
 2185SOL    HW1 7454   1.524   1.189   0.790
 2185SOL    HW2 7455   1.491   1.048   0.867
 2186SOL     OW 7456   0.068   5.283   2.772
 2186SOL    HW1 7457   0.020   5.334   2.700
 2186SOL    HW2 7458   0.018   5.199   2.793
 2187SOL     OW 7459   0.301   1.650   6.621
 2187SOL    HW1 7460   0.237   1.575   6.633
 2187SOL    HW2 7461   0.376   1.621   6.561
 2188SOL     OW 7462   5.019   0.911   2.873
 2188SOL    HW1 7463   5.064   1.001   2.869
 2188SOL    HW2 7464   5.078   0.847   2.922
 2189SOL     OW 7465   2.510   0.369   6.950
 2189SOL    HW1 7466   2.597   0.414   6.974
 2189SOL    HW2 7467   2.451   0.434   6.903
 2190SOL     OW 7468   5.445   1.584   1.163
 2190SOL    HW1 7469   5.351   1.584   1.198
 2190SOL    HW2 7470   5.479   1.678   1.158
 2191SOL     OW 7471   2.907   1.379   0.245
 2191SOL    HW1 7472   2.907   1.384   0.345
 2191SOL    HW2 7473   2.950   1.293   0.216
 2192SOL     OW 7474   4.062   5.275   3.602
 2192SOL    HW1 7475   4.030   5.187   3.638
 2192SOL    HW2 7476   4.007   5.301   3.523
 2193SOL     OW 7477   0.058   5.337   5.834
 2193SOL    HW1 7478   0.079   5.433   5.851
 2193SOL    HW2 7479   0.134   5.280   5.866
 2194SOL     OW 7480   3.266   0.239   1.487
 2194SOL    HW1 7481   3.244   0.151   1.446
 2194SOL    HW2 7482   3.185   0.297   1.489
 2195SOL     OW 7483   1.796   4.317   2.483
 2195SOL    HW1 7484   1.700   4.330   2.509
 2195SOL    HW2 7485   1.801   4.278   2.391
 2196SOL     OW 7486   4.160   3.443   0.111
 2196SOL    HW1 7487   4.231   3.508   0.138
 2196SOL    HW2 7488   4.075   3.464   0.159
 2197SOL     OW 7489   4.220   4.226   0.767
 2197SOL    HW1 7490   4.316   4.245   0.747
 2197SOL    HW2 7491   4.212   4.194   0.861
 2198SOL     OW 7492   6.146   4.523   0.372
 2198SOL    HW1 7493   6.108   4.453   0.433
 2198SOL    HW2 7494   6.087   4.532   0.292
 2199SOL     OW 7495   4.399   0.704   2.392
 2199SOL    HW1 7496   4.337   0.686   2.316
 2199SOL    HW2 7497   4.493   0.685   2.364
 2200SOL     OW 7498   2.597   6.923   4.114
 2200SOL    HW1 7499   2.623   6.858   4.043
 2200SOL    HW2 7500   2.535   6.992   4.075
 2201SOL     OW 7501   4.789   4.181   2.276
 2201SOL    HW1 7502   4.729   4.261   2.281
 2201SOL    HW2 7503   4.875   4.207   2.232
 2202SOL     OW 7504   4.814   5.825   3.439
 2202SOL    HW1 7505   4.743   5.855   3.502
 2202SOL    HW2 7506   4.826   5.726   3.446
 2203SOL     OW 7507   3.249   2.161   2.828
 2203SOL    HW1 7508   3.334   2.126   2.868
 2203SOL    HW2 7509   3.270   2.204   2.740
 2204SOL     OW 7510   2.924   2.614   1.302
 2204SOL    HW1 7511   2.874   2.650   1.223
 2204SOL    HW2 7512   2.867   2.548   1.350
 2205SOL     OW 7513   2.782   0.512   0.654
 2205SOL    HW1 7514   2.722   0.592   0.664
 2205SOL    HW2 7515   2.812   0.482   0.745
 2206SOL     OW 7516   1.962   3.078   6.979
 2206SOL    HW1 7517   1.989   3.024   0.032
 2206SOL    HW2 7518   1.975   3.024   6.896
 2207SOL     OW 7519   0.550   4.424   4.770
 2207SOL    HW1 7520   0.577   4.485   4.695
 2207SOL    HW2 7521   0.606   4.341   4.766
 2208SOL     OW 7522   6.854   4.660   1.983
 2208SOL    HW1 7523   6.948   4.658   1.950
 2208SOL    HW2 7524   6.807   4.740   1.947
 2209SOL     OW 7525   1.073   6.045   1.249
 2209SOL    HW1 7526   1.040   6.112   1.182
 2209SOL    HW2 7527   1.132   5.978   1.203
 2210SOL     OW 7528   1.298   5.853   4.107
 2210SOL    HW1 7529   1.309   5.773   4.166
 2210SOL    HW2 7530   1.284   5.825   4.013
 2211SOL     OW 7531   6.983   1.428   5.987
 2211SOL    HW1 7532   0.027   1.483   5.943
 2211SOL    HW2 7533   6.905   1.419   5.925
 2212SOL     OW 7534   2.044   6.835   6.380
 2212SOL    HW1 7535   2.120   6.843   6.315
 2212SOL    HW2 7536   2.034   6.920   6.430
 2213SOL     OW 7537   3.487   1.193   3.444
 2213SOL    HW1 7538   3.435   1.181   3.529
 2213SOL    HW2 7539   3.425   1.215   3.369
 2214SOL     OW 7540   4.283   0.080   5.293
 2214SOL    HW1 7541   4.360   0.018   5.273
 2214SOL    HW2 7542   4.197   0.034   5.271
 2215SOL     OW 7543   5.757   3.083   4.498
 2215SOL    HW1 7544   5.781   3.082   4.400
 2215SOL    HW2 7545   5.784   3.171   4.537
 2216SOL     OW 7546   2.420   0.483   1.506
 2216SOL    HW1 7547   2.464   0.520   1.424
 2216SOL    HW2 7548   2.385   0.558   1.562
 2217SOL     OW 7549   4.737   1.012   1.832
 2217SOL    HW1 7550   4.715   1.099   1.786
 2217SOL    HW2 7551   4.666   0.945   1.810
 2218SOL     OW 7552   0.993   6.642   2.241
 2218SOL    HW1 7553   0.978   6.676   2.334
 2218SOL    HW2 7554   1.074   6.583   2.240
 2219SOL     OW 7555   1.591   2.224   2.780
 2219SOL    HW1 7556   1.534   2.284   2.836
 2219SOL    HW2 7557   1.663   2.183   2.837
 2220SOL     OW 7558   1.030   0.557   1.138
 2220SOL    HW1 7559   0.937   0.539   1.171
 2220SOL    HW2 7560   1.078   0.470   1.123
 2221SOL     OW 7561   6.861   1.367   7.026
 2221SOL    HW1 7562   6.829   1.395   0.090
 2221SOL    HW2 7563   6.957   1.391   7.016
 2222SOL     OW 7564   5.878   6.043   3.027
 2222SOL    HW1 7565   5.828   6.022   3.111
 2222SOL    HW2 7566   5.898   5.959   2.978
 2223SOL     OW 7567   5.911   4.918   1.451
 2223SOL    HW1 7568   5.979   4.991   1.451
 2223SOL    HW2 7569   5.828   4.950   1.404
 2224SOL     OW 7570   0.857   5.104   2.010
 2224SOL    HW1 7571   0.793   5.103   1.933
 2224SOL    HW2 7572   0.878   5.199   2.034
 2225SOL     OW 7573   0.367   4.382   0.984
 2225SOL    HW1 7574   0.281   4.384   0.932
 2225SOL    HW2 7575   0.352   4.338   1.072
 2226SOL     OW 7576   4.232   4.005   1.431
 2226SOL    HW1 7577   4.302   3.987   1.362
 2226SOL    HW2 7578   4.268   3.983   1.521
 2227SOL     OW 7579   1.019   3.280   4.339
 2227SOL    HW1 7580   0.953   3.354   4.345
 2227SOL    HW2 7581   1.086   3.301   4.268
 2228SOL     OW 7582   3.100   4.903   4.635
 2228SOL    HW1 7583   3.023   4.839   4.635
 2228SOL    HW2 7584   3.081   4.979   4.573
 2229SOL     OW 7585   5.276   0.089   3.386
 2229SOL    HW1 7586   5.278   0.120   3.481
 2229SOL    HW2 7587   5.207   0.141   3.335
 2230SOL     OW 7588   2.526   5.491   1.029
 2230SOL    HW1 7589   2.448   5.435   1.002
 2230SOL    HW2 7590   2.495   5.567   1.087
 2231SOL     OW 7591   2.396   6.037   1.248
 2231SOL    HW1 7592   2.336   6.018   1.170
 2231SOL    HW2 7593   2.380   6.131   1.279
 2232SOL     OW 7594   6.298   2.853   3.620
 2232SOL    HW1 7595   6.211   2.809   3.643
 2232SOL    HW2 7596   6.280   2.935   3.565
 2233SOL     OW 7597   3.250   1.650   6.978
 2233SOL    HW1 7598   3.312   1.684   0.021
 2233SOL    HW2 7599   3.193   1.725   6.944
 2234SOL     OW 7600   3.070   2.226   0.994
 2234SOL    HW1 7601   3.105   2.239   0.901
 2234SOL    HW2 7602   3.146   2.229   1.059
 2235SOL     OW 7603   2.005   0.547   1.167
 2235SOL    HW1 7604   1.915   0.571   1.202
 2235SOL    HW2 7605   1.997   0.520   1.071
 2236SOL     OW 7606   6.985   4.024   6.674
 2236SOL    HW1 7607   6.888   4.043   6.658
 2236SOL    HW2 7608   7.019   4.084   6.747
 2237SOL     OW 7609   6.492   2.645   4.168
 2237SOL    HW1 7610   6.471   2.735   4.129
 2237SOL    HW2 7611   6.502   2.653   4.267
 2238SOL     OW 7612   6.959   5.997   2.070
 2238SOL    HW1 7613   6.879   6.056   2.082
 2238SOL    HW2 7614   0.011   6.053   2.048
 2239SOL     OW 7615   5.667   5.678   3.285
 2239SOL    HW1 7616   5.662   5.657   3.383
 2239SOL    HW2 7617   5.575   5.674   3.246
 2240SOL     OW 7618   5.964   3.854   1.874
 2240SOL    HW1 7619   5.977   3.766   1.829
 2240SOL    HW2 7620   5.867   3.876   1.875
 2241SOL     OW 7621   0.843   6.712   2.030
 2241SOL    HW1 7622   0.765   6.727   2.090
 2241SOL    HW2 7623   0.926   6.706   2.085
 2242SOL     OW 7624   4.944   2.498   2.571
 2242SOL    HW1 7625   4.862   2.500   2.515
 2242SOL    HW2 7626   5.021   2.464   2.516
 2243SOL     OW 7627   2.780   6.414   5.524
 2243SOL    HW1 7628   2.754   6.356   5.447
 2243SOL    HW2 7629   2.865   6.380   5.565
 2244SOL     OW 7630   2.555   0.929   5.287
 2244SOL    HW1 7631   2.607   0.850   5.320
 2244SOL    HW2 7632   2.531   0.915   5.191
 2245SOL     OW 7633   0.619   1.843   2.406
 2245SOL    HW1 7634   0.589   1.832   2.312
 2245SOL    HW2 7635   0.541   1.830   2.468
 2246SOL     OW 7636   1.351   4.346   4.747
 2246SOL    HW1 7637   1.404   4.428   4.769
 2246SOL    HW2 7638   1.357   4.281   4.823
 2247SOL     OW 7639   1.826   1.434   5.501
 2247SOL    HW1 7640   1.868   1.462   5.588
 2247SOL    HW2 7641   1.883   1.464   5.425
 2248SOL     OW 7642   4.590   4.226   5.158
 2248SOL    HW1 7643   4.509   4.278   5.130
 2248SOL    HW2 7644   4.655   4.223   5.083
 2249SOL     OW 7645   4.558   5.475   4.613
 2249SOL    HW1 7646   4.471   5.496   4.657
 2249SOL    HW2 7647   4.625   5.545   4.636
 2250SOL     OW 7648   5.312   5.473   0.570
 2250SOL    HW1 7649   5.218   5.508   0.576
 2250SOL    HW2 7650   5.334   5.452   0.475
 2251SOL     OW 7651   0.172   0.582   6.218
 2251SOL    HW1 7652   0.177   0.668   6.167
 2251SOL    HW2 7653   0.264   0.545   6.231
 2252SOL     OW 7654   3.643   1.808   5.550
 2252SOL    HW1 7655   3.712   1.880   5.539
 2252SOL    HW2 7656   3.669   1.748   5.626
 2253SOL     OW 7657   1.284   2.401   5.860
 2253SOL    HW1 7658   1.351   2.457   5.909
 2253SOL    HW2 7659   1.314   2.389   5.765
 2254SOL     OW 7660   1.847   3.749   5.719
 2254SOL    HW1 7661   1.907   3.781   5.792
 2254SOL    HW2 7662   1.764   3.711   5.759
 2255SOL     OW 7663   5.354   2.615   0.996
 2255SOL    HW1 7664   5.370   2.667   0.912
 2255SOL    HW2 7665   5.282   2.548   0.980
 2256SOL     OW 7666   3.326   4.897   2.041
 2256SOL    HW1 7667   3.285   4.934   1.957
 2256SOL    HW2 7668   3.424   4.884   2.027
 2257SOL     OW 7669   2.193   3.366   4.002
 2257SOL    HW1 7670   2.284   3.401   4.025
 2257SOL    HW2 7671   2.202   3.282   3.950
 2258SOL     OW 7672   2.350   5.493   5.443
 2258SOL    HW1 7673   2.364   5.427   5.370
 2258SOL    HW2 7674   2.414   5.475   5.518
 2259SOL     OW 7675   5.879   3.647   6.592
 2259SOL    HW1 7676   5.946   3.718   6.575
 2259SOL    HW2 7677   5.803   3.684   6.645
 2260SOL     OW 7678   4.750   4.187   0.594
 2260SOL    HW1 7679   4.822   4.208   0.528
 2260SOL    HW2 7680   4.670   4.149   0.546
 2261SOL     OW 7681   3.526   6.690   5.169
 2261SOL    HW1 7682   3.506   6.599   5.205
 2261SOL    HW2 7683   3.597   6.683   5.098
 2262SOL     OW 7684   3.405   1.760   3.602
 2262SOL    HW1 7685   3.473   1.688   3.619
 2262SOL    HW2 7686   3.439   1.821   3.531
 2263SOL     OW 7687   0.145   4.242   5.690
 2263SOL    HW1 7688   0.172   4.321   5.746
 2263SOL    HW2 7689   0.073   4.191   5.737
 2264SOL     OW 7690   4.153   3.449   4.187
 2264SOL    HW1 7691   4.138   3.413   4.095
 2264SOL    HW2 7692   4.145   3.549   4.186
 2265SOL     OW 7693   0.239   0.348   2.775
 2265SOL    HW1 7694   0.323   0.344   2.720
 2265SOL    HW2 7695   0.160   0.346   2.715
 2266SOL     OW 7696   5.743   0.038   6.762
 2266SOL    HW1 7697   5.660   0.010   6.714
 2266SOL    HW2 7698   5.743   7.025   6.854
 2267SOL     OW 7699   5.322   1.475   5.317
 2267SOL    HW1 7700   5.363   1.551   5.267
 2267SOL    HW2 7701   5.336   1.390   5.266
 2268SOL     OW 7702   6.260   5.122   6.867
 2268SOL    HW1 7703   6.185   5.188   6.866
 2268SOL    HW2 7704   6.345   5.169   6.846
 2269SOL     OW 7705   0.213   5.535   4.106
 2269SOL    HW1 7706   0.174   5.613   4.154
 2269SOL    HW2 7707   0.200   5.452   4.161
 2270SOL     OW 7708   4.175   3.348   2.330
 2270SOL    HW1 7709   4.086   3.387   2.353
 2270SOL    HW2 7710   4.168   3.298   2.244
 2271SOL     OW 7711   0.152   4.136   3.151
 2271SOL    HW1 7712   0.203   4.223   3.151
 2271SOL    HW2 7713   0.195   4.073   3.215
 2272SOL     OW 7714   4.550   1.923   6.164
 2272SOL    HW1 7715   4.564   2.018   6.191
 2272SOL    HW2 7716   4.626   1.893   6.107
 2273SOL     OW 7717   0.199   1.275   3.894
 2273SOL    HW1 7718   0.241   1.308   3.810
 2273SOL    HW2 7719   0.229   1.333   3.970
 2274SOL     OW 7720   1.316   3.484   2.858
 2274SOL    HW1 7721   1.348   3.536   2.937
 2274SOL    HW2 7722   1.225   3.448   2.877
 2275SOL     OW 7723   5.042   6.314   3.411
 2275SOL    HW1 7724   4.987   6.325   3.328
 2275SOL    HW2 7725   5.049   6.217   3.435
 2276SOL     OW 7726   3.542   5.436   1.727
 2276SOL    HW1 7727   3.488   5.358   1.757
 2276SOL    HW2 7728   3.639   5.411   1.724
 2277SOL     OW 7729   3.403   3.158   0.780
 2277SOL    HW1 7730   3.331   3.220   0.813
 2277SOL    HW2 7731   3.392   3.143   0.682
 2278SOL     OW 7732   5.356   6.499   0.981
 2278SOL    HW1 7733   5.361   6.507   0.881
 2278SOL    HW2 7734   5.445   6.523   1.020
 2279SOL     OW 7735   4.923   4.263   5.187
 2279SOL    HW1 7736   4.999   4.292   5.128
 2279SOL    HW2 7737   4.844   4.239   5.130
 2280SOL     OW 7738   5.369   6.913   6.060
 2280SOL    HW1 7739   5.292   6.963   6.021
 2280SOL    HW2 7740   5.374   6.822   6.019
 2281SOL     OW 7741   2.870   2.649   0.724
 2281SOL    HW1 7742   2.868   2.687   0.631
 2281SOL    HW2 7743   2.964   2.625   0.748
 2282SOL     OW 7744   4.316   5.733   2.425
 2282SOL    HW1 7745   4.234   5.676   2.435
 2282SOL    HW2 7746   4.358   5.747   2.515
 2283SOL     OW 7747   6.805   3.802   2.364
 2283SOL    HW1 7748   6.856   3.881   2.329
 2283SOL    HW2 7749   6.830   3.720   2.313
 2284SOL     OW 7750   2.626   2.437   2.117
 2284SOL    HW1 7751   2.650   2.491   2.198
 2284SOL    HW2 7752   2.705   2.384   2.087
 2285SOL     OW 7753   1.759   3.804   6.422
 2285SOL    HW1 7754   1.803   3.760   6.344
 2285SOL    HW2 7755   1.745   3.736   6.494
 2286SOL     OW 7756   5.375   6.987   4.499
 2286SOL    HW1 7757   5.288   0.010   4.492
 2286SOL    HW2 7758   5.444   0.019   4.539
 2287SOL     OW 7759   2.218   2.703   1.614
 2287SOL    HW1 7760   2.132   2.653   1.600
 2287SOL    HW2 7761   2.290   2.663   1.559
 2288SOL     OW 7762   1.767   6.111   4.033
 2288SOL    HW1 7763   1.689   6.173   4.027
 2288SOL    HW2 7764   1.736   6.021   4.064
 2289SOL     OW 7765   4.539   2.067   0.457
 2289SOL    HW1 7766   4.573   2.046   0.549
 2289SOL    HW2 7767   4.599   2.134   0.414
 2290SOL     OW 7768   3.437   3.470   3.271
 2290SOL    HW1 7769   3.478   3.545   3.323
 2290SOL    HW2 7770   3.446   3.385   3.323
 2291SOL     OW 7771   0.556   2.702   6.760
 2291SOL    HW1 7772   0.514   2.646   6.689
 2291SOL    HW2 7773   0.641   2.742   6.726
 2292SOL     OW 7774   5.247   1.640   2.653
 2292SOL    HW1 7775   5.244   1.602   2.746
 2292SOL    HW2 7776   5.164   1.612   2.604
 2293SOL     OW 7777   0.363   0.278   0.263
 2293SOL    HW1 7778   0.298   0.342   0.221
 2293SOL    HW2 7779   0.323   0.240   0.346
 2294SOL     OW 7780   6.627   1.022   5.548
 2294SOL    HW1 7781   6.591   1.106   5.508
 2294SOL    HW2 7782   6.690   0.979   5.484
 2295SOL     OW 7783   5.833   6.028   1.242
 2295SOL    HW1 7784   5.862   6.005   1.335
 2295SOL    HW2 7785   5.746   6.076   1.245
 2296SOL     OW 7786   3.535   5.039   4.121
 2296SOL    HW1 7787   3.556   4.967   4.054
 2296SOL    HW2 7788   3.579   5.124   4.094
 2297SOL     OW 7789   4.736   3.624   5.724
 2297SOL    HW1 7790   4.816   3.681   5.737
 2297SOL    HW2 7791   4.687   3.613   5.811
 2298SOL     OW 7792   3.779   3.847   4.493
 2298SOL    HW1 7793   3.796   3.762   4.444
 2298SOL    HW2 7794   3.866   3.887   4.521
 2299SOL     OW 7795   5.768   2.957   4.753
 2299SOL    HW1 7796   5.777   3.029   4.822
 2299SOL    HW2 7797   5.752   2.998   4.664
 2300SOL     OW 7798   5.068   6.456   2.426
 2300SOL    HW1 7799   5.128   6.435   2.503
 2300SOL    HW2 7800   5.040   6.371   2.381
 2301SOL     OW 7801   3.845   3.067   4.827
 2301SOL    HW1 7802   3.930   3.101   4.787
 2301SOL    HW2 7803   3.856   3.059   4.926
 2302SOL     OW 7804   5.994   3.029   6.296
 2302SOL    HW1 7805   6.007   3.010   6.393
 2302SOL    HW2 7806   6.082   3.054   6.254
 2303SOL     OW 7807   3.002   2.159   6.815
 2303SOL    HW1 7808   2.970   2.174   6.909
 2303SOL    HW2 7809   3.045   2.068   6.809
 2304SOL     OW 7810   6.497   6.199   2.792
 2304SOL    HW1 7811   6.480   6.294   2.768
 2304SOL    HW2 7812   6.558   6.194   2.872
 2305SOL     OW 7813   3.039   0.152   4.412
 2305SOL    HW1 7814   2.991   0.233   4.378
 2305SOL    HW2 7815   2.973   0.085   4.445
 2306SOL     OW 7816   1.366   4.819   4.827
 2306SOL    HW1 7817   1.267   4.834   4.833
 2306SOL    HW2 7818   1.393   4.811   4.731
 2307SOL     OW 7819   6.440   3.389   5.750
 2307SOL    HW1 7820   6.428   3.336   5.666
 2307SOL    HW2 7821   6.425   3.330   5.829
 2308SOL     OW 7822   1.623   4.830   1.973
 2308SOL    HW1 7823   1.674   4.743   1.970
 2308SOL    HW2 7824   1.549   4.823   2.039
 2309SOL     OW 7825   1.583   0.412   5.446
 2309SOL    HW1 7826   1.672   0.405   5.402
 2309SOL    HW2 7827   1.595   0.425   5.545
 2310SOL     OW 7828   4.307   0.288   1.144
 2310SOL    HW1 7829   4.290   0.345   1.064
 2310SOL    HW2 7830   4.350   0.203   1.117
 2311SOL     OW 7831   2.859   5.267   1.251
 2311SOL    HW1 7832   2.843   5.365   1.265
 2311SOL    HW2 7833   2.869   5.222   1.339
 2312SOL     OW 7834   3.164   5.026   1.844
 2312SOL    HW1 7835   3.123   5.085   1.913
 2312SOL    HW2 7836   3.149   5.066   1.753
 2313SOL     OW 7837   5.138   5.929   1.583
 2313SOL    HW1 7838   5.190   5.997   1.636
 2313SOL    HW2 7839   5.071   5.975   1.525
 2314SOL     OW 7840   1.643   4.629   4.550
 2314SOL    HW1 7841   1.663   4.581   4.465
 2314SOL    HW2 7842   1.600   4.567   4.615
 2315SOL     OW 7843   4.242   2.850   6.594
 2315SOL    HW1 7844   4.229   2.848   6.693
 2315SOL    HW2 7845   4.261   2.757   6.561
 2316SOL     OW 7846   6.083   4.354   2.060
 2316SOL    HW1 7847   6.170   4.397   2.084
 2316SOL    HW2 7848   6.100   4.257   2.037
 2317SOL     OW 7849   0.642   5.754   3.358
 2317SOL    HW1 7850   0.735   5.759   3.320
 2317SOL    HW2 7851   0.644   5.699   3.441
 2318SOL     OW 7852   6.395   1.044   3.949
 2318SOL    HW1 7853   6.326   0.980   3.983
 2318SOL    HW2 7854   6.389   1.050   3.849
 2319SOL     OW 7855   0.686   4.716   3.202
 2319SOL    HW1 7856   0.714   4.812   3.193
 2319SOL    HW2 7857   0.739   4.673   3.274
 2320SOL     OW 7858   6.661   5.026   5.415
 2320SOL    HW1 7859   6.591   5.004   5.347
 2320SOL    HW2 7860   6.620   5.079   5.490
 2321SOL     OW 7861   3.688   5.146   5.231
 2321SOL    HW1 7862   3.631   5.226   5.208
 2321SOL    HW2 7863   3.655   5.066   5.180
 2322SOL     OW 7864   3.316   1.156   5.796
 2322SOL    HW1 7865   3.281   1.086   5.733
 2322SOL    HW2 7866   3.385   1.115   5.856
 2323SOL     OW 7867   5.245   4.011   2.152
 2323SOL    HW1 7868   5.311   3.981   2.221
 2323SOL    HW2 7869   5.279   4.094   2.108
 2324SOL     OW 7870   0.118   4.798   3.450
 2324SOL    HW1 7871   0.161   4.871   3.396
 2324SOL    HW2 7872   0.044   4.836   3.505
 2325SOL     OW 7873   0.081   2.020   0.993
 2325SOL    HW1 7874   0.031   1.955   1.051
 2325SOL    HW2 7875   0.016   2.076   0.942
 2326SOL     OW 7876   1.686   4.597   6.615
 2326SOL    HW1 7877   1.657   4.501   6.618
 2326SOL    HW2 7878   1.660   4.643   6.700
 2327SOL     OW 7879   5.627   1.884   3.801
 2327SOL    HW1 7880   5.596   1.799   3.758
 2327SOL    HW2 7881   5.724   1.876   3.825
 2328SOL     OW 7882   5.964   6.922   3.823
 2328SOL    HW1 7883   5.925   6.967   3.742
 2328SOL    HW2 7884   5.891   6.902   3.889
 2329SOL     OW 7885   0.101   5.452   3.408
 2329SOL    HW1 7886   0.010   5.486   3.431
 2329SOL    HW2 7887   0.153   5.524   3.362
 2330SOL     OW 7888   0.337   3.463   1.994
 2330SOL    HW1 7889   0.386   3.537   1.947
 2330SOL    HW2 7890   0.249   3.449   1.950
 2331SOL     OW 7891   0.551   5.031   6.188
 2331SOL    HW1 7892   0.578   5.002   6.280
 2331SOL    HW2 7893   0.615   5.102   6.156
 2332SOL     OW 7894   5.453   2.516   4.537
 2332SOL    HW1 7895   5.441   2.561   4.448
 2332SOL    HW2 7896   5.365   2.506   4.582
 2333SOL     OW 7897   2.498   4.521   3.599
 2333SOL    HW1 7898   2.510   4.550   3.693
 2333SOL    HW2 7899   2.464   4.426   3.597
 2334SOL     OW 7900   3.159   0.031   0.466
 2334SOL    HW1 7901   3.162   6.959   0.461
 2334SOL    HW2 7902   3.247   0.069   0.437
 2335SOL     OW 7903   4.700   5.231   4.107
 2335SOL    HW1 7904   4.648   5.260   4.026
 2335SOL    HW2 7905   4.639   5.226   4.186
 2336SOL     OW 7906   4.331   2.726   5.880
 2336SOL    HW1 7907   4.287   2.678   5.956
 2336SOL    HW2 7908   4.415   2.678   5.854
 2337SOL     OW 7909   5.763   0.520   4.229
 2337SOL    HW1 7910   5.694   0.547   4.296
 2337SOL    HW2 7911   5.821   0.448   4.268
 2338SOL     OW 7912   1.657   6.844   6.545
 2338SOL    HW1 7913   1.743   6.811   6.505
 2338SOL    HW2 7914   1.646   6.941   6.525
 2339SOL     OW 7915   4.289   4.273   6.155
 2339SOL    HW1 7916   4.373   4.325   6.170
 2339SOL    HW2 7917   4.286   4.243   6.059
 2340SOL     OW 7918   3.632   5.288   4.009
 2340SOL    HW1 7919   3.635   5.264   3.912
 2340SOL    HW2 7920   3.557   5.353   4.025
 2341SOL     OW 7921   6.235   5.422   6.680
 2341SOL    HW1 7922   6.187   5.442   6.595
 2341SOL    HW2 7923   6.329   5.395   6.660
 2342SOL     OW 7924   6.436   0.180   5.200
 2342SOL    HW1 7925   6.422   0.116   5.275
 2342SOL    HW2 7926   6.527   0.222   5.207
 2343SOL     OW 7927   0.730   6.844   0.468
 2343SOL    HW1 7928   0.775   6.755   0.457
 2343SOL    HW2 7929   0.631   6.831   0.468
 2344SOL     OW 7930   2.229   1.637   3.459
 2344SOL    HW1 7931   2.247   1.615   3.554
 2344SOL    HW2 7932   2.276   1.571   3.400
 2345SOL     OW 7933   1.727   1.290   3.460
 2345SOL    HW1 7934   1.672   1.338   3.528
 2345SOL    HW2 7935   1.665   1.240   3.398
 2346SOL     OW 7936   5.090   3.415   5.733
 2346SOL    HW1 7937   5.081   3.396   5.831
 2346SOL    HW2 7938   5.009   3.384   5.685
 2347SOL     OW 7939   1.403   3.694   0.939
 2347SOL    HW1 7940   1.428   3.740   0.854
 2347SOL    HW2 7941   1.303   3.685   0.944
 2348SOL     OW 7942   2.610   5.739   1.646
 2348SOL    HW1 7943   2.670   5.660   1.632
 2348SOL    HW2 7944   2.517   5.716   1.617
 2349SOL     OW 7945   4.583   4.679   5.725
 2349SOL    HW1 7946   4.515   4.612   5.754
 2349SOL    HW2 7947   4.585   4.755   5.790
 2350SOL     OW 7948   1.998   5.809   5.370
 2350SOL    HW1 7949   1.947   5.749   5.309
 2350SOL    HW2 7950   2.052   5.873   5.316
 2351SOL     OW 7951   2.228   5.655   3.308
 2351SOL    HW1 7952   2.230   5.563   3.346
 2351SOL    HW2 7953   2.219   5.650   3.209
 2352SOL     OW 7954   6.235   3.989   2.175
 2352SOL    HW1 7955   6.229   3.997   2.076
 2352SOL    HW2 7956   6.268   4.075   2.214
 2353SOL     OW 7957   3.090   3.707   6.298
 2353SOL    HW1 7958   2.995   3.688   6.322
 2353SOL    HW2 7959   3.146   3.626   6.317
 2354SOL     OW 7960   3.908   2.722   1.603
 2354SOL    HW1 7961   3.858   2.671   1.672
 2354SOL    HW2 7962   4.004   2.733   1.631
 2355SOL     OW 7963   6.715   0.501   1.541
 2355SOL    HW1 7964   6.659   0.575   1.577
 2355SOL    HW2 7965   6.680   0.413   1.574
 2356SOL     OW 7966   2.887   5.004   4.016
 2356SOL    HW1 7967   2.807   5.027   4.071
 2356SOL    HW2 7968   2.963   4.981   4.076
 2357SOL     OW 7969   6.477   4.531   0.580
 2357SOL    HW1 7970   6.393   4.514   0.631
 2357SOL    HW2 7971   6.546   4.570   0.640
 2358SOL     OW 7972   3.621   2.196   5.350
 2358SOL    HW1 7973   3.709   2.151   5.334
 2358SOL    HW2 7974   3.560   2.176   5.273
 2359SOL     OW 7975   1.858   1.593   5.914
 2359SOL    HW1 7976   1.915   1.602   5.996
 2359SOL    HW2 7977   1.879   1.667   5.850
 2360SOL     OW 7978   3.692   4.623   6.935
 2360SOL    HW1 7979   3.749   4.550   6.898
 2360SOL    HW2 7980   3.664   4.599   0.001
 2361SOL     OW 7981   4.613   5.764   1.857
 2361SOL    HW1 7982   4.595   5.692   1.790
 2361SOL    HW2 7983   4.698   5.810   1.835
 2362SOL     OW 7984   4.716   5.031   3.788
 2362SOL    HW1 7985   4.770   4.948   3.777
 2362SOL    HW2 7986   4.660   5.046   3.706
 2363SOL     OW 7987   1.708   3.937   0.488
 2363SOL    HW1 7988   1.686   3.839   0.486
 2363SOL    HW2 7989   1.666   3.982   0.410
 2364SOL     OW 7990   3.416   1.295   2.909
 2364SOL    HW1 7991   3.405   1.391   2.935
 2364SOL    HW2 7992   3.504   1.282   2.864
 2365SOL     OW 7993   4.691   4.231   3.488
 2365SOL    HW1 7994   4.728   4.204   3.399
 2365SOL    HW2 7995   4.594   4.254   3.478
 2366SOL     OW 7996   3.068   4.876   4.914
 2366SOL    HW1 7997   3.074   4.865   4.815
 2366SOL    HW2 7998   2.997   4.815   4.949
 2367SOL     OW 7999   5.912   5.121   6.278
 2367SOL    HW1 8000   6.007   5.146   6.262
 2367SOL    HW2 8001   5.896   5.029   6.243
 2368SOL     OW 8002   5.802   6.843   4.688
 2368SOL    HW1 8003   5.808   6.931   4.734
 2368SOL    HW2 8004   5.859   6.776   4.735
 2369SOL     OW 8005   3.160   2.092   4.230
 2369SOL    HW1 8006   3.071   2.138   4.219
 2369SOL    HW2 8007   3.188   2.095   4.326
 2370SOL     OW 8008   6.054   2.596   1.841
 2370SOL    HW1 8009   6.012   2.685   1.858
 2370SOL    HW2 8010   6.101   2.598   1.752
 2371SOL     OW 8011   0.539   6.164   2.909
 2371SOL    HW1 8012   0.459   6.172   2.967
 2371SOL    HW2 8013   0.550   6.248   2.855
 2372SOL     OW 8014   5.948   6.527   7.001
 2372SOL    HW1 8015   6.040   6.524   0.013
 2372SOL    HW2 8016   5.940   6.459   6.928
 2373SOL     OW 8017   6.662   5.166   6.238
 2373SOL    HW1 8018   6.579   5.130   6.196
 2373SOL    HW2 8019   6.651   5.264   6.254
 2374SOL     OW 8020   6.387   6.059   2.565
 2374SOL    HW1 8021   6.388   6.137   2.504
 2374SOL    HW2 8022   6.429   6.084   2.653
 2375SOL     OW 8023   1.408   0.304   4.029
 2375SOL    HW1 8024   1.419   0.275   3.933
 2375SOL    HW2 8025   1.494   0.290   4.078
 2376SOL     OW 8026   5.455   1.842   3.425
 2376SOL    HW1 8027   5.399   1.909   3.473
 2376SOL    HW2 8028   5.396   1.770   3.388
 2377SOL     OW 8029   4.319   4.267   5.867
 2377SOL    HW1 8030   4.380   4.214   5.808
 2377SOL    HW2 8031   4.224   4.255   5.836
 2378SOL     OW 8032   6.777   0.976   0.203
 2378SOL    HW1 8033   6.876   0.988   0.191
 2378SOL    HW2 8034   6.758   0.880   0.225
 2379SOL     OW 8035   6.499   5.274   2.157
 2379SOL    HW1 8036   6.510   5.365   2.118
 2379SOL    HW2 8037   6.492   5.207   2.083
 2380SOL     OW 8038   4.826   6.013   5.820
 2380SOL    HW1 8039   4.908   6.023   5.764
 2380SOL    HW2 8040   4.767   5.942   5.782
 2381SOL     OW 8041   2.037   4.881   4.416
 2381SOL    HW1 8042   2.127   4.910   4.383
 2381SOL    HW2 8043   1.974   4.958   4.411
 2382SOL     OW 8044   0.109   5.762   3.129
 2382SOL    HW1 8045   0.027   5.740   3.075
 2382SOL    HW2 8046   0.178   5.692   3.114
 2383SOL     OW 8047   5.230   4.954   6.025
 2383SOL    HW1 8048   5.201   5.006   6.105
 2383SOL    HW2 8049   5.151   4.910   5.982
 2384SOL     OW 8050   0.675   2.026   2.745
 2384SOL    HW1 8051   0.636   1.945   2.789
 2384SOL    HW2 8052   0.615   2.054   2.669
 2385SOL     OW 8053   0.599   1.417   0.550
 2385SOL    HW1 8054   0.528   1.458   0.494
 2385SOL    HW2 8055   0.689   1.443   0.515
 2386SOL     OW 8056   5.998   5.800   4.113
 2386SOL    HW1 8057   6.045   5.882   4.145
 2386SOL    HW2 8058   5.910   5.825   4.072
 2387SOL     OW 8059   1.133   1.271   3.463
 2387SOL    HW1 8060   1.205   1.202   3.469
 2387SOL    HW2 8061   1.140   1.333   3.541
 2388SOL     OW 8062   6.736   2.619   5.558
 2388SOL    HW1 8063   6.726   2.716   5.584
 2388SOL    HW2 8064   6.811   2.610   5.492
 2389SOL     OW 8065   4.521   4.690   3.800
 2389SOL    HW1 8066   4.547   4.668   3.894
 2389SOL    HW2 8067   4.588   4.752   3.761
 2390SOL     OW 8068   4.690   3.179   5.799
 2390SOL    HW1 8069   4.760   3.145   5.862
 2390SOL    HW2 8070   4.607   3.202   5.850
 2391SOL     OW 8071   3.191   4.157   5.664
 2391SOL    HW1 8072   3.166   4.067   5.699
 2391SOL    HW2 8073   3.118   4.223   5.684
 2392SOL     OW 8074   4.695   4.410   5.550
 2392SOL    HW1 8075   4.672   4.329   5.495
 2392SOL    HW2 8076   4.614   4.440   5.601
 2393SOL     OW 8077   4.064   4.288   1.255
 2393SOL    HW1 8078   4.106   4.225   1.190
 2393SOL    HW2 8079   3.966   4.295   1.236
 2394SOL     OW 8080   0.609   2.717   3.911
 2394SOL    HW1 8081   0.544   2.728   3.836
 2394SOL    HW2 8082   0.560   2.722   3.998
 2395SOL     OW 8083   0.713   2.465   4.645
 2395SOL    HW1 8084   0.690   2.414   4.562
 2395SOL    HW2 8085   0.739   2.558   4.621
 2396SOL     OW 8086   0.535   0.504   5.248
 2396SOL    HW1 8087   0.496   0.558   5.174
 2396SOL    HW2 8088   0.591   0.563   5.306
 2397SOL     OW 8089   6.939   3.989   5.266
 2397SOL    HW1 8090   6.942   4.050   5.187
 2397SOL    HW2 8091   6.849   3.947   5.272
 2398SOL     OW 8092   3.754   6.566   4.394
 2398SOL    HW1 8093   3.670   6.538   4.348
 2398SOL    HW2 8094   3.738   6.651   4.444
 2399SOL     OW 8095   3.271   2.149   3.785
 2399SOL    HW1 8096   3.192   2.190   3.830
 2399SOL    HW2 8097   3.345   2.137   3.851
 2400SOL     OW 8098   1.620   3.910   0.848
 2400SOL    HW1 8099   1.626   3.966   0.930
 2400SOL    HW2 8100   1.681   3.831   0.857
 2401SOL     OW 8101   1.976   0.089   6.108
 2401SOL    HW1 8102   1.973   0.175   6.056
 2401SOL    HW2 8103   2.031   0.102   6.190
 2402SOL     OW 8104   1.682   4.384   1.895
 2402SOL    HW1 8105   1.672   4.444   1.975
 2402SOL    HW2 8106   1.745   4.310   1.917
 2403SOL     OW 8107   3.896   3.001   3.467
 2403SOL    HW1 8108   3.890   3.042   3.557
 2403SOL    HW2 8109   3.817   2.942   3.451
 2404SOL     OW 8110   6.018   1.148   1.007
 2404SOL    HW1 8111   6.038   1.225   1.068
 2404SOL    HW2 8112   5.923   1.154   0.977
 2405SOL     OW 8113   2.245   3.058   0.557
 2405SOL    HW1 8114   2.264   2.969   0.515
 2405SOL    HW2 8115   2.248   3.130   0.487
 2406SOL     OW 8116   2.683   6.030   4.456
 2406SOL    HW1 8117   2.734   6.115   4.470
 2406SOL    HW2 8118   2.630   6.009   4.537
 2407SOL     OW 8119   2.618   0.981   3.279
 2407SOL    HW1 8120   2.543   1.045   3.295
 2407SOL    HW2 8121   2.655   0.994   3.187
 2408SOL     OW 8122   3.756   6.220   5.274
 2408SOL    HW1 8123   3.807   6.300   5.304
 2408SOL    HW2 8124   3.799   6.137   5.312
 2409SOL     OW 8125   1.329   3.396   0.462
 2409SOL    HW1 8126   1.266   3.391   0.540
 2409SOL    HW2 8127   1.336   3.491   0.431
 2410SOL     OW 8128   0.911   3.144   4.842
 2410SOL    HW1 8129   0.933   3.202   4.763
 2410SOL    HW2 8130   0.991   3.138   4.902
 2411SOL     OW 8131   3.308   2.543   7.013
 2411SOL    HW1 8132   3.340   2.506   0.073
 2411SOL    HW2 8133   3.281   2.468   6.953
 2412SOL     OW 8134   3.830   2.056   6.497
 2412SOL    HW1 8135   3.800   1.991   6.566
 2412SOL    HW2 8136   3.773   2.138   6.503
 2413SOL     OW 8137   0.257   3.433   0.518
 2413SOL    HW1 8138   0.273   3.512   0.460
 2413SOL    HW2 8139   0.335   3.370   0.511
 2414SOL     OW 8140   5.789   2.198   5.006
 2414SOL    HW1 8141   5.883   2.178   5.034
 2414SOL    HW2 8142   5.764   2.289   5.038
 2415SOL     OW 8143   2.543   5.776   6.917
 2415SOL    HW1 8144   2.568   5.737   6.828
 2415SOL    HW2 8145   2.575   5.871   6.921
 2416SOL     OW 8146   0.335   3.281   2.339
 2416SOL    HW1 8147   0.383   3.366   2.318
 2416SOL    HW2 8148   0.347   3.260   2.437
 2417SOL     OW 8149   2.918   2.613   1.717
 2417SOL    HW1 8150   2.826   2.613   1.678
 2417SOL    HW2 8151   2.925   2.542   1.787
 2418SOL     OW 8152   4.814   4.273   6.799
 2418SOL    HW1 8153   4.797   4.177   6.778
 2418SOL    HW2 8154   4.782   4.294   6.891
 2419SOL     OW 8155   2.954   6.846   3.262
 2419SOL    HW1 8156   3.024   6.905   3.221
 2419SOL    HW2 8157   2.994   6.758   3.286
 2420SOL     OW 8158   1.541   4.230   2.576
 2420SOL    HW1 8159   1.509   4.187   2.492
 2420SOL    HW2 8160   1.563   4.159   2.643
 2421SOL     OW 8161   2.785   6.778   3.661
 2421SOL    HW1 8162   2.707   6.747   3.715
 2421SOL    HW2 8163   2.856   6.812   3.723
 2422SOL     OW 8164   4.452   5.571   0.935
 2422SOL    HW1 8165   4.424   5.573   1.031
 2422SOL    HW2 8166   4.532   5.511   0.926
 2423SOL     OW 8167   2.466   5.591   2.928
 2423SOL    HW1 8168   2.552   5.627   2.964
 2423SOL    HW2 8169   2.473   5.582   2.828
 2424SOL     OW 8170   5.321   6.975   6.330
 2424SOL    HW1 8171   5.351   6.977   6.234
 2424SOL    HW2 8172   5.221   6.974   6.333
 2425SOL     OW 8173   5.344   5.409   4.825
 2425SOL    HW1 8174   5.292   5.387   4.908
 2425SOL    HW2 8175   5.419   5.471   4.849
 2426SOL     OW 8176   2.227   3.165   5.592
 2426SOL    HW1 8177   2.311   3.179   5.645
 2426SOL    HW2 8178   2.249   3.120   5.505
 2427SOL     OW 8179   5.366   0.450   7.022
 2427SOL    HW1 8180   5.271   0.420   0.003
 2427SOL    HW2 8181   5.368   0.545   6.990
 2428SOL     OW 8182   0.860   0.677   2.995
 2428SOL    HW1 8183   0.945   0.728   3.005
 2428SOL    HW2 8184   0.796   0.705   3.067
 2429SOL     OW 8185   5.693   4.599   1.296
 2429SOL    HW1 8186   5.778   4.651   1.295
 2429SOL    HW2 8187   5.625   4.644   1.239
 2430SOL     OW 8188   5.897   0.913   6.640
 2430SOL    HW1 8189   5.988   0.950   6.659
 2430SOL    HW2 8190   5.900   0.813   6.649
 2431SOL     OW 8191   0.555   2.852   2.020
 2431SOL    HW1 8192   0.472   2.899   1.992
 2431SOL    HW2 8193   0.635   2.899   1.982
 2432SOL     OW 8194   2.547   5.405   2.114
 2432SOL    HW1 8195   2.537   5.433   2.019
 2432SOL    HW2 8196   2.588   5.314   2.117
 2433SOL     OW 8197   6.600   3.948   5.657
 2433SOL    HW1 8198   6.630   3.879   5.723
 2433SOL    HW2 8199   6.609   4.039   5.698
 2434SOL     OW 8200   4.380   0.458   2.770
 2434SOL    HW1 8201   4.356   0.386   2.836
 2434SOL    HW2 8202   4.431   0.530   2.817
 2435SOL     OW 8203   6.473   6.709   0.087
 2435SOL    HW1 8204   6.495   6.624   0.041
 2435SOL    HW2 8205   6.481   6.785   0.022
 2436SOL     OW 8206   1.767   2.169   1.592
 2436SOL    HW1 8207   1.845   2.136   1.538
 2436SOL    HW2 8208   1.695   2.100   1.592
 2437SOL     OW 8209   0.163   4.230   2.877
 2437SOL    HW1 8210   0.212   4.220   2.964
 2437SOL    HW2 8211   0.089   4.297   2.889
 2438SOL     OW 8212   3.341   1.196   4.620
 2438SOL    HW1 8213   3.371   1.258   4.548
 2438SOL    HW2 8214   3.279   1.244   4.682
 2439SOL     OW 8215   1.901   6.551   1.309
 2439SOL    HW1 8216   1.841   6.573   1.232
 2439SOL    HW2 8217   1.847   6.510   1.383
 2440SOL     OW 8218   5.622   1.388   5.599
 2440SOL    HW1 8219   5.711   1.344   5.605
 2440SOL    HW2 8220   5.634   1.487   5.596
 2441SOL     OW 8221   6.271   0.106   0.378
 2441SOL    HW1 8222   6.228   0.020   0.351
 2441SOL    HW2 8223   6.203   0.180   0.375
 2442SOL     OW 8224   4.996   3.161   1.871
 2442SOL    HW1 8225   4.908   3.138   1.829
 2442SOL    HW2 8226   5.067   3.166   1.800
 2443SOL     OW 8227   1.062   2.916   2.029
 2443SOL    HW1 8228   1.069   2.883   1.934
 2443SOL    HW2 8229   0.968   2.942   2.048
 2444SOL     OW 8230   3.809   5.428   2.065
 2444SOL    HW1 8231   3.771   5.467   2.149
 2444SOL    HW2 8232   3.887   5.481   2.035
 2445SOL     OW 8233   0.470   2.722   1.418
 2445SOL    HW1 8234   0.538   2.693   1.485
 2445SOL    HW2 8235   0.386   2.670   1.431
 2446SOL     OW 8236   1.274   4.995   1.328
 2446SOL    HW1 8237   1.177   5.018   1.327
 2446SOL    HW2 8238   1.316   5.027   1.413
 2447SOL     OW 8239   2.267   6.715   0.151
 2447SOL    HW1 8240   2.209   6.736   0.073
 2447SOL    HW2 8241   2.360   6.748   0.134
 2448SOL     OW 8242   6.522   1.752   4.550
 2448SOL    HW1 8243   6.594   1.821   4.561
 2448SOL    HW2 8244   6.528   1.713   4.458
 2449SOL     OW 8245   1.792   4.123   1.935
 2449SOL    HW1 8246   1.886   4.118   1.968
 2449SOL    HW2 8247   1.757   4.031   1.921
 2450SOL     OW 8248   1.454   0.043   5.913
 2450SOL    HW1 8249   1.428   0.052   6.010
 2450SOL    HW2 8250   1.403   6.994   5.873
 2451SOL     OW 8251   0.936   6.959   4.439
 2451SOL    HW1 8252   0.876   6.942   4.361
 2451SOL    HW2 8253   0.883   6.962   4.523
 2452SOL     OW 8254   2.135   2.311   3.453
 2452SOL    HW1 8255   2.049   2.299   3.504
 2452SOL    HW2 8256   2.142   2.242   3.382
 2453SOL     OW 8257   0.408   1.069   6.621
 2453SOL    HW1 8258   0.490   1.022   6.655
 2453SOL    HW2 8259   0.327   1.022   6.654
 2454SOL     OW 8260   3.439   5.686   1.297
 2454SOL    HW1 8261   3.376   5.650   1.365
 2454SOL    HW2 8262   3.408   5.661   1.205
 2455SOL     OW 8263   4.161   2.770   0.806
 2455SOL    HW1 8264   4.146   2.812   0.716
 2455SOL    HW2 8265   4.146   2.838   0.877
 2456SOL     OW 8266   0.477   4.190   6.181
 2456SOL    HW1 8267   0.421   4.271   6.196
 2456SOL    HW2 8268   0.551   4.212   6.117
 2457SOL     OW 8269   4.649   2.168   5.073
 2457SOL    HW1 8270   4.610   2.178   4.981
 2457SOL    HW2 8271   4.735   2.219   5.078
 2458SOL     OW 8272   1.057   0.742   1.896
 2458SOL    HW1 8273   1.073   0.651   1.857
 2458SOL    HW2 8274   1.145   0.787   1.910
 2459SOL     OW 8275   2.663   6.813   0.421
 2459SOL    HW1 8276   2.728   6.870   0.471
 2459SOL    HW2 8277   2.599   6.872   0.373
 2460SOL     OW 8278   1.767   1.018   4.922
 2460SOL    HW1 8279   1.771   1.017   5.022
 2460SOL    HW2 8280   1.671   1.017   4.893
 2461SOL     OW 8281   4.566   7.007   3.547
 2461SOL    HW1 8282   4.623   0.045   3.498
 2461SOL    HW2 8283   4.489   0.027   3.588
 2462SOL     OW 8284   0.214   3.726   0.610
 2462SOL    HW1 8285   0.117   3.728   0.634
 2462SOL    HW2 8286   0.250   3.633   0.623
 2463SOL     OW 8287   6.952   0.594   0.052
 2463SOL    HW1 8288   6.903   0.531   0.111
 2463SOL    HW2 8289   6.892   0.669   0.025
 2464SOL     OW 8290   0.531   2.667   3.049
 2464SOL    HW1 8291   0.480   2.605   3.110
 2464SOL    HW2 8292   0.566   2.744   3.102
 2465SOL     OW 8293   6.857   6.000   5.571
 2465SOL    HW1 8294   6.942   5.959   5.537
 2465SOL    HW2 8295   6.806   6.041   5.495
 2466SOL     OW 8296   0.708   2.489   2.168
 2466SOL    HW1 8297   0.657   2.524   2.089
 2466SOL    HW2 8298   0.670   2.527   2.252
 2467SOL     OW 8299   5.912   2.084   5.306
 2467SOL    HW1 8300   5.830   2.036   5.273
 2467SOL    HW2 8301   5.962   2.121   5.228
 2468SOL     OW 8302   3.251   6.834   5.581
 2468SOL    HW1 8303   3.320   6.871   5.518
 2468SOL    HW2 8304   3.236   6.738   5.560
 2469SOL     OW 8305   3.384   2.755   5.999
 2469SOL    HW1 8306   3.439   2.803   5.931
 2469SOL    HW2 8307   3.292   2.741   5.963
 2470SOL     OW 8308   3.424   4.617   6.162
 2470SOL    HW1 8309   3.344   4.672   6.137
 2470SOL    HW2 8310   3.507   4.664   6.133
 2471SOL     OW 8311   3.533   5.683   1.835
 2471SOL    HW1 8312   3.486   5.664   1.921
 2471SOL    HW2 8313   3.527   5.603   1.775
 2472SOL     OW 8314   4.571   1.903   4.533
 2472SOL    HW1 8315   4.578   1.803   4.532
 2472SOL    HW2 8316   4.662   1.943   4.541
 2473SOL     OW 8317   0.595   4.539   5.030
 2473SOL    HW1 8318   0.602   4.486   4.945
 2473SOL    HW2 8319   0.504   4.579   5.037
 2474SOL     OW 8320   1.622   5.746   1.479
 2474SOL    HW1 8321   1.533   5.770   1.441
 2474SOL    HW2 8322   1.627   5.778   1.574
 2475SOL     OW 8323   5.095   0.628   0.814
 2475SOL    HW1 8324   5.112   0.723   0.792
 2475SOL    HW2 8325   4.998   0.607   0.799
 2476SOL     OW 8326   5.534   0.532   6.634
 2476SOL    HW1 8327   5.448   0.513   6.588
 2476SOL    HW2 8328   5.517   0.585   6.717
 2477SOL     OW 8329   3.599   0.051   3.451
 2477SOL    HW1 8330   3.603   0.124   3.383
 2477SOL    HW2 8331   3.659   0.075   3.528
 2478SOL     OW 8332   4.706   0.216   3.459
 2478SOL    HW1 8333   4.615   0.243   3.431
 2478SOL    HW2 8334   4.772   0.288   3.437
 2479SOL     OW 8335   0.328   3.575   0.308
 2479SOL    HW1 8336   0.377   3.656   0.276
 2479SOL    HW2 8337   0.354   3.496   0.253
 2480SOL     OW 8338   3.198   2.565   1.631
 2480SOL    HW1 8339   3.202   2.469   1.604
 2480SOL    HW2 8340   3.103   2.593   1.643
 2481SOL     OW 8341   3.174   0.082   1.148
 2481SOL    HW1 8342   3.136   0.175   1.145
 2481SOL    HW2 8343   3.161   0.039   1.059
 2482SOL     OW 8344   5.559   3.137   6.743
 2482SOL    HW1 8345   5.464   3.143   6.774
 2482SOL    HW2 8346   5.571   3.196   6.662
 2483SOL     OW 8347   1.020   2.222   0.927
 2483SOL    HW1 8348   0.953   2.213   0.854
 2483SOL    HW2 8349   1.046   2.318   0.937
 2484SOL     OW 8350   5.618   1.247   1.732
 2484SOL    HW1 8351   5.597   1.275   1.825
 2484SOL    HW2 8352   5.709   1.206   1.729
 2485SOL     OW 8353   5.739   2.413   6.282
 2485SOL    HW1 8354   5.821   2.435   6.229
 2485SOL    HW2 8355   5.661   2.400   6.221
 2486SOL     OW 8356   0.515   3.986   5.207
 2486SOL    HW1 8357   0.455   3.997   5.128
 2486SOL    HW2 8358   0.588   3.921   5.185
 2487SOL     OW 8359   4.348   5.947   0.368
 2487SOL    HW1 8360   4.325   5.958   0.465
 2487SOL    HW2 8361   4.448   5.943   0.358
 2488SOL     OW 8362   0.034   4.115   1.223
 2488SOL    HW1 8363   0.024   4.197   1.279
 2488SOL    HW2 8364   0.099   4.052   1.266
 2489SOL     OW 8365   0.123   6.389   4.233
 2489SOL    HW1 8366   0.058   6.444   4.286
 2489SOL    HW2 8367   0.216   6.417   4.256
 2490SOL     OW 8368   2.979   6.336   2.324
 2490SOL    HW1 8369   3.078   6.348   2.328
 2490SOL    HW2 8370   2.936   6.420   2.289
 2491SOL     OW 8371   4.084   4.614   1.641
 2491SOL    HW1 8372   4.156   4.683   1.638
 2491SOL    HW2 8373   4.124   4.524   1.657
 2492SOL     OW 8374   6.685   4.196   0.886
 2492SOL    HW1 8375   6.699   4.220   0.982
 2492SOL    HW2 8376   6.744   4.119   0.862
 2493SOL     OW 8377   6.957   6.396   1.982
 2493SOL    HW1 8378   6.912   6.394   2.072
 2493SOL    HW2 8379   0.001   6.326   1.980
 2494SOL     OW 8380   5.792   3.324   1.833
 2494SOL    HW1 8381   5.850   3.265   1.890
 2494SOL    HW2 8382   5.847   3.363   1.759
 2495SOL     OW 8383   6.479   4.828   3.826
 2495SOL    HW1 8384   6.515   4.803   3.916
 2495SOL    HW2 8385   6.550   4.819   3.757
 2496SOL     OW 8386   6.248   5.077   6.523
 2496SOL    HW1 8387   6.171   5.100   6.582
 2496SOL    HW2 8388   6.320   5.035   6.577
 2497SOL     OW 8389   0.466   0.164   1.897
 2497SOL    HW1 8390   0.532   0.088   1.901
 2497SOL    HW2 8391   0.417   0.170   1.983
 2498SOL     OW 8392   1.773   3.131   5.944
 2498SOL    HW1 8393   1.779   3.210   6.006
 2498SOL    HW2 8394   1.818   3.153   5.858
 2499SOL     OW 8395   6.723   3.284   1.239
 2499SOL    HW1 8396   6.802   3.344   1.227
 2499SOL    HW2 8397   6.640   3.339   1.253
 2500SOL     OW 8398   3.389   3.948   6.742
 2500SOL    HW1 8399   3.297   3.986   6.739
 2500SOL    HW2 8400   3.455   4.018   6.714
 2501SOL     OW 8401   6.219   5.351   0.654
 2501SOL    HW1 8402   6.205   5.275   0.589
 2501SOL    HW2 8403   6.130   5.380   0.690
 2502SOL     OW 8404   2.838   5.739   4.600
 2502SOL    HW1 8405   2.789   5.654   4.618
 2502SOL    HW2 8406   2.773   5.815   4.599
 2503SOL     OW 8407   2.688   6.970   5.249
 2503SOL    HW1 8408   2.746   6.950   5.169
 2503SOL    HW2 8409   2.746   6.979   5.330
 2504SOL     OW 8410   3.224   5.348   2.459
 2504SOL    HW1 8411   3.204   5.441   2.426
 2504SOL    HW2 8412   3.228   5.348   2.559
 2505SOL     OW 8413   6.944   6.055   3.057
 2505SOL    HW1 8414   7.025   6.109   3.035
 2505SOL    HW2 8415   6.953   5.963   3.018
 2506SOL     OW 8416   5.762   4.995   5.628
 2506SOL    HW1 8417   5.774   4.908   5.581
 2506SOL    HW2 8418   5.823   5.000   5.707
 2507SOL     OW 8419   0.065   3.170   0.597
 2507SOL    HW1 8420   0.161   3.188   0.615
 2507SOL    HW2 8421   0.028   3.109   0.667
 2508SOL     OW 8422   3.796   1.718   4.442
 2508SOL    HW1 8423   3.788   1.621   4.416
 2508SOL    HW2 8424   3.729   1.771   4.392
 2509SOL     OW 8425   6.608   3.830   5.940
 2509SOL    HW1 8426   6.706   3.822   5.955
 2509SOL    HW2 8427   6.563   3.743   5.960
 2510SOL     OW 8428   3.207   4.003   1.911
 2510SOL    HW1 8429   3.132   4.063   1.883
 2510SOL    HW2 8430   3.179   3.951   1.991
 2511SOL     OW 8431   3.011   1.099   5.159
 2511SOL    HW1 8432   2.954   1.133   5.234
 2511SOL    HW2 8433   3.108   1.110   5.183
 2512SOL     OW 8434   4.049   4.954   4.621
 2512SOL    HW1 8435   4.098   4.927   4.703
 2512SOL    HW2 8436   4.096   5.031   4.577
 2513SOL     OW 8437   2.476   6.126   6.246
 2513SOL    HW1 8438   2.567   6.165   6.258
 2513SOL    HW2 8439   2.408   6.190   6.283
 2514SOL     OW 8440   1.044   2.967   3.380
 2514SOL    HW1 8441   1.102   2.918   3.314
 2514SOL    HW2 8442   0.950   2.934   3.372
 2515SOL     OW 8443   2.246   1.442   1.157
 2515SOL    HW1 8444   2.343   1.430   1.179
 2515SOL    HW2 8445   2.228   1.404   1.066
 2516SOL     OW 8446   5.828   1.566   3.394
 2516SOL    HW1 8447   5.909   1.625   3.391
 2516SOL    HW2 8448   5.843   1.492   3.460
 2517SOL     OW 8449   0.771   0.929   4.516
 2517SOL    HW1 8450   0.848   0.975   4.473
 2517SOL    HW2 8451   0.779   0.830   4.501
 2518SOL     OW 8452   2.838   4.295   1.264
 2518SOL    HW1 8453   2.815   4.217   1.322
 2518SOL    HW2 8454   2.887   4.262   1.183
 2519SOL     OW 8455   2.425   1.345   0.880
 2519SOL    HW1 8456   2.336   1.300   0.882
 2519SOL    HW2 8457   2.497   1.277   0.891
 2520SOL     OW 8458   3.409   2.635   1.476
 2520SOL    HW1 8459   3.347   2.666   1.404
 2520SOL    HW2 8460   3.357   2.615   1.558
 2521SOL     OW 8461   4.317   1.626   5.344
 2521SOL    HW1 8462   4.222   1.613   5.370
 2521SOL    HW2 8463   4.363   1.537   5.339
 2522SOL     OW 8464   0.509   1.510   5.635
 2522SOL    HW1 8465   0.548   1.443   5.698
 2522SOL    HW2 8466   0.447   1.465   5.572
 2523SOL     OW 8467   2.010   4.508   0.211
 2523SOL    HW1 8468   1.997   4.530   0.114
 2523SOL    HW2 8469   1.963   4.422   0.232
 2524SOL     OW 8470   1.192   6.668   4.013
 2524SOL    HW1 8471   1.285   6.633   4.008
 2524SOL    HW2 8472   1.149   6.637   4.098
 2525SOL     OW 8473   0.719   2.698   4.327
 2525SOL    HW1 8474   0.792   2.759   4.295
 2525SOL    HW2 8475   0.751   2.604   4.327
 2526SOL     OW 8476   0.696   6.032   0.078
 2526SOL    HW1 8477   0.712   6.064   0.172
 2526SOL    HW2 8478   0.631   6.094   0.033
 2527SOL     OW 8479   5.056   5.551   6.506
 2527SOL    HW1 8480   5.065   5.530   6.408
 2527SOL    HW2 8481   5.043   5.650   6.518
 2528SOL     OW 8482   4.726   5.065   6.182
 2528SOL    HW1 8483   4.761   5.148   6.225
 2528SOL    HW2 8484   4.648   5.088   6.123
 2529SOL     OW 8485   0.446   6.818   6.037
 2529SOL    HW1 8486   0.521   6.778   6.090
 2529SOL    HW2 8487   0.480   6.897   5.986
 2530SOL     OW 8488   2.743   5.694   5.428
 2530SOL    HW1 8489   2.742   5.596   5.448
 2530SOL    HW2 8490   2.649   5.727   5.419
 2531SOL     OW 8491   6.685   5.604   5.984
 2531SOL    HW1 8492   6.643   5.689   5.951
 2531SOL    HW2 8493   6.780   5.622   6.010
 2532SOL     OW 8494   0.715   6.635   1.019
 2532SOL    HW1 8495   0.735   6.711   0.956
 2532SOL    HW2 8496   0.621   6.644   1.051
 2533SOL     OW 8497   5.373   0.784   3.110
 2533SOL    HW1 8498   5.468   0.768   3.081
 2533SOL    HW2 8499   5.338   0.703   3.158
 2534SOL     OW 8500   4.592   1.723   1.869
 2534SOL    HW1 8501   4.544   1.790   1.926
 2534SOL    HW2 8502   4.648   1.771   1.801
 2535SOL     OW 8503   3.424   2.768   6.279
 2535SOL    HW1 8504   3.507   2.775   6.333
 2535SOL    HW2 8505   3.445   2.724   6.191
 2536SOL     OW 8506   1.475   0.880   6.582
 2536SOL    HW1 8507   1.430   0.896   6.495
 2536SOL    HW2 8508   1.416   0.912   6.656
 2537SOL     OW 8509   4.221   1.113   0.114
 2537SOL    HW1 8510   4.172   1.040   0.161
 2537SOL    HW2 8511   4.308   1.078   0.079
 2538SOL     OW 8512   6.819   3.731   3.899
 2538SOL    HW1 8513   6.740   3.670   3.905
 2538SOL    HW2 8514   6.792   3.816   3.853
 2539SOL     OW 8515   6.070   1.448   4.490
 2539SOL    HW1 8516   5.986   1.491   4.522
 2539SOL    HW2 8517   6.052   1.400   4.404
 2540SOL     OW 8518   3.839   1.708   3.026
 2540SOL    HW1 8519   3.917   1.645   3.020
 2540SOL    HW2 8520   3.857   1.787   2.968
 2541SOL     OW 8521   3.175   0.091   5.284
 2541SOL    HW1 8522   3.099   0.154   5.268
 2541SOL    HW2 8523   3.193   0.085   5.382
 2542SOL     OW 8524   1.542   4.598   6.919
 2542SOL    HW1 8525   1.506   4.687   6.892
 2542SOL    HW2 8526   1.599   4.609   7.001
 2543SOL     OW 8527   0.889   2.131   4.170
 2543SOL    HW1 8528   0.972   2.167   4.210
 2543SOL    HW2 8529   0.856   2.193   4.099
 2544SOL     OW 8530   1.072   5.048   0.721
 2544SOL    HW1 8531   1.082   5.033   0.622
 2544SOL    HW2 8532   1.107   4.969   0.771
 2545SOL     OW 8533   1.682   6.539   2.693
 2545SOL    HW1 8534   1.677   6.473   2.768
 2545SOL    HW2 8535   1.730   6.621   2.724
 2546SOL     OW 8536   6.066   1.231   0.752
 2546SOL    HW1 8537   6.055   1.207   0.849
 2546SOL    HW2 8538   5.980   1.266   0.716
 2547SOL     OW 8539   6.862   3.857   5.884
 2547SOL    HW1 8540   6.904   3.945   5.865
 2547SOL    HW2 8541   6.929   3.784   5.871
 2548SOL     OW 8542   0.286   6.520   3.981
 2548SOL    HW1 8543   0.277   6.447   3.914
 2548SOL    HW2 8544   0.310   6.481   4.070
 2549SOL     OW 8545   0.820   0.207   1.671
 2549SOL    HW1 8546   0.865   0.162   1.748
 2549SOL    HW2 8547   0.728   0.171   1.660
 2550SOL     OW 8548   5.721   6.395   0.546
 2550SOL    HW1 8549   5.633   6.439   0.529
 2550SOL    HW2 8550   5.783   6.460   0.591
 2551SOL     OW 8551   2.134   4.252   6.690
 2551SOL    HW1 8552   2.081   4.286   6.768
 2551SOL    HW2 8553   2.181   4.168   6.716
 2552SOL     OW 8554   3.141   5.066   3.857
 2552SOL    HW1 8555   3.043   5.046   3.851
 2552SOL    HW2 8556   3.178   5.076   3.764
 2553SOL     OW 8557   4.182   3.783   5.971
 2553SOL    HW1 8558   4.172   3.798   5.872
 2553SOL    HW2 8559   4.271   3.817   6.001
 2554SOL     OW 8560   1.559   1.639   0.788
 2554SOL    HW1 8561   1.651   1.652   0.825
 2554SOL    HW2 8562   1.561   1.651   0.689
 2555SOL     OW 8563   5.129   2.628   5.133
 2555SOL    HW1 8564   5.144   2.657   5.228
 2555SOL    HW2 8565   5.073   2.546   5.132
 2556SOL     OW 8566   3.775   5.862   1.168
 2556SOL    HW1 8567   3.767   5.789   1.235
 2556SOL    HW2 8568   3.793   5.823   1.077
 2557SOL     OW 8569   2.117   4.085   6.427
 2557SOL    HW1 8570   2.133   4.104   6.330
 2557SOL    HW2 8571   2.152   4.161   6.482
 2558SOL     OW 8572   4.818   1.199   5.693
 2558SOL    HW1 8573   4.844   1.212   5.597
 2558SOL    HW2 8574   4.737   1.254   5.713
 2559SOL     OW 8575   0.120   5.081   5.595
 2559SOL    HW1 8576   0.094   4.995   5.639
 2559SOL    HW2 8577   0.050   5.106   5.527
 2560SOL     OW 8578   6.015   1.899   5.895
 2560SOL    HW1 8579   6.056   1.819   5.850
 2560SOL    HW2 8580   6.033   1.980   5.839
 2561SOL     OW 8581   2.997   5.276   4.720
 2561SOL    HW1 8582   2.989   5.363   4.768
 2561SOL    HW2 8583   3.090   5.241   4.728
 2562SOL     OW 8584   1.979   3.717   0.102
 2562SOL    HW1 8585   1.889   3.704   0.061
 2562SOL    HW2 8586   1.992   3.650   0.176
 2563SOL     OW 8587   2.374   1.397   6.889
 2563SOL    HW1 8588   2.420   1.338   6.823
 2563SOL    HW2 8589   2.289   1.432   6.849
 2564SOL     OW 8590   2.198   5.436   1.423
 2564SOL    HW1 8591   2.247   5.443   1.511
 2564SOL    HW2 8592   2.191   5.527   1.382
 2565SOL     OW 8593   1.442   0.811   1.106
 2565SOL    HW1 8594   1.442   0.808   1.206
 2565SOL    HW2 8595   1.518   0.866   1.074
 2566SOL     OW 8596   2.148   6.422   6.975
 2566SOL    HW1 8597   2.131   6.474   6.892
 2566SOL    HW2 8598   2.219   6.354   6.957
 2567SOL     OW 8599   1.794   6.781   0.482
 2567SOL    HW1 8600   1.697   6.789   0.507
 2567SOL    HW2 8601   1.843   6.863   0.510
 2568SOL     OW 8602   4.430   1.988   0.032
 2568SOL    HW1 8603   4.428   2.079   0.074
 2568SOL    HW2 8604   4.353   1.979   6.996
 2569SOL     OW 8605   3.797   0.380   4.220
 2569SOL    HW1 8606   3.818   0.307   4.286
 2569SOL    HW2 8607   3.844   0.361   4.134
 2570SOL     OW 8608   5.813   1.742   6.017
 2570SOL    HW1 8609   5.901   1.764   5.974
 2570SOL    HW2 8610   5.740   1.796   5.974
 2571SOL     OW 8611   1.424   4.809   3.715
 2571SOL    HW1 8612   1.399   4.715   3.694
 2571SOL    HW2 8613   1.374   4.840   3.796
 2572SOL     OW 8614   3.072   5.173   2.882
 2572SOL    HW1 8615   3.003   5.106   2.854
 2572SOL    HW2 8616   3.038   5.226   2.959
 2573SOL     OW 8617   0.081   0.824   1.314
 2573SOL    HW1 8618   0.006   0.891   1.311
 2573SOL    HW2 8619   0.043   0.732   1.314
 2574SOL     OW 8620   5.717   3.615   0.550
 2574SOL    HW1 8621   5.790   3.664   0.599
 2574SOL    HW2 8622   5.751   3.586   0.461
 2575SOL     OW 8623   6.925   5.864   6.883
 2575SOL    HW1 8624   6.874   5.949   6.869
 2575SOL    HW2 8625   7.009   5.883   6.933
 2576SOL     OW 8626   4.988   5.979   3.718
 2576SOL    HW1 8627   4.996   5.903   3.783
 2576SOL    HW2 8628   4.895   6.017   3.723
 2577SOL     OW 8629   2.980   4.886   2.391
 2577SOL    HW1 8630   2.990   4.854   2.296
 2577SOL    HW2 8631   3.048   4.958   2.408
 2578SOL     OW 8632   3.645   1.757   3.905
 2578SOL    HW1 8633   3.571   1.691   3.894
 2578SOL    HW2 8634   3.733   1.710   3.900
 2579SOL     OW 8635   0.758   6.863   3.765
 2579SOL    HW1 8636   0.840   6.881   3.819
 2579SOL    HW2 8637   0.746   6.764   3.753
 2580SOL     OW 8638   2.511   3.002   6.946
 2580SOL    HW1 8639   2.441   3.057   6.990
 2580SOL    HW2 8640   2.475   2.964   6.861
 2581SOL     OW 8641   2.645   0.054   5.682
 2581SOL    HW1 8642   2.700   0.047   5.766
 2581SOL    HW2 8643   2.604   0.145   5.677
 2582SOL     OW 8644   6.906   3.479   1.256
 2582SOL    HW1 8645   6.890   3.577   1.268
 2582SOL    HW2 8646   7.004   3.460   1.268
 2583SOL     OW 8647   6.156   6.798   1.040
 2583SOL    HW1 8648   6.203   6.710   1.042
 2583SOL    HW2 8649   6.057   6.784   1.050
 2584SOL     OW 8650   4.512   4.686   5.461
 2584SOL    HW1 8651   4.542   4.731   5.545
 2584SOL    HW2 8652   4.582   4.622   5.430
 2585SOL     OW 8653   3.368   5.612   6.710
 2585SOL    HW1 8654   3.366   5.688   6.645
 2585SOL    HW2 8655   3.284   5.613   6.765
 2586SOL     OW 8656   1.788   0.488   5.245
 2586SOL    HW1 8657   1.878   0.449   5.263
 2586SOL    HW2 8658   1.798   0.579   5.205
 2587SOL     OW 8659   0.221   1.702   2.840
 2587SOL    HW1 8660   0.139   1.669   2.887
 2587SOL    HW2 8661   0.296   1.638   2.855
 2588SOL     OW 8662   4.271   1.649   5.076
 2588SOL    HW1 8663   4.307   1.735   5.040
 2588SOL    HW2 8664   4.290   1.644   5.174
 2589SOL     OW 8665   1.393   6.850   6.870
 2589SOL    HW1 8666   1.464   6.918   6.889
 2589SOL    HW2 8667   1.423   6.791   6.796
 2590SOL     OW 8668   2.391   5.278   6.987
 2590SOL    HW1 8669   2.490   5.262   6.986
 2590SOL    HW2 8670   2.373   5.374   6.965
 2591SOL     OW 8671   5.660   5.359   4.720
 2591SOL    HW1 8672   5.612   5.272   4.733
 2591SOL    HW2 8673   5.745   5.344   4.670
 2592SOL     OW 8674   2.882   4.457   6.489
 2592SOL    HW1 8675   2.893   4.463   6.389
 2592SOL    HW2 8676   2.842   4.542   6.523
 2593SOL     OW 8677   2.629   4.771   0.907
 2593SOL    HW1 8678   2.563   4.795   0.979
 2593SOL    HW2 8679   2.709   4.831   0.914
 2594SOL     OW 8680   1.568   4.104   4.596
 2594SOL    HW1 8681   1.599   4.199   4.604
 2594SOL    HW2 8682   1.543   4.084   4.501
 2595SOL     OW 8683   1.647   0.689   3.702
 2595SOL    HW1 8684   1.738   0.651   3.720
 2595SOL    HW2 8685   1.590   0.678   3.783
 2596SOL     OW 8686   0.814   2.159   0.425
 2596SOL    HW1 8687   0.818   2.217   0.343
 2596SOL    HW2 8688   0.864   2.203   0.499
 2597SOL     OW 8689   0.524   6.474   6.015
 2597SOL    HW1 8690   0.443   6.503   6.065
 2597SOL    HW2 8691   0.522   6.375   6.004
 2598SOL     OW 8692   5.485   2.455   2.410
 2598SOL    HW1 8693   5.491   2.504   2.323
 2598SOL    HW2 8694   5.432   2.509   2.475
 2599SOL     OW 8695   2.683   0.317   2.558
 2599SOL    HW1 8696   2.654   0.226   2.526
 2599SOL    HW2 8697   2.615   0.385   2.531
 2600SOL     OW 8698   6.357   3.795   4.571
 2600SOL    HW1 8699   6.267   3.750   4.571
 2600SOL    HW2 8700   6.408   3.766   4.490
 2601SOL     OW 8701   1.141   1.929   2.627
 2601SOL    HW1 8702   1.147   1.937   2.527
 2601SOL    HW2 8703   1.098   2.011   2.664
 2602SOL     OW 8704   1.975   5.315   3.798
 2602SOL    HW1 8705   2.052   5.340   3.739
 2602SOL    HW2 8706   1.902   5.383   3.790
 2603SOL     OW 8707   2.977   0.984   2.927
 2603SOL    HW1 8708   2.946   1.023   2.840
 2603SOL    HW2 8709   3.074   1.007   2.940
 2604SOL     OW 8710   5.294   2.410   2.855
 2604SOL    HW1 8711   5.319   2.338   2.919
 2604SOL    HW2 8712   5.314   2.381   2.762
 2605SOL     OW 8713   1.011   3.626   2.119
 2605SOL    HW1 8714   0.979   3.660   2.030
 2605SOL    HW2 8715   1.040   3.704   2.176
 2606SOL     OW 8716   4.080   3.767   1.121
 2606SOL    HW1 8717   4.046   3.848   1.073
 2606SOL    HW2 8718   4.005   3.703   1.137
 2607SOL     OW 8719   2.479   1.977   0.681
 2607SOL    HW1 8720   2.458   2.062   0.729
 2607SOL    HW2 8721   2.398   1.919   0.678
 2608SOL     OW 8722   3.011   5.369   6.539
 2608SOL    HW1 8723   3.011   5.413   6.449
 2608SOL    HW2 8724   2.939   5.301   6.544
 2609SOL     OW 8725   0.337   0.527   1.584
 2609SOL    HW1 8726   0.243   0.560   1.592
 2609SOL    HW2 8727   0.401   0.604   1.585
 2610SOL     OW 8728   1.475   4.898   4.231
 2610SOL    HW1 8729   1.421   4.814   4.232
 2610SOL    HW2 8730   1.562   4.881   4.278
 2611SOL     OW 8731   5.080   6.411   6.360
 2611SOL    HW1 8732   5.167   6.403   6.408
 2611SOL    HW2 8733   5.007   6.377   6.418
 2612SOL     OW 8734   5.674   0.470   5.464
 2612SOL    HW1 8735   5.663   0.569   5.471
 2612SOL    HW2 8736   5.735   0.438   5.537
 2613SOL     OW 8737   0.915   5.934   6.777
 2613SOL    HW1 8738   0.936   6.027   6.804
 2613SOL    HW2 8739   0.930   5.924   6.678
 2614SOL     OW 8740   6.729   1.035   6.505
 2614SOL    HW1 8741   6.679   1.042   6.591
 2614SOL    HW2 8742   6.709   1.115   6.448
 2615SOL     OW 8743   1.231   3.020   0.235
 2615SOL    HW1 8744   1.164   2.991   0.304
 2615SOL    HW2 8745   1.186   3.028   0.146
 2616SOL     OW 8746   1.736   0.525   5.695
 2616SOL    HW1 8747   1.714   0.428   5.705
 2616SOL    HW2 8748   1.810   0.550   5.756
 2617SOL     OW 8749   5.205   0.088   0.982
 2617SOL    HW1 8750   5.182   0.183   1.003
 2617SOL    HW2 8751   5.285   0.061   1.036
 2618SOL     OW 8752   2.259   6.287   6.236
 2618SOL    HW1 8753   2.170   6.251   6.208
 2618SOL    HW2 8754   2.264   6.385   6.214
 2619SOL     OW 8755   5.071   1.104   2.558
 2619SOL    HW1 8756   5.074   1.194   2.602
 2619SOL    HW2 8757   5.161   1.082   2.520
 2620SOL     OW 8758   6.621   6.829   1.447
 2620SOL    HW1 8759   6.700   6.784   1.487
 2620SOL    HW2 8760   6.537   6.783   1.476
 2621SOL     OW 8761   1.883   5.810   2.409
 2621SOL    HW1 8762   1.910   5.785   2.503
 2621SOL    HW2 8763   1.807   5.753   2.380
 2622SOL     OW 8764   3.442   3.437   6.125
 2622SOL    HW1 8765   3.470   3.341   6.116
 2622SOL    HW2 8766   3.516   3.490   6.165
 2623SOL     OW 8767   0.890   6.663   3.989
 2623SOL    HW1 8768   0.904   6.762   3.987
 2623SOL    HW2 8769   0.923   6.626   4.076
 2624SOL     OW 8770   0.259   2.573   4.309
 2624SOL    HW1 8771   0.301   2.575   4.218
 2624SOL    HW2 8772   0.328   2.594   4.378
 2625SOL     OW 8773   1.609   5.085   5.310
 2625SOL    HW1 8774   1.564   5.004   5.271
 2625SOL    HW2 8775   1.540   5.154   5.331
 2626SOL     OW 8776   6.884   5.096   6.444
 2626SOL    HW1 8777   6.819   5.117   6.371
 2626SOL    HW2 8778   6.977   5.107   6.409
 2627SOL     OW 8779   1.798   0.050   5.874
 2627SOL    HW1 8780   1.810   0.042   5.775
 2627SOL    HW2 8781   1.881   0.021   5.921
 2628SOL     OW 8782   1.628   4.482   2.148
 2628SOL    HW1 8783   1.583   4.504   2.235
 2628SOL    HW2 8784   1.707   4.542   2.136
 2629SOL     OW 8785   3.126   3.853   3.610
 2629SOL    HW1 8786   3.142   3.802   3.694
 2629SOL    HW2 8787   3.042   3.820   3.567
 2630SOL     OW 8788   4.126   0.666   4.141
 2630SOL    HW1 8789   4.149   0.763   4.142
 2630SOL    HW2 8790   4.060   0.648   4.068
 2631SOL     OW 8791   6.058   0.749   0.295
 2631SOL    HW1 8792   6.138   0.766   0.352
 2631SOL    HW2 8793   5.991   0.696   0.347
 2632SOL     OW 8794   5.809   4.412   2.061
 2632SOL    HW1 8795   5.906   4.388   2.050
 2632SOL    HW2 8796   5.788   4.419   2.159
 2633SOL     OW 8797   0.359   2.813   6.230
 2633SOL    HW1 8798   0.307   2.738   6.190
 2633SOL    HW2 8799   0.304   2.860   6.298
 2634SOL     OW 8800   6.252   0.616   5.789
 2634SOL    HW1 8801   6.280   0.596   5.694
 2634SOL    HW2 8802   6.282   0.708   5.814
 2635SOL     OW 8803   5.521   4.992   3.464
 2635SOL    HW1 8804   5.581   5.044   3.403
 2635SOL    HW2 8805   5.575   4.938   3.528
 2636SOL     OW 8806   4.011   6.853   5.910
 2636SOL    HW1 8807   4.020   6.872   6.007
 2636SOL    HW2 8808   3.969   6.763   5.897
 2637SOL     OW 8809   1.482   2.012   3.076
 2637SOL    HW1 8810   1.452   2.101   3.043
 2637SOL    HW2 8811   1.423   1.983   3.152
 2638SOL     OW 8812   1.122   6.761   4.386
 2638SOL    HW1 8813   1.215   6.796   4.376
 2638SOL    HW2 8814   1.061   6.836   4.412
 2639SOL     OW 8815   4.096   4.601   5.294
 2639SOL    HW1 8816   4.018   4.640   5.244
 2639SOL    HW2 8817   4.063   4.530   5.356
 2640SOL     OW 8818   1.168   6.549   4.593
 2640SOL    HW1 8819   1.158   6.617   4.521
 2640SOL    HW2 8820   1.265   6.542   4.618
 2641SOL     OW 8821   5.617   2.604   6.825
 2641SOL    HW1 8822   5.606   2.703   6.834
 2641SOL    HW2 8823   5.624   2.580   6.728
 2642SOL     OW 8824   6.253   1.571   3.677
 2642SOL    HW1 8825   6.295   1.481   3.662
 2642SOL    HW2 8826   6.285   1.635   3.607
 2643SOL     OW 8827   1.960   4.913   3.479
 2643SOL    HW1 8828   1.994   4.875   3.565
 2643SOL    HW2 8829   1.885   4.857   3.445
 2644SOL     OW 8830   5.441   5.127   4.522
 2644SOL    HW1 8831   5.413   5.056   4.458
 2644SOL    HW2 8832   5.413   5.216   4.487
 2645SOL     OW 8833   5.329   5.511   2.911
 2645SOL    HW1 8834   5.324   5.556   2.822
 2645SOL    HW2 8835   5.243   5.465   2.931
 2646SOL     OW 8836   0.165   3.159   6.236
 2646SOL    HW1 8837   0.143   3.067   6.267
 2646SOL    HW2 8838   0.211   3.154   6.147
 2647SOL     OW 8839   5.421   0.871   1.458
 2647SOL    HW1 8840   5.371   0.826   1.531
 2647SOL    HW2 8841   5.406   0.970   1.464
 2648SOL     OW 8842   0.955   6.899   5.792
 2648SOL    HW1 8843   0.942   6.848   5.877
 2648SOL    HW2 8844   0.866   6.916   5.750
 2649SOL     OW 8845   5.168   2.421   1.878
 2649SOL    HW1 8846   5.156   2.518   1.858
 2649SOL    HW2 8847   5.227   2.380   1.808
 2650SOL     OW 8848   3.322   6.346   4.298
 2650SOL    HW1 8849   3.268   6.266   4.322
 2650SOL    HW2 8850   3.343   6.399   4.380
 2651SOL     OW 8851   3.901   2.106   4.992
 2651SOL    HW1 8852   3.954   2.021   4.997
 2651SOL    HW2 8853   3.823   2.093   4.930
 2652SOL     OW 8854   4.869   4.679   5.717
 2652SOL    HW1 8855   4.909   4.592   5.690
 2652SOL    HW2 8856   4.770   4.668   5.729
 2653SOL     OW 8857   2.615   5.772   0.274
 2653SOL    HW1 8858   2.627   5.871   0.276
 2653SOL    HW2 8859   2.544   5.748   0.207
 2654SOL     OW 8860   6.303   0.633   0.903
 2654SOL    HW1 8861   6.379   0.688   0.940
 2654SOL    HW2 8862   6.231   0.626   0.971
 2655SOL     OW 8863   4.922   6.168   2.598
 2655SOL    HW1 8864   4.962   6.258   2.615
 2655SOL    HW2 8865   4.824   6.177   2.579
 2656SOL     OW 8866   4.053   6.133   3.126
 2656SOL    HW1 8867   3.999   6.079   3.061
 2656SOL    HW2 8868   4.109   6.199   3.076
 2657SOL     OW 8869   1.378   4.109   6.671
 2657SOL    HW1 8870   1.403   4.099   6.574
 2657SOL    HW2 8871   1.462   4.123   6.725
 2658SOL     OW 8872   4.363   5.418   6.945
 2658SOL    HW1 8873   4.319   5.399   0.006
 2658SOL    HW2 8874   4.440   5.480   6.959
 2659SOL     OW 8875   0.326   1.965   4.430
 2659SOL    HW1 8876   0.372   1.955   4.342
 2659SOL    HW2 8877   0.319   1.876   4.475
 2660SOL     OW 8878   1.119   2.092   1.978
 2660SOL    HW1 8879   1.201   2.083   2.034
 2660SOL    HW2 8880   1.043   2.043   2.021
 2661SOL     OW 8881   1.639   1.150   0.343
 2661SOL    HW1 8882   1.707   1.223   0.338
 2661SOL    HW2 8883   1.685   1.061   0.352
 2662SOL     OW 8884   2.592   0.831   2.046
 2662SOL    HW1 8885   2.665   0.876   1.995
 2662SOL    HW2 8886   2.550   0.760   1.989
 2663SOL     OW 8887   4.454   6.606   0.460
 2663SOL    HW1 8888   4.514   6.686   0.452
 2663SOL    HW2 8889   4.502   6.534   0.508
 2664SOL     OW 8890   4.342   3.414   5.635
 2664SOL    HW1 8891   4.336   3.386   5.731
 2664SOL    HW2 8892   4.397   3.347   5.585
 2665SOL     OW 8893   2.139   3.756   4.346
 2665SOL    HW1 8894   2.122   3.849   4.378
 2665SOL    HW2 8895   2.136   3.693   4.424
 2666SOL     OW 8896   1.820   3.597   2.005
 2666SOL    HW1 8897   1.899   3.658   1.995
 2666SOL    HW2 8898   1.825   3.524   1.937
 2667SOL     OW 8899   6.351   3.430   4.768
 2667SOL    HW1 8900   6.352   3.408   4.670
 2667SOL    HW2 8901   6.401   3.515   4.784
 2668SOL     OW 8902   6.303   1.137   3.704
 2668SOL    HW1 8903   6.208   1.127   3.732
 2668SOL    HW2 8904   6.310   1.211   3.636
 2669SOL     OW 8905   2.489   0.692   0.269
 2669SOL    HW1 8906   2.581   0.653   0.261
 2669SOL    HW2 8907   2.439   0.646   0.342
 2670SOL     OW 8908   0.061   6.939   6.608
 2670SOL    HW1 8909   0.086   6.870   6.540
 2670SOL    HW2 8910   7.012   6.905   6.663
 2671SOL     OW 8911   4.812   4.498   6.222
 2671SOL    HW1 8912   4.886   4.534   6.280
 2671SOL    HW2 8913   4.752   4.440   6.276
 2672SOL     OW 8914   3.470   0.549   1.778
 2672SOL    HW1 8915   3.375   0.559   1.749
 2672SOL    HW2 8916   3.514   0.479   1.722
 2673SOL     OW 8917   4.314   0.215   2.903
 2673SOL    HW1 8918   4.231   0.202   2.851
 2673SOL    HW2 8919   4.293   0.215   3.001
 2674SOL     OW 8920   6.969   5.032   2.028
 2674SOL    HW1 8921   0.007   4.987   2.090
 2674SOL    HW2 8922   6.887   4.976   2.021
 2675SOL     OW 8923   5.380   0.153   3.951
 2675SOL    HW1 8924   5.439   0.073   3.943
 2675SOL    HW2 8925   5.357   0.167   4.047
 2676SOL     OW 8926   3.721   4.101   2.995
 2676SOL    HW1 8927   3.733   4.186   2.943
 2676SOL    HW2 8928   3.768   4.026   2.948
 2677SOL     OW 8929   2.434   4.871   1.394
 2677SOL    HW1 8930   2.374   4.939   1.436
 2677SOL    HW2 8931   2.492   4.914   1.326
 2678SOL     OW 8932   5.150   1.951   2.797
 2678SOL    HW1 8933   5.136   2.041   2.756
 2678SOL    HW2 8934   5.233   1.910   2.760
 2679SOL     OW 8935   2.299   4.352   3.417
 2679SOL    HW1 8936   2.242   4.269   3.419
 2679SOL    HW2 8937   2.240   4.432   3.408
 2680SOL     OW 8938   6.609   1.096   0.380
 2680SOL    HW1 8939   6.666   1.166   0.424
 2680SOL    HW2 8940   6.659   1.055   0.304
 2681SOL     OW 8941   1.955   2.036   5.136
 2681SOL    HW1 8942   1.868   2.062   5.095
 2681SOL    HW2 8943   2.019   2.113   5.133
 2682SOL     OW 8944   3.967   3.986   1.801
 2682SOL    HW1 8945   3.992   3.992   1.898
 2682SOL    HW2 8946   3.874   4.019   1.788
 2683SOL     OW 8947   2.624   4.609   2.417
 2683SOL    HW1 8948   2.674   4.648   2.495
 2683SOL    HW2 8949   2.652   4.656   2.333
 2684SOL     OW 8950   6.458   6.539   3.297
 2684SOL    HW1 8951   6.440   6.503   3.388
 2684SOL    HW2 8952   6.372   6.570   3.256
 2685SOL     OW 8953   1.594   5.732   5.660
 2685SOL    HW1 8954   1.684   5.768   5.688
 2685SOL    HW2 8955   1.590   5.728   5.560
 2686SOL     OW 8956   0.657   1.644   4.995
 2686SOL    HW1 8957   0.698   1.659   5.086
 2686SOL    HW2 8958   0.600   1.562   4.997
 2687SOL     OW 8959   4.005   1.267   1.529
 2687SOL    HW1 8960   4.057   1.334   1.580
 2687SOL    HW2 8961   3.986   1.188   1.587
 2688SOL     OW 8962   3.660   3.141   6.167
 2688SOL    HW1 8963   3.667   3.058   6.112
 2688SOL    HW2 8964   3.745   3.194   6.160
 2689SOL     OW 8965   1.003   3.281   3.175
 2689SOL    HW1 8966   0.987   3.352   3.106
 2689SOL    HW2 8967   1.035   3.323   3.260
 2690SOL     OW 8968   4.350   1.943   5.687
 2690SOL    HW1 8969   4.260   1.988   5.682
 2690SOL    HW2 8970   4.365   1.890   5.603
 2691SOL     OW 8971   6.692   4.310   4.057
 2691SOL    HW1 8972   6.767   4.376   4.063
 2691SOL    HW2 8973   6.617   4.340   4.116
 2692SOL     OW 8974   2.833   5.531   2.785
 2692SOL    HW1 8975   2.736   5.531   2.760
 2692SOL    HW2 8976   2.885   5.581   2.716
 2693SOL     OW 8977   2.195   5.311   3.047
 2693SOL    HW1 8978   2.132   5.288   2.973
 2693SOL    HW2 8979   2.272   5.248   3.046
 2694SOL     OW 8980   2.948   0.164   3.459
 2694SOL    HW1 8981   2.999   0.097   3.513
 2694SOL    HW2 8982   2.944   0.134   3.364
 2695SOL     OW 8983   0.454   5.565   3.356
 2695SOL    HW1 8984   0.494   5.652   3.331
 2695SOL    HW2 8985   0.404   5.574   3.443
 2696SOL     OW 8986   5.287   4.256   6.654
 2696SOL    HW1 8987   5.340   4.178   6.620
 2696SOL    HW2 8988   5.346   4.337   6.657
 2697SOL     OW 8989   4.113   2.054   0.008
 2697SOL    HW1 8990   4.154   2.064   6.944
 2697SOL    HW2 8991   4.025   2.007   7.026
 2698SOL     OW 8992   1.683   4.406   6.262
 2698SOL    HW1 8993   1.605   4.427   6.203
 2698SOL    HW2 8994   1.734   4.329   6.225
 2699SOL     OW 8995   3.303   6.651   1.963
 2699SOL    HW1 8996   3.354   6.603   1.892
 2699SOL    HW2 8997   3.208   6.662   1.935
 2700SOL     OW 8998   3.585   1.575   1.913
 2700SOL    HW1 8999   3.653   1.615   1.852
 2700SOL    HW2 9000   3.498   1.623   1.902
 2701SOL     OW 9001   5.420   3.013   5.169
 2701SOL    HW1 9002   5.518   3.005   5.183
 2701SOL    HW2 9003   5.399   3.100   5.124
 2702SOL     OW 9004   2.619   1.248   4.768
 2702SOL    HW1 9005   2.606   1.304   4.686
 2702SOL    HW2 9006   2.716   1.229   4.781
 2703SOL     OW 9007   1.482   6.676   2.306
 2703SOL    HW1 9008   1.423   6.672   2.225
 2703SOL    HW2 9009   1.577   6.687   2.277
 2704SOL     OW 9010   4.842   0.291   3.965
 2704SOL    HW1 9011   4.877   0.371   4.013
 2704SOL    HW2 9012   4.858   0.209   4.021
 2705SOL     OW 9013   0.157   0.457   5.320
 2705SOL    HW1 9014   0.178   0.552   5.340
 2705SOL    HW2 9015   0.164   0.403   5.404
 2706SOL     OW 9016   6.896   3.667   3.218
 2706SOL    HW1 9017   6.898   3.619   3.306
 2706SOL    HW2 9018   6.960   3.744   3.221
 2707SOL     OW 9019   3.488   0.462   3.086
 2707SOL    HW1 9020   3.403   0.513   3.100
 2707SOL    HW2 9021   3.489   0.422   2.995
 2708SOL     OW 9022   6.068   3.227   6.917
 2708SOL    HW1 9023   5.971   3.223   6.891
 2708SOL    HW2 9024   6.098   3.323   6.917
 2709SOL     OW 9025   4.647   1.309   4.684
 2709SOL    HW1 9026   4.575   1.303   4.753
 2709SOL    HW2 9027   4.609   1.286   4.594
 2710SOL     OW 9028   1.406   3.027   4.239
 2710SOL    HW1 9029   1.396   3.082   4.156
 2710SOL    HW2 9030   1.503   3.009   4.256
 2711SOL     OW 9031   3.681   1.657   2.189
 2711SOL    HW1 9032   3.596   1.687   2.233
 2711SOL    HW2 9033   3.659   1.611   2.103
 2712SOL     OW 9034   4.006   5.615   1.953
 2712SOL    HW1 9035   4.084   5.581   1.900
 2712SOL    HW2 9036   3.934   5.647   1.891
 2713SOL     OW 9037   3.606   4.933   6.569
 2713SOL    HW1 9038   3.545   4.908   6.494
 2713SOL    HW2 9039   3.581   4.882   6.651
 2714SOL     OW 9040   3.137   4.671   6.193
 2714SOL    HW1 9041   3.161   4.646   6.287
 2714SOL    HW2 9042   3.050   4.627   6.168
 2715SOL     OW 9043   4.050   0.939   0.200
 2715SOL    HW1 9044   3.961   0.908   0.234
 2715SOL    HW2 9045   4.070   0.894   0.113
 2716SOL     OW 9046   3.939   1.441   3.435
 2716SOL    HW1 9047   3.934   1.467   3.339
 2716SOL    HW2 9048   3.859   1.387   3.460
 2717SOL     OW 9049   0.902   0.653   2.717
 2717SOL    HW1 9050   0.924   0.642   2.814
 2717SOL    HW2 9051   0.983   0.683   2.667
 2718SOL     OW 9052   0.231   1.052   5.699
 2718SOL    HW1 9053   0.216   1.077   5.795
 2718SOL    HW2 9054   0.293   1.118   5.656
 2719SOL     OW 9055   2.067   4.083   2.027
 2719SOL    HW1 9056   2.123   4.161   2.057
 2719SOL    HW2 9057   2.098   4.000   2.072
 2720SOL     OW 9058   2.427   6.530   6.313
 2720SOL    HW1 9059   2.488   6.563   6.241
 2720SOL    HW2 9060   2.472   6.454   6.362
 2721SOL     OW 9061   3.309   5.808   1.701
 2721SOL    HW1 9062   3.326   5.903   1.678
 2721SOL    HW2 9063   3.386   5.773   1.755
 2722SOL     OW 9064   4.510   6.483   7.018
 2722SOL    HW1 9065   4.599   6.454   0.024
 2722SOL    HW2 9066   4.451   6.403   7.005
 2723SOL     OW 9067   3.476   6.364   6.464
 2723SOL    HW1 9068   3.421   6.426   6.519
 2723SOL    HW2 9069   3.573   6.381   6.481
 2724SOL     OW 9070   0.740   6.209   0.554
 2724SOL    HW1 9071   0.680   6.167   0.485
 2724SOL    HW2 9072   0.835   6.196   0.527
 2725SOL     OW 9073   6.184   4.114   5.111
 2725SOL    HW1 9074   6.209   4.131   5.015
 2725SOL    HW2 9075   6.187   4.200   5.161
 2726SOL     OW 9076   6.968   1.736   1.939
 2726SOL    HW1 9077   6.992   1.818   1.991
 2726SOL    HW2 9078   6.958   1.659   2.002
 2727SOL     OW 9079   1.930   4.756   4.164
 2727SOL    HW1 9080   1.956   4.794   4.253
 2727SOL    HW2 9081   1.989   4.795   4.093
 2728SOL     OW 9082   4.848   5.417   5.836
 2728SOL    HW1 9083   4.923   5.350   5.837
 2728SOL    HW2 9084   4.879   5.502   5.879
 2729SOL     OW 9085   5.070   6.532   6.123
 2729SOL    HW1 9086   5.049   6.629   6.133
 2729SOL    HW2 9087   5.086   6.492   6.213
 2730SOL     OW 9088   0.866   6.393   2.173
 2730SOL    HW1 9089   0.945   6.336   2.150
 2730SOL    HW2 9090   0.897   6.479   2.214
 2731SOL     OW 9091   3.699   3.630   4.148
 2731SOL    HW1 9092   3.641   3.711   4.152
 2731SOL    HW2 9093   3.742   3.624   4.058
 2732SOL     OW 9094   5.933   0.931   1.880
 2732SOL    HW1 9095   6.018   0.983   1.875
 2732SOL    HW2 9096   5.927   0.886   1.969
 2733SOL     OW 9097   1.215   6.494   6.572
 2733SOL    HW1 9098   1.168   6.523   6.655
 2733SOL    HW2 9099   1.238   6.575   6.517
 2734SOL     OW 9100   3.652   6.337   1.533
 2734SOL    HW1 9101   3.711   6.415   1.553
 2734SOL    HW2 9102   3.630   6.290   1.619
 2735SOL     OW 9103   0.990   1.538   1.778
 2735SOL    HW1 9104   0.931   1.539   1.697
 2735SOL    HW2 9105   1.041   1.623   1.783
 2736SOL     OW 9106   5.498   4.543   2.786
 2736SOL    HW1 9107   5.438   4.622   2.802
 2736SOL    HW2 9108   5.580   4.574   2.737
 2737SOL     OW 9109   2.430   1.362   5.922
 2737SOL    HW1 9110   2.476   1.447   5.946
 2737SOL    HW2 9111   2.445   1.294   5.995
 2738SOL     OW 9112   5.645   6.559   1.760
 2738SOL    HW1 9113   5.582   6.631   1.731
 2738SOL    HW2 9114   5.709   6.540   1.685
 2739SOL     OW 9115   6.802   5.770   1.943
 2739SOL    HW1 9116   6.866   5.829   1.992
 2739SOL    HW2 9117   6.851   5.715   1.876
 2740SOL     OW 9118   6.599   5.620   3.806
 2740SOL    HW1 9119   6.669   5.667   3.752
 2740SOL    HW2 9120   6.643   5.559   3.872
 2741SOL     OW 9121   1.367   1.608   4.931
 2741SOL    HW1 9122   1.455   1.562   4.921
 2741SOL    HW2 9123   1.305   1.579   4.858
 2742SOL     OW 9124   2.839   5.581   1.622
 2742SOL    HW1 9125   2.895   5.650   1.668
 2742SOL    HW2 9126   2.891   5.496   1.614
 2743SOL     OW 9127   5.419   3.615   2.841
 2743SOL    HW1 9128   5.481   3.626   2.919
 2743SOL    HW2 9129   5.423   3.520   2.808
 2744SOL     OW 9130   3.426   3.859   3.186
 2744SOL    HW1 9131   3.403   3.951   3.153
 2744SOL    HW2 9132   3.475   3.865   3.273
 2745SOL     OW 9133   0.545   6.870   6.789
 2745SOL    HW1 9134   0.561   6.844   6.884
 2745SOL    HW2 9135   0.448   6.892   6.776
 2746SOL     OW 9136   1.866   1.059   3.264
 2746SOL    HW1 9137   1.845   1.140   3.210
 2746SOL    HW2 9138   1.785   1.031   3.316
 2747SOL     OW 9139   3.707   5.241   1.028
 2747SOL    HW1 9140   3.773   5.184   0.979
 2747SOL    HW2 9141   3.686   5.322   0.974
 2748SOL     OW 9142   4.433   6.747   1.636
 2748SOL    HW1 9143   4.457   6.829   1.585
 2748SOL    HW2 9144   4.503   6.729   1.705
 2749SOL     OW 9145   2.805   3.298   0.037
 2749SOL    HW1 9146   2.885   3.237   0.038
 2749SOL    HW2 9147   2.732   3.255   7.012
 2750SOL     OW 9148   2.016   6.104   2.128
 2750SOL    HW1 9149   2.084   6.134   2.195
 2750SOL    HW2 9150   2.062   6.067   2.048
 2751SOL     OW 9151   5.877   3.536   0.348
 2751SOL    HW1 9152   5.909   3.623   0.312
 2751SOL    HW2 9153   5.913   3.461   0.292
 2752SOL     OW 9154   3.812   5.209   6.782
 2752SOL    HW1 9155   3.846   5.116   6.768
 2752SOL    HW2 9156   3.770   5.243   6.698
 2753SOL     OW 9157   6.428   5.917   5.505
 2753SOL    HW1 9158   6.364   5.974   5.556
 2753SOL    HW2 9159   6.417   5.933   5.407
 2754SOL     OW 9160   0.713   0.244   6.003
 2754SOL    HW1 9161   0.655   0.256   5.922
 2754SOL    HW2 9162   0.807   0.225   5.975
 2755SOL     OW 9163   2.366   0.264   2.154
 2755SOL    HW1 9164   2.335   0.309   2.070
 2755SOL    HW2 9165   2.465   0.279   2.166
 2756SOL     OW 9166   4.913   6.462   0.376
 2756SOL    HW1 9167   4.903   6.551   0.420
 2756SOL    HW2 9168   4.985   6.467   0.307
 2757SOL     OW 9169   0.691   5.235   1.423
 2757SOL    HW1 9170   0.707   5.294   1.344
 2757SOL    HW2 9171   0.771   5.237   1.483
 2758SOL     OW 9172   4.824   0.743   5.553
 2758SOL    HW1 9173   4.787   0.752   5.461
 2758SOL    HW2 9174   4.915   0.784   5.557
 2759SOL     OW 9175   5.894   5.744   4.911
 2759SOL    HW1 9176   5.859   5.838   4.902
 2759SOL    HW2 9177   5.964   5.741   4.983
 2760SOL     OW 9178   2.516   5.529   3.306
 2760SOL    HW1 9179   2.449   5.461   3.275
 2760SOL    HW2 9180   2.504   5.544   3.404
 2761SOL     OW 9181   2.410   6.043   3.063
 2761SOL    HW1 9182   2.485   6.108   3.075
 2761SOL    HW2 9183   2.406   5.982   3.141
 2762SOL     OW 9184   0.755   6.894   5.074
 2762SOL    HW1 9185   0.785   6.972   5.019
 2762SOL    HW2 9186   0.685   6.843   5.025
 2763SOL     OW 9187   5.869   1.779   2.740
 2763SOL    HW1 9188   5.801   1.806   2.808
 2763SOL    HW2 9189   5.952   1.833   2.753
 2764SOL     OW 9190   6.866   0.996   2.031
 2764SOL    HW1 9191   6.887   0.905   1.995
 2764SOL    HW2 9192   6.786   1.033   1.983
 2765SOL     OW 9193   6.535   1.284   1.988
 2765SOL    HW1 9194   6.520   1.348   2.064
 2765SOL    HW2 9195   6.465   1.214   1.989
 2766SOL     OW 9196   6.013   0.991   2.197
 2766SOL    HW1 9197   6.050   0.928   2.129
 2766SOL    HW2 9198   6.087   1.031   2.251
 2767SOL     OW 9199   5.880   4.229   6.422
 2767SOL    HW1 9200   5.925   4.304   6.372
 2767SOL    HW2 9201   5.789   4.259   6.452
 2768SOL     OW 9202   5.304   0.989   6.747
 2768SOL    HW1 9203   5.247   1.069   6.767
 2768SOL    HW2 9204   5.369   1.012   6.674
 2769SOL     OW 9205   0.493   3.799   1.560
 2769SOL    HW1 9206   0.497   3.899   1.568
 2769SOL    HW2 9207   0.437   3.775   1.480
 2770SOL     OW 9208   0.357   5.674   1.711
 2770SOL    HW1 9209   0.301   5.720   1.642
 2770SOL    HW2 9210   0.301   5.610   1.762
 2771SOL     OW 9211   4.825   1.239   1.488
 2771SOL    HW1 9212   4.876   1.177   1.547
 2771SOL    HW2 9213   4.818   1.200   1.396
 2772SOL     OW 9214   3.423   2.446   6.603
 2772SOL    HW1 9215   3.352   2.513   6.582
 2772SOL    HW2 9216   3.443   2.449   6.701
 2773SOL     OW 9217   3.803   3.970   6.480
 2773SOL    HW1 9218   3.715   3.923   6.492
 2773SOL    HW2 9219   3.796   4.034   6.404
 2774SOL     OW 9220   5.671   3.524   2.251
 2774SOL    HW1 9221   5.736   3.538   2.325
 2774SOL    HW2 9222   5.589   3.578   2.268
 2775SOL     OW 9223   0.226   5.871   1.530
 2775SOL    HW1 9224   0.144   5.821   1.502
 2775SOL    HW2 9225   0.199   5.954   1.579
 2776SOL     OW 9226   2.731   6.494   6.351
 2776SOL    HW1 9227   2.726   6.563   6.279
 2776SOL    HW2 9228   2.783   6.529   6.429
 2777SOL     OW 9229   3.295   1.570   2.856
 2777SOL    HW1 9230   3.226   1.632   2.820
 2777SOL    HW2 9231   3.383   1.617   2.860
 2778SOL     OW 9232   2.120   2.210   5.658
 2778SOL    HW1 9233   2.045   2.274   5.677
 2778SOL    HW2 9234   2.200   2.262   5.626
 2779SOL     OW 9235   5.602   0.323   6.903
 2779SOL    HW1 9236   5.512   0.363   6.921
 2779SOL    HW2 9237   5.673   0.381   6.943
 2780SOL     OW 9238   4.984   5.326   6.630
 2780SOL    HW1 9239   4.889   5.304   6.605
 2780SOL    HW2 9240   5.006   5.418   6.598
 2781SOL     OW 9241   5.701   4.638   0.857
 2781SOL    HW1 9242   5.678   4.647   0.760
 2781SOL    HW2 9243   5.767   4.564   0.869
 2782SOL     OW 9244   2.404   2.662   6.167
 2782SOL    HW1 9245   2.473   2.730   6.190
 2782SOL    HW2 9246   2.422   2.625   6.076
 2783SOL     OW 9247   6.986   5.065   5.161
 2783SOL    HW1 9248   6.948   4.983   5.205
 2783SOL    HW2 9249   6.928   5.091   5.084
 2784SOL     OW 9250   2.136   1.869   1.308
 2784SOL    HW1 9251   2.049   1.909   1.339
 2784SOL    HW2 9252   2.212   1.917   1.351
 2785SOL     OW 9253   6.452   0.827   1.006
 2785SOL    HW1 9254   6.506   0.864   0.930
 2785SOL    HW2 9255   6.450   0.893   1.081
 2786SOL     OW 9256   4.328   6.589   1.441
 2786SOL    HW1 9257   4.373   6.661   1.493
 2786SOL    HW2 9258   4.256   6.628   1.385
 2787SOL     OW 9259   2.538   3.014   5.566
 2787SOL    HW1 9260   2.502   2.921   5.568
 2787SOL    HW2 9261   2.638   3.010   5.559
 2788SOL     OW 9262   1.450   3.786   0.682
 2788SOL    HW1 9263   1.511   3.851   0.727
 2788SOL    HW2 9264   1.440   3.811   0.585
 2789SOL     OW 9265   0.604   2.299   4.172
 2789SOL    HW1 9266   0.532   2.229   4.168
 2789SOL    HW2 9267   0.676   2.277   4.106
 2790SOL     OW 9268   4.243   5.514   2.785
 2790SOL    HW1 9269   4.144   5.510   2.796
 2790SOL    HW2 9270   4.266   5.572   2.706
 2791SOL     OW 9271   1.771   3.245   4.865
 2791SOL    HW1 9272   1.825   3.202   4.793
 2791SOL    HW2 9273   1.674   3.237   4.845
 2792SOL     OW 9274   0.864   1.881   5.466
 2792SOL    HW1 9275   0.797   1.821   5.509
 2792SOL    HW2 9276   0.956   1.846   5.484
 2793SOL     OW 9277   4.525   1.298   3.444
 2793SOL    HW1 9278   4.571   1.249   3.519
 2793SOL    HW2 9279   4.588   1.306   3.367
 2794SOL     OW 9280   0.873   0.571   0.807
 2794SOL    HW1 9281   0.773   0.578   0.804
 2794SOL    HW2 9282   0.900   0.510   0.881
 2795SOL     OW 9283   2.422   3.804   1.049
 2795SOL    HW1 9284   2.354   3.876   1.041
 2795SOL    HW2 9285   2.506   3.832   1.002
 2796SOL     OW 9286   5.367   3.950   2.436
 2796SOL    HW1 9287   5.385   4.042   2.470
 2796SOL    HW2 9288   5.448   3.893   2.450
 2797SOL     OW 9289   4.826   4.850   4.826
 2797SOL    HW1 9290   4.727   4.848   4.835
 2797SOL    HW2 9291   4.852   4.908   4.749
 2798SOL     OW 9292   0.863   3.522   4.298
 2798SOL    HW1 9293   0.808   3.537   4.216
 2798SOL    HW2 9294   0.813   3.555   4.378
 2799SOL     OW 9295   6.355   4.555   6.226
 2799SOL    HW1 9296   6.449   4.584   6.244
 2799SOL    HW2 9297   6.353   4.456   6.210
 2800SOL     OW 9298   3.101   4.526   6.655
 2800SOL    HW1 9299   3.057   4.572   6.732
 2800SOL    HW2 9300   3.031   4.482   6.599
 2801SOL     OW 9301   5.687   5.593   1.864
 2801SOL    HW1 9302   5.769   5.616   1.917
 2801SOL    HW2 9303   5.639   5.517   1.909
 2802SOL     OW 9304   4.424   1.441   5.898
 2802SOL    HW1 9305   4.373   1.493   5.966
 2802SOL    HW2 9306   4.386   1.349   5.890
 2803SOL     OW 9307   3.146   6.507   6.676
 2803SOL    HW1 9308   3.091   6.463   6.604
 2803SOL    HW2 9309   3.093   6.580   6.718
 2804SOL     OW 9310   6.895   4.378   3.575
 2804SOL    HW1 9311   6.834   4.318   3.627
 2804SOL    HW2 9312   6.984   4.384   3.621
 2805SOL     OW 9313   5.303   2.945   0.360
 2805SOL    HW1 9314   5.208   2.953   0.330
 2805SOL    HW2 9315   5.348   2.871   0.310
 2806SOL     OW 9316   6.634   5.378   3.247
 2806SOL    HW1 9317   6.705   5.316   3.283
 2806SOL    HW2 9318   6.675   5.440   3.180
 2807SOL     OW 9319   4.491   4.958   3.183
 2807SOL    HW1 9320   4.440   5.023   3.239
 2807SOL    HW2 9321   4.435   4.876   3.168
 2808SOL     OW 9322   5.380   1.079   4.167
 2808SOL    HW1 9323   5.378   1.146   4.093
 2808SOL    HW2 9324   5.317   1.004   4.145
 2809SOL     OW 9325   5.165   2.445   0.952
 2809SOL    HW1 9326   5.114   2.430   0.867
 2809SOL    HW2 9327   5.113   2.507   1.011
 2810SOL     OW 9328   2.316   6.713   4.943
 2810SOL    HW1 9329   2.219   6.716   4.966
 2810SOL    HW2 9330   2.356   6.804   4.953
 2811SOL     OW 9331   0.035   2.056   3.198
 2811SOL    HW1 9332   0.075   2.139   3.235
 2811SOL    HW2 9333   0.068   1.976   3.249
 2812SOL     OW 9334   4.863   3.821   1.958
 2812SOL    HW1 9335   4.912   3.903   1.928
 2812SOL    HW2 9336   4.830   3.834   2.051
 2813SOL     OW 9337   5.930   0.647   6.646
 2813SOL    HW1 9338   5.961   0.576   6.709
 2813SOL    HW2 9339   5.885   0.605   6.567
 2814SOL     OW 9340   4.736   3.955   5.633
 2814SOL    HW1 9341   4.775   4.039   5.595
 2814SOL    HW2 9342   4.809   3.888   5.646
 2815SOL     OW 9343   0.218   1.198   5.080
 2815SOL    HW1 9344   0.216   1.135   5.004
 2815SOL    HW2 9345   0.157   1.275   5.062
 2816SOL     OW 9346   5.630   6.705   3.966
 2816SOL    HW1 9347   5.641   6.726   3.869
 2816SOL    HW2 9348   5.557   6.638   3.977
 2817SOL     OW 9349   1.136   1.786   1.336
 2817SOL    HW1 9350   1.188   1.780   1.421
 2817SOL    HW2 9351   1.055   1.843   1.350
 2818SOL     OW 9352   6.574   4.714   5.457
 2818SOL    HW1 9353   6.507   4.722   5.384
 2818SOL    HW2 9354   6.651   4.658   5.427
 2819SOL     OW 9355   0.117   2.790   1.273
 2819SOL    HW1 9356   0.177   2.845   1.215
 2819SOL    HW2 9357   0.094   2.704   1.225
 2820SOL     OW 9358   6.773   3.248   3.672
 2820SOL    HW1 9359   6.849   3.289   3.723
 2820SOL    HW2 9360   6.776   3.149   3.682
 2821SOL     OW 9361   0.805   4.288   4.956
 2821SOL    HW1 9362   0.892   4.337   4.959
 2821SOL    HW2 9363   0.814   4.201   5.005
 2822SOL     OW 9364   4.669   2.040   6.942
 2822SOL    HW1 9365   4.747   2.006   6.994
 2822SOL    HW2 9366   4.584   2.014   6.987
 2823SOL     OW 9367   1.699   6.335   2.890
 2823SOL    HW1 9368   1.785   6.331   2.941
 2823SOL    HW2 9369   1.662   6.243   2.881
 2824SOL     OW 9370   2.886   1.687   5.669
 2824SOL    HW1 9371   2.806   1.703   5.612
 2824SOL    HW2 9372   2.969   1.717   5.621
 2825SOL     OW 9373   6.656   6.478   1.330
 2825SOL    HW1 9374   6.557   6.459   1.333
 2825SOL    HW2 9375   6.672   6.560   1.275
 2826SOL     OW 9376   4.876   1.481   4.742
 2826SOL    HW1 9377   4.875   1.512   4.838
 2826SOL    HW2 9378   4.830   1.393   4.735
 2827SOL     OW 9379   5.687   1.311   5.210
 2827SOL    HW1 9380   5.593   1.334   5.183
 2827SOL    HW2 9381   5.685   1.250   5.289
 2828SOL     OW 9382   4.217   1.568   5.691
 2828SOL    HW1 9383   4.133   1.601   5.647
 2828SOL    HW2 9384   4.212   1.584   5.789
 2829SOL     OW 9385   2.766   6.980   5.916
 2829SOL    HW1 9386   2.680   6.987   5.966
 2829SOL    HW2 9387   2.764   6.898   5.858
 2830SOL     OW 9388   4.164   3.511   6.849
 2830SOL    HW1 9389   4.156   3.454   6.767
 2830SOL    HW2 9390   4.122   3.464   6.926
 2831SOL     OW 9391   5.725   6.150   4.385
 2831SOL    HW1 9392   5.795   6.210   4.346
 2831SOL    HW2 9393   5.635   6.188   4.368
 2832SOL     OW 9394   0.602   1.197   2.336
 2832SOL    HW1 9395   0.655   1.228   2.258
 2832SOL    HW2 9396   0.506   1.222   2.323
 2833SOL     OW 9397   6.191   3.004   2.024
 2833SOL    HW1 9398   6.240   2.943   1.961
 2833SOL    HW2 9399   6.173   2.957   2.110
 2834SOL     OW 9400   3.871   1.494   5.064
 2834SOL    HW1 9401   3.798   1.456   5.120
 2834SOL    HW2 9402   3.952   1.508   5.120
 2835SOL     OW 9403   0.439   0.273   2.612
 2835SOL    HW1 9404   0.488   0.196   2.652
 2835SOL    HW2 9405   0.503   0.348   2.593
 2836SOL     OW 9406   6.964   0.260   1.378
 2836SOL    HW1 9407   6.891   0.308   1.329
 2836SOL    HW2 9408   6.934   0.167   1.399
 2837SOL     OW 9409   5.137   4.066   3.985
 2837SOL    HW1 9410   5.045   4.051   3.949
 2837SOL    HW2 9411   5.155   4.165   3.990
 2838SOL     OW 9412   3.347   4.944   2.613
 2838SOL    HW1 9413   3.331   4.912   2.520
 2838SOL    HW2 9414   3.446   4.952   2.630
 2839SOL     OW 9415   5.312   1.906   1.478
 2839SOL    HW1 9416   5.262   1.906   1.391
 2839SOL    HW2 9417   5.335   1.812   1.502
 2840SOL     OW 9418   6.518   1.306   5.514
 2840SOL    HW1 9419   6.486   1.393   5.551
 2840SOL    HW2 9420   6.524   1.312   5.415
 2841SOL     OW 9421   0.708   6.286   0.793
 2841SOL    HW1 9422   0.713   6.276   0.694
 2841SOL    HW2 9423   0.787   6.338   0.825
 2842SOL     OW 9424   6.661   3.696   3.094
 2842SOL    HW1 9425   6.757   3.678   3.117
 2842SOL    HW2 9426   6.615   3.611   3.071
 2843SOL     OW 9427   3.993   0.781   4.509
 2843SOL    HW1 9428   3.974   0.847   4.582
 2843SOL    HW2 9429   3.973   0.823   4.420
 2844SOL     OW 9430   0.537   4.056   6.449
 2844SOL    HW1 9431   0.505   4.111   6.372
 2844SOL    HW2 9432   0.472   3.982   6.467
 2845SOL     OW 9433   0.024   4.643   6.053
 2845SOL    HW1 9434   7.020   4.663   5.960
 2845SOL    HW2 9435   0.123   4.634   6.053
 2846SOL     OW 9436   4.826   1.707   6.321
 2846SOL    HW1 9437   4.768   1.767   6.266
 2846SOL    HW2 9438   4.866   1.759   6.396
 2847SOL     OW 9439   5.727   4.602   4.201
 2847SOL    HW1 9440   5.784   4.572   4.277
 2847SOL    HW2 9441   5.644   4.645   4.236
 2848SOL     OW 9442   1.227   5.061   4.647
 2848SOL    HW1 9443   1.266   5.007   4.721
 2848SOL    HW2 9444   1.148   5.012   4.609
 2849SOL     OW 9445   2.920   1.988   1.079
 2849SOL    HW1 9446   2.986   2.049   1.036
 2849SOL    HW2 9447   2.918   1.900   1.031
 2850SOL     OW 9448   3.417   0.150   0.381
 2850SOL    HW1 9449   3.432   0.103   0.294
 2850SOL    HW2 9450   3.491   0.126   0.444
 2851SOL     OW 9451   1.204   4.577   5.629
 2851SOL    HW1 9452   1.139   4.640   5.586
 2851SOL    HW2 9453   1.220   4.605   5.724
 2852SOL     OW 9454   6.995   3.289   6.882
 2852SOL    HW1 9455   6.900   3.265   6.860
 2852SOL    HW2 9456   0.029   3.239   6.821
 2853SOL     OW 9457   3.274   3.347   0.934
 2853SOL    HW1 9458   3.345   3.376   0.998
 2853SOL    HW2 9459   3.198   3.307   0.985
 2854SOL     OW 9460   2.630   0.886   3.531
 2854SOL    HW1 9461   2.621   0.915   3.436
 2854SOL    HW2 9462   2.611   0.963   3.591
 2855SOL     OW 9463   2.097   0.820   5.061
 2855SOL    HW1 9464   2.176   0.858   5.012
 2855SOL    HW2 9465   2.115   0.824   5.159
 2856SOL     OW 9466   2.355   2.845   5.308
 2856SOL    HW1 9467   2.287   2.818   5.239
 2856SOL    HW2 9468   2.428   2.897   5.264
 2857SOL     OW 9469   3.031   2.898   1.445
 2857SOL    HW1 9470   3.058   2.818   1.391
 2857SOL    HW2 9471   3.051   2.882   1.542
 2858SOL     OW 9472   6.671   3.184   2.564
 2858SOL    HW1 9473   6.741   3.114   2.566
 2858SOL    HW2 9474   6.714   3.275   2.562
 2859SOL     OW 9475   5.655   0.269   0.918
 2859SOL    HW1 9476   5.706   0.340   0.968
 2859SOL    HW2 9477   5.560   0.298   0.908
 2860SOL     OW 9478   3.988   1.431   2.084
 2860SOL    HW1 9479   4.023   1.519   2.118
 2860SOL    HW2 9480   3.940   1.445   1.998
 2861SOL     OW 9481   3.426   5.574   5.434
 2861SOL    HW1 9482   3.450   5.482   5.464
 2861SOL    HW2 9483   3.452   5.640   5.505
 2862SOL     OW 9484   5.861   1.020   4.170
 2862SOL    HW1 9485   5.921   0.944   4.197
 2862SOL    HW2 9486   5.785   0.984   4.116
 2863SOL     OW 9487   6.790   1.858   6.756
 2863SOL    HW1 9488   6.720   1.876   6.825
 2863SOL    HW2 9489   6.766   1.777   6.704
 2864SOL     OW 9490   3.974   1.104   0.667
 2864SOL    HW1 9491   4.068   1.133   0.646
 2864SOL    HW2 9492   3.952   1.023   0.613
 2865SOL     OW 9493   4.662   4.543   5.276
 2865SOL    HW1 9494   4.676   4.541   5.177
 2865SOL    HW2 9495   4.716   4.469   5.318
 2866SOL     OW 9496   0.337   6.443   6.224
 2866SOL    HW1 9497   0.258   6.464   6.281
 2866SOL    HW2 9498   0.330   6.350   6.189
 2867SOL     OW 9499   6.063   4.369   3.992
 2867SOL    HW1 9500   6.066   4.446   3.929
 2867SOL    HW2 9501   6.005   4.297   3.954
 2868SOL     OW 9502   1.247   3.761   5.320
 2868SOL    HW1 9503   1.249   3.783   5.417
 2868SOL    HW2 9504   1.158   3.721   5.297
 2869SOL     OW 9505   6.161   1.072   1.839
 2869SOL    HW1 9506   6.199   1.040   1.753
 2869SOL    HW2 9507   6.119   1.162   1.825
 2870SOL     OW 9508   6.023   2.450   3.074
 2870SOL    HW1 9509   6.075   2.500   3.005
 2870SOL    HW2 9510   5.950   2.509   3.109
 2871SOL     OW 9511   1.577   1.882   6.081
 2871SOL    HW1 9512   1.638   1.888   6.160
 2871SOL    HW2 9513   1.577   1.970   6.033
 2872SOL     OW 9514   2.729   0.595   3.443
 2872SOL    HW1 9515   2.674   0.605   3.526
 2872SOL    HW2 9516   2.720   0.502   3.408
 2873SOL     OW 9517   0.365   5.631   2.064
 2873SOL    HW1 9518   0.348   5.532   2.070
 2873SOL    HW2 9519   0.282   5.678   2.036
 2874SOL     OW 9520   5.725   3.112   2.180
 2874SOL    HW1 9521   5.695   3.053   2.105
 2874SOL    HW2 9522   5.649   3.128   2.242
 2875SOL     OW 9523   3.568   5.520   6.329
 2875SOL    HW1 9524   3.585   5.532   6.427
 2875SOL    HW2 9525   3.473   5.491   6.315
 2876SOL     OW 9526   0.329   0.978   1.726
 2876SOL    HW1 9527   0.231   0.980   1.743
 2876SOL    HW2 9528   0.377   1.032   1.795
 2877SOL     OW 9529   2.980   2.785   5.307
 2877SOL    HW1 9530   2.909   2.854   5.293
 2877SOL    HW2 9531   3.070   2.828   5.301
 2878SOL     OW 9532   2.542   4.720   5.422
 2878SOL    HW1 9533   2.461   4.725   5.364
 2878SOL    HW2 9534   2.608   4.790   5.393
 2879SOL     OW 9535   4.799   4.549   0.593
 2879SOL    HW1 9536   4.852   4.497   0.526
 2879SOL    HW2 9537   4.796   4.498   0.679
 2880SOL     OW 9538   1.134   6.326   1.646
 2880SOL    HW1 9539   1.036   6.305   1.651
 2880SOL    HW2 9540   1.179   6.258   1.588
 2881SOL     OW 9541   6.822   6.165   0.750
 2881SOL    HW1 9542   6.767   6.248   0.746
 2881SOL    HW2 9543   6.778   6.093   0.695
 2882SOL     OW 9544   0.410   3.137   3.250
 2882SOL    HW1 9545   0.336   3.200   3.226
 2882SOL    HW2 9546   0.420   3.135   3.350
 2883SOL     OW 9547   3.678   0.174   2.271
 2883SOL    HW1 9548   3.718   0.095   2.225
 2883SOL    HW2 9549   3.746   0.217   2.330
 2884SOL     OW 9550   1.106   5.544   3.386
 2884SOL    HW1 9551   1.190   5.589   3.417
 2884SOL    HW2 9552   1.056   5.509   3.465
 2885SOL     OW 9553   0.950   2.576   2.664
 2885SOL    HW1 9554   1.044   2.544   2.668
 2885SOL    HW2 9555   0.900   2.542   2.744
 2886SOL     OW 9556   2.379   1.788   6.413
 2886SOL    HW1 9557   2.420   1.871   6.375
 2886SOL    HW2 9558   2.280   1.795   6.410
 2887SOL     OW 9559   1.335   0.484   5.129
 2887SOL    HW1 9560   1.330   0.406   5.190
 2887SOL    HW2 9561   1.244   0.523   5.116
 2888SOL     OW 9562   5.867   4.932   0.032
 2888SOL    HW1 9563   5.855   5.003   6.990
 2888SOL    HW2 9564   5.876   4.843   7.014
 2889SOL     OW 9565   0.558   0.146   1.622
 2889SOL    HW1 9566   0.509   0.154   1.708
 2889SOL    HW2 9567   0.539   0.226   1.565
 2890SOL     OW 9568   4.282   0.624   2.166
 2890SOL    HW1 9569   4.304   0.626   2.069
 2890SOL    HW2 9570   4.245   0.534   2.189
 2891SOL     OW 9571   2.556   4.649   3.826
 2891SOL    HW1 9572   2.597   4.611   3.908
 2891SOL    HW2 9573   2.551   4.749   3.835
 2892SOL     OW 9574   4.094   3.785   6.846
 2892SOL    HW1 9575   4.172   3.833   6.807
 2892SOL    HW2 9576   4.116   3.688   6.857
 2893SOL     OW 9577   2.314   0.174   4.951
 2893SOL    HW1 9578   2.238   0.213   4.900
 2893SOL    HW2 9579   2.299   0.189   5.049
 2894SOL     OW 9580   3.538   2.672   6.882
 2894SOL    HW1 9581   3.473   2.620   6.936
 2894SOL    HW2 9582   3.549   2.763   6.922
 2895SOL     OW 9583   3.646   3.534   6.272
 2895SOL    HW1 9584   3.719   3.599   6.293
 2895SOL    HW2 9585   3.601   3.506   6.357
 2896SOL     OW 9586   2.114   5.115   0.946
 2896SOL    HW1 9587   2.180   5.078   0.881
 2896SOL    HW2 9588   2.026   5.128   0.901
 2897SOL     OW 9589   2.517   6.177   3.636
 2897SOL    HW1 9590   2.556   6.100   3.586
 2897SOL    HW2 9591   2.422   6.158   3.660
 2898SOL     OW 9592   3.461   5.208   1.860
 2898SOL    HW1 9593   3.532   5.138   1.862
 2898SOL    HW2 9594   3.411   5.207   1.947
 2899SOL     OW 9595   6.764   6.882   0.075
 2899SOL    HW1 9596   6.758   6.973   0.033
 2899SOL    HW2 9597   6.707   6.881   0.158
 2900SOL     OW 9598   1.440   5.096   6.089
 2900SOL    HW1 9599   1.464   5.141   6.003
 2900SOL    HW2 9600   1.451   5.161   6.164
 2901SOL     OW 9601   2.820   0.691   1.751
 2901SOL    HW1 9602   2.773   0.604   1.737
 2901SOL    HW2 9603   2.754   0.760   1.781
 2902SOL     OW 9604   5.729   6.287   0.874
 2902SOL    HW1 9605   5.649   6.259   0.820
 2902SOL    HW2 9606   5.804   6.312   0.813
 2903SOL     OW 9607   2.618   1.333   2.024
 2903SOL    HW1 9608   2.653   1.427   2.032
 2903SOL    HW2 9609   2.547   1.330   1.954
 2904SOL     OW 9610   1.857   2.651   5.537
 2904SOL    HW1 9611   1.867   2.748   5.558
 2904SOL    HW2 9612   1.871   2.598   5.621
 2905SOL     OW 9613   1.604   1.961   1.589
 2905SOL    HW1 9614   1.533   1.946   1.658
 2905SOL    HW2 9615   1.569   1.935   1.499
 2906SOL     OW 9616   5.829   5.231   2.370
 2906SOL    HW1 9617   5.736   5.236   2.333
 2906SOL    HW2 9618   5.886   5.176   2.309
 2907SOL     OW 9619   6.848   1.587   4.512
 2907SOL    HW1 9620   6.774   1.528   4.479
 2907SOL    HW2 9621   6.841   1.596   4.611
 2908SOL     OW 9622   3.634   5.916   4.079
 2908SOL    HW1 9623   3.665   6.009   4.099
 2908SOL    HW2 9624   3.537   5.919   4.051
 2909SOL     OW 9625   1.328   5.440   4.815
 2909SOL    HW1 9626   1.381   5.520   4.843
 2909SOL    HW2 9627   1.343   5.422   4.717
 2910SOL     OW 9628   4.063   6.459   5.909
 2910SOL    HW1 9629   4.110   6.381   5.867
 2910SOL    HW2 9630   4.117   6.493   5.986
 2911SOL     OW 9631   1.824   4.848   3.015
 2911SOL    HW1 9632   1.729   4.878   3.009
 2911SOL    HW2 9633   1.863   4.878   3.102
 2912SOL     OW 9634   2.572   6.125   0.556
 2912SOL    HW1 9635   2.552   6.217   0.589
 2912SOL    HW2 9636   2.660   6.095   0.593
 2913SOL     OW 9637   1.746   3.613   2.715
 2913SOL    HW1 9638   1.665   3.672   2.717
 2913SOL    HW2 9639   1.718   3.517   2.710
 2914SOL     OW 9640   5.658   5.372   5.934
 2914SOL    HW1 9641   5.618   5.461   5.954
 2914SOL    HW2 9642   5.609   5.301   5.984
 2915SOL     OW 9643   4.157   1.584   3.943
 2915SOL    HW1 9644   4.208   1.657   3.897
 2915SOL    HW2 9645   4.220   1.533   4.003
 2916SOL     OW 9646   6.015   5.302   5.350
 2916SOL    HW1 9647   5.942   5.291   5.417
 2916SOL    HW2 9648   6.022   5.220   5.293
 2917SOL     OW 9649   4.551   0.761   2.034
 2917SOL    HW1 9650   4.595   0.675   2.009
 2917SOL    HW2 9651   4.534   0.815   1.951
 2918SOL     OW 9652   0.632   3.776   3.936
 2918SOL    HW1 9653   0.625   3.774   3.836
 2918SOL    HW2 9654   0.542   3.796   3.975
 2919SOL     OW 9655   6.073   5.979   0.279
 2919SOL    HW1 9656   6.133   5.934   0.345
 2919SOL    HW2 9657   5.978   5.974   0.311
 2920SOL     OW 9658   4.137   2.144   2.595
 2920SOL    HW1 9659   4.061   2.145   2.531
 2920SOL    HW2 9660   4.223   2.132   2.545
 2921SOL     OW 9661   0.237   0.827   2.484
 2921SOL    HW1 9662   0.250   0.924   2.462
 2921SOL    HW2 9663   0.181   0.819   2.567
 2922SOL     OW 9664   4.670   0.105   5.366
 2922SOL    HW1 9665   4.734   0.061   5.429
 2922SOL    HW2 9666   4.711   0.190   5.331
 2923SOL     OW 9667   6.449   4.814   2.519
 2923SOL    HW1 9668   6.360   4.847   2.486
 2923SOL    HW2 9669   6.471   4.858   2.606
 2924SOL     OW 9670   0.324   1.527   5.215
 2924SOL    HW1 9671   0.268   1.579   5.152
 2924SOL    HW2 9672   0.379   1.461   5.164
 2925SOL     OW 9673   5.536   3.394   1.595
 2925SOL    HW1 9674   5.621   3.444   1.577
 2925SOL    HW2 9675   5.481   3.445   1.660
 2926SOL     OW 9676   6.946   2.237   4.951
 2926SOL    HW1 9677   7.013   2.223   5.024
 2926SOL    HW2 9678   6.968   2.180   4.873
 2927SOL     OW 9679   1.206   3.010   2.392
 2927SOL    HW1 9680   1.220   2.930   2.334
 2927SOL    HW2 9681   1.111   3.041   2.384
 2928SOL     OW 9682   6.116   0.268   0.189
 2928SOL    HW1 9683   6.166   0.323   0.123
 2928SOL    HW2 9684   6.019   0.265   0.164
 2929SOL     OW 9685   6.990   0.211   6.157
 2929SOL    HW1 9686   6.951   0.126   6.193
 2929SOL    HW2 9687   6.974   0.285   6.222
 2930SOL     OW 9688   4.568   0.019   4.007
 2930SOL    HW1 9689   4.591   0.025   4.104
 2930SOL    HW2 9690   4.533   0.107   3.975
 2931SOL     OW 9691   4.440   6.646   6.561
 2931SOL    HW1 9692   4.352   6.642   6.515
 2931SOL    HW2 9693   4.426   6.645   6.660
 2932SOL     OW 9694   1.083   3.814   1.170
 2932SOL    HW1 9695   1.163   3.858   1.210
 2932SOL    HW2 9696   1.109   3.763   1.089
 2933SOL     OW 9697   5.002   2.199   3.710
 2933SOL    HW1 9698   5.093   2.215   3.747
 2933SOL    HW2 9699   4.985   2.263   3.635
 2934SOL     OW 9700   2.653   0.796   0.056
 2934SOL    HW1 9701   2.610   0.756   7.002
 2934SOL    HW2 9702   2.583   0.814   0.125
 2935SOL     OW 9703   5.903   2.610   1.151
 2935SOL    HW1 9704   5.860   2.520   1.158
 2935SOL    HW2 9705   5.895   2.645   1.058
 2936SOL     OW 9706   4.828   5.939   0.228
 2936SOL    HW1 9707   4.745   5.928   0.283
 2936SOL    HW2 9708   4.807   5.992   0.146
 2937SOL     OW 9709   3.285   5.909   6.968
 2937SOL    HW1 9710   3.288   5.962   0.026
 2937SOL    HW2 9711   3.310   5.814   6.987
 2938SOL     OW 9712   5.035   5.705   5.503
 2938SOL    HW1 9713   5.039   5.740   5.409
 2938SOL    HW2 9714   4.941   5.711   5.536
 2939SOL     OW 9715   6.649   6.335   5.626
 2939SOL    HW1 9716   6.562   6.346   5.675
 2939SOL    HW2 9717   6.698   6.422   5.626
 2940SOL     OW 9718   5.018   0.160   5.285
 2940SOL    HW1 9719   4.990   0.242   5.335
 2940SOL    HW2 9720   5.089   0.112   5.337
 2941SOL     OW 9721   1.243   2.083   5.570
 2941SOL    HW1 9722   1.307   2.006   5.581
 2941SOL    HW2 9723   1.244   2.113   5.474
 2942SOL     OW 9724   3.415   6.341   2.322
 2942SOL    HW1 9725   3.341   6.374   2.264
 2942SOL    HW2 9726   3.490   6.408   2.321
 2943SOL     OW 9727   6.104   3.732   3.694
 2943SOL    HW1 9728   6.144   3.749   3.604
 2943SOL    HW2 9729   6.004   3.744   3.688
 2944SOL     OW 9730   4.122   5.644   5.148
 2944SOL    HW1 9731   4.131   5.743   5.144
 2944SOL    HW2 9732   4.146   5.612   5.239
 2945SOL     OW 9733   3.082   3.100   3.217
 2945SOL    HW1 9734   3.049   3.143   3.133
 2945SOL    HW2 9735   3.037   3.142   3.296
 2946SOL     OW 9736   6.872   6.036   6.482
 2946SOL    HW1 9737   6.852   6.112   6.419
 2946SOL    HW2 9738   6.928   6.069   6.557
 2947SOL     OW 9739   6.406   4.149   0.355
 2947SOL    HW1 9740   6.346   4.116   0.282
 2947SOL    HW2 9741   6.399   4.248   0.361
 2948SOL     OW 9742   5.777   4.100   4.319
 2948SOL    HW1 9743   5.789   4.152   4.403
 2948SOL    HW2 9744   5.707   4.030   4.333
 2949SOL     OW 9745   1.210   6.896   0.231
 2949SOL    HW1 9746   1.233   6.983   0.189
 2949SOL    HW2 9747   1.286   6.832   0.220
 2950SOL     OW 9748   5.182   3.434   4.377
 2950SOL    HW1 9749   5.194   3.351   4.432
 2950SOL    HW2 9750   5.208   3.415   4.282
 2951SOL     OW 9751   0.654   1.547   1.211
 2951SOL    HW1 9752   0.741   1.517   1.172
 2951SOL    HW2 9753   0.581   1.487   1.179
 2952SOL     OW 9754   1.821   3.914   2.589
 2952SOL    HW1 9755   1.791   3.830   2.633
 2952SOL    HW2 9756   1.783   3.993   2.637
 2953SOL     OW 9757   4.502   2.494   1.820
 2953SOL    HW1 9758   4.518   2.536   1.730
 2953SOL    HW2 9759   4.538   2.555   1.891
 2954SOL     OW 9760   6.787   6.796   3.270
 2954SOL    HW1 9761   6.804   6.722   3.204
 2954SOL    HW2 9762   6.780   6.757   3.362
 2955SOL     OW 9763   1.057   2.960   0.444
 2955SOL    HW1 9764   1.099   2.918   0.524
 2955SOL    HW2 9765   0.985   3.023   0.474
 2956SOL     OW 9766   0.200   4.839   3.063
 2956SOL    HW1 9767   0.144   4.760   3.086
 2956SOL    HW2 9768   0.225   4.837   2.966
 2957SOL     OW 9769   0.606   3.642   2.035
 2957SOL    HW1 9770   0.664   3.561   2.034
 2957SOL    HW2 9771   0.612   3.688   1.946
 2958SOL     OW 9772   1.889   4.395   6.008
 2958SOL    HW1 9773   1.833   4.471   6.040
 2958SOL    HW2 9774   1.881   4.318   6.072
 2959SOL     OW 9775   4.357   5.679   6.324
 2959SOL    HW1 9776   4.431   5.626   6.365
 2959SOL    HW2 9777   4.269   5.651   6.363
 2960SOL     OW 9778   1.904   1.469   0.086
 2960SOL    HW1 9779   1.985   1.412   0.073
 2960SOL    HW2 9780   1.822   1.414   0.073
 2961SOL     OW 9781   5.392   3.526   3.866
 2961SOL    HW1 9782   5.420   3.440   3.822
 2961SOL    HW2 9783   5.367   3.593   3.796
 2962SOL     OW 9784   4.663   0.692   3.533
 2962SOL    HW1 9785   4.582   0.689   3.475
 2962SOL    HW2 9786   4.744   0.710   3.477
 2963SOL     OW 9787   2.304   1.693   5.164
 2963SOL    HW1 9788   2.284   1.747   5.082
 2963SOL    HW2 9789   2.280   1.747   5.245
 2964SOL     OW 9790   2.636   6.400   1.193
 2964SOL    HW1 9791   2.597   6.471   1.134
 2964SOL    HW2 9792   2.564   6.339   1.225
 2965SOL     OW 9793   0.375   1.584   6.008
 2965SOL    HW1 9794   0.328   1.630   5.933
 2965SOL    HW2 9795   0.473   1.578   5.986
 2966SOL     OW 9796   5.363   4.876   4.106
 2966SOL    HW1 9797   5.288   4.824   4.064
 2966SOL    HW2 9798   5.348   4.974   4.092
 2967SOL     OW 9799   5.952   3.143   3.424
 2967SOL    HW1 9800   6.040   3.163   3.382
 2967SOL    HW2 9801   5.891   3.103   3.356
 2968SOL     OW 9802   0.651   3.991   4.164
 2968SOL    HW1 9803   0.720   4.021   4.098
 2968SOL    HW2 9804   0.590   3.924   4.120
 2969SOL     OW 9805   4.495   2.173   4.842
 2969SOL    HW1 9806   4.454   2.099   4.789
 2969SOL    HW2 9807   4.439   2.255   4.834
 2970SOL     OW 9808   0.619   4.640   6.134
 2970SOL    HW1 9809   0.692   4.591   6.086
 2970SOL    HW2 9810   0.576   4.579   6.200
 2971SOL     OW 9811   5.602   2.456   2.942
 2971SOL    HW1 9812   5.581   2.542   2.896
 2971SOL    HW2 9813   5.571   2.380   2.885
 2972SOL     OW 9814   6.706   3.365   6.070
 2972SOL    HW1 9815   6.705   3.333   5.975
 2972SOL    HW2 9816   6.800   3.368   6.103
 2973SOL     OW 9817   4.625   6.378   3.910
 2973SOL    HW1 9818   4.720   6.379   3.940
 2973SOL    HW2 9819   4.620   6.401   3.812
 2974SOL     OW 9820   6.943   4.201   3.022
 2974SOL    HW1 9821   0.010   4.174   3.044
 2974SOL    HW2 9822   6.880   4.129   3.052
 2975SOL     OW 9823   0.215   0.705   5.385
 2975SOL    HW1 9824   0.263   0.721   5.299
 2975SOL    HW2 9825   0.170   0.789   5.415
 2976SOL     OW 9826   3.613   1.005   2.770
 2976SOL    HW1 9827   3.588   1.052   2.685
 2976SOL    HW2 9828   3.650   0.915   2.749
 2977SOL     OW 9829   3.088   6.745   3.907
 2977SOL    HW1 9830   3.142   6.696   3.976
 2977SOL    HW2 9831   3.119   6.840   3.903
 2978SOL     OW 9832   5.407   4.942   0.110
 2978SOL    HW1 9833   5.482   4.881   0.085
 2978SOL    HW2 9834   5.334   4.934   0.043
 2979SOL     OW 9835   3.803   0.546   2.953
 2979SOL    HW1 9836   3.794   0.645   2.968
 2979SOL    HW2 9837   3.829   0.501   3.038
 2980SOL     OW 9838   0.409   5.732   4.441
 2980SOL    HW1 9839   0.502   5.704   4.466
 2980SOL    HW2 9840   0.396   5.722   4.343
 2981SOL     OW 9841   1.986   0.991   5.633
 2981SOL    HW1 9842   1.901   0.950   5.665
 2981SOL    HW2 9843   1.993   0.978   5.534
 2982SOL     OW 9844   5.077   6.059   2.048
 2982SOL    HW1 9845   5.089   5.964   2.021
 2982SOL    HW2 9846   5.005   6.101   1.993
 2983SOL     OW 9847   6.789   1.088   3.995
 2983SOL    HW1 9848   6.721   1.094   4.068
 2983SOL    HW2 9849   6.810   0.992   3.977
 2984SOL     OW 9850   6.014   5.398   1.758
 2984SOL    HW1 9851   5.940   5.331   1.762
 2984SOL    HW2 9852   5.976   5.490   1.757
 2985SOL     OW 9853   6.612   2.240   3.147
 2985SOL    HW1 9854   6.570   2.233   3.237
 2985SOL    HW2 9855   6.604   2.152   3.099
 2986SOL     OW 9856   1.485   3.317   5.172
 2986SOL    HW1 9857   1.471   3.276   5.082
 2986SOL    HW2 9858   1.445   3.409   5.173
 2987SOL     OW 9859   4.404   2.099   4.357
 2987SOL    HW1 9860   4.306   2.119   4.362
 2987SOL    HW2 9861   4.417   1.999   4.354
 2988SOL     OW 9862   1.265   7.006   1.332
 2988SOL    HW1 9863   1.182   0.009   1.380
 2988SOL    HW2 9864   1.281   6.909   1.350
 2989SOL     OW 9865   0.074   5.010   1.046
 2989SOL    HW1 9866   0.017   5.091   1.052
 2989SOL    HW2 9867   0.064   4.968   0.956
 2990SOL     OW 9868   3.906   1.467   1.377
 2990SOL    HW1 9869   3.929   1.398   1.446
 2990SOL    HW2 9870   3.991   1.504   1.338
 2991SOL     OW 9871   6.918   3.713   0.455
 2991SOL    HW1 9872   6.911   3.680   0.549
 2991SOL    HW2 9873   6.917   3.813   0.456
 2992SOL     OW 9874   3.526   5.230   6.310
 2992SOL    HW1 9875   3.471   5.262   6.234
 2992SOL    HW2 9876   3.471   5.229   6.393
 2993SOL     OW 9877   1.157   5.510   1.154
 2993SOL    HW1 9878   1.172   5.515   1.056
 2993SOL    HW2 9879   1.245   5.515   1.201
 2994SOL     OW 9880   5.056   6.752   6.900
 2994SOL    HW1 9881   5.133   6.811   6.924
 2994SOL    HW2 9882   5.048   6.678   6.967
 2995SOL     OW 9883   1.388   1.800   6.419
 2995SOL    HW1 9884   1.428   1.889   6.400
 2995SOL    HW2 9885   1.328   1.807   6.499
 2996SOL     OW 9886   4.120   5.431   5.838
 2996SOL    HW1 9887   4.139   5.416   5.741
 2996SOL    HW2 9888   4.038   5.382   5.865
 2997SOL     OW 9889   5.860   6.688   0.935
 2997SOL    HW1 9890   5.891   6.652   0.847
 2997SOL    HW2 9891   5.851   6.787   0.929
 2998SOL     OW 9892   6.115   5.561   4.207
 2998SOL    HW1 9893   6.068   5.643   4.175
 2998SOL    HW2 9894   6.063   5.519   4.282
 2999SOL     OW 9895   3.337   6.786   3.061
 2999SOL    HW1 9896   3.392   6.703   3.061
 2999SOL    HW2 9897   3.255   6.773   3.005
 3000SOL     OW 9898   1.274   2.971   5.611
 3000SOL    HW1 9899   1.359   2.997   5.566
 3000SOL    HW2 9900   1.266   2.872   5.613
 3001SOL     OW 9901   5.234   0.501   5.821
 3001SOL    HW1 9902   5.229   0.583   5.878
 3001SOL    HW2 9903   5.192   0.424   5.869
 3002SOL     OW 9904   4.077   0.024   5.742
 3002SOL    HW1 9905   4.025   0.027   5.656
 3002SOL    HW2 9906   4.060   6.964   5.788
 3003SOL     OW 9907   2.961   6.609   5.789
 3003SOL    HW1 9908   3.035   6.653   5.839
 3003SOL    HW2 9909   2.883   6.672   5.784
 3004SOL     OW 9910   6.063   3.290   4.269
 3004SOL    HW1 9911   6.118   3.259   4.347
 3004SOL    HW2 9912   6.117   3.285   4.185
 3005SOL     OW 9913   4.041   2.907   1.032
 3005SOL    HW1 9914   4.101   2.921   1.111
 3005SOL    HW2 9915   3.954   2.869   1.063
 3006SOL     OW 9916   5.402   0.675   1.179
 3006SOL    HW1 9917   5.434   0.651   1.270
 3006SOL    HW2 9918   5.302   0.675   1.177
 3007SOL     OW 9919   6.209   4.833   3.061
 3007SOL    HW1 9920   6.268   4.782   3.000
 3007SOL    HW2 9921   6.122   4.852   3.016
 3008SOL     OW 9922   3.446   6.633   5.653
 3008SOL    HW1 9923   3.455   6.537   5.624
 3008SOL    HW2 9924   3.383   6.638   5.731
 3009SOL     OW 9925   1.204   6.724   2.958
 3009SOL    HW1 9926   1.233   6.759   3.047
 3009SOL    HW2 9927   1.143   6.790   2.914
 3010SOL     OW 9928   3.820   6.245   2.549
 3010SOL    HW1 9929   3.799   6.152   2.517
 3010SOL    HW2 9930   3.798   6.253   2.646
 3011SOL     OW 9931   5.767   6.992   0.032
 3011SOL    HW1 9932   5.829   0.036   0.066
 3011SOL    HW2 9933   5.821   6.914   7.027
 3012SOL     OW 9934   0.063   3.874   3.525
 3012SOL    HW1 9935   6.992   3.892   3.529
 3012SOL    HW2 9936   0.081   3.781   3.556
 3013SOL     OW 9937   6.087   5.369   2.138
 3013SOL    HW1 9938   6.101   5.428   2.218
 3013SOL    HW2 9939   6.024   5.295   2.162
 3014SOL     OW 9940   4.628   0.910   3.872
 3014SOL    HW1 9941   4.571   0.931   3.792
 3014SOL    HW2 9942   4.624   0.812   3.891
 3015SOL     OW 9943   3.114   2.299   0.476
 3015SOL    HW1 9944   3.099   2.361   0.399
 3015SOL    HW2 9945   3.109   2.204   0.444
 3016SOL     OW 9946   3.826   6.755   3.679
 3016SOL    HW1 9947   3.832   6.707   3.766
 3016SOL    HW2 9948   3.906   6.813   3.666
 3017SOL     OW 9949   0.743   6.060   1.127
 3017SOL    HW1 9950   0.696   5.992   1.071
 3017SOL    HW2 9951   0.842   6.046   1.122
 3018SOL     OW 9952   3.843   6.690   6.750
 3018SOL    HW1 9953   3.936   6.653   6.739
 3018SOL    HW2 9954   3.814   6.677   6.845
 3019SOL     OW 9955   3.595   0.137   0.981
 3019SOL    HW1 9956   3.600   0.219   1.038
 3019SOL    HW2 9957   3.631   0.059   1.032
 3020SOL     OW 9958   2.400   3.089   1.375
 3020SOL    HW1 9959   2.410   3.005   1.321
 3020SOL    HW2 9960   2.481   3.146   1.363
 3021SOL     OW 9961   2.153   2.503   0.138
 3021SOL    HW1 9962   2.196   2.430   0.084
 3021SOL    HW2 9963   2.213   2.528   0.213
 3022SOL     OW 9964   4.952   6.702   2.969
 3022SOL    HW1 9965   5.031   6.719   3.027
 3022SOL    HW2 9966   4.936   6.781   2.910
 3023SOL     OW 9967   4.996   5.738   2.793
 3023SOL    HW1 9968   4.951   5.732   2.882
 3023SOL    HW2 9969   4.985   5.651   2.744
 3024SOL     OW 9970   3.004   1.099   0.195
 3024SOL    HW1 9971   3.077   1.109   0.126
 3024SOL    HW2 9972   2.922   1.062   0.151
 3025SOL     OW 9973   2.422   2.849   1.247
 3025SOL    HW1 9974   2.347   2.784   1.263
 3025SOL    HW2 9975   2.482   2.814   1.174
 3026SOL     OW 9976   1.938   3.266   0.883
 3026SOL    HW1 9977   1.939   3.301   0.977
 3026SOL    HW2 9978   2.006   3.194   0.874
 3027SOL     OW 9979   1.754   1.828   3.400
 3027SOL    HW1 9980   1.753   1.903   3.465
 3027SOL    HW2 9981   1.820   1.759   3.429
 3028SOL     OW 9982   1.464   5.687   5.911
 3028SOL    HW1 9983   1.503   5.616   5.971
 3028SOL    HW2 9984   1.479   5.662   5.816
 3029SOL     OW 9985   6.390   5.688   5.151
 3029SOL    HW1 9986   6.482   5.652   5.166
 3029SOL    HW2 9987   6.386   5.733   5.062
 3030SOL     OW 9988   1.395   1.876   5.335
 3030SOL    HW1 9989   1.360   1.843   5.247
 3030SOL    HW2 9990   1.454   1.806   5.376
 3031SOL     OW 9991   6.921   4.209   6.058
 3031SOL    HW1 9992   6.875   4.120   6.060
 3031SOL    HW2 9993   7.017   4.197   6.081
 3032SOL     OW 9994   5.177   0.973   5.746
 3032SOL    HW1 9995   5.095   1.004   5.793
 3032SOL    HW2 9996   5.250   0.956   5.813
 3033SOL     OW 9997   0.445   3.667   6.702
 3033SOL    HW1 9998   0.382   3.742   6.684
 3033SOL    HW2 9999   0.416   3.585   6.652
 3034SOL     OW10000   3.080   5.875   4.439
 3034SOL    HW110001   3.151   5.850   4.505
 3034SOL    HW210002   3.008   5.806   4.439
 3035SOL     OW10003   5.591   1.383   0.104
 3035SOL    HW110004   5.557   1.334   0.184
 3035SOL    HW210005   5.653   1.324   0.053
 3036SOL     OW10006   0.952   4.286   6.548
 3036SOL    HW110007   1.000   4.212   6.500
 3036SOL    HW210008   0.854   4.281   6.527
 3037SOL     OW10009   6.719   6.174   5.403
 3037SOL    HW110010   6.662   6.203   5.325
 3037SOL    HW210011   6.699   6.231   5.482
 3038SOL     OW10012   5.036   6.792   5.786
 3038SOL    HW110013   5.116   6.774   5.730
 3038SOL    HW210014   5.039   6.887   5.820
 3039SOL     OW10015   0.561   4.311   1.859
 3039SOL    HW110016   0.583   4.398   1.904
 3039SOL    HW210017   0.645   4.260   1.842
 3040SOL     OW10018   2.742   3.591   6.634
 3040SOL    HW110019   2.786   3.586   6.544
 3040SOL    HW210020   2.644   3.574   6.624
 3041SOL     OW10021   1.664   2.125   5.958
 3041SOL    HW110022   1.750   2.132   6.009
 3041SOL    HW210023   1.627   2.217   5.944
 3042SOL     OW10024   4.652   0.518   2.178
 3042SOL    HW110025   4.570   0.489   2.227
 3042SOL    HW210026   4.654   0.474   2.088
 3043SOL     OW10027   0.920   5.639   0.381
 3043SOL    HW110028   0.986   5.571   0.349
 3043SOL    HW210029   0.873   5.679   0.303
 3044SOL     OW10030   3.450   4.621   6.474
 3044SOL    HW110031   3.447   4.716   6.444
 3044SOL    HW210032   3.443   4.561   6.394
 3045SOL     OW10033   5.408   1.872   2.637
 3045SOL    HW110034   5.356   1.936   2.580
 3045SOL    HW210035   5.368   1.781   2.629
 3046SOL     OW10036   1.665   2.404   5.656
 3046SOL    HW110037   1.588   2.343   5.675
 3046SOL    HW210038   1.638   2.499   5.674
 3047SOL     OW10039   6.120   5.291   2.488
 3047SOL    HW110040   6.108   5.267   2.584
 3047SOL    HW210041   6.092   5.386   2.474
 3048SOL     OW10042   3.358   2.978   1.189
 3048SOL    HW110043   3.314   2.920   1.120
 3048SOL    HW210044   3.292   3.046   1.221
 3049SOL     OW10045   1.073   0.487   1.801
 3049SOL    HW110046   0.973   0.480   1.796
 3049SOL    HW210047   1.114   0.435   1.726
 3050SOL     OW10048   4.528   5.703   3.715
 3050SOL    HW110049   4.587   5.739   3.787
 3050SOL    HW210050   4.528   5.765   3.637
 3051SOL     OW10051   2.859   5.165   6.871
 3051SOL    HW110052   2.952   5.183   6.839
 3051SOL    HW210053   2.863   5.113   6.956
 3052SOL     OW10054   3.725   6.764   2.931
 3052SOL    HW110055   3.719   6.745   3.029
 3052SOL    HW210056   3.801   6.827   2.914
 3053SOL     OW10057   5.748   6.123   0.062
 3053SOL    HW110058   5.736   6.070   0.146
 3053SOL    HW210059   5.836   6.170   0.065
 3054SOL     OW10060   0.724   3.486   0.260
 3054SOL    HW110061   0.646   3.423   0.261
 3054SOL    HW210062   0.723   3.539   0.176
 3055SOL     OW10063   6.003   5.994   3.690
 3055SOL    HW110064   5.942   5.915   3.686
 3055SOL    HW210065   6.090   5.967   3.731
 3056SOL     OW10066   6.691   0.428   0.870
 3056SOL    HW110067   6.708   0.329   0.871
 3056SOL    HW210068   6.705   0.463   0.777
 3057SOL     OW10069   5.949   4.895   2.926
 3057SOL    HW110070   5.944   4.980   2.979
 3057SOL    HW210071   5.871   4.837   2.950
 3058SOL     OW10072   6.289   5.540   0.885
 3058SOL    HW110073   6.298   5.485   0.801
 3058SOL    HW210074   6.245   5.485   0.956
 3059SOL     OW10075   1.259   2.427   4.970
 3059SOL    HW110076   1.239   2.524   4.988
 3059SOL    HW210077   1.350   2.405   5.006
 3060SOL     OW10078   7.026   6.367   1.534
 3060SOL    HW110079   6.957   6.394   1.601
 3060SOL    HW210080   6.985   6.307   1.466
 3061SOL     OW10081   0.383   0.231   5.274
 3061SOL    HW110082   0.313   0.251   5.343
 3061SOL    HW210083   0.445   0.309   5.267
 3062SOL     OW10084   2.536   6.102   0.929
 3062SOL    HW110085   2.521   6.019   0.874
 3062SOL    HW210086   2.619   6.148   0.899
 3063SOL     OW10087   1.716   4.905   1.423
 3063SOL    HW110088   1.663   4.912   1.508
 3063SOL    HW210089   1.798   4.962   1.430
 3064SOL     OW10090   6.231   3.948   3.262
 3064SOL    HW110091   6.329   3.929   3.254
 3064SOL    HW210092   6.186   3.930   3.175
 3065SOL     OW10093   1.579   0.725   0.062
 3065SOL    HW110094   1.499   0.780   0.034
 3065SOL    HW210095   1.556   0.628   0.056
 3066SOL     OW10096   6.320   4.796   1.276
 3066SOL    HW110097   6.383   4.779   1.200
 3066SOL    HW210098   6.368   4.849   1.346
 3067SOL     OW10099   4.751   6.898   4.213
 3067SOL    HW110100   4.783   6.889   4.118
 3067SOL    HW210101   4.728   6.994   4.231
 3068SOL     OW10102   5.687   5.289   0.973
 3068SOL    HW110103   5.636   5.260   0.892
 3068SOL    HW210104   5.771   5.335   0.945
 3069SOL     OW10105   0.363   5.789   2.294
 3069SOL    HW110106   0.268   5.817   2.302
 3069SOL    HW210107   0.374   5.731   2.214
 3070SOL     OW10108   2.705   1.300   3.716
 3070SOL    HW110109   2.802   1.276   3.718
 3070SOL    HW210110   2.651   1.220   3.691
 3071SOL     OW10111   5.720   0.220   3.810
 3071SOL    HW110112   5.690   0.141   3.757
 3071SOL    HW210113   5.642   0.256   3.862
 3072SOL     OW10114   0.450   6.912   2.155
 3072SOL    HW110115   0.363   6.917   2.105
 3072SOL    HW210116   0.501   6.997   2.141
 3073SOL     OW10117   1.007   3.672   5.239
 3073SOL    HW110118   1.049   3.620   5.164
 3073SOL    HW210119   0.952   3.612   5.296
 3074SOL     OW10120   4.104   3.444   6.333
 3074SOL    HW110121   4.044   3.364   6.334
 3074SOL    HW210122   4.135   3.461   6.240
 3075SOL     OW10123   1.582   5.665   1.068
 3075SOL    HW110124   1.644   5.743   1.077
 3075SOL    HW210125   1.634   5.580   1.071
 3076SOL     OW10126   6.503   0.439   4.857
 3076SOL    HW110127   6.578   0.411   4.916
 3076SOL    HW210128   6.485   0.537   4.871
 3077SOL     OW10129   5.538   4.700   4.517
 3077SOL    HW110130   5.565   4.616   4.564
 3077SOL    HW210131   5.586   4.778   4.557
 3078SOL     OW10132   1.706   3.859   1.961
 3078SOL    HW110133   1.729   3.846   1.865
 3078SOL    HW210134   1.711   3.771   2.008
 3079SOL     OW10135   7.026   2.143   5.212
 3079SOL    HW110136   6.940   2.187   5.236
 3079SOL    HW210137   0.048   2.117   5.296
 3080SOL     OW10138   6.537   5.219   0.648
 3080SOL    HW110139   6.612   5.155   0.627
 3080SOL    HW210140   6.450   5.178   0.621
 3081SOL     OW10141   0.462   4.519   5.311
 3081SOL    HW110142   0.533   4.477   5.368
 3081SOL    HW210143   0.495   4.606   5.275
 3082SOL     OW10144   3.350   0.114   2.644
 3082SOL    HW110145   3.368   0.127   2.742
 3082SOL    HW210146   3.422   0.158   2.591
 3083SOL     OW10147   3.378   0.615   2.027
 3083SOL    HW110148   3.397   0.605   1.929
 3083SOL    HW210149   3.428   0.545   2.077
 3084SOL     OW10150   5.617   5.646   4.713
 3084SOL    HW110151   5.632   5.556   4.672
 3084SOL    HW210152   5.621   5.639   4.812
 3085SOL     OW10153   6.966   5.723   2.919
 3085SOL    HW110154   6.974   5.782   2.839
 3085SOL    HW210155   6.918   5.639   2.894
 3086SOL     OW10156   4.759   1.621   3.500
 3086SOL    HW110157   4.669   1.631   3.457
 3086SOL    HW210158   4.800   1.711   3.511
 3087SOL     OW10159   6.095   3.869   3.033
 3087SOL    HW110160   6.067   3.866   2.937
 3087SOL    HW210161   6.134   3.781   3.060
 3088SOL     OW10162   2.358   4.517   5.498
 3088SOL    HW110163   2.415   4.598   5.481
 3088SOL    HW210164   2.338   4.472   5.412
 3089SOL     OW10165   1.476   2.671   0.401
 3089SOL    HW110166   1.416   2.633   0.332
 3089SOL    HW210167   1.498   2.766   0.377
 3090SOL     OW10168   1.385   1.866   1.183
 3090SOL    HW110169   1.447   1.837   1.256
 3090SOL    HW210170   1.300   1.813   1.188
 3091SOL     OW10171   2.511   6.754   0.671
 3091SOL    HW110172   2.491   6.716   0.581
 3091SOL    HW210173   2.609   6.744   0.691
 3092SOL     OW10174   6.021   6.791   1.378
 3092SOL    HW110175   6.069   6.868   1.336
 3092SOL    HW210176   6.001   6.723   1.308
 3093SOL     OW10177   6.226   5.494   5.614
 3093SOL    HW110178   6.260   5.400   5.627
 3093SOL    HW210179   6.126   5.494   5.623
 3094SOL     OW10180   3.062   6.092   5.382
 3094SOL    HW110181   3.043   6.181   5.342
 3094SOL    HW210182   3.000   6.024   5.343
 3095SOL     OW10183   2.874   4.772   4.625
 3095SOL    HW110184   2.806   4.782   4.552
 3095SOL    HW210185   2.859   4.685   4.672
 3096SOL     OW10186   0.628   0.494   4.824
 3096SOL    HW110187   0.616   0.543   4.738
 3096SOL    HW210188   0.560   0.421   4.831
 3097SOL     OW10189   1.025   2.771   0.277
 3097SOL    HW110190   1.037   2.837   0.351
 3097SOL    HW210191   0.982   2.816   0.199
 3098SOL     OW10192   2.569   2.834   0.594
 3098SOL    HW110193   2.587   2.904   0.662
 3098SOL    HW210194   2.488   2.860   0.541
 3099SOL     OW10195   0.735   5.736   5.780
 3099SOL    HW110196   0.782   5.795   5.715
 3099SOL    HW210197   0.677   5.672   5.731
 3100SOL     OW10198   6.632   6.659   6.538
 3100SOL    HW110199   6.545   6.658   6.489
 3100SOL    HW210200   6.656   6.753   6.561
 3101SOL     OW10201   4.951   0.134   6.373
 3101SOL    HW110202   4.944   0.129   6.472
 3101SOL    HW210203   4.940   0.042   6.334
 3102SOL     OW10204   1.806   4.107   0.691
 3102SOL    HW110205   1.824   4.032   0.754
 3102SOL    HW210206   1.779   4.069   0.602
 3103SOL     OW10207   4.164   2.746   1.705
 3103SOL    HW110208   4.217   2.789   1.632
 3103SOL    HW210209   4.188   2.649   1.712
 3104SOL     OW10210   5.468   5.987   4.120
 3104SOL    HW110211   5.544   5.923   4.114
 3104SOL    HW210212   5.500   6.079   4.101
 3105SOL     OW10213   5.880   6.558   4.372
 3105SOL    HW110214   5.868   6.549   4.274
 3105SOL    HW210215   5.850   6.474   4.418
 3106SOL     OW10216   0.104   2.530   2.922
 3106SOL    HW110217   0.116   2.560   3.017
 3106SOL    HW210218   0.008   2.510   2.905
 3107SOL     OW10219   2.871   0.315   3.884
 3107SOL    HW110220   2.827   0.254   3.950
 3107SOL    HW210221   2.813   0.326   3.804
 3108SOL     OW10222   2.265   0.921   3.628
 3108SOL    HW110223   2.169   0.906   3.606
 3108SOL    HW210224   2.283   1.019   3.632
 3109SOL     OW10225   5.220   6.025   3.324
 3109SOL    HW110226   5.160   5.946   3.315
 3109SOL    HW210227   5.233   6.068   3.235
 3110SOL     OW10228   1.295   3.032   2.672
 3110SOL    HW110229   1.214   3.079   2.706
 3110SOL    HW210230   1.289   3.022   2.572
 3111SOL     OW10231   0.356   5.065   3.756
 3111SOL    HW110232   0.367   4.978   3.709
 3111SOL    HW210233   0.391   5.139   3.698
 3112SOL     OW10234   4.688   4.046   6.688
 3112SOL    HW110235   4.774   4.015   6.649
 3112SOL    HW210236   4.617   4.045   6.618
 3113SOL     OW10237   2.776   6.704   3.095
 3113SOL    HW110238   2.705   6.745   3.038
 3113SOL    HW210239   2.824   6.777   3.145
 3114SOL     OW10240   6.197   4.673   0.982
 3114SOL    HW110241   6.118   4.690   0.923
 3114SOL    HW210242   6.242   4.760   1.003
 3115SOL     OW10243   3.601   4.301   0.603
 3115SOL    HW110244   3.573   4.222   0.549
 3115SOL    HW210245   3.645   4.270   0.687
 3116SOL     OW10246   6.508   2.288   0.406
 3116SOL    HW110247   6.563   2.223   0.354
 3116SOL    HW210248   6.433   2.239   0.451
 3117SOL     OW10249   3.943   3.124   5.098
 3117SOL    HW110250   3.860   3.122   5.153
 3117SOL    HW210251   4.006   3.054   5.132
 3118SOL     OW10252   6.074   4.143   0.792
 3118SOL    HW110253   6.145   4.131   0.723
 3118SOL    HW210254   6.074   4.238   0.823
 3119SOL     OW10255   1.892   4.265   5.274
 3119SOL    HW110256   1.941   4.277   5.360
 3119SOL    HW210257   1.906   4.172   5.240
 3120SOL     OW10258   3.052   5.776   4.775
 3120SOL    HW110259   2.988   5.737   4.709
 3120SOL    HW210260   3.123   5.709   4.798
 3121SOL     OW10261   6.615   0.900   2.446
 3121SOL    HW110262   6.699   0.955   2.446
 3121SOL    HW210263   6.601   0.862   2.538
 3122SOL     OW10264   3.003   5.609   6.689
 3122SOL    HW110265   3.022   5.521   6.646
 3122SOL    HW210266   2.968   5.595   6.781
 3123SOL     OW10267   3.613   6.161   3.745
 3123SOL    HW110268   3.549   6.188   3.818
 3123SOL    HW210269   3.707   6.172   3.777
 3124SOL     OW10270   4.393   1.045   5.562
 3124SOL    HW110271   4.362   1.136   5.591
 3124SOL    HW210272   4.319   0.998   5.515
 3125SOL     OW10273   6.544   1.857   5.950
 3125SOL    HW110274   6.576   1.819   5.863
 3125SOL    HW210275   6.609   1.927   5.981
 3126SOL     OW10276   4.224   6.219   0.282
 3126SOL    HW110277   4.261   6.162   0.356
 3126SOL    HW210278   4.227   6.315   0.309
 3127SOL     OW10279   0.758   1.649   4.266
 3127SOL    HW110280   0.773   1.733   4.318
 3127SOL    HW210281   0.808   1.654   4.180
 3128SOL     OW10282   1.897   1.218   0.698
 3128SOL    HW110283   1.968   1.154   0.726
 3128SOL    HW210284   1.854   1.186   0.614
 3129SOL     OW10285   6.705   3.848   5.241
 3129SOL    HW110286   6.721   3.789   5.321
 3129SOL    HW210287   6.616   3.826   5.201
 3130SOL     OW10288   2.121   4.525   1.917
 3130SOL    HW110289   2.181   4.480   1.984
 3130SOL    HW210290   2.145   4.494   1.825
 3131SOL     OW10291   0.044   3.309   2.838
 3131SOL    HW110292   6.994   3.367   2.813
 3131SOL    HW210293   0.079   3.263   2.756
 3132SOL     OW10294   5.435   6.286   5.485
 3132SOL    HW110295   5.399   6.252   5.398
 3132SOL    HW210296   5.525   6.246   5.501
 3133SOL     OW10297   3.203   1.782   3.072
 3133SOL    HW110298   3.148   1.784   2.989
 3133SOL    HW210299   3.168   1.711   3.133
 3134SOL     OW10300   4.964   3.447   1.700
 3134SOL    HW110301   4.939   3.356   1.733
 3134SOL    HW210302   5.057   3.445   1.664
 3135SOL     OW10303   3.575   2.122   3.541
 3135SOL    HW110304   3.516   2.088   3.468
 3135SOL    HW210305   3.560   2.068   3.624
 3136SOL     OW10306   6.184   6.414   5.312
 3136SOL    HW110307   6.262   6.417   5.249
 3136SOL    HW210308   6.126   6.493   5.297
 3137SOL     OW10309   5.868   1.889   3.925
 3137SOL    HW110310   5.798   1.950   3.963
 3137SOL    HW210311   5.919   1.846   3.999
 3138SOL     OW10312   6.043   1.486   4.947
 3138SOL    HW110313   6.001   1.406   4.903
 3138SOL    HW210314   5.982   1.521   5.018
 3139SOL     OW10315   4.820   5.979   5.227
 3139SOL    HW110316   4.772   5.934   5.152
 3139SOL    HW210317   4.865   6.061   5.193
 3140SOL     OW10318   6.740   6.323   6.679
 3140SOL    HW110319   6.733   6.289   6.772
 3140SOL    HW210320   6.793   6.408   6.677
 3141SOL     OW10321   1.149   5.443   0.393
 3141SOL    HW110322   1.246   5.439   0.369
 3141SOL    HW210323   1.139   5.446   0.492
 3142SOL     OW10324   4.586   6.452   6.434
 3142SOL    HW110325   4.554   6.359   6.421
 3142SOL    HW210326   4.518   6.504   6.486
 3143SOL     OW10327   6.725   1.401   0.219
 3143SOL    HW110328   6.768   1.358   0.298
 3143SOL    HW210329   6.639   1.355   0.198
 3144SOL     OW10330   2.039   3.249   6.343
 3144SOL    HW110331   2.087   3.307   6.277
 3144SOL    HW210332   2.078   3.263   6.434
 3145SOL     OW10333   3.179   5.585   2.821
 3145SOL    HW110334   3.107   5.601   2.754
 3145SOL    HW210335   3.244   5.661   2.819
 3146SOL     OW10336   1.113   0.197   3.300
 3146SOL    HW110337   1.129   0.128   3.371
 3146SOL    HW210338   1.072   0.278   3.342
 3147SOL     OW10339   5.099   4.062   0.212
 3147SOL    HW110340   5.137   4.094   0.125
 3147SOL    HW210341   5.014   4.111   0.231
 3148SOL     OW10342   3.551   5.351   4.804
 3148SOL    HW110343   3.591   5.260   4.808
 3148SOL    HW210344   3.513   5.367   4.713
 3149SOL     OW10345   3.560   0.633   5.704
 3149SOL    HW110346   3.591   0.647   5.798
 3149SOL    HW210347   3.461   0.622   5.702
 3150SOL     OW10348   5.727   6.392   4.544
 3150SOL    HW110349   5.646   6.347   4.506
 3150SOL    HW210350   5.700   6.460   4.611
 3151SOL     OW10351   4.438   1.239   6.303
 3151SOL    HW110352   4.461   1.326   6.259
 3151SOL    HW210353   4.517   1.178   6.298
 3152SOL     OW10354   1.065   5.880   0.801
 3152SOL    HW110355   1.014   5.918   0.724
 3152SOL    HW210356   1.127   5.950   0.837
 3153SOL     OW10357   6.855   4.226   2.402
 3153SOL    HW110358   6.887   4.144   2.355
 3153SOL    HW210359   6.797   4.280   2.340
 3154SOL     OW10360   5.588   2.363   6.076
 3154SOL    HW110361   5.612   2.269   6.101
 3154SOL    HW210362   5.646   2.393   6.000
 3155SOL     OW10363   5.998   5.933   1.046
 3155SOL    HW110364   5.946   5.989   1.112
 3155SOL    HW210365   6.091   5.969   1.038
 3156SOL     OW10366   3.639   3.746   3.392
 3156SOL    HW110367   3.718   3.770   3.449
 3156SOL    HW210368   3.560   3.726   3.450
 3157SOL     OW10369   2.297   4.125   4.090
 3157SOL    HW110370   2.383   4.096   4.132
 3157SOL    HW210371   2.229   4.051   4.099
 3158SOL     OW10372   4.756   6.487   1.393
 3158SOL    HW110373   4.814   6.554   1.440
 3158SOL    HW210374   4.797   6.463   1.305
 3159SOL     OW10375   5.346   5.426   0.309
 3159SOL    HW110376   5.349   5.372   0.225
 3159SOL    HW210377   5.315   5.519   0.288
 3160SOL     OW10378   4.741   4.407   0.022
 3160SOL    HW110379   4.694   4.495   0.023
 3160SOL    HW210380   4.832   4.418   0.064
 3161SOL     OW10381   1.130   1.502   3.049
 3161SOL    HW110382   1.125   1.444   2.967
 3161SOL    HW210383   1.211   1.561   3.042
 3162SOL     OW10384   0.689   5.382   6.364
 3162SOL    HW110385   0.701   5.463   6.422
 3162SOL    HW210386   0.592   5.370   6.344
 3163SOL     OW10387   2.909   4.143   6.081
 3163SOL    HW110388   2.955   4.204   6.146
 3163SOL    HW210389   2.951   4.053   6.084
 3164SOL     OW10390   5.147   4.744   0.033
 3164SOL    HW110391   5.102   4.684   6.994
 3164SOL    HW210392   5.152   4.836   7.023
 3165SOL     OW10393   0.062   1.182   1.418
 3165SOL    HW110394   0.081   1.090   1.453
 3165SOL    HW210395   0.020   1.237   1.491
 3166SOL     OW10396   5.536   3.060   6.309
 3166SOL    HW110397   5.573   2.978   6.354
 3166SOL    HW210398   5.577   3.069   6.218
 3167SOL     OW10399   0.319   5.231   1.617
 3167SOL    HW110400   0.239   5.236   1.678
 3167SOL    HW210401   0.401   5.250   1.670
 3168SOL     OW10402   5.374   3.543   1.360
 3168SOL    HW110403   5.306   3.566   1.291
 3168SOL    HW210404   5.376   3.444   1.373
 3169SOL     OW10405   0.962   2.142   5.671
 3169SOL    HW110406   0.873   2.185   5.689
 3169SOL    HW210407   0.970   2.120   5.574
 3170SOL     OW10408   4.025   0.787   7.008
 3170SOL    HW110409   4.050   0.770   6.913
 3170SOL    HW210410   3.971   0.710   0.015
 3171SOL     OW10411   6.045   6.370   3.253
 3171SOL    HW110412   5.990   6.434   3.307
 3171SOL    HW210413   6.023   6.276   3.281
 3172SOL     OW10414   6.270   0.356   4.772
 3172SOL    HW110415   6.353   0.367   4.825
 3172SOL    HW210416   6.258   0.433   4.710
 3173SOL     OW10417   2.207   0.262   1.232
 3173SOL    HW110418   2.130   0.273   1.169
 3173SOL    HW210419   2.283   0.319   1.202
 3174SOL     OW10420   1.973   2.686   6.153
 3174SOL    HW110421   1.917   2.678   6.235
 3174SOL    HW210422   1.986   2.783   6.131
 3175SOL     OW10423   0.491   6.532   0.593
 3175SOL    HW110424   0.474   6.460   0.659
 3175SOL    HW210425   0.587   6.530   0.565
 3176SOL     OW10426   0.620   4.612   6.778
 3176SOL    HW110427   0.713   4.605   6.742
 3176SOL    HW210428   0.563   4.660   6.712
 3177SOL     OW10429   5.839   6.056   5.738
 3177SOL    HW110430   5.863   5.964   5.768
 3177SOL    HW210431   5.917   6.099   5.694
 3178SOL     OW10432   1.034   2.993   1.557
 3178SOL    HW110433   1.127   2.999   1.521
 3178SOL    HW210434   1.013   3.076   1.610
 3179SOL     OW10435   1.743   1.408   2.792
 3179SOL    HW110436   1.666   1.444   2.846
 3179SOL    HW210437   1.715   1.399   2.697
 3180SOL     OW10438   5.468   0.653   6.027
 3180SOL    HW110439   5.565   0.637   6.011
 3180SOL    HW210440   5.426   0.571   6.067
 3181SOL     OW10441   0.843   1.022   2.932
 3181SOL    HW110442   0.894   1.098   2.892
 3181SOL    HW210443   0.884   0.936   2.904
 3182SOL     OW10444   2.217   5.254   5.255
 3182SOL    HW110445   2.313   5.240   5.279
 3182SOL    HW210446   2.159   5.218   5.329
 3183SOL     OW10447   3.415   3.268   1.528
 3183SOL    HW110448   3.448   3.258   1.622
 3183SOL    HW210449   3.325   3.227   1.520
 3184SOL     OW10450   2.356   1.844   1.762
 3184SOL    HW110451   2.432   1.812   1.706
 3184SOL    HW210452   2.270   1.808   1.726
 3185SOL     OW10453   6.721   0.154   5.678
 3185SOL    HW110454   6.638   0.185   5.632
 3185SOL    HW210455   6.699   0.075   5.735
 3186SOL     OW10456   2.797   1.115   2.148
 3186SOL    HW110457   2.715   1.166   2.122
 3186SOL    HW210458   2.877   1.175   2.146
 3187SOL     OW10459   3.388   4.843   0.107
 3187SOL    HW110460   3.482   4.864   0.083
 3187SOL    HW210461   3.371   4.867   0.203
 3188SOL     OW10462   4.118   6.540   2.962
 3188SOL    HW110463   4.133   6.638   2.970
 3188SOL    HW210464   4.181   6.491   3.022
 3189SOL     OW10465   0.817   6.202   2.574
 3189SOL    HW110466   0.742   6.262   2.546
 3189SOL    HW210467   0.899   6.225   2.521
 3190SOL     OW10468   0.681   5.641   2.195
 3190SOL    HW110469   0.621   5.570   2.158
 3190SOL    HW210470   0.683   5.719   2.132
 3191SOL     OW10471   4.139   0.886   1.317
 3191SOL    HW110472   4.072   0.814   1.338
 3191SOL    HW210473   4.142   0.902   1.218
 3192SOL     OW10474   0.381   3.191   2.717
 3192SOL    HW110475   0.406   3.161   2.809
 3192SOL    HW210476   0.414   3.125   2.650
 3193SOL     OW10477   4.521   3.159   6.354
 3193SOL    HW110478   4.423   3.148   6.335
 3193SOL    HW210479   4.535   3.240   6.411
 3194SOL     OW10480   6.989   3.254   6.078
 3194SOL    HW110481   0.019   3.290   6.152
 3194SOL    HW210482   6.928   3.183   6.114
 3195SOL     OW10483   0.817   3.198   3.744
 3195SOL    HW110484   0.886   3.184   3.673
 3195SOL    HW210485   0.863   3.217   3.831
 3196SOL     OW10486   6.480   0.209   5.546
 3196SOL    HW110487   6.495   0.280   5.477
 3196SOL    HW210488   6.430   0.248   5.624
 3197SOL     OW10489   1.163   4.318   3.711
 3197SOL    HW110490   1.088   4.383   3.700
 3197SOL    HW210491   1.138   4.249   3.779
 3198SOL     OW10492   6.666   1.512   6.884
 3198SOL    HW110493   6.736   1.457   6.928
 3198SOL    HW210494   6.639   1.587   6.945
 3199SOL     OW10495   4.512   2.120   2.576
 3199SOL    HW110496   4.458   2.117   2.660
 3199SOL    HW210497   4.521   2.215   2.546
 3200SOL     OW10498   0.092   1.509   1.542
 3200SOL    HW110499   0.124   1.547   1.628
 3200SOL    HW210500   0.161   1.446   1.505
 3201SOL     OW10501   4.549   4.450   2.787
 3201SOL    HW110502   4.499   4.519   2.734
 3201SOL    HW210503   4.595   4.387   2.724
 3202SOL     OW10504   1.810   6.043   1.874
 3202SOL    HW110505   1.783   5.992   1.956
 3202SOL    HW210506   1.882   5.993   1.825
 3203SOL     OW10507   6.550   6.802   2.130
 3203SOL    HW110508   6.519   6.795   2.224
 3203SOL    HW210509   6.650   6.809   2.128
 3204SOL     OW10510   6.472   5.286   1.799
 3204SOL    HW110511   6.471   5.346   1.719
 3204SOL    HW210512   6.401   5.316   1.863
 3205SOL     OW10513   0.590   3.775   3.676
 3205SOL    HW110514   0.668   3.735   3.628
 3205SOL    HW210515   0.507   3.760   3.623
 3206SOL     OW10516   0.958   7.021   6.371
 3206SOL    HW110517   0.989   6.998   6.279
 3206SOL    HW210518   0.858   7.017   6.375
 3207SOL     OW10519   0.318   1.433   4.254
 3207SOL    HW110520   0.416   1.416   4.265
 3207SOL    HW210521   0.301   1.473   4.164
 3208SOL     OW10522   5.630   6.739   5.249
 3208SOL    HW110523   5.703   6.792   5.293
 3208SOL    HW210524   5.544   6.788   5.257
 3209SOL     OW10525   2.393   0.716   3.441
 3209SOL    HW110526   2.475   0.710   3.384
 3209SOL    HW210527   2.404   0.790   3.507
 3210SOL     OW10528   0.269   4.483   3.379
 3210SOL    HW110529   0.176   4.450   3.357
 3210SOL    HW210530   0.282   4.573   3.339
 3211SOL     OW10531   1.898   4.639   2.102
 3211SOL    HW110532   1.976   4.583   2.073
 3211SOL    HW210533   1.921   4.736   2.090
 3212SOL     OW10534   4.785   2.149   5.805
 3212SOL    HW110535   4.832   2.227   5.763
 3212SOL    HW210536   4.699   2.133   5.758
 3213SOL     OW10537   6.652   6.364   1.970
 3213SOL    HW110538   6.654   6.341   2.067
 3213SOL    HW210539   6.632   6.461   1.960
 3214SOL     OW10540   4.462   5.508   6.093
 3214SOL    HW110541   4.404   5.560   6.155
 3214SOL    HW210542   4.557   5.513   6.124
 3215SOL     OW10543   6.093   1.315   6.703
 3215SOL    HW110544   6.112   1.355   6.793
 3215SOL    HW210545   6.159   1.244   6.683
 3216SOL     OW10546   5.450   6.589   4.397
 3216SOL    HW110547   5.525   6.656   4.399
 3216SOL    HW210548   5.367   6.633   4.365
 3217SOL     OW10549   6.872   4.043   1.614
 3217SOL    HW110550   6.865   4.143   1.616
 3217SOL    HW210551   6.966   4.016   1.594
 3218SOL     OW10552   2.949   0.537   2.265
 3218SOL    HW110553   3.034   0.515   2.314
 3218SOL    HW210554   2.911   0.622   2.303
 3219SOL     OW10555   6.443   0.342   3.689
 3219SOL    HW110556   6.513   0.401   3.729
 3219SOL    HW210557   6.455   0.339   3.589
 3220SOL     OW10558   5.999   3.111   5.326
 3220SOL    HW110559   5.935   3.187   5.327
 3220SOL    HW210560   6.093   3.145   5.334
 3221SOL     OW10561   3.154   0.006   3.212
 3221SOL    HW110562   3.190   7.018   3.304
 3221SOL    HW210563   3.224   7.011   3.145
 3222SOL     OW10564   5.950   2.803   3.100
 3222SOL    HW110565   5.929   2.826   3.005
 3222SOL    HW210566   5.894   2.725   3.129
 3223SOL     OW10567   2.630   4.969   5.215
 3223SOL    HW110568   2.553   4.940   5.159
 3223SOL    HW210569   2.701   4.898   5.214
 3224SOL     OW10570   4.036   5.330   0.639
 3224SOL    HW110571   4.135   5.333   0.625
 3224SOL    HW210572   4.001   5.423   0.651
 3225SOL     OW10573   2.550   3.647   0.217
 3225SOL    HW110574   2.632   3.598   0.189
 3225SOL    HW210575   2.484   3.648   0.142
 3226SOL     OW10576   1.096   0.446   3.986
 3226SOL    HW110577   1.046   0.447   3.900
 3226SOL    HW210578   1.114   0.352   4.013
 3227SOL     OW10579   2.602   1.148   6.374
 3227SOL    HW110580   2.512   1.144   6.418
 3227SOL    HW210581   2.648   1.233   6.398
 3228SOL     OW10582   5.107   3.156   5.169
 3228SOL    HW110583   5.113   3.201   5.258
 3228SOL    HW210584   5.108   3.225   5.096
 3229SOL     OW10585   4.043   2.381   5.350
 3229SOL    HW110586   4.089   2.441   5.286
 3229SOL    HW210587   4.106   2.354   5.423
 3230SOL     OW10588   0.917   0.340   3.443
 3230SOL    HW110589   0.911   0.421   3.385
 3230SOL    HW210590   0.831   0.326   3.490
 3231SOL     OW10591   6.064   5.735   1.207
 3231SOL    HW110592   6.072   5.650   1.155
 3231SOL    HW210593   6.052   5.812   1.144
 3232SOL     OW10594   2.311   4.691   3.514
 3232SOL    HW110595   2.314   4.657   3.420
 3232SOL    HW210596   2.378   4.641   3.569
 3233SOL     OW10597   0.787   4.106   1.826
 3233SOL    HW110598   0.774   4.076   1.732
 3233SOL    HW210599   0.838   4.036   1.876
 3234SOL     OW10600   6.716   1.737   5.215
 3234SOL    HW110601   6.713   1.677   5.136
 3234SOL    HW210602   6.811   1.753   5.241
 3235SOL     OW10603   5.428   0.375   2.757
 3235SOL    HW110604   5.496   0.356   2.686
 3235SOL    HW210605   5.374   0.293   2.775
 3236SOL     OW10606   0.757   3.023   1.951
 3236SOL    HW110607   0.765   3.106   2.006
 3236SOL    HW210608   0.706   3.043   1.867
 3237SOL     OW10609   3.605   0.217   4.586
 3237SOL    HW110610   3.553   0.232   4.502
 3237SOL    HW210611   3.556   0.153   4.645
 3238SOL     OW10612   6.515   6.478   6.733
 3238SOL    HW110613   6.568   6.397   6.707
 3238SOL    HW210614   6.555   6.559   6.691
 3239SOL     OW10615   0.204   6.352   5.545
 3239SOL    HW110616   0.133   6.302   5.596
 3239SOL    HW210617   0.191   6.450   5.557
 3240SOL     OW10618   0.989   1.449   4.490
 3240SOL    HW110619   1.055   1.406   4.551
 3240SOL    HW210620   1.005   1.547   4.487
 3241SOL     OW10621   5.531   1.076   4.403
 3241SOL    HW110622   5.627   1.106   4.406
 3241SOL    HW210623   5.491   1.099   4.314
 3242SOL     OW10624   3.413   6.613   0.083
 3242SOL    HW110625   3.484   6.571   0.141
 3242SOL    HW210626   3.456   6.656   0.003
 3243SOL     OW10627   3.499   5.570   0.543
 3243SOL    HW110628   3.423   5.569   0.478
 3243SOL    HW210629   3.484   5.642   0.610
 3244SOL     OW10630   2.702   6.495   5.890
 3244SOL    HW110631   2.752   6.455   5.813
 3244SOL    HW210632   2.607   6.463   5.888
 3245SOL     OW10633   3.422   2.414   6.304
 3245SOL    HW110634   3.470   2.471   6.238
 3245SOL    HW210635   3.436   2.450   6.396
 3246SOL     OW10636   5.224   6.071   3.623
 3246SOL    HW110637   5.213   6.056   3.525
 3246SOL    HW210638   5.138   6.047   3.669
 3247SOL     OW10639   0.207   2.219   4.817
 3247SOL    HW110640   0.284   2.204   4.754
 3247SOL    HW210641   0.210   2.151   4.890
 3248SOL     OW10642   5.973   4.160   2.311
 3248SOL    HW110643   6.045   4.135   2.376
 3248SOL    HW210644   5.969   4.259   2.302
 3249SOL     OW10645   2.348   4.451   5.208
 3249SOL    HW110646   2.292   4.410   5.136
 3249SOL    HW210647   2.414   4.383   5.241
 3250SOL     OW10648   4.165   6.410   1.831
 3250SOL    HW110649   4.133   6.394   1.925
 3250SOL    HW210650   4.255   6.368   1.819
 3251SOL     OW10651   3.156   1.235   3.453
 3251SOL    HW110652   3.223   1.248   3.380
 3251SOL    HW210653   3.147   1.137   3.474
 3252SOL     OW10654   3.309   2.047   3.177
 3252SOL    HW110655   3.256   1.971   3.140
 3252SOL    HW210656   3.249   2.109   3.227
 3253SOL     OW10657   4.829   3.403   1.040
 3253SOL    HW110658   4.890   3.382   0.964
 3253SOL    HW210659   4.790   3.319   1.075
 3254SOL     OW10660   5.850   5.093   2.598
 3254SOL    HW110661   5.930   5.032   2.600
 3254SOL    HW210662   5.851   5.148   2.515
 3255SOL     OW10663   3.915   4.666   0.634
 3255SOL    HW110664   3.937   4.616   0.551
 3255SOL    HW210665   3.845   4.617   0.686
 3256SOL     OW10666   6.527   6.205   5.180
 3256SOL    HW110667   6.471   6.158   5.248
 3256SOL    HW210668   6.538   6.146   5.100
 3257SOL     OW10669   2.180   1.959   0.940
 3257SOL    HW110670   2.172   1.910   0.853
 3257SOL    HW210671   2.276   1.964   0.967
 3258SOL     OW10672   5.530   6.868   1.407
 3258SOL    HW110673   5.492   6.923   1.332
 3258SOL    HW210674   5.627   6.890   1.418
 3259SOL     OW10675   6.014   6.083   3.421
 3259SOL    HW110676   5.982   6.107   3.513
 3259SOL    HW210677   6.066   5.998   3.425
 3260SOL     OW10678   0.744   2.695   6.998
 3260SOL    HW110679   0.801   2.775   7.015
 3260SOL    HW210680   0.694   2.706   6.912
 3261SOL     OW10681   4.531   0.047   3.265
 3261SOL    HW110682   4.538   0.147   3.263
 3261SOL    HW210683   4.552   0.014   3.357
 3262SOL     OW10684   3.669   1.575   3.593
 3262SOL    HW110685   3.709   1.502   3.537
 3262SOL    HW210686   3.618   1.535   3.669
 3263SOL     OW10687   2.998   5.581   2.195
 3263SOL    HW110688   2.955   5.667   2.166
 3263SOL    HW210689   2.928   5.511   2.207
 3264SOL     OW10690   5.036   5.033   6.240
 3264SOL    HW110691   5.023   4.968   6.315
 3264SOL    HW210692   4.946   5.059   6.203
 3265SOL     OW10693   4.308   0.667   6.920
 3265SOL    HW110694   4.256   0.673   7.006
 3265SOL    HW210695   4.403   0.694   6.937
 3266SOL     OW10696   0.671   1.686   5.943
 3266SOL    HW110697   0.726   1.653   5.866
 3266SOL    HW210698   0.719   1.670   6.029
 3267SOL     OW10699   3.890   2.203   1.505
 3267SOL    HW110700   3.891   2.198   1.605
 3267SOL    HW210701   3.882   2.298   1.476
 3268SOL     OW10702   0.510   4.498   6.403
 3268SOL    HW110703   0.504   4.578   6.462
 3268SOL    HW210704   0.418   4.468   6.378
 3269SOL     OW10705   4.430   3.366   0.590
 3269SOL    HW110706   4.379   3.331   0.669
 3269SOL    HW210707   4.482   3.447   0.617
 3270SOL     OW10708   0.585   5.954   4.583
 3270SOL    HW110709   0.614   5.877   4.640
 3270SOL    HW210710   0.504   5.996   4.623
 3271SOL     OW10711   5.825   1.895   1.041
 3271SOL    HW110712   5.757   1.898   1.115
 3271SOL    HW210713   5.910   1.856   1.076
 3272SOL     OW10714   5.594   6.808   0.218
 3272SOL    HW110715   5.516   6.847   0.266
 3272SOL    HW210716   5.624   6.870   0.146
 3273SOL     OW10717   6.729   0.220   2.569
 3273SOL    HW110718   6.701   0.129   2.541
 3273SOL    HW210719   6.691   0.240   2.660
 3274SOL     OW10720   4.006   1.646   6.308
 3274SOL    HW110721   3.939   1.719   6.297
 3274SOL    HW210722   4.056   1.659   6.394
 3275SOL     OW10723   3.435   0.784   0.007
 3275SOL    HW110724   3.386   0.718   6.977
 3275SOL    HW210725   3.449   0.868   6.982
 3276SOL     OW10726   3.172   6.506   0.131
 3276SOL    HW110727   3.134   6.508   0.039
 3276SOL    HW210728   3.271   6.523   0.128
 3277SOL     OW10729   0.001   6.692   5.168
 3277SOL    HW110730   0.049   6.664   5.085
 3277SOL    HW210731   0.044   6.648   5.247
 3278SOL     OW10732   0.998   1.091   0.064
 3278SOL    HW110733   1.094   1.081   0.037
 3278SOL    HW210734   0.994   1.141   0.151
 3279SOL     OW10735   2.210   0.300   0.937
 3279SOL    HW110736   2.192   0.393   0.905
 3279SOL    HW210737   2.132   0.267   0.990
 3280SOL     OW10738   1.494   5.306   5.885
 3280SOL    HW110739   1.565   5.264   5.829
 3280SOL    HW210740   1.535   5.374   5.946
 3281SOL     OW10741   3.337   6.042   0.171
 3281SOL    HW110742   3.404   6.116   0.165
 3281SOL    HW210743   3.247   6.081   0.189
 3282SOL     OW10744   1.982   5.488   2.790
 3282SOL    HW110745   1.942   5.576   2.761
 3282SOL    HW210746   2.080   5.490   2.774
 3283SOL     OW10747   1.873   0.303   3.651
 3283SOL    HW110748   1.935   0.239   3.697
 3283SOL    HW210749   1.833   0.259   3.571
 3284SOL     OW10750   0.271   4.031   6.689
 3284SOL    HW110751   0.185   4.027   6.639
 3284SOL    HW210752   0.347   4.026   6.624
 3285SOL     OW10753   6.359   2.397   4.147
 3285SOL    HW110754   6.388   2.493   4.145
 3285SOL    HW210755   6.267   2.391   4.186
 3286SOL     OW10756   3.900   4.769   5.198
 3286SOL    HW110757   3.822   4.722   5.239
 3286SOL    HW210758   3.880   4.867   5.192
 3287SOL     OW10759   0.782   5.120   0.993
 3287SOL    HW110760   0.783   5.219   1.006
 3287SOL    HW210761   0.816   5.098   0.902
 3288SOL     OW10762   0.988   6.716   0.153
 3288SOL    HW110763   1.031   6.802   0.180
 3288SOL    HW210764   0.953   6.723   0.060
 3289SOL     OW10765   1.101   5.811   4.416
 3289SOL    HW110766   1.186   5.817   4.469
 3289SOL    HW210767   1.072   5.903   4.389
 3290SOL     OW10768   6.782   5.368   1.789
 3290SOL    HW110769   6.687   5.337   1.782
 3290SOL    HW210770   6.844   5.291   1.774
 3291SOL     OW10771   2.064   6.872   1.159
 3291SOL    HW110772   2.067   6.784   1.111
 3291SOL    HW210773   2.156   6.912   1.161
 3292SOL     OW10774   0.881   5.881   5.596
 3292SOL    HW110775   0.913   5.941   5.523
 3292SOL    HW210776   0.945   5.804   5.606
 3293SOL     OW10777   6.672   0.688   2.955
 3293SOL    HW110778   6.610   0.619   2.991
 3293SOL    HW210779   6.767   0.663   2.977
 3294SOL     OW10780   0.152   0.051   6.934
 3294SOL    HW110781   0.202   7.025   6.866
 3294SOL    HW210782   0.134   0.143   6.898
 3295SOL     OW10783   1.237   2.249   6.578
 3295SOL    HW110784   1.142   2.256   6.611
 3295SOL    HW210785   1.300   2.265   6.654
 3296SOL     OW10786   0.613   6.328   2.065
 3296SOL    HW110787   0.700   6.354   2.106
 3296SOL    HW210788   0.574   6.406   2.017
 3297SOL     OW10789   2.899   2.443   5.983
 3297SOL    HW110790   2.824   2.379   5.995
 3297SOL    HW210791   2.972   2.399   5.929
 3298SOL     OW10792   5.740   3.334   3.341
 3298SOL    HW110793   5.783   3.309   3.254
 3298SOL    HW210794   5.736   3.254   3.400
 3299SOL     OW10795   1.547   0.528   4.691
 3299SOL    HW110796   1.479   0.588   4.650
 3299SOL    HW210797   1.505   0.477   4.766
 3300SOL     OW10798   6.569   0.210   4.427
 3300SOL    HW110799   6.596   0.138   4.364
 3300SOL    HW210800   6.619   0.294   4.406
 3301SOL     OW10801   0.593   3.744   3.234
 3301SOL    HW110802   0.550   3.820   3.186
 3301SOL    HW210803   0.691   3.741   3.212
 3302SOL     OW10804   0.784   5.091   3.773
 3302SOL    HW110805   0.741   5.083   3.683
 3302SOL    HW210806   0.879   5.061   3.768
 3303SOL     OW10807   3.761   4.066   3.551
 3303SOL    HW110808   3.791   3.977   3.585
 3303SOL    HW210809   3.790   4.077   3.456
 3304SOL     OW10810   0.642   6.634   4.261
 3304SOL    HW110811   0.705   6.710   4.274
 3304SOL    HW210812   0.579   6.655   4.186
 3305SOL     OW10813   1.451   1.170   1.979
 3305SOL    HW110814   1.422   1.108   1.905
 3305SOL    HW210815   1.424   1.131   2.067
 3306SOL     OW10816   1.170   3.615   2.498
 3306SOL    HW110817   1.117   3.648   2.576
 3306SOL    HW210818   1.191   3.518   2.511
 3307SOL     OW10819   0.275   5.961   0.617
 3307SOL    HW110820   0.367   5.997   0.630
 3307SOL    HW210821   0.209   6.036   0.615
 3308SOL     OW10822   4.365   5.990   0.632
 3308SOL    HW110823   4.327   5.997   0.724
 3308SOL    HW210824   4.465   5.993   0.636
 3309SOL     OW10825   0.725   5.328   2.649
 3309SOL    HW110826   0.667   5.387   2.593
 3309SOL    HW210827   0.810   5.376   2.672
 3310SOL     OW10828   1.566   6.719   1.291
 3310SOL    HW110829   1.567   6.633   1.240
 3310SOL    HW210830   1.653   6.767   1.277
 3311SOL     OW10831   3.916   5.852   0.853
 3311SOL    HW110832   3.990   5.865   0.919
 3311SOL    HW210833   3.931   5.767   0.802
 3312SOL     OW10834   2.389   3.577   7.025
 3312SOL    HW110835   2.359   3.514   6.954
 3312SOL    HW210836   2.353   3.668   7.005
 3313SOL     OW10837   0.032   5.752   4.537
 3313SOL    HW110838   0.119   5.703   4.543
 3313SOL    HW210839   6.983   5.687   4.541
 3314SOL     OW10840   0.691   3.351   6.229
 3314SOL    HW110841   0.662   3.257   6.215
 3314SOL    HW210842   0.785   3.361   6.196
 3315SOL     OW10843   6.869   3.002   2.912
 3315SOL    HW110844   6.845   3.083   2.966
 3315SOL    HW210845   6.897   2.929   2.974
 3316SOL     OW10846   4.090   0.307   0.483
 3316SOL    HW110847   4.029   0.324   0.561
 3316SOL    HW210848   4.093   0.388   0.425
 3317SOL     OW10849   4.635   2.123   1.604
 3317SOL    HW110850   4.706   2.177   1.648
 3317SOL    HW210851   4.551   2.127   1.658
 3318SOL     OW10852   2.675   5.684   4.867
 3318SOL    HW110853   2.615   5.664   4.790
 3318SOL    HW210854   2.715   5.599   4.901
 3319SOL     OW10855   0.158   5.677   5.595
 3319SOL    HW110856   0.175   5.582   5.568
 3319SOL    HW210857   0.242   5.716   5.635
 3320SOL     OW10858   6.859   1.740   6.031
 3320SOL    HW110859   6.809   1.801   6.092
 3320SOL    HW210860   6.902   1.667   6.084
 3321SOL     OW10861   3.239   4.112   3.930
 3321SOL    HW110862   3.172   4.102   4.004
 3321SOL    HW210863   3.190   4.124   3.843
 3322SOL     OW10864   4.465   1.806   1.556
 3322SOL    HW110865   4.406   1.882   1.583
 3322SOL    HW210866   4.553   1.815   1.602
 3323SOL     OW10867   2.638   5.149   0.172
 3323SOL    HW110868   2.689   5.218   0.225
 3323SOL    HW210869   2.551   5.188   0.141
 3324SOL     OW10870   0.585   2.687   0.608
 3324SOL    HW110871   0.630   2.636   0.534
 3324SOL    HW210872   0.653   2.710   0.678
 3325SOL     OW10873   2.023   2.993   0.414
 3325SOL    HW110874   1.942   2.954   0.460
 3325SOL    HW210875   2.089   3.022   0.483
 3326SOL     OW10876   6.411   0.153   2.226
 3326SOL    HW110877   6.406   0.169   2.324
 3326SOL    HW210878   6.506   0.152   2.196
 3327SOL     OW10879   3.018   6.982   1.672
 3327SOL    HW110880   2.970   6.978   1.760
 3327SOL    HW210881   3.103   6.930   1.679
 3328SOL     OW10882   4.386   1.001   2.928
 3328SOL    HW110883   4.426   1.089   2.953
 3328SOL    HW210884   4.363   1.002   2.830
 3329SOL     OW10885   4.683   1.053   5.399
 3329SOL    HW110886   4.736   1.134   5.424
 3329SOL    HW210887   4.613   1.078   5.332
 3330SOL     OW10888   6.759   5.175   3.348
 3330SOL    HW110889   6.757   5.169   3.447
 3330SOL    HW210890   6.848   5.143   3.314
 3331SOL     OW10891   2.032   3.561   2.676
 3331SOL    HW110892   2.054   3.492   2.607
 3331SOL    HW210893   1.942   3.599   2.658
 3332SOL     OW10894   3.299   4.963   1.014
 3332SOL    HW110895   3.302   5.063   1.017
 3332SOL    HW210896   3.391   4.926   1.024
 3333SOL     OW10897   2.478   3.005   1.746
 3333SOL    HW110898   2.537   2.933   1.710
 3333SOL    HW210899   2.393   2.965   1.778
 3334SOL     OW10900   2.256   2.263   1.609
 3334SOL    HW110901   2.241   2.331   1.681
 3334SOL    HW210902   2.280   2.309   1.524
 3335SOL     OW10903   3.793   4.463   5.643
 3335SOL    HW110904   3.819   4.437   5.737
 3335SOL    HW210905   3.759   4.557   5.643
 3336SOL     OW10906   5.220   5.356   4.396
 3336SOL    HW110907   5.149   5.419   4.363
 3336SOL    HW210908   5.306   5.405   4.408
 3337SOL     OW10909   3.297   3.347   2.935
 3337SOL    HW110910   3.304   3.445   2.953
 3337SOL    HW210911   3.386   3.304   2.950
 3338SOL     OW10912   2.814   2.966   1.618
 3338SOL    HW110913   2.748   2.909   1.568
 3338SOL    HW210914   2.903   2.961   1.572
 3339SOL     OW10915   2.062   0.128   6.364
 3339SOL    HW110916   2.007   0.204   6.397
 3339SOL    HW210917   2.151   0.130   6.409
 3340SOL     OW10918   3.943   0.639   3.944
 3340SOL    HW110919   3.932   0.737   3.923
 3340SOL    HW210920   3.868   0.609   4.002
 3341SOL     OW10921   1.146   3.969   2.605
 3341SOL    HW110922   1.229   3.925   2.639
 3341SOL    HW210923   1.168   4.026   2.526
 3342SOL     OW10924   6.911   1.035   2.659
 3342SOL    HW110925   6.849   1.029   2.737
 3342SOL    HW210926   6.949   0.945   2.639
 3343SOL     OW10927   4.488   5.284   0.177
 3343SOL    HW110928   4.394   5.285   0.210
 3343SOL    HW210929   4.547   5.330   0.243
 3344SOL     OW10930   1.007   3.200   2.133
 3344SOL    HW110931   0.988   3.290   2.171
 3344SOL    HW210932   0.960   3.130   2.187
 3345SOL     OW10933   5.934   5.557   6.554
 3345SOL    HW110934   5.991   5.623   6.602
 3345SOL    HW210935   5.967   5.547   6.460
 3346SOL     OW10936   1.319   1.141   0.042
 3346SOL    HW110937   1.299   1.214   7.004
 3346SOL    HW210938   1.328   1.179   0.134
 3347SOL     OW10939   0.322   3.785   5.882
 3347SOL    HW110940   0.345   3.862   5.941
 3347SOL    HW210941   0.230   3.752   5.905
 3348SOL     OW10942   3.362   4.195   6.036
 3348SOL    HW110943   3.419   4.270   6.070
 3348SOL    HW210944   3.301   4.230   5.965
 3349SOL     OW10945   2.004   5.183   3.466
 3349SOL    HW110946   2.001   5.085   3.444
 3349SOL    HW210947   1.985   5.236   3.383
 3350SOL     OW10948   1.765   4.512   4.317
 3350SOL    HW110949   1.836   4.553   4.261
 3350SOL    HW210950   1.734   4.427   4.275
 3351SOL     OW10951   5.355   1.122   1.611
 3351SOL    HW110952   5.411   1.201   1.587
 3351SOL    HW210953   5.394   1.077   1.691
 3352SOL     OW10954   5.873   0.993   7.016
 3352SOL    HW110955   5.920   0.914   6.976
 3352SOL    HW210956   5.797   0.961   0.046
 3353SOL     OW10957   4.073   0.609   1.393
 3353SOL    HW110958   4.015   0.604   1.311
 3353SOL    HW210959   4.093   0.516   1.424
 3354SOL     OW10960   3.080   4.333   6.189
 3354SOL    HW110961   3.138   4.298   6.263
 3354SOL    HW210962   3.131   4.333   6.103
 3355SOL     OW10963   1.790   0.511   4.831
 3355SOL    HW110964   1.698   0.519   4.793
 3355SOL    HW210965   1.797   0.425   4.883
 3356SOL     OW10966   1.468   0.766   6.220
 3356SOL    HW110967   1.490   0.863   6.231
 3356SOL    HW210968   1.541   0.711   6.260
 3357SOL     OW10969   3.141   3.169   2.228
 3357SOL    HW110970   3.213   3.237   2.212
 3357SOL    HW210971   3.081   3.200   2.302
 3358SOL     OW10972   0.018   0.933   1.680
 3358SOL    HW110973   0.012   0.838   1.710
 3358SOL    HW210974   6.996   0.943   1.594
 3359SOL     OW10975   0.621   0.175   4.718
 3359SOL    HW110976   0.546   0.215   4.771
 3359SOL    HW210977   0.593   0.085   4.684
 3360SOL     OW10978   1.575   3.679   4.387
 3360SOL    HW110979   1.673   3.696   4.374
 3360SOL    HW210980   1.546   3.718   4.475
 3361SOL     OW10981   6.157   6.930   4.849
 3361SOL    HW110982   6.091   6.966   4.914
 3361SOL    HW210983   6.247   6.971   4.866
 3362SOL     OW10984   3.722   0.774   3.738
 3362SOL    HW110985   3.718   0.680   3.773
 3362SOL    HW210986   3.715   0.773   3.639
 3363SOL     OW10987   5.397   3.731   0.202
 3363SOL    HW110988   5.467   3.685   0.256
 3363SOL    HW210989   5.325   3.764   0.263
 3364SOL     OW10990   1.930   3.419   3.632
 3364SOL    HW110991   1.994   3.446   3.560
 3364SOL    HW210992   1.886   3.333   3.607
 3365SOL     OW10993   1.770   3.775   3.439
 3365SOL    HW110994   1.801   3.787   3.533
 3365SOL    HW210995   1.670   3.777   3.436
 3366SOL     OW10996   6.081   3.687   4.549
 3366SOL    HW110997   6.008   3.753   4.568
 3366SOL    HW210998   6.069   3.606   4.606
 3367SOL     OW10999   3.690   3.912   3.941
 3367SOL    HW111000   3.662   3.872   4.029
 3367SOL    HW211001   3.635   3.872   3.868
 3368SOL     OW11002   1.710   0.714   1.957
 3368SOL    HW111003   1.703   0.614   1.957
 3368SOL    HW211004   1.805   0.741   1.971
 3369SOL     OW11005   5.198   1.923   1.210
 3369SOL    HW111006   5.292   1.920   1.176
 3369SOL    HW211007   5.154   2.007   1.176
 3370SOL     OW11008   0.361   5.658   2.732
 3370SOL    HW111009   0.369   5.757   2.728
 3370SOL    HW211010   0.446   5.617   2.699
 3371SOL     OW11011   2.206   2.934   2.227
 3371SOL    HW111012   2.281   2.877   2.194
 3371SOL    HW211013   2.170   2.988   2.151
 3372SOL     OW11014   6.356   3.902   2.611
 3372SOL    HW111015   6.352   3.815   2.562
 3372SOL    HW211016   6.428   3.959   2.571
 3373SOL     OW11017   6.960   3.324   1.777
 3373SOL    HW111018   6.886   3.311   1.842
 3373SOL    HW211019   6.930   3.293   1.686
 3374SOL     OW11020   0.404   6.510   4.381
 3374SOL    HW111021   0.488   6.563   4.371
 3374SOL    HW211022   0.425   6.419   4.417
 3375SOL     OW11023   0.421   5.890   5.986
 3375SOL    HW111024   0.333   5.872   6.029
 3375SOL    HW211025   0.437   5.822   5.914
 3376SOL     OW11026   3.047   3.166   3.999
 3376SOL    HW111027   3.019   3.116   4.081
 3376SOL    HW211028   2.982   3.240   3.982
 3377SOL     OW11029   6.704   4.823   3.631
 3377SOL    HW111030   6.716   4.922   3.641
 3377SOL    HW211031   6.682   4.802   3.536
 3378SOL     OW11032   1.270   6.560   0.203
 3378SOL    HW111033   1.195   6.622   0.182
 3378SOL    HW211034   1.232   6.470   0.229
 3379SOL     OW11035   6.401   4.200   3.755
 3379SOL    HW111036   6.322   4.255   3.728
 3379SOL    HW211037   6.382   4.104   3.735
 3380SOL     OW11038   2.327   4.792   0.435
 3380SOL    HW111039   2.293   4.844   0.357
 3380SOL    HW211040   2.347   4.698   0.407
 3381SOL     OW11041   2.005   3.612   6.221
 3381SOL    HW111042   1.973   3.582   6.131
 3381SOL    HW211043   2.100   3.641   6.215
 3382SOL     OW11044   6.645   3.542   0.822
 3382SOL    HW111045   6.708   3.586   0.886
 3382SOL    HW211046   6.558   3.591   0.822
 3383SOL     OW11047   4.336   5.170   0.394
 3383SOL    HW111048   4.247   5.162   0.348
 3383SOL    HW211049   4.327   5.230   0.474
 3384SOL     OW11050   2.965   3.746   6.694
 3384SOL    HW111051   3.010   3.704   6.616
 3384SOL    HW211052   2.878   3.700   6.711
 3385SOL     OW11053   6.887   2.573   4.254
 3385SOL    HW111054   6.830   2.652   4.273
 3385SOL    HW211055   6.889   2.513   4.334
 3386SOL     OW11056   0.247   5.081   4.915
 3386SOL    HW111057   0.164   5.028   4.896
 3386SOL    HW211058   0.320   5.020   4.943
 3387SOL     OW11059   6.216   1.004   3.183
 3387SOL    HW111060   6.254   0.921   3.224
 3387SOL    HW211061   6.246   1.011   3.088
 3388SOL     OW11062   6.875   3.592   0.966
 3388SOL    HW111063   6.964   3.551   0.945
 3388SOL    HW211064   6.877   3.627   1.060
 3389SOL     OW11065   5.686   6.096   6.817
 3389SOL    HW111066   5.651   6.003   6.827
 3389SOL    HW211067   5.709   6.132   6.908
 3390SOL     OW11068   2.889   6.004   6.359
 3390SOL    HW111069   2.822   6.069   6.324
 3390SOL    HW211070   2.842   5.926   6.401
 3391SOL     OW11071   5.587   3.738   3.895
 3391SOL    HW111072   5.497   3.694   3.899
 3391SOL    HW211073   5.592   3.810   3.964
 3392SOL     OW11074   4.873   0.442   6.057
 3392SOL    HW111075   4.864   0.478   5.964
 3392SOL    HW211076   4.833   0.351   6.061
 3393SOL     OW11077   4.280   6.262   0.604
 3393SOL    HW111078   4.349   6.193   0.583
 3393SOL    HW211079   4.212   6.223   0.666
 3394SOL     OW11080   2.518   5.264   1.628
 3394SOL    HW111081   2.603   5.215   1.644
 3394SOL    HW211082   2.527   5.319   1.544
 3395SOL     OW11083   2.483   6.748   3.281
 3395SOL    HW111084   2.443   6.698   3.358
 3395SOL    HW211085   2.581   6.761   3.297
 3396SOL     OW11086   4.312   0.527   3.862
 3396SOL    HW111087   4.383   0.561   3.801
 3396SOL    HW211088   4.337   0.548   3.957
 3397SOL     OW11089   2.301   5.869   6.715
 3397SOL    HW111090   2.270   5.830   6.801
 3397SOL    HW211091   2.228   5.923   6.674
 3398SOL     OW11092   6.317   2.510   4.789
 3398SOL    HW111093   6.411   2.545   4.797
 3398SOL    HW211094   6.318   2.427   4.733
 3399SOL     OW11095   6.730   6.220   1.739
 3399SOL    HW111096   6.684   6.285   1.800
 3399SOL    HW211097   6.712   6.127   1.770
 3400SOL     OW11098   4.145   2.864   5.710
 3400SOL    HW111099   4.178   2.958   5.716
 3400SOL    HW211100   4.215   2.801   5.744
 3401SOL     OW11101   6.109   4.125   5.727
 3401SOL    HW111102   6.106   4.126   5.627
 3401SOL    HW211103   6.197   4.088   5.757
 3402SOL     OW11104   6.875   3.184   1.012
 3402SOL    HW111105   6.828   3.203   1.099
 3402SOL    HW211106   6.823   3.226   0.937
 3403SOL     OW11107   5.300   6.862   6.978
 3403SOL    HW111108   5.379   6.922   6.985
 3403SOL    HW211109   5.328   6.767   6.989
 3404SOL     OW11110   5.025   4.308   4.675
 3404SOL    HW111111   5.037   4.283   4.579
 3404SOL    HW211112   5.108   4.355   4.707
 3405SOL     OW11113   4.742   6.367   0.090
 3405SOL    HW111114   4.822   6.361   0.031
 3405SOL    HW211115   4.768   6.404   0.179
 3406SOL     OW11116   2.515   5.413   1.857
 3406SOL    HW111117   2.512   5.379   1.763
 3406SOL    HW211118   2.423   5.444   1.883
 3407SOL     OW11119   1.086   3.877   6.748
 3407SOL    HW111120   1.000   3.869   6.696
 3407SOL    HW211121   1.095   3.970   6.783
 3408SOL     OW11122   5.159   0.687   3.725
 3408SOL    HW111123   5.208   0.600   3.719
 3408SOL    HW211124   5.197   0.743   3.798
 3409SOL     OW11125   4.417   0.728   0.885
 3409SOL    HW111126   4.469   0.797   0.935
 3409SOL    HW211127   4.480   0.666   0.838
 3410SOL     OW11128   6.018   0.214   3.183
 3410SOL    HW111129   5.919   0.229   3.193
 3410SOL    HW211130   6.064   0.246   3.266
 3411SOL     OW11131   6.185   3.309   6.076
 3411SOL    HW111132   6.137   3.394   6.099
 3411SOL    HW211133   6.283   3.322   6.088
 3412SOL     OW11134   5.577   3.417   1.994
 3412SOL    HW111135   5.610   3.442   2.086
 3412SOL    HW211136   5.654   3.386   1.939
 3413SOL     OW11137   6.763   1.103   6.994
 3413SOL    HW111138   6.761   1.054   0.055
 3413SOL    HW211139   6.792   1.197   7.010
 3414SOL     OW11140   3.098   4.029   1.335
 3414SOL    HW111141   3.045   4.026   1.419
 3414SOL    HW211142   3.039   4.005   1.257
 3415SOL     OW11143   2.140   1.316   6.013
 3415SOL    HW111144   2.230   1.360   6.005
 3415SOL    HW211145   2.094   1.321   5.925
 3416SOL     OW11146   6.391   6.957   6.436
 3416SOL    HW111147   6.449   6.973   6.516
 3416SOL    HW211148   6.439   6.899   6.370
 3417SOL     OW11149   6.294   6.191   3.481
 3417SOL    HW111150   6.287   6.289   3.501
 3417SOL    HW211151   6.204   6.148   3.489
 3418SOL     OW11152   4.051   4.709   1.003
 3418SOL    HW111153   3.986   4.634   0.993
 3418SOL    HW211154   4.092   4.705   1.094
 3419SOL     OW11155   2.737   5.445   5.505
 3419SOL    HW111156   2.717   5.436   5.603
 3419SOL    HW211157   2.734   5.354   5.462
 3420SOL     OW11158   4.671   1.645   2.343
 3420SOL    HW111159   4.742   1.666   2.410
 3420SOL    HW211160   4.701   1.567   2.287
 3421SOL     OW11161   0.301   2.052   5.038
 3421SOL    HW111162   0.280   1.972   4.982
 3421SOL    HW211163   0.396   2.080   5.022
 3422SOL     OW11164   2.007   6.014   0.724
 3422SOL    HW111165   2.045   6.081   0.661
 3422SOL    HW211166   2.053   5.926   0.712
 3423SOL     OW11167   1.760   4.747   5.627
 3423SOL    HW111168   1.778   4.756   5.725
 3423SOL    HW211169   1.661   4.757   5.610
 3424SOL     OW11170   5.281   1.331   1.986
 3424SOL    HW111171   5.228   1.272   1.926
 3424SOL    HW211172   5.234   1.340   2.074
 3425SOL     OW11173   6.517   3.214   6.456
 3425SOL    HW111174   6.595   3.207   6.519
 3425SOL    HW211175   6.443   3.264   6.501
 3426SOL     OW11176   6.714   3.156   6.636
 3426SOL    HW111177   6.703   3.157   6.735
 3426SOL    HW211178   6.811   3.150   6.612
 3427SOL     OW11179   0.599   2.002   0.508
 3427SOL    HW111180   0.593   1.971   0.603
 3427SOL    HW211181   0.664   2.078   0.501
 3428SOL     OW11182   4.464   6.560   4.821
 3428SOL    HW111183   4.365   6.562   4.831
 3428SOL    HW211184   4.490   6.504   4.742
 3429SOL     OW11185   5.194   6.774   1.417
 3429SOL    HW111186   5.224   6.859   1.459
 3429SOL    HW211187   5.223   6.771   1.322
 3430SOL     OW11188   2.269   4.666   5.762
 3430SOL    HW111189   2.269   4.634   5.667
 3430SOL    HW211190   2.178   4.654   5.801
 3431SOL     OW11191   0.581   4.887   2.478
 3431SOL    HW111192   0.549   4.797   2.451
 3431SOL    HW211193   0.504   4.952   2.477
 3432SOL     OW11194   0.552   4.287   0.124
 3432SOL    HW111195   0.454   4.285   0.107
 3432SOL    HW211196   0.591   4.370   0.086
 3433SOL     OW11197   2.639   1.045   6.809
 3433SOL    HW111198   2.686   0.966   6.771
 3433SOL    HW211199   2.556   1.063   6.756
 3434SOL     OW11200   3.707   2.619   1.781
 3434SOL    HW111201   3.612   2.648   1.783
 3434SOL    HW211202   3.711   2.519   1.794
 3435SOL     OW11203   2.037   1.361   0.946
 3435SOL    HW111204   1.942   1.349   0.920
 3435SOL    HW211205   2.091   1.284   0.912
 3436SOL     OW11206   3.403   6.806   6.029
 3436SOL    HW111207   3.374   6.716   5.997
 3436SOL    HW211208   3.341   6.837   6.101
 3437SOL     OW11209   1.274   7.023   6.196
 3437SOL    HW111210   1.286   0.092   6.217
 3437SOL    HW211211   1.180   7.006   6.165
 3438SOL     OW11212   2.053   3.907   0.817
 3438SOL    HW111213   2.005   3.895   0.729
 3438SOL    HW211214   2.148   3.930   0.800
 3439SOL     OW11215   2.313   5.736   1.522
 3439SOL    HW111216   2.263   5.741   1.435
 3439SOL    HW211217   2.279   5.659   1.576
 3440SOL     OW11218   3.878   3.981   5.254
 3440SOL    HW111219   3.812   3.950   5.322
 3440SOL    HW211220   3.851   4.071   5.220
 3441SOL     OW11221   5.576   4.415   6.142
 3441SOL    HW111222   5.492   4.399   6.092
 3441SOL    HW211223   5.558   4.476   6.219
 3442SOL     OW11224   2.369   3.436   0.898
 3442SOL    HW111225   2.333   3.437   0.991
 3442SOL    HW211226   2.456   3.387   0.897
 3443SOL     OW11227   0.174   6.296   2.259
 3443SOL    HW111228   0.271   6.274   2.269
 3443SOL    HW211229   0.162   6.395   2.263
 3444SOL     OW11230   6.202   4.012   6.063
 3444SOL    HW111231   6.284   4.002   6.008
 3444SOL    HW211232   6.186   4.108   6.083
 3445SOL     OW11233   6.325   4.599   3.847
 3445SOL    HW111234   6.348   4.694   3.869
 3445SOL    HW211235   6.353   4.540   3.923
 3446SOL     OW11236   4.466   1.094   1.600
 3446SOL    HW111237   4.507   1.093   1.509
 3446SOL    HW211238   4.514   1.160   1.658
 3447SOL     OW11239   5.141   0.940   6.213
 3447SOL    HW111240   5.206   1.001   6.168
 3447SOL    HW211241   5.067   0.918   6.150
 3448SOL     OW11242   1.569   4.605   5.334
 3448SOL    HW111243   1.666   4.583   5.347
 3448SOL    HW211244   1.560   4.703   5.319
 3449SOL     OW11245   7.009   4.821   5.577
 3449SOL    HW111246   6.970   4.830   5.485
 3449SOL    HW211247   0.060   4.758   5.574
 3450SOL     OW11248   2.557   6.601   1.398
 3450SOL    HW111249   2.571   6.578   1.301
 3450SOL    HW211250   2.547   6.700   1.407
 3451SOL     OW11251   1.744   1.637   1.573
 3451SOL    HW111252   1.776   1.543   1.581
 3451SOL    HW211253   1.822   1.699   1.585
 3452SOL     OW11254   4.414   1.375   4.908
 3452SOL    HW111255   4.368   1.304   4.960
 3452SOL    HW211256   4.360   1.397   4.826
 3453SOL     OW11257   4.182   6.383   6.399
 3453SOL    HW111258   4.168   6.367   6.497
 3453SOL    HW211259   4.274   6.354   6.373
 3454SOL     OW11260   6.932   2.933   1.352
 3454SOL    HW111261   6.991   2.856   1.328
 3454SOL    HW211262   6.979   2.993   1.416
 3455SOL     OW11263   0.221   3.420   5.964
 3455SOL    HW111264   0.253   3.346   6.023
 3455SOL    HW211265   0.265   3.412   5.874
 3456SOL     OW11266   5.281   5.547   3.599
 3456SOL    HW111267   5.330   5.489   3.664
 3456SOL    HW211268   5.317   5.531   3.507
 3457SOL     OW11269   3.695   4.329   6.094
 3457SOL    HW111270   3.669   4.233   6.103
 3457SOL    HW211271   3.618   4.381   6.057
 3458SOL     OW11272   4.256   1.201   2.256
 3458SOL    HW111273   4.289   1.114   2.218
 3458SOL    HW211274   4.159   1.210   2.238
 3459SOL     OW11275   5.713   6.151   2.415
 3459SOL    HW111276   5.795   6.152   2.473
 3459SOL    HW211277   5.740   6.138   2.320
 3460SOL     OW11278   3.696   1.816   4.991
 3460SOL    HW111279   3.663   1.728   4.957
 3460SOL    HW211280   3.796   1.818   4.990
 3461SOL     OW11281   5.367   5.036   5.022
 3461SOL    HW111282   5.391   5.113   4.962
 3461SOL    HW211283   5.326   4.963   4.968
 3462SOL     OW11284   1.168   3.188   6.285
 3462SOL    HW111285   1.182   3.131   6.366
 3462SOL    HW211286   1.254   3.232   6.260
 3463SOL     OW11287   5.430   4.268   7.004
 3463SOL    HW111288   5.491   4.250   6.927
 3463SOL    HW211289   5.405   4.365   7.005
 3464SOL     OW11290   0.283   4.451   4.746
 3464SOL    HW111291   0.367   4.505   4.735
 3464SOL    HW211292   0.306   4.363   4.788
 3465SOL     OW11293   0.925   1.571   2.215
 3465SOL    HW111294   0.954   1.659   2.177
 3465SOL    HW211295   0.949   1.497   2.151
 3466SOL     OW11296   6.728   3.345   5.447
 3466SOL    HW111297   6.782   3.314   5.369
 3466SOL    HW211298   6.790   3.372   5.521
 3467SOL     OW11299   1.799   2.607   6.346
 3467SOL    HW111300   1.707   2.591   6.310
 3467SOL    HW211301   1.818   2.543   6.420
 3468SOL     OW11302   4.039   6.730   2.514
 3468SOL    HW111303   4.130   6.771   2.522
 3468SOL    HW211304   4.041   6.637   2.551
 3469SOL     OW11305   5.196   3.395   1.620
 3469SOL    HW111306   5.212   3.297   1.632
 3469SOL    HW211307   5.275   3.446   1.655
 3470SOL     OW11308   0.026   5.515   0.992
 3470SOL    HW111309   0.038   5.596   1.049
 3470SOL    HW211310   6.974   5.463   1.024
 3471SOL     OW11311   4.452   0.380   4.356
 3471SOL    HW111312   4.529   0.426   4.401
 3471SOL    HW211313   4.372   0.440   4.359
 3472SOL     OW11314   4.268   1.263   5.170
 3472SOL    HW111315   4.303   1.233   5.259
 3472SOL    HW211316   4.216   1.188   5.128
 3473SOL     OW11317   4.316   6.920   4.029
 3473SOL    HW111318   4.401   6.923   3.978
 3473SOL    HW211319   4.328   6.867   4.112
 3474SOL     OW11320   5.486   4.395   1.089
 3474SOL    HW111321   5.461   4.466   1.024
 3474SOL    HW211322   5.581   4.409   1.119
 3475SOL     OW11323   1.804   6.466   4.686
 3475SOL    HW111324   1.897   6.480   4.721
 3475SOL    HW211325   1.786   6.530   4.611
 3476SOL     OW11326   4.720   1.418   4.332
 3476SOL    HW111327   4.720   1.430   4.232
 3476SOL    HW211328   4.702   1.505   4.376
 3477SOL     OW11329   4.336   5.402   2.046
 3477SOL    HW111330   4.347   5.461   2.125
 3477SOL    HW211331   4.260   5.339   2.061
 3478SOL     OW11332   4.428   5.026   6.849
 3478SOL    HW111333   4.457   4.987   6.762
 3478SOL    HW211334   4.385   4.955   6.905
 3479SOL     OW11335   1.464   0.019   1.570
 3479SOL    HW111336   1.477   6.947   1.567
 3479SOL    HW211337   1.384   0.043   1.515
 3480SOL     OW11338   1.219   0.869   4.061
 3480SOL    HW111339   1.167   0.951   4.085
 3480SOL    HW211340   1.317   0.887   4.070
 3481SOL     OW11341   2.536   0.024   6.851
 3481SOL    HW111342   2.492   0.058   6.935
 3481SOL    HW211343   2.559   6.954   6.863
 3482SOL     OW11344   0.896   1.950   1.386
 3482SOL    HW111345   0.904   1.979   1.291
 3482SOL    HW211346   0.910   2.029   1.446
 3483SOL     OW11347   4.225   1.670   0.587
 3483SOL    HW111348   4.208   1.763   0.621
 3483SOL    HW211349   4.244   1.609   0.664
 3484SOL     OW11350   2.928   3.299   3.699
 3484SOL    HW111351   2.964   3.366   3.635
 3484SOL    HW211352   2.988   3.219   3.702
 3485SOL     OW11353   6.818   1.722   4.772
 3485SOL    HW111354   6.821   1.796   4.706
 3485SOL    HW211355   6.727   1.717   4.814
 3486SOL     OW11356   4.989   1.376   3.306
 3486SOL    HW111357   4.933   1.425   3.372
 3486SOL    HW211358   4.930   1.332   3.238
 3487SOL     OW11359   0.248   0.504   0.121
 3487SOL    HW111360   0.161   0.549   0.141
 3487SOL    HW211361   0.286   0.541   0.036
 3488SOL     OW11362   6.234   3.301   3.816
 3488SOL    HW111363   6.297   3.275   3.743
 3488SOL    HW211364   6.141   3.304   3.780
 3489SOL     OW11365   2.169   6.472   0.217
 3489SOL    HW111366   2.173   6.455   0.119
 3489SOL    HW211367   2.201   6.564   0.237
 3490SOL     OW11368   4.172   2.644   1.358
 3490SOL    HW111369   4.167   2.592   1.273
 3490SOL    HW211370   4.160   2.582   1.436
 3491SOL     OW11371   6.603   2.803   5.217
 3491SOL    HW111372   6.555   2.721   5.186
 3491SOL    HW211373   6.700   2.796   5.194
 3492SOL     OW11374   5.503   5.178   6.088
 3492SOL    HW111375   5.475   5.109   6.021
 3492SOL    HW211376   5.575   5.139   6.147
 3493SOL     OW11377   0.394   4.651   1.049
 3493SOL    HW111378   0.473   4.665   1.108
 3493SOL    HW211379   0.384   4.553   1.029
 3494SOL     OW11380   2.633   5.940   1.168
 3494SOL    HW111381   2.542   5.980   1.161
 3494SOL    HW211382   2.701   6.014   1.169
 3495SOL     OW11383   5.205   4.418   0.623
 3495SOL    HW111384   5.237   4.350   0.557
 3495SOL    HW211385   5.168   4.497   0.574
 3496SOL     OW11386   1.046   4.286   0.302
 3496SOL    HW111387   1.084   4.208   0.352
 3496SOL    HW211388   0.978   4.254   0.236
 3497SOL     OW11389   4.348   6.214   3.593
 3497SOL    HW111390   4.338   6.227   3.494
 3497SOL    HW211391   4.302   6.129   3.620
 3498SOL     OW11392   1.830   1.852   1.200
 3498SOL    HW111393   1.907   1.789   1.193
 3498SOL    HW211394   1.860   1.944   1.173
 3499SOL     OW11395   6.557   3.739   4.379
 3499SOL    HW111396   6.502   3.694   4.309
 3499SOL    HW211397   6.653   3.741   4.351
 3500SOL     OW11398   6.513   2.843   0.771
 3500SOL    HW111399   6.557   2.929   0.796
 3500SOL    HW211400   6.421   2.840   0.810
 3501SOL     OW11401   0.889   4.461   4.014
 3501SOL    HW111402   0.931   4.377   4.048
 3501SOL    HW211403   0.796   4.469   4.051
 3502SOL     OW11404   0.992   3.907   1.954
 3502SOL    HW111405   1.029   3.847   1.883
 3502SOL    HW211406   1.051   3.986   1.965
 3503SOL     OW11407   3.881   6.606   3.930
 3503SOL    HW111408   3.812   6.534   3.941
 3503SOL    HW211409   3.874   6.671   4.005
 3504SOL     OW11410   2.114   3.199   2.685
 3504SOL    HW111411   2.133   3.181   2.589
 3504SOL    HW211412   2.149   3.290   2.710
 3505SOL     OW11413   4.152   5.902   5.155
 3505SOL    HW111414   4.067   5.947   5.130
 3505SOL    HW211415   4.229   5.950   5.112
 3506SOL     OW11416   5.714   4.886   2.348
 3506SOL    HW111417   5.721   4.965   2.409
 3506SOL    HW211418   5.699   4.918   2.254
 3507SOL     OW11419   0.419   0.482   6.279
 3507SOL    HW111420   0.451   0.392   6.307
 3507SOL    HW211421   0.489   0.550   6.301
 3508SOL     OW11422   6.465   3.355   0.548
 3508SOL    HW111423   6.536   3.350   0.477
 3508SOL    HW211424   6.453   3.265   0.589
 3509SOL     OW11425   6.404   0.202   0.898
 3509SOL    HW111426   6.467   0.223   0.973
 3509SOL    HW211427   6.448   0.138   0.834
 3510SOL     OW11428   1.651   2.522   2.103
 3510SOL    HW111429   1.621   2.494   2.012
 3510SOL    HW211430   1.604   2.606   2.130
 3511SOL     OW11431   1.041   0.650   5.410
 3511SOL    HW111432   1.050   0.748   5.391
 3511SOL    HW211433   1.132   0.610   5.423
 3512SOL     OW11434   2.624   3.292   0.909
 3512SOL    HW111435   2.655   3.251   0.823
 3512SOL    HW211436   2.702   3.334   0.956
 3513SOL     OW11437   5.981   4.160   1.544
 3513SOL    HW111438   6.036   4.124   1.620
 3513SOL    HW211439   5.907   4.216   1.581
 3514SOL     OW11440   1.694   6.839   1.897
 3514SOL    HW111441   1.679   6.745   1.865
 3514SOL    HW211442   1.616   6.868   1.953
 3515SOL     OW11443   3.404   6.150   2.500
 3515SOL    HW111444   3.359   6.086   2.438
 3515SOL    HW211445   3.403   6.242   2.461
 3516SOL     OW11446   3.523   1.140   0.505
 3516SOL    HW111447   3.458   1.215   0.498
 3516SOL    HW211448   3.614   1.177   0.526
 3517SOL     OW11449   1.080   0.636   6.459
 3517SOL    HW111450   1.142   0.601   6.388
 3517SOL    HW211451   0.990   0.595   6.448
 3518SOL     OW11452   4.786   3.338   5.605
 3518SOL    HW111453   4.737   3.290   5.677
 3518SOL    HW211454   4.773   3.437   5.616
 3519SOL     OW11455   3.044   6.328   0.678
 3519SOL    HW111456   3.123   6.388   0.689
 3519SOL    HW211457   3.027   6.279   0.764
 3520SOL     OW11458   3.558   5.321   1.457
 3520SOL    HW111459   3.631   5.329   1.389
 3520SOL    HW211460   3.580   5.377   1.537
 3521SOL     OW11461   5.502   2.261   6.485
 3521SOL    HW111462   5.563   2.327   6.529
 3521SOL    HW211463   5.541   2.169   6.494
 3522SOL     OW11464   2.871   5.840   1.348
 3522SOL    HW111465   2.795   5.829   1.283
 3522SOL    HW211466   2.945   5.778   1.324
 3523SOL     OW11467   2.476   5.235   5.390
 3523SOL    HW111468   2.460   5.136   5.397
 3523SOL    HW211469   2.564   5.252   5.345
 3524SOL     OW11470   2.442   6.846   1.361
 3524SOL    HW111471   2.377   6.832   1.436
 3524SOL    HW211472   2.394   6.878   1.280
 3525SOL     OW11473   1.667   3.369   2.621
 3525SOL    HW111474   1.743   3.304   2.613
 3525SOL    HW211475   1.595   3.329   2.678
 3526SOL     OW11476   3.190   0.076   3.602
 3526SOL    HW111477   3.235   0.164   3.621
 3526SOL    HW211478   3.256   0.013   3.562
 3527SOL     OW11479   4.983   2.977   5.921
 3527SOL    HW111480   4.911   2.953   5.987
 3527SOL    HW211481   4.947   2.967   5.828
 3528SOL     OW11482   1.156   0.189   4.022
 3528SOL    HW111483   1.189   0.099   3.993
 3528SOL    HW211484   1.234   0.249   4.039
 3529SOL     OW11485   3.632   6.200   6.956
 3529SOL    HW111486   3.576   6.135   6.905
 3529SOL    HW211487   3.699   6.149   7.012
 3530SOL     OW11488   1.358   5.681   2.856
 3530SOL    HW111489   1.292   5.738   2.905
 3530SOL    HW211490   1.317   5.648   2.771
 3531SOL     OW11491   4.967   3.910   6.747
 3531SOL    HW111492   5.009   3.990   6.703
 3531SOL    HW211493   4.992   3.908   6.843
 3532SOL     OW11494   1.675   6.603   0.275
 3532SOL    HW111495   1.666   6.659   0.193
 3532SOL    HW211496   1.713   6.658   0.349
 3533SOL     OW11497   1.073   1.106   4.086
 3533SOL    HW111498   1.126   1.178   4.130
 3533SOL    HW211499   0.980   1.106   4.122
 3534SOL     OW11500   4.930   0.708   4.867
 3534SOL    HW111501   5.021   0.670   4.879
 3534SOL    HW211502   4.866   0.662   4.929
 3535SOL     OW11503   4.103   6.089   6.734
 3535SOL    HW111504   4.078   6.023   6.805
 3535SOL    HW211505   4.020   6.120   6.687
 3536SOL     OW11506   1.077   3.743   3.140
 3536SOL    HW111507   1.151   3.750   3.207
 3536SOL    HW211508   1.081   3.822   3.078
 3537SOL     OW11509   2.368   4.852   1.029
 3537SOL    HW111510   2.351   4.934   1.082
 3537SOL    HW211511   2.380   4.774   1.091
 3538SOL     OW11512   3.141   1.466   3.731
 3538SOL    HW111513   3.067   1.527   3.702
 3538SOL    HW211514   3.205   1.454   3.656
 3539SOL     OW11515   5.415   6.168   6.836
 3539SOL    HW111516   5.340   6.117   6.793
 3539SOL    HW211517   5.502   6.123   6.814
 3540SOL     OW11518   3.155   4.384   5.934
 3540SOL    HW111519   3.174   4.477   5.903
 3540SOL    HW211520   3.077   4.347   5.884
 3541SOL     OW11521   2.161   2.955   1.544
 3541SOL    HW111522   2.247   3.003   1.566
 3541SOL    HW211523   2.171   2.858   1.566
 3542SOL     OW11524   5.767   1.276   6.954
 3542SOL    HW111525   5.824   1.198   6.981
 3542SOL    HW211526   5.709   1.250   6.876
 3543SOL     OW11527   0.790   2.297   3.986
 3543SOL    HW111528   0.809   2.395   3.989
 3543SOL    HW211529   0.828   2.259   3.901
 3544SOL     OW11530   3.118   4.107   0.038
 3544SOL    HW111531   3.188   4.131   0.104
 3544SOL    HW211532   3.063   4.187   0.015
 3545SOL     OW11533   3.908   0.291   0.998
 3545SOL    HW111534   3.921   0.196   1.026
 3545SOL    HW211535   3.935   0.352   1.072
 3546SOL     OW11536   6.083   4.093   2.597
 3546SOL    HW111537   6.053   4.107   2.691
 3546SOL    HW211538   6.153   4.022   2.594
 3547SOL     OW11539   1.209   4.012   4.677
 3547SOL    HW111540   1.151   4.045   4.603
 3547SOL    HW211541   1.190   3.915   4.693
 3548SOL     OW11542   5.518   0.715   5.533
 3548SOL    HW111543   5.594   0.742   5.592
 3548SOL    HW211544   5.433   0.716   5.587
 3549SOL     OW11545   2.755   6.608   0.013
 3549SOL    HW111546   2.837   6.639   0.061
 3549SOL    HW211547   2.750   6.508   0.018
 3550SOL     OW11548   5.183   1.174   5.027
 3550SOL    HW111549   5.160   1.078   5.045
 3550SOL    HW211550   5.103   1.231   5.044
 3551SOL     OW11551   4.563   2.250   4.556
 3551SOL    HW111552   4.589   2.193   4.634
 3551SOL    HW211553   4.531   2.192   4.481
 3552SOL     OW11554   5.815   6.954   3.549
 3552SOL    HW111555   5.741   6.975   3.485
 3552SOL    HW211556   5.888   6.906   3.500
 3553SOL     OW11557   5.793   5.632   6.771
 3553SOL    HW111558   5.877   5.686   6.770
 3553SOL    HW211559   5.809   5.545   6.726
 3554SOL     OW11560   5.591   4.225   6.807
 3554SOL    HW111561   5.660   4.154   6.824
 3554SOL    HW211562   5.551   4.211   6.716
 3555SOL     OW11563   3.140   1.658   4.964
 3555SOL    HW111564   3.054   1.704   4.940
 3555SOL    HW211565   3.214   1.725   4.966
 3556SOL     OW11566   5.616   0.962   0.122
 3556SOL    HW111567   5.649   1.057   0.125
 3556SOL    HW211568   5.536   0.957   0.061
 3557SOL     OW11569   5.964   0.331   1.227
 3557SOL    HW111570   5.893   0.400   1.211
 3557SOL    HW211571   6.033   0.368   1.289
 3558SOL     OW11572   3.808   5.682   2.516
 3558SOL    HW111573   3.874   5.733   2.572
 3558SOL    HW211574   3.721   5.678   2.564
 3559SOL     OW11575   4.630   7.006   6.422
 3559SOL    HW111576   4.646   0.077   6.405
 3559SOL    HW211577   4.567   6.995   6.498
 3560SOL     OW11578   1.804   5.725   4.094
 3560SOL    HW111579   1.878   5.779   4.134
 3560SOL    HW211580   1.831   5.628   4.092
 3561SOL     OW11581   4.428   3.539   5.275
 3561SOL    HW111582   4.461   3.568   5.364
 3561SOL    HW211583   4.486   3.578   5.203
 3562SOL     OW11584   2.442   1.707   6.902
 3562SOL    HW111585   2.494   1.633   6.858
 3562SOL    HW211586   2.397   1.671   6.983
 3563SOL     OW11587   6.284   2.690   5.922
 3563SOL    HW111588   6.362   2.733   5.967
 3563SOL    HW211589   6.199   2.730   5.958
 3564SOL     OW11590   6.089   3.341   2.117
 3564SOL    HW111591   6.032   3.423   2.111
 3564SOL    HW211592   6.040   3.264   2.076
 3565SOL     OW11593   3.997   6.006   4.720
 3565SOL    HW111594   3.970   6.101   4.739
 3565SOL    HW211595   3.985   5.952   4.803
 3566SOL     OW11596   1.080   0.042   4.820
 3566SOL    HW111597   0.987   0.013   4.845
 3566SOL    HW211598   1.145   0.001   4.884
 3567SOL     OW11599   0.088   2.895   6.353
 3567SOL    HW111600   0.092   2.848   6.441
 3567SOL    HW211601   0.031   2.841   6.289
 3568SOL     OW11602   5.424   3.872   6.056
 3568SOL    HW111603   5.331   3.836   6.046
 3568SOL    HW211604   5.449   3.873   6.152
 3569SOL     OW11605   1.238   0.723   4.389
 3569SOL    HW111606   1.160   0.773   4.353
 3569SOL    HW211607   1.282   0.672   4.315
 3570SOL     OW11608   5.552   1.647   3.680
 3570SOL    HW111609   5.645   1.608   3.677
 3570SOL    HW211610   5.532   1.690   3.592
 3571SOL     OW11611   6.070   6.698   5.445
 3571SOL    HW111612   6.105   6.684   5.537
 3571SOL    HW211613   6.135   6.754   5.393
 3572SOL     OW11614   6.358   5.813   4.911
 3572SOL    HW111615   6.364   5.760   4.826
 3572SOL    HW211616   6.274   5.867   4.910
 3573SOL     OW11617   1.383   1.817   2.052
 3573SOL    HW111618   1.370   1.722   2.022
 3573SOL    HW211619   1.339   1.879   1.988
 3574SOL     OW11620   6.331   3.542   0.097
 3574SOL    HW111621   6.300   3.467   0.155
 3574SOL    HW211622   6.371   3.614   0.155
 3575SOL     OW11623   6.149   5.884   1.983
 3575SOL    HW111624   6.090   5.872   2.063
 3575SOL    HW211625   6.094   5.910   1.904
 3576SOL     OW11626   0.737   1.711   6.435
 3576SOL    HW111627   0.769   1.680   6.346
 3576SOL    HW211628   0.733   1.811   6.436
 3577SOL     OW11629   1.711   2.766   0.174
 3577SOL    HW111630   1.741   2.861   0.176
 3577SOL    HW211631   1.789   2.707   0.154
 3578SOL     OW11632   3.674   4.957   1.055
 3578SOL    HW111633   3.654   5.054   1.072
 3578SOL    HW211634   3.652   4.935   0.960
 3579SOL     OW11635   0.446   4.283   5.114
 3579SOL    HW111636   0.466   4.369   5.161
 3579SOL    HW211637   0.531   4.235   5.094
 3580SOL     OW11638   6.823   2.096   1.960
 3580SOL    HW111639   6.808   2.075   2.057
 3580SOL    HW211640   6.921   2.106   1.943
 3581SOL     OW11641   5.915   0.633   3.514
 3581SOL    HW111642   5.889   0.561   3.578
 3581SOL    HW211643   5.963   0.705   3.563
 3582SOL     OW11644   0.157   0.779   5.801
 3582SOL    HW111645   0.130   0.866   5.760
 3582SOL    HW211646   0.180   0.793   5.897
 3583SOL     OW11647   2.251   5.198   0.679
 3583SOL    HW111648   2.319   5.129   0.704
 3583SOL    HW211649   2.268   5.229   0.585
 3584SOL     OW11650   4.968   0.206   5.685
 3584SOL    HW111651   4.922   0.239   5.604
 3584SOL    HW211652   5.066   0.198   5.667
 3585SOL     OW11653   2.829   4.752   3.883
 3585SOL    HW111654   2.780   4.685   3.939
 3585SOL    HW211655   2.834   4.839   3.931
 3586SOL     OW11656   6.718   2.054   6.021
 3586SOL    HW111657   6.815   2.058   6.048
 3586SOL    HW211658   6.709   2.087   5.927
 3587SOL     OW11659   3.921   0.185   6.136
 3587SOL    HW111660   3.956   0.191   6.230
 3587SOL    HW211661   3.996   0.161   6.075
 3588SOL     OW11662   2.369   1.274   5.406
 3588SOL    HW111663   2.376   1.328   5.322
 3588SOL    HW211664   2.448   1.213   5.413
 3589SOL     OW11665   3.112   0.488   5.301
 3589SOL    HW111666   3.046   0.414   5.294
 3589SOL    HW211667   3.202   0.450   5.324
 3590SOL     OW11668   1.915   4.912   6.711
 3590SOL    HW111669   1.864   4.987   6.668
 3590SOL    HW211670   1.979   4.873   6.646
 3591SOL     OW11671   4.821   2.203   6.093
 3591SOL    HW111672   4.781   2.184   6.003
 3591SOL    HW211673   4.872   2.289   6.089
 3592SOL     OW11674   4.751   2.839   1.703
 3592SOL    HW111675   4.833   2.808   1.751
 3592SOL    HW211676   4.690   2.884   1.768
 3593SOL     OW11677   1.530   4.894   3.066
 3593SOL    HW111678   1.539   4.823   3.136
 3593SOL    HW211679   1.479   4.858   2.988
 3594SOL     OW11680   3.173   0.923   4.143
 3594SOL    HW111681   3.214   0.961   4.226
 3594SOL    HW211682   3.109   0.989   4.103
 3595SOL     OW11683   2.666   6.266   5.282
 3595SOL    HW111684   2.699   6.357   5.260
 3595SOL    HW211685   2.645   6.216   5.197
 3596SOL     OW11686   6.865   3.035   3.308
 3596SOL    HW111687   6.958   3.052   3.277
 3596SOL    HW211688   6.864   2.953   3.366
 3597SOL     OW11689   3.866   5.995   2.943
 3597SOL    HW111690   3.811   5.918   2.911
 3597SOL    HW211691   3.831   6.080   2.904
 3598SOL     OW11692   0.963   0.192   0.124
 3598SOL    HW111693   0.944   0.144   0.210
 3598SOL    HW211694   0.967   0.126   0.049
 3599SOL     OW11695   0.176   1.987   4.106
 3599SOL    HW111696   0.135   1.918   4.166
 3599SOL    HW211697   0.156   1.964   4.011
 3600SOL     OW11698   5.935   0.770   0.893
 3600SOL    HW111699   5.911   0.822   0.811
 3600SOL    HW211700   5.985   0.688   0.867
 3601SOL     OW11701   6.440   3.776   5.279
 3601SOL    HW111702   6.450   3.860   5.333
 3601SOL    HW211703   6.481   3.700   5.328
 3602SOL     OW11704   1.803   1.855   0.291
 3602SOL    HW111705   1.795   1.817   0.199
 3602SOL    HW211706   1.752   1.941   0.297
 3603SOL     OW11707   4.206   4.908   4.841
 3603SOL    HW111708   4.237   5.003   4.853
 3603SOL    HW211709   4.285   4.847   4.836
 3604SOL     OW11710   0.620   3.302   3.188
 3604SOL    HW111711   0.532   3.257   3.205
 3604SOL    HW211712   0.674   3.301   3.271
 3605SOL     OW11713   6.143   3.177   6.637
 3605SOL    HW111714   6.235   3.216   6.633
 3605SOL    HW211715   6.094   3.212   6.717
 3606SOL     OW11716   1.025   4.461   4.955
 3606SOL    HW111717   1.096   4.419   5.011
 3606SOL    HW211718   1.032   4.561   4.960
 3607SOL     OW11719   4.685   6.934   0.138
 3607SOL    HW111720   4.613   6.994   0.103
 3607SOL    HW211721   4.658   6.898   0.227
 3608SOL     OW11722   1.241   2.546   2.624
 3608SOL    HW111723   1.234   2.476   2.553
 3608SOL    HW211724   1.335   2.580   2.628
 3609SOL     OW11725   6.550   0.016   4.689
 3609SOL    HW111726   6.609   6.963   4.675
 3609SOL    HW211727   6.581   0.090   4.629
 3610SOL     OW11728   1.347   6.066   5.035
 3610SOL    HW111729   1.311   6.130   5.102
 3610SOL    HW211730   1.425   6.109   4.988
 3611SOL     OW11731   4.024   5.250   4.989
 3611SOL    HW111732   4.056   5.342   4.968
 3611SOL    HW211733   4.058   5.223   5.079
 3612SOL     OW11734   1.878   0.058   1.455
 3612SOL    HW111735   1.804   0.117   1.424
 3612SOL    HW211736   1.846   7.026   1.529
 3613SOL     OW11737   4.981   5.721   0.110
 3613SOL    HW111738   4.931   5.795   0.156
 3613SOL    HW211739   4.983   5.738   0.012
 3614SOL     OW11740   3.453   2.893   3.156
 3614SOL    HW111741   3.376   2.912   3.216
 3614SOL    HW211742   3.421   2.845   3.074
 3615SOL     OW11743   6.832   6.551   6.362
 3615SOL    HW111744   6.766   6.570   6.435
 3615SOL    HW211745   6.830   6.625   6.295
 3616SOL     OW11746   6.761   1.152   4.462
 3616SOL    HW111747   6.684   1.215   4.459
 3616SOL    HW211748   6.799   1.150   4.555
 3617SOL     OW11749   6.668   0.572   6.969
 3617SOL    HW111750   6.706   0.664   6.979
 3617SOL    HW211751   6.569   0.576   6.966
 3618SOL     OW11752   2.568   1.230   6.102
 3618SOL    HW111753   2.619   1.313   6.127
 3618SOL    HW211754   2.546   1.179   6.186
 3619SOL     OW11755   5.796   2.454   4.264
 3619SOL    HW111756   5.798   2.554   4.264
 3619SOL    HW211757   5.707   2.423   4.229
 3620SOL     OW11758   6.167   0.903   4.026
 3620SOL    HW111759   6.136   0.841   4.099
 3620SOL    HW211760   6.110   0.891   3.945
 3621SOL     OW11761   1.932   3.886   5.958
 3621SOL    HW111762   1.875   3.938   6.021
 3621SOL    HW211763   2.015   3.855   6.006
 3622SOL     OW11764   0.847   2.568   1.268
 3622SOL    HW111765   0.826   2.472   1.283
 3622SOL    HW211766   0.881   2.608   1.354
 3623SOL     OW11767   6.920   5.317   4.311
 3623SOL    HW111768   6.908   5.410   4.346
 3623SOL    HW211769   6.833   5.282   4.278
 3624SOL     OW11770   2.657   0.432   1.674
 3624SOL    HW111771   2.694   0.355   1.623
 3624SOL    HW211772   2.572   0.463   1.632
 3625SOL     OW11773   0.018   3.028   5.006
 3625SOL    HW111774   0.104   3.012   4.958
 3625SOL    HW211775   0.005   2.956   5.075
 3626SOL     OW11776   2.598   3.843   5.319
 3626SOL    HW111777   2.545   3.906   5.262
 3626SOL    HW211778   2.536   3.779   5.364
 3627SOL     OW11779   3.087   3.945   4.133
 3627SOL    HW111780   3.093   3.846   4.119
 3627SOL    HW211781   3.033   3.964   4.215
 3628SOL     OW11782   3.472   5.241   2.620
 3628SOL    HW111783   3.383   5.275   2.589
 3628SOL    HW211784   3.470   5.227   2.719
 3629SOL     OW11785   6.173   2.562   5.177
 3629SOL    HW111786   6.102   2.633   5.180
 3629SOL    HW211787   6.145   2.489   5.115
 3630SOL     OW11788   6.397   1.960   4.081
 3630SOL    HW111789   6.298   1.946   4.078
 3630SOL    HW211790   6.421   2.017   4.160
 3631SOL     OW11791   2.356   1.277   4.436
 3631SOL    HW111792   2.398   1.238   4.354
 3631SOL    HW211793   2.428   1.308   4.498
 3632SOL     OW11794   4.361   0.474   6.668
 3632SOL    HW111795   4.401   0.507   6.582
 3632SOL    HW211796   4.357   0.550   6.734
 3633SOL     OW11797   2.116   3.206   5.991
 3633SOL    HW111798   2.088   3.272   5.922
 3633SOL    HW211799   2.146   3.121   5.947
 3634SOL     OW11800   2.028   5.920   4.891
 3634SOL    HW111801   1.977   5.836   4.910
 3634SOL    HW211802   1.967   5.986   4.848
 3635SOL     OW11803   2.644   1.420   5.422
 3635SOL    HW111804   2.618   1.405   5.517
 3635SOL    HW211805   2.693   1.507   5.414
 3636SOL     OW11806   1.057   5.707   5.941
 3636SOL    HW111807   1.092   5.665   5.858
 3636SOL    HW211808   1.057   5.640   6.016
 3637SOL     OW11809   5.782   1.480   2.084
 3637SOL    HW111810   5.793   1.505   2.180
 3637SOL    HW211811   5.849   1.410   2.060
 3638SOL     OW11812   6.983   4.791   4.269
 3638SOL    HW111813   6.962   4.877   4.317
 3638SOL    HW211814   6.997   4.718   4.336
 3639SOL     OW11815   2.166   4.973   6.794
 3639SOL    HW111816   2.080   4.927   6.818
 3639SOL    HW211817   2.151   5.071   6.786
 3640SOL     OW11818   3.564   5.657   0.916
 3640SOL    HW111819   3.654   5.663   0.961
 3640SOL    HW211820   3.548   5.741   0.864
 3641SOL     OW11821   2.386   0.888   5.046
 3641SOL    HW111822   2.369   0.957   4.975
 3641SOL    HW211823   2.424   0.806   5.004
 3642SOL     OW11824   5.570   6.971   3.960
 3642SOL    HW111825   5.597   6.877   3.981
 3642SOL    HW211826   5.631   0.007   4.007
 3643SOL     OW11827   2.712   4.855   4.921
 3643SOL    HW111828   2.759   4.768   4.933
 3643SOL    HW211829   2.628   4.855   4.976
 3644SOL     OW11830   6.954   1.125   0.748
 3644SOL    HW111831   7.018   1.141   0.823
 3644SOL    HW211832   6.987   1.048   0.693
 3645SOL     OW11833   3.387   0.700   3.367
 3645SOL    HW111834   3.332   0.783   3.371
 3645SOL    HW211835   3.351   0.639   3.297
 3646SOL     OW11836   6.870   4.866   5.318
 3646SOL    HW111837   6.802   4.928   5.355
 3646SOL    HW211838   6.826   4.781   5.288
 3647SOL     OW11839   2.512   3.027   1.001
 3647SOL    HW111840   2.526   3.117   0.959
 3647SOL    HW211841   2.431   2.984   0.959
 3648SOL     OW11842   3.034   6.661   2.440
 3648SOL    HW111843   2.973   6.624   2.371
 3648SOL    HW211844   3.026   6.761   2.441
 3649SOL     OW11845   3.221   3.504   1.320
 3649SOL    HW111846   3.252   3.595   1.291
 3649SOL    HW211847   3.166   3.513   1.403
 3650SOL     OW11848   0.512   6.807   1.436
 3650SOL    HW111849   0.480   6.892   1.395
 3650SOL    HW211850   0.610   6.814   1.455
 3651SOL     OW11851   1.994   5.752   2.655
 3651SOL    HW111852   2.091   5.745   2.677
 3651SOL    HW211853   1.947   5.804   2.726
 3652SOL     OW11854   4.867   5.379   3.199
 3652SOL    HW111855   4.901   5.406   3.289
 3652SOL    HW211856   4.774   5.414   3.187
 3653SOL     OW11857   7.012   2.450   3.381
 3653SOL    HW111858   6.981   2.380   3.317
 3653SOL    HW211859   6.991   2.421   3.475
 3654SOL     OW11860   1.493   6.755   1.571
 3654SOL    HW111861   1.509   6.750   1.473
 3654SOL    HW211862   1.417   6.696   1.596
 3655SOL     OW11863   1.621   0.392   4.397
 3655SOL    HW111864   1.564   0.313   4.373
 3655SOL    HW211865   1.604   0.418   4.492
 3656SOL     OW11866   2.017   2.714   1.881
 3656SOL    HW111867   2.019   2.814   1.879
 3656SOL    HW211868   2.014   2.680   1.787
 3657SOL     OW11869   3.796   5.959   1.481
 3657SOL    HW111870   3.882   5.917   1.451
 3657SOL    HW211871   3.729   5.887   1.500
 3658SOL     OW11872   1.824   5.991   6.050
 3658SOL    HW111873   1.819   5.947   6.140
 3658SOL    HW211874   1.753   5.954   5.991
 3659SOL     OW11875   2.487   4.337   0.196
 3659SOL    HW111876   2.566   4.394   0.219
 3659SOL    HW211877   2.516   4.242   0.187
 3660SOL     OW11878   4.841   5.542   1.616
 3660SOL    HW111879   4.853   5.443   1.603
 3660SOL    HW211880   4.745   5.566   1.602
 3661SOL     OW11881   4.262   0.830   0.334
 3661SOL    HW111882   4.186   0.880   0.292
 3661SOL    HW211883   4.231   0.738   0.358
 3662SOL     OW11884   3.375   0.275   5.157
 3662SOL    HW111885   3.452   0.297   5.217
 3662SOL    HW211886   3.338   0.185   5.182
 3663SOL     OW11887   1.175   2.651   6.933
 3663SOL    HW111888   1.148   2.571   6.985
 3663SOL    HW211889   1.142   2.643   6.839
 3664SOL     OW11890   5.104   0.908   0.850
 3664SOL    HW111891   5.171   0.970   0.811
 3664SOL    HW211892   5.083   0.936   0.944
 3665SOL     OW11893   1.008   7.000   5.465
 3665SOL    HW111894   0.938   7.024   5.532
 3665SOL    HW211895   1.017   0.046   5.398
 3666SOL     OW11896   1.400   4.656   4.109
 3666SOL    HW111897   1.318   4.603   4.090
 3666SOL    HW211898   1.478   4.617   4.059
 3667SOL     OW11899   6.479   1.032   6.122
 3667SOL    HW111900   6.442   1.106   6.177
 3667SOL    HW211901   6.501   1.065   6.031
 3668SOL     OW11902   1.098   5.905   2.300
 3668SOL    HW111903   1.159   5.970   2.255
 3668SOL    HW211904   1.080   5.828   2.239
 3669SOL     OW11905   6.650   2.797   3.328
 3669SOL    HW111906   6.719   2.731   3.297
 3669SOL    HW211907   6.583   2.812   3.255
 3670SOL     OW11908   1.935   6.041   5.781
 3670SOL    HW111909   1.895   6.021   5.870
 3670SOL    HW211910   1.896   5.979   5.712
 3671SOL     OW11911   1.030   0.325   2.833
 3671SOL    HW111912   1.098   0.263   2.793
 3671SOL    HW211913   1.073   0.412   2.857
 3672SOL     OW11914   6.828   0.456   0.610
 3672SOL    HW111915   6.890   0.440   0.534
 3672SOL    HW211916   6.858   0.536   0.662
 3673SOL     OW11917   5.157   0.377   6.647
 3673SOL    HW111918   5.219   0.300   6.662
 3673SOL    HW211919   5.067   0.356   6.685
 3674SOL     OW11920   1.213   6.244   0.785
 3674SOL    HW111921   1.223   6.178   0.860
 3674SOL    HW211922   1.151   6.318   0.814
 3675SOL     OW11923   1.756   2.456   5.213
 3675SOL    HW111924   1.730   2.381   5.274
 3675SOL    HW211925   1.856   2.464   5.212
 3676SOL     OW11926   2.808   5.926   3.632
 3676SOL    HW111927   2.803   5.925   3.532
 3676SOL    HW211928   2.780   5.837   3.668
 3677SOL     OW11929   6.397   6.823   4.343
 3677SOL    HW111930   6.425   6.727   4.338
 3677SOL    HW211931   6.323   6.832   4.409
 3678SOL     OW11932   1.083   1.689   3.400
 3678SOL    HW111933   1.027   1.626   3.346
 3678SOL    HW211934   1.176   1.691   3.364
 3679SOL     OW11935   0.529   0.946   2.145
 3679SOL    HW111936   0.622   0.957   2.181
 3679SOL    HW211937   0.477   0.886   2.206
 3680SOL     OW11938   6.830   3.081   4.113
 3680SOL    HW111939   6.749   3.049   4.064
 3680SOL    HW211940   6.913   3.052   4.065
 3681SOL     OW11941   6.999   6.440   5.743
 3681SOL    HW111942   0.038   6.501   5.786
 3681SOL    HW211943   6.913   6.489   5.728
 3682SOL     OW11944   6.625   2.029   6.390
 3682SOL    HW111945   6.529   2.034   6.360
 3682SOL    HW211946   6.667   1.946   6.353
 3683SOL     OW11947   5.696   6.780   4.422
 3683SOL    HW111948   5.716   6.813   4.514
 3683SOL    HW211949   5.746   6.695   4.405
 3684SOL     OW11950   1.342   3.526   1.176
 3684SOL    HW111951   1.335   3.599   1.107
 3684SOL    HW211952   1.319   3.438   1.133
 3685SOL     OW11953   6.447   6.512   6.289
 3685SOL    HW111954   6.474   6.443   6.357
 3685SOL    HW211955   6.348   6.519   6.287
 3686SOL     OW11956   5.848   4.693   1.619
 3686SOL    HW111957   5.925   4.630   1.609
 3686SOL    HW211958   5.867   4.777   1.566
 3687SOL     OW11959   3.648   0.693   0.301
 3687SOL    HW111960   3.572   0.754   0.276
 3687SOL    HW211961   3.627   0.646   0.386
 3688SOL     OW11962   1.305   3.286   0.094
 3688SOL    HW111963   1.327   3.216   0.162
 3688SOL    HW211964   1.247   3.356   0.135
 3689SOL     OW11965   1.956   0.575   3.743
 3689SOL    HW111966   1.922   0.481   3.741
 3689SOL    HW211967   1.935   0.615   3.832
 3690SOL     OW11968   6.073   0.128   5.452
 3690SOL    HW111969   6.111   0.100   5.541
 3690SOL    HW211970   5.995   0.189   5.467
 3691SOL     OW11971   3.120   2.906   6.867
 3691SOL    HW111972   3.208   2.952   6.856
 3691SOL    HW211973   3.130   2.809   6.848
 3692SOL     OW11974   1.779   0.014   5.581
 3692SOL    HW111975   1.686   0.020   5.619
 3692SOL    HW211976   1.776   6.998   5.491
 3693SOL     OW11977   3.083   2.194   3.266
 3693SOL    HW111978   3.128   2.189   3.355
 3693SOL    HW211979   2.988   2.164   3.275
 3694SOL     OW11980   1.884   6.061   3.216
 3694SOL    HW111981   1.935   6.066   3.130
 3694SOL    HW211982   1.795   6.106   3.205
 3695SOL     OW11983   1.977   1.925   1.947
 3695SOL    HW111984   1.888   1.960   1.920
 3695SOL    HW211985   2.028   1.995   1.997
 3696SOL     OW11986   3.988   6.902   6.199
 3696SOL    HW111987   3.958   6.985   6.247
 3696SOL    HW211988   3.909   6.850   6.168
 3697SOL     OW11989   6.343   0.558   4.081
 3697SOL    HW111990   6.347   0.594   4.174
 3697SOL    HW211991   6.394   0.618   4.019
 3698SOL     OW11992   2.946   0.799   5.919
 3698SOL    HW111993   2.937   0.766   6.013
 3698SOL    HW211994   2.960   0.898   5.919
 3699SOL     OW11995   0.656   3.978   2.779
 3699SOL    HW111996   0.727   4.024   2.727
 3699SOL    HW211997   0.592   3.934   2.716
 3700SOL     OW11998   0.176   0.149   3.951
 3700SOL    HW111999   0.236   0.224   3.926
 3700SOL    HW212000   0.163   0.088   3.873
 3701SOL     OW12001   6.369   1.189   4.477
 3701SOL    HW112002   6.272   1.173   4.459
 3701SOL    HW212003   6.415   1.102   4.494
 3702SOL     OW12004   3.311   1.213   0.248
 3702SOL    HW112005   3.291   1.142   0.180
 3702SOL    HW212006   3.354   1.291   0.204
 3703SOL     OW12007   4.396   4.627   6.528
 3703SOL    HW112008   4.402   4.607   6.626
 3703SOL    HW212009   4.450   4.708   6.508
 3704SOL     OW12010   2.519   0.188   2.782
 3704SOL    HW112011   2.499   0.256   2.853
 3704SOL    HW212012   2.603   0.215   2.734
 3705SOL     OW12013   5.322   0.870   3.816
 3705SOL    HW112014   5.394   0.813   3.777
 3705SOL    HW212015   5.336   0.965   3.787
 3706SOL     OW12016   2.048   2.583   3.788
 3706SOL    HW112017   2.107   2.522   3.734
 3706SOL    HW212018   1.953   2.558   3.773
 3707SOL     OW12019   4.201   2.802   5.384
 3707SOL    HW112020   4.166   2.728   5.327
 3707SOL    HW212021   4.126   2.842   5.437
 3708SOL     OW12022   5.452   0.316   6.420
 3708SOL    HW112023   5.367   0.264   6.420
 3708SOL    HW212024   5.504   0.294   6.502
 3709SOL     OW12025   3.431   0.790   6.369
 3709SOL    HW112026   3.412   0.888   6.374
 3709SOL    HW212027   3.485   0.771   6.287
 3710SOL     OW12028   0.044   4.646   0.412
 3710SOL    HW112029   0.038   4.672   0.508
 3710SOL    HW212030   0.105   4.568   0.402
 3711SOL     OW12031   6.566   5.116   2.544
 3711SOL    HW112032   6.537   5.052   2.616
 3711SOL    HW212033   6.493   5.182   2.527
 3712SOL     OW12034   1.519   0.126   0.356
 3712SOL    HW112035   1.452   0.200   0.364
 3712SOL    HW212036   1.594   0.143   0.419
 3713SOL     OW12037   3.338   6.029   5.766
 3713SOL    HW112038   3.433   6.024   5.733
 3713SOL    HW212039   3.336   6.007   5.864
 3714SOL     OW12040   3.762   0.686   4.872
 3714SOL    HW112041   3.800   0.775   4.899
 3714SOL    HW212042   3.727   0.639   4.953
 3715SOL     OW12043   5.298   4.318   4.764
 3715SOL    HW112044   5.292   4.253   4.688
 3715SOL    HW212045   5.327   4.271   4.847
 3716SOL     OW12046   0.028   0.758   4.314
 3716SOL    HW112047   0.106   0.775   4.254
 3716SOL    HW212048   0.042   0.805   4.401
 3717SOL     OW12049   6.302   6.531   1.003
 3717SOL    HW112050   6.383   6.562   0.952
 3717SOL    HW212051   6.332   6.480   1.084
 3718SOL     OW12052   1.432   5.465   0.350
 3718SOL    HW112053   1.497   5.397   0.383
 3718SOL    HW212054   1.481   5.543   0.311
 3719SOL     OW12055   3.686   4.768   5.388
 3719SOL    HW112056   3.697   4.865   5.406
 3719SOL    HW212057   3.699   4.716   5.473
 3720SOL     OW12058   5.864   1.540   6.175
 3720SOL    HW112059   5.831   1.605   6.107
 3720SOL    HW212060   5.785   1.496   6.220
 3721SOL     OW12061   4.918   4.335   0.412
 3721SOL    HW112062   5.002   4.386   0.395
 3721SOL    HW212063   4.888   4.290   0.328
 3722SOL     OW12064   6.596   5.893   2.539
 3722SOL    HW112065   6.513   5.949   2.534
 3722SOL    HW212066   6.676   5.953   2.550
 3723SOL     OW12067   4.726   0.554   0.980
 3723SOL    HW112068   4.699   0.604   0.898
 3723SOL    HW212069   4.775   0.470   0.954
 3724SOL     OW12070   1.361   5.886   6.240
 3724SOL    HW112071   1.444   5.942   6.237
 3724SOL    HW212072   1.385   5.795   6.276
 3725SOL     OW12073   0.206   6.027   6.724
 3725SOL    HW112074   0.177   5.952   6.664
 3725SOL    HW212075   0.131   6.092   6.734
 3726SOL     OW12076   5.336   4.117   1.649
 3726SOL    HW112077   5.255   4.071   1.685
 3726SOL    HW212078   5.312   4.209   1.618
 3727SOL     OW12079   2.115   3.566   5.292
 3727SOL    HW112080   2.177   3.643   5.272
 3727SOL    HW212081   2.049   3.594   5.362
 3728SOL     OW12082   1.578   3.282   6.446
 3728SOL    HW112083   1.625   3.194   6.461
 3728SOL    HW212084   1.617   3.351   6.507
 3729SOL     OW12085   0.674   2.008   3.432
 3729SOL    HW112086   0.590   2.034   3.479
 3729SOL    HW212087   0.672   2.043   3.338
 3730SOL     OW12088   3.447   0.915   0.345
 3730SOL    HW112089   3.436   0.975   0.266
 3730SOL    HW212090   3.489   0.966   0.420
 3731SOL     OW12091   4.233   6.819   0.064
 3731SOL    HW112092   4.327   6.787   0.078
 3731SOL    HW212093   4.233   6.895   7.025
 3732SOL     OW12094   2.310   3.771   5.320
 3732SOL    HW112095   2.294   3.783   5.418
 3732SOL    HW212096   2.359   3.849   5.284
 3733SOL     OW12097   2.780   3.755   1.379
 3733SOL    HW112098   2.735   3.735   1.466
 3733SOL    HW212099   2.715   3.798   1.317
 3734SOL     OW12100   5.326   0.974   2.485
 3734SOL    HW112101   5.305   0.904   2.553
 3734SOL    HW212102   5.293   0.944   2.396
 3735SOL     OW12103   3.345   1.982   2.190
 3735SOL    HW112104   3.299   2.043   2.255
 3735SOL    HW212105   3.283   1.959   2.115
 3736SOL     OW12106   6.047   2.253   0.815
 3736SOL    HW112107   6.087   2.165   0.840
 3736SOL    HW212108   6.088   2.284   0.729
 3737SOL     OW12109   4.869   6.530   3.471
 3737SOL    HW112110   4.827   6.579   3.395
 3737SOL    HW212111   4.938   6.467   3.435
 3738SOL     OW12112   6.995   6.967   3.589
 3738SOL    HW112113   6.946   0.026   3.596
 3738SOL    HW212114   6.936   6.892   3.618
 3739SOL     OW12115   0.586   4.448   2.168
 3739SOL    HW112116   0.515   4.402   2.221
 3739SOL    HW212117   0.675   4.407   2.189
 3740SOL     OW12118   5.783   1.171   0.245
 3740SOL    HW112119   5.857   1.109   0.271
 3740SOL    HW212120   5.723   1.187   0.324
 3741SOL     OW12121   4.132   2.534   0.008
 3741SOL    HW112122   4.100   2.629   0.006
 3741SOL    HW212123   4.183   2.517   0.092
 3742SOL     OW12124   3.227   2.956   5.608
 3742SOL    HW112125   3.204   2.930   5.514
 3742SOL    HW212126   3.250   2.874   5.660
 3743SOL     OW12127   0.130   5.126   6.837
 3743SOL    HW112128   0.208   5.133   6.775
 3743SOL    HW212129   0.045   5.142   6.787
 3744SOL     OW12130   0.579   5.687   3.837
 3744SOL    HW112131   0.663   5.638   3.817
 3744SOL    HW212132   0.505   5.654   3.778
 3745SOL     OW12133   4.685   5.618   2.643
 3745SOL    HW112134   4.731   5.706   2.660
 3745SOL    HW212135   4.742   5.563   2.581
 3746SOL     OW12136   4.366   1.352   2.056
 3746SOL    HW112137   4.330   1.296   2.131
 3746SOL    HW212138   4.291   1.375   1.993
 3747SOL     OW12139   3.358   0.508   0.117
 3747SOL    HW112140   3.342   0.606   0.130
 3747SOL    HW212141   3.279   0.457   0.153
 3748SOL     OW12142   5.825   1.046   2.404
 3748SOL    HW112143   5.884   1.019   2.329
 3748SOL    HW212144   5.869   1.119   2.457
 3749SOL     OW12145   1.394   0.219   5.292
 3749SOL    HW112146   1.315   0.216   5.232
 3749SOL    HW212147   1.364   0.218   5.387
 3750SOL     OW12148   0.001   4.028   0.485
 3750SOL    HW112149   0.030   3.977   0.404
 3750SOL    HW212150   0.070   4.097   0.508
 3751SOL     OW12151   0.918   4.072   2.729
 3751SOL    HW112152   0.935   4.153   2.785
 3751SOL    HW212153   0.996   4.058   2.668
 3752SOL     OW12154   5.633   0.295   6.065
 3752SOL    HW112155   5.603   0.283   5.971
 3752SOL    HW212156   5.627   0.207   6.113
 3753SOL     OW12157   6.618   6.978   4.337
 3753SOL    HW112158   6.660   6.935   4.257
 3753SOL    HW212159   6.534   6.930   4.360
 3754SOL     OW12160   2.097   1.547   0.743
 3754SOL    HW112161   2.113   1.498   0.828
 3754SOL    HW212162   2.014   1.602   0.751
 3755SOL     OW12163   3.184   5.090   3.559
 3755SOL    HW112164   3.100   5.131   3.524
 3755SOL    HW212165   3.217   5.021   3.494
 3756SOL     OW12166   2.333   6.244   7.007
 3756SOL    HW112167   2.321   6.153   0.019
 3756SOL    HW212168   2.391   6.299   0.040
 3757SOL     OW12169   7.022   4.612   1.109
 3757SOL    HW112170   0.031   4.527   1.146
 3757SOL    HW212171   0.038   4.689   1.156
 3758SOL     OW12172   1.898   6.677   3.712
 3758SOL    HW112173   1.893   6.744   3.786
 3758SOL    HW212174   1.990   6.679   3.671
 3759SOL     OW12175   4.964   0.353   4.387
 3759SOL    HW112176   4.876   0.324   4.426
 3759SOL    HW212177   5.002   0.427   4.443
 3760SOL     OW12178   0.314   1.253   3.062
 3760SOL    HW112179   0.411   1.229   3.068
 3760SOL    HW212180   0.303   1.352   3.070
 3761SOL     OW12181   5.616   0.942   4.008
 3761SOL    HW112182   5.539   0.993   4.047
 3761SOL    HW212183   5.649   0.989   3.926
 3762SOL     OW12184   0.125   2.641   2.681
 3762SOL    HW112185   0.207   2.698   2.687
 3762SOL    HW212186   0.091   2.622   2.773
 3763SOL     OW12187   0.630   4.536   0.927
 3763SOL    HW112188   0.538   4.500   0.942
 3763SOL    HW212189   0.670   4.493   0.845
 3764SOL     OW12190   2.335   0.773   3.001
 3764SOL    HW112191   2.422   0.735   2.970
 3764SOL    HW212192   2.347   0.870   3.024
 3765SOL     OW12193   5.750   2.763   2.092
 3765SOL    HW112194   5.674   2.775   2.155
 3765SOL    HW212195   5.737   2.821   2.011
 3766SOL     OW12196   1.088   3.677   3.517
 3766SOL    HW112197   1.147   3.740   3.467
 3766SOL    HW212198   1.140   3.630   3.588
 3767SOL     OW12199   1.038   4.864   6.352
 3767SOL    HW112200   0.985   4.780   6.359
 3767SOL    HW212201   0.977   4.943   6.366
 3768SOL     OW12202   0.896   0.048   3.595
 3768SOL    HW112203   0.868   6.996   3.649
 3768SOL    HW212204   0.908   0.127   3.656
 3769SOL     OW12205   5.806   4.979   5.315
 3769SOL    HW112206   5.769   4.889   5.335
 3769SOL    HW212207   5.770   5.045   5.380
 3770SOL     OW12208   1.784   1.064   1.308
 3770SOL    HW112209   1.846   1.046   1.385
 3770SOL    HW212210   1.756   1.160   1.310
 3771SOL     OW12211   6.469   5.291   6.884
 3771SOL    HW112212   6.435   5.370   6.936
 3771SOL    HW212213   6.541   5.320   6.822
 3772SOL     OW12214   1.408   5.978   0.570
 3772SOL    HW112215   1.505   5.982   0.593
 3772SOL    HW212216   1.393   5.909   0.500
 3773SOL     OW12217   5.201   4.473   6.440
 3773SOL    HW112218   5.176   4.392   6.387
 3773SOL    HW212219   5.295   4.464   6.473
 3774SOL     OW12220   6.676   5.004   1.617
 3774SOL    HW112221   6.757   5.050   1.581
 3774SOL    HW212222   6.600   5.016   1.552
 3775SOL     OW12223   4.589   5.270   4.403
 3775SOL    HW112224   4.578   5.188   4.460
 3775SOL    HW212225   4.550   5.349   4.451
 3776SOL     OW12226   3.220   2.677   5.759
 3776SOL    HW112227   3.148   2.645   5.697
 3776SOL    HW212228   3.310   2.650   5.722
 3777SOL     OW12229   2.757   5.965   4.210
 3777SOL    HW112230   2.824   5.891   4.211
 3777SOL    HW212231   2.748   6.003   4.302
 3778SOL     OW12232   3.289   5.547   5.977
 3778SOL    HW112233   3.294   5.634   6.026
 3778SOL    HW212234   3.201   5.541   5.929
 3779SOL     OW12235   6.838   4.915   0.066
 3779SOL    HW112236   6.920   4.914   0.124
 3779SOL    HW212237   6.833   5.001   0.016
 3780SOL     OW12238   5.605   4.101   1.749
 3780SOL    HW112239   5.631   4.017   1.702
 3780SOL    HW212240   5.510   4.124   1.726
 3781SOL     OW12241   2.849   6.505   4.728
 3781SOL    HW112242   2.918   6.528   4.659
 3781SOL    HW212243   2.866   6.412   4.762
 3782SOL     OW12244   5.295   6.109   1.699
 3782SOL    HW112245   5.359   6.159   1.757
 3782SOL    HW212246   5.269   6.166   1.621
 3783SOL     OW12247   5.046   5.591   4.597
 3783SOL    HW112248   5.093   5.640   4.523
 3783SOL    HW212249   5.063   5.637   4.684
 3784SOL     OW12250   6.475   2.251   3.926
 3784SOL    HW112251   6.440   2.315   3.994
 3784SOL    HW212252   6.557   2.205   3.961
 3785SOL     OW12253   2.010   3.256   4.178
 3785SOL    HW112254   1.939   3.295   4.237
 3785SOL    HW212255   2.080   3.325   4.159
 3786SOL     OW12256   2.398   2.528   4.836
 3786SOL    HW112257   2.368   2.590   4.908
 3786SOL    HW212258   2.480   2.479   4.866
 3787SOL     OW12259   4.403   6.640   3.252
 3787SOL    HW112260   4.477   6.635   3.319
 3787SOL    HW212261   4.320   6.674   3.296
 3788SOL     OW12262   6.426   3.377   5.211
 3788SOL    HW112263   6.341   3.400   5.258
 3788SOL    HW212264   6.406   3.347   5.117
 3789SOL     OW12265   1.681   2.708   2.415
 3789SOL    HW112266   1.646   2.770   2.345
 3789SOL    HW212267   1.755   2.652   2.377
 3790SOL     OW12268   0.653   6.602   1.685
 3790SOL    HW112269   0.579   6.604   1.753
 3790SOL    HW212270   0.678   6.695   1.661
 3791SOL     OW12271   4.861   1.262   5.415
 3791SOL    HW112272   4.951   1.299   5.436
 3791SOL    HW212273   4.814   1.323   5.351
 3792SOL     OW12274   6.857   0.906   4.201
 3792SOL    HW112275   6.921   0.837   4.236
 3792SOL    HW212276   6.829   0.966   4.276
 3793SOL     OW12277   4.948   5.158   0.651
 3793SOL    HW112278   5.037   5.139   0.611
 3793SOL    HW212279   4.876   5.117   0.595
 3794SOL     OW12280   0.827   3.881   6.634
 3794SOL    HW112281   0.748   3.909   6.689
 3794SOL    HW212282   0.800   3.874   6.538
 3795SOL     OW12283   1.693   6.516   1.526
 3795SOL    HW112284   1.725   6.532   1.620
 3795SOL    HW212285   1.648   6.598   1.491
 3796SOL     OW12286   4.988   1.311   6.660
 3796SOL    HW112287   4.904   1.365   6.674
 3796SOL    HW212288   5.017   1.318   6.565
 3797SOL     OW12289   1.301   4.580   2.264
 3797SOL    HW112290   1.277   4.649   2.332
 3797SOL    HW212291   1.225   4.569   2.200
 3798SOL     OW12292   1.613   6.124   3.262
 3798SOL    HW112293   1.607   6.125   3.362
 3798SOL    HW212294   1.591   6.032   3.228
 3799SOL     OW12295   6.927   1.302   3.210
 3799SOL    HW112296   6.940   1.271   3.115
 3799SOL    HW212297   6.979   1.243   3.272
 3800SOL     OW12298   5.252   2.682   2.944
 3800SOL    HW112299   5.251   2.582   2.943
 3800SOL    HW212300   5.281   2.713   3.034
 3801SOL     OW12301   5.961   1.265   2.089
 3801SOL    HW112302   5.978   1.327   2.165
 3801SOL    HW212303   5.980   1.171   2.118
 3802SOL     OW12304   6.378   2.744   2.156
 3802SOL    HW112305   6.316   2.804   2.208
 3802SOL    HW212306   6.348   2.740   2.061
 3803SOL     OW12307   3.193   3.325   4.222
 3803SOL    HW112308   3.178   3.248   4.284
 3803SOL    HW212309   3.163   3.300   4.130
 3804SOL     OW12310   4.330   5.878   3.036
 3804SOL    HW112311   4.294   5.948   2.975
 3804SOL    HW212312   4.405   5.829   2.992
 3805SOL     OW12313   2.836   2.561   6.957
 3805SOL    HW112314   2.845   2.610   0.016
 3805SOL    HW212315   2.887   2.609   6.885
 3806SOL     OW12316   3.385   4.563   1.414
 3806SOL    HW112317   3.483   4.542   1.406
 3806SOL    HW212318   3.363   4.580   1.510
 3807SOL     OW12319   1.923   4.416   4.581
 3807SOL    HW112320   1.834   4.403   4.625
 3807SOL    HW212321   1.924   4.368   4.493
 3808SOL     OW12322   3.475   6.913   6.481
 3808SOL    HW112323   3.552   6.848   6.480
 3808SOL    HW212324   3.509   7.005   6.466
 3809SOL     OW12325   5.079   2.251   1.393
 3809SOL    HW112326   5.157   2.298   1.351
 3809SOL    HW212327   5.016   2.220   1.321
 3810SOL     OW12328   5.754   2.290   2.072
 3810SOL    HW112329   5.815   2.327   2.143
 3810SOL    HW212330   5.793   2.204   2.037
 3811SOL     OW12331   0.268   5.439   5.578
 3811SOL    HW112332   0.305   5.403   5.492
 3811SOL    HW212333   0.289   5.375   5.652
 3812SOL     OW12334   5.068   6.150   1.411
 3812SOL    HW112335   4.997   6.175   1.346
 3812SOL    HW212336   5.128   6.229   1.427
 3813SOL     OW12337   5.920   4.203   0.086
 3813SOL    HW112338   5.995   4.189   0.022
 3813SOL    HW212339   5.890   4.114   0.122
 3814SOL     OW12340   6.756   0.396   5.007
 3814SOL    HW112341   6.810   0.429   5.084
 3814SOL    HW212342   6.802   0.316   4.967
 3815SOL     OW12343   6.554   3.562   5.956
 3815SOL    HW112344   6.609   3.514   6.023
 3815SOL    HW212345   6.507   3.496   5.898
 3816SOL     OW12346   0.488   5.794   0.120
 3816SOL    HW112347   0.437   5.825   0.039
 3816SOL    HW212348   0.516   5.873   0.174
 3817SOL     OW12349   5.060   4.028   1.935
 3817SOL    HW112350   5.121   4.041   1.857
 3817SOL    HW212351   5.113   4.000   2.015
 3818SOL     OW12352   6.018   6.958   3.182
 3818SOL    HW112353   5.992   0.027   3.175
 3818SOL    HW212354   6.031   6.920   3.090
 3819SOL     OW12355   6.938   4.469   3.968
 3819SOL    HW112356   6.954   4.372   3.947
 3819SOL    HW212357   6.933   4.521   3.883
 3820SOL     OW12358   4.439   0.090   4.738
 3820SOL    HW112359   4.485   0.139   4.664
 3820SOL    HW212360   4.359   0.142   4.768
 3821SOL     OW12361   1.647   0.453   0.292
 3821SOL    HW112362   1.553   0.457   0.324
 3821SOL    HW212363   1.657   0.506   0.208
 3822SOL     OW12364   4.515   0.860   1.769
 3822SOL    HW112365   4.546   0.826   1.680
 3822SOL    HW212366   4.466   0.947   1.756
 3823SOL     OW12367   4.562   5.948   6.905
 3823SOL    HW112368   4.525   5.916   6.817
 3823SOL    HW212369   4.501   5.919   6.979
 3824SOL     OW12370   2.309   3.175   0.005
 3824SOL    HW112371   2.216   3.195   7.003
 3824SOL    HW212372   2.329   3.224   0.090
 3825SOL     OW12373   1.245   3.847   5.569
 3825SOL    HW112374   1.208   3.819   5.658
 3825SOL    HW212375   1.249   3.947   5.565
 3826SOL     OW12376   5.770   4.064   3.475
 3826SOL    HW112377   5.684   4.078   3.425
 3826SOL    HW212378   5.838   4.023   3.414
 3827SOL     OW12379   0.823   1.412   1.445
 3827SOL    HW112380   0.742   1.442   1.393
 3827SOL    HW212381   0.901   1.404   1.383
 3828SOL     OW12382   3.919   3.920   4.118
 3828SOL    HW112383   3.896   3.903   4.022
 3828SOL    HW212384   3.871   4.001   4.150
 3829SOL     OW12385   0.958   3.739   2.650
 3829SOL    HW112386   0.945   3.744   2.749
 3829SOL    HW212387   1.023   3.809   2.621
 3830SOL     OW12388   6.510   1.596   4.289
 3830SOL    HW112389   6.565   1.644   4.220
 3830SOL    HW212390   6.456   1.524   4.244
 3831SOL     OW12391   4.395   1.938   3.327
 3831SOL    HW112392   4.412   2.022   3.276
 3831SOL    HW212393   4.298   1.913   3.321
 3832SOL     OW12394   6.606   0.857   3.665
 3832SOL    HW112395   6.650   0.799   3.597
 3832SOL    HW212396   6.675   0.911   3.713
 3833SOL     OW12397   0.559   1.881   5.754
 3833SOL    HW112398   0.573   1.786   5.783
 3833SOL    HW212399   0.578   1.942   5.830
 3834SOL     OW12400   4.502   4.150   0.174
 3834SOL    HW112401   4.449   4.166   0.257
 3834SOL    HW212402   4.467   4.070   0.126
 3835SOL     OW12403   4.294   5.509   4.689
 3835SOL    HW112404   4.257   5.599   4.711
 3835SOL    HW212405   4.229   5.438   4.716
 3836SOL     OW12406   0.329   6.118   5.666
 3836SOL    HW112407   0.250   6.069   5.701
 3836SOL    HW212408   0.300   6.189   5.602
 3837SOL     OW12409   4.355   4.813   5.215
 3837SOL    HW112410   4.399   4.893   5.257
 3837SOL    HW212411   4.270   4.841   5.171
 3838SOL     OW12412   0.940   1.467   3.862
 3838SOL    HW112413   0.920   1.559   3.828
 3838SOL    HW212414   1.027   1.435   3.823
 3839SOL     OW12415   3.929   0.652   3.477
 3839SOL    HW112416   3.843   0.614   3.513
 3839SOL    HW212417   3.996   0.658   3.550
 3840SOL     OW12418   2.401   1.187   6.702
 3840SOL    HW112419   2.392   1.179   6.603
 3840SOL    HW212420   2.320   1.150   6.746
 3841SOL     OW12421   5.998   4.284   4.239
 3841SOL    HW112422   5.932   4.211   4.223
 3841SOL    HW212423   6.011   4.337   4.155
 3842SOL     OW12424   2.177   2.801   5.113
 3842SOL    HW112425   2.093   2.799   5.058
 3842SOL    HW212426   2.243   2.864   5.071
 3843SOL     OW12427   5.369   2.515   7.014
 3843SOL    HW112428   5.432   2.504   6.936
 3843SOL    HW212429   5.420   2.503   0.072
 3844SOL     OW12430   1.010   6.007   0.005
 3844SOL    HW112431   1.038   5.926   6.981
 3844SOL    HW212432   0.911   6.004   0.019
 3845SOL     OW12433   1.727   5.876   0.930
 3845SOL    HW112434   1.672   5.824   0.865
 3845SOL    HW212435   1.819   5.838   0.933
 3846SOL     OW12436   1.079   2.762   3.598
 3846SOL    HW112437   1.093   2.833   3.530
 3846SOL    HW212438   1.103   2.798   3.689
 3847SOL     OW12439   6.904   1.291   6.445
 3847SOL    HW112440   6.989   1.253   6.409
 3847SOL    HW212441   6.894   1.266   6.541
 3848SOL     OW12442   5.442   3.661   2.338
 3848SOL    HW112443   5.385   3.703   2.409
 3848SOL    HW212444   5.384   3.610   2.274
 3849SOL     OW12445   6.841   5.619   0.027
 3849SOL    HW112446   6.790   5.674   0.093
 3849SOL    HW212447   6.871   5.678   6.979
 3850SOL     OW12448   2.801   2.379   1.449
 3850SOL    HW112449   2.810   2.286   1.413
 3850SOL    HW212450   2.773   2.374   1.545
 3851SOL     OW12451   0.503   5.912   2.791
 3851SOL    HW112452   0.473   5.853   2.866
 3851SOL    HW212453   0.503   6.007   2.821
 3852SOL     OW12454   3.256   6.191   5.565
 3852SOL    HW112455   3.177   6.145   5.525
 3852SOL    HW212456   3.280   6.145   5.651
 3853SOL     OW12457   2.581   0.682   3.720
 3853SOL    HW112458   2.617   0.763   3.674
 3853SOL    HW212459   2.549   0.708   3.811
 3854SOL     OW12460   1.980   2.695   2.909
 3854SOL    HW112461   1.999   2.763   2.838
 3854SOL    HW212462   1.883   2.670   2.906
 3855SOL     OW12463   3.946   0.036   0.489
 3855SOL    HW112464   3.849   0.059   0.500
 3855SOL    HW212465   3.999   0.120   0.478
 3856SOL     OW12466   0.748   1.503   6.602
 3856SOL    HW112467   0.675   1.436   6.591
 3856SOL    HW212468   0.722   1.589   6.558
 3857SOL     OW12469   2.146   1.120   5.413
 3857SOL    HW112470   2.090   1.181   5.356
 3857SOL    HW212471   2.239   1.156   5.419
 3858SOL     OW12472   4.189   1.029   4.789
 3858SOL    HW112473   4.118   0.965   4.758
 3858SOL    HW212474   4.243   1.058   4.711
 3859SOL     OW12475   5.590   0.532   1.470
 3859SOL    HW112476   5.650   0.528   1.390
 3859SOL    HW212477   5.495   0.542   1.440
 3860SOL     OW12478   1.313   0.540   4.203
 3860SOL    HW112479   1.357   0.466   4.152
 3860SOL    HW212480   1.264   0.501   4.282
 3861SOL     OW12481   4.386   5.839   1.998
 3861SOL    HW112482   4.444   5.759   2.008
 3861SOL    HW212483   4.322   5.843   2.075
 3862SOL     OW12484   1.135   6.751   3.576
 3862SOL    HW112485   1.155   6.689   3.500
 3862SOL    HW212486   1.110   6.697   3.656
 3863SOL     OW12487   4.507   0.517   0.743
 3863SOL    HW112488   4.586   0.500   0.685
 3863SOL    HW212489   4.424   0.486   0.696
 3864SOL     OW12490   2.607   0.408   4.297
 3864SOL    HW112491   2.631   0.415   4.394
 3864SOL    HW212492   2.605   0.500   4.257
 3865SOL     OW12493   3.681   0.599   7.007
 3865SOL    HW112494   3.635   0.514   6.982
 3865SOL    HW212495   3.614   0.673   7.013
 3866SOL     OW12496   2.426   2.631   6.939
 3866SOL    HW112497   2.372   2.678   6.869
 3866SOL    HW212498   2.460   2.544   6.902
 3867SOL     OW12499   0.734   3.784   2.491
 3867SOL    HW112500   0.832   3.780   2.512
 3867SOL    HW212501   0.686   3.714   2.543
 3868SOL     OW12502   3.776   1.173   6.624
 3868SOL    HW112503   3.727   1.120   6.693
 3868SOL    HW212504   3.712   1.236   6.579
 3869SOL     OW12505   6.538   3.203   3.171
 3869SOL    HW112506   6.524   3.130   3.238
 3869SOL    HW212507   6.533   3.165   3.079
 3870SOL     OW12508   6.362   0.691   3.607
 3870SOL    HW112509   6.321   0.641   3.684
 3870SOL    HW212510   6.425   0.760   3.642
 3871SOL     OW12511   3.353   5.495   3.769
 3871SOL    HW112512   3.427   5.558   3.746
 3871SOL    HW212513   3.371   5.406   3.726
 3872SOL     OW12514   3.370   3.463   4.384
 3872SOL    HW112515   3.293   3.422   4.335
 3872SOL    HW212516   3.445   3.397   4.389
 3873SOL     OW12517   4.694   2.380   0.657
 3873SOL    HW112518   4.625   2.451   0.662
 3873SOL    HW212519   4.747   2.392   0.573
 3874SOL     OW12520   3.739   0.403   0.524
 3874SOL    HW112521   3.654   0.456   0.519
 3874SOL    HW212522   3.808   0.455   0.573
 3875SOL     OW12523   1.240   2.166   5.306
 3875SOL    HW112524   1.297   2.135   5.231
 3875SOL    HW212525   1.168   2.225   5.271
 3876SOL     OW12526   4.417   6.356   1.562
 3876SOL    HW112527   4.386   6.447   1.532
 3876SOL    HW212528   4.401   6.290   1.488
 3877SOL     OW12529   0.241   2.258   0.392
 3877SOL    HW112530   0.181   2.193   0.438
 3877SOL    HW212531   0.227   2.254   0.293
 3878SOL     OW12532   4.311   6.685   4.189
 3878SOL    HW112533   4.370   6.625   4.135
 3878SOL    HW212534   4.215   6.661   4.172
 3879SOL     OW12535   5.001   5.060   6.723
 3879SOL    HW112536   4.913   5.015   6.706
 3879SOL    HW212537   4.999   5.153   6.686
 3880SOL     OW12538   5.284   4.572   4.351
 3880SOL    HW112539   5.303   4.670   4.359
 3880SOL    HW212540   5.265   4.549   4.256
 3881SOL     OW12541   1.431   3.804   0.143
 3881SOL    HW112542   1.518   3.756   0.150
 3881SOL    HW212543   1.391   3.788   0.052
 3882SOL     OW12544   0.948   1.355   0.610
 3882SOL    HW112545   0.917   1.346   0.705
 3882SOL    HW212546   0.874   1.391   0.553
 3883SOL     OW12547   4.569   5.938   3.515
 3883SOL    HW112548   4.582   6.038   3.514
 3883SOL    HW212549   4.493   5.915   3.454
 3884SOL     OW12550   1.305   5.763   3.441
 3884SOL    HW112551   1.239   5.801   3.506
 3884SOL    HW212552   1.288   5.802   3.351
 3885SOL     OW12553   5.574   6.970   3.058
 3885SOL    HW112554   5.558   6.886   3.006
 3885SOL    HW212555   5.503   6.980   3.128
 3886SOL     OW12556   3.923   6.643   5.752
 3886SOL    HW112557   3.828   6.615   5.741
 3886SOL    HW212558   3.971   6.577   5.810
 3887SOL     OW12559   0.320   6.273   1.373
 3887SOL    HW112560   0.397   6.335   1.357
 3887SOL    HW212561   0.294   6.278   1.470
 3888SOL     OW12562   6.207   6.163   4.519
 3888SOL    HW112563   6.197   6.232   4.447
 3888SOL    HW212564   6.218   6.073   4.478
 3889SOL     OW12565   6.270   3.332   0.272
 3889SOL    HW112566   6.321   3.247   0.263
 3889SOL    HW212567   6.281   3.369   0.364
 3890SOL     OW12568   5.641   4.047   4.684
 3890SOL    HW112569   5.593   4.093   4.609
 3890SOL    HW212570   5.586   3.970   4.716
 3891SOL     OW12571   5.734   4.734   3.950
 3891SOL    HW112572   5.727   4.691   4.040
 3891SOL    HW212573   5.828   4.728   3.916
 3892SOL     OW12574   0.031   2.435   1.470
 3892SOL    HW112575   0.015   2.405   1.564
 3892SOL    HW212576   0.034   2.535   1.467
 3893SOL     OW12577   4.664   3.395   1.591
 3893SOL    HW112578   4.711   3.432   1.510
 3893SOL    HW212579   4.606   3.467   1.630
 3894SOL     OW12580   4.922   0.277   6.723
 3894SOL    HW112581   4.864   0.342   6.771
 3894SOL    HW212582   4.925   0.190   6.772
 3895SOL     OW12583   1.582   6.782   5.225
 3895SOL    HW112584   1.663   6.730   5.251
 3895SOL    HW212585   1.594   6.878   5.248
 3896SOL     OW12586   0.808   0.557   6.979
 3896SOL    HW112587   0.891   0.591   7.022
 3896SOL    HW212588   0.796   0.460   7.002
 3897SOL     OW12589   4.804   5.835   2.282
 3897SOL    HW112590   4.714   5.815   2.319
 3897SOL    HW212591   4.872   5.829   2.355
 3898SOL     OW12592   3.771   2.342   6.311
 3898SOL    HW112593   3.692   2.305   6.359
 3898SOL    HW212594   3.748   2.431   6.272
 3899SOL     OW12595   4.425   0.186   6.024
 3899SOL    HW112596   4.473   0.109   6.064
 3899SOL    HW212597   4.326   0.170   6.028
 3900SOL     OW12598   5.111   3.607   3.546
 3900SOL    HW112599   5.016   3.588   3.568
 3900SOL    HW212600   5.120   3.625   3.448
 3901SOL     OW12601   2.583   0.395   6.480
 3901SOL    HW112602   2.675   0.387   6.520
 3901SOL    HW212603   2.561   0.492   6.469
 3902SOL     OW12604   6.115   3.356   2.648
 3902SOL    HW112605   6.204   3.311   2.638
 3902SOL    HW212606   6.084   3.390   2.559
 3903SOL     OW12607   3.565   6.449   6.875
 3903SOL    HW112608   3.592   6.359   6.909
 3903SOL    HW212609   3.629   6.518   6.910
 3904SOL     OW12610   0.872   0.475   6.363
 3904SOL    HW112611   0.836   0.410   6.430
 3904SOL    HW212612   0.808   0.482   6.286
 3905SOL     OW12613   0.166   6.320   6.020
 3905SOL    HW112614   0.190   6.336   5.925
 3905SOL    HW212615   0.115   6.398   6.056
 3906SOL     OW12616   5.870   6.288   5.356
 3906SOL    HW112617   5.808   6.277   5.279
 3906SOL    HW212618   5.959   6.321   5.323
 3907SOL     OW12619   6.146   2.083   3.297
 3907SOL    HW112620   6.127   2.178   3.270
 3907SOL    HW212621   6.102   2.063   3.384
 3908SOL     OW12622   0.441   2.536   6.571
 3908SOL    HW112623   0.344   2.557   6.587
 3908SOL    HW212624   0.453   2.437   6.563
 3909SOL     OW12625   5.047   5.688   4.851
 3909SOL    HW112626   4.975   5.756   4.849
 3909SOL    HW212627   5.021   5.613   4.912
 3910SOL     OW12628   3.291   3.734   2.415
 3910SOL    HW112629   3.197   3.760   2.441
 3910SOL    HW212630   3.343   3.817   2.393
 3911SOL     OW12631   6.010   1.762   4.774
 3911SOL    HW112632   5.939   1.833   4.779
 3911SOL    HW212633   6.028   1.741   4.678
 3912SOL     OW12634   5.681   1.957   5.213
 3912SOL    HW112635   5.622   2.012   5.154
 3912SOL    HW212636   5.754   1.916   5.158
 3913SOL     OW12637   1.340   6.715   6.433
 3913SOL    HW112638   1.409   6.769   6.385
 3913SOL    HW212639   1.288   6.774   6.494
 3914SOL     OW12640   2.850   0.131   0.061
 3914SOL    HW112641   2.889   0.110   0.150
 3914SOL    HW212642   2.863   0.054   7.026
 3915SOL     OW12643   5.226   5.122   0.988
 3915SOL    HW112644   5.148   5.186   0.992
 3915SOL    HW212645   5.223   5.073   0.901
 3916SOL     OW12646   0.970   6.974   2.562
 3916SOL    HW112647   1.032   0.004   2.616
 3916SOL    HW212648   0.894   6.944   2.620
 3917SOL     OW12649   1.290   0.033   0.000
 3917SOL    HW112650   1.199   0.057   6.992
 3917SOL    HW212651   1.357   0.039   6.954
 3918SOL     OW12652   5.158   4.383   1.595
 3918SOL    HW112653   5.193   4.457   1.538
 3918SOL    HW212654   5.058   4.385   1.593
 3919SOL     OW12655   4.093   6.838   0.578
 3919SOL    HW112656   4.023   6.905   0.556
 3919SOL    HW212657   4.079   6.805   0.672
 3920SOL     OW12658   2.300   2.839   0.407
 3920SOL    HW112659   2.249   2.760   0.438
 3920SOL    HW212660   2.311   2.835   0.308
 3921SOL     OW12661   0.781   3.822   1.492
 3921SOL    HW112662   0.813   3.907   1.534
 3921SOL    HW212663   0.681   3.819   1.493
 3922SOL     OW12664   0.130   3.685   1.863
 3922SOL    HW112665   0.119   3.760   1.928
 3922SOL    HW212666   0.042   3.666   1.819
 3923SOL     OW12667   0.617   0.647   0.404
 3923SOL    HW112668   0.639   0.561   0.357
 3923SOL    HW212669   0.676   0.657   0.484
 3924SOL     OW12670   6.114   4.653   4.192
 3924SOL    HW112671   6.127   4.738   4.141
 3924SOL    HW212672   6.097   4.578   4.128
 3925SOL     OW12673   1.330   4.948   1.863
 3925SOL    HW112674   1.267   5.004   1.808
 3925SOL    HW212675   1.391   5.008   1.914
 3926SOL     OW12676   4.480   4.619   2.613
 3926SOL    HW112677   4.392   4.665   2.629
 3926SOL    HW212678   4.542   4.682   2.568
 3927SOL     OW12679   6.830   2.970   6.151
 3927SOL    HW112680   6.754   2.935   6.207
 3927SOL    HW212681   6.898   2.898   6.138
 3928SOL     OW12682   4.730   6.100   0.027
 3928SOL    HW112683   4.671   6.047   6.993
 3928SOL    HW212684   4.687   6.189   0.045
 3929SOL     OW12685   1.024   0.320   4.915
 3929SOL    HW112686   1.043   0.359   4.825
 3929SOL    HW212687   1.101   0.264   4.945
 3930SOL     OW12688   2.206   2.042   3.702
 3930SOL    HW112689   2.284   2.093   3.665
 3930SOL    HW212690   2.224   2.019   3.798
 3931SOL     OW12691   0.415   1.592   1.825
 3931SOL    HW112692   0.454   1.512   1.778
 3931SOL    HW212693   0.469   1.673   1.803
 3932SOL     OW12694   0.352   3.231   4.470
 3932SOL    HW112695   0.380   3.225   4.375
 3932SOL    HW212696   0.369   3.323   4.505
 3933SOL     OW12697   1.738   0.054   6.248
 3933SOL    HW112698   1.832   0.056   6.216
 3933SOL    HW212699   1.693   6.998   6.216
 3934SOL     OW12700   5.842   0.115   5.752
 3934SOL    HW112701   5.788   0.044   5.706
 3934SOL    HW212702   5.900   0.072   5.822
 3935SOL     OW12703   3.526   0.182   0.706
 3935SOL    HW112704   3.435   0.220   0.722
 3935SOL    HW212705   3.561   0.143   0.791
 3936SOL     OW12706   6.670   5.811   4.583
 3936SOL    HW112707   6.576   5.783   4.602
 3936SOL    HW212708   6.728   5.730   4.577
 3937SOL     OW12709   0.443   1.755   2.613
 3937SOL    HW112710   0.374   1.767   2.541
 3937SOL    HW212711   0.420   1.675   2.668
 3938SOL     OW12712   0.234   1.509   3.151
 3938SOL    HW112713   0.314   1.568   3.155
 3938SOL    HW212714   0.163   1.546   3.212
 3939SOL     OW12715   2.950   2.011   2.308
 3939SOL    HW112716   2.899   1.931   2.277
 3939SOL    HW212717   2.888   2.089   2.317
 3940SOL     OW12718   4.142   3.400   1.455
 3940SOL    HW112719   4.117   3.308   1.424
 3940SOL    HW212720   4.192   3.393   1.542
 3941SOL     OW12721   4.574   4.902   5.909
 3941SOL    HW112722   4.651   4.858   5.955
 3941SOL    HW212723   4.549   4.985   5.957
 3942SOL     OW12724   6.559   6.474   7.013
 3942SOL    HW112725   6.539   6.483   6.916
 3942SOL    HW212726   6.587   6.380   0.006
 3943SOL     OW12727   0.604   3.141   4.485
 3943SOL    HW112728   0.653   3.220   4.523
 3943SOL    HW212729   0.506   3.154   4.498
 3944SOL     OW12730   4.706   2.648   4.922
 3944SOL    HW112731   4.714   2.683   4.829
 3944SOL    HW212732   4.695   2.549   4.920
 3945SOL     OW12733   0.037   1.712   0.723
 3945SOL    HW112734   0.070   1.656   0.800
 3945SOL    HW212735   6.988   1.768   0.754
 3946SOL     OW12736   4.934   4.583   3.910
 3946SOL    HW112737   5.010   4.564   3.972
 3946SOL    HW212738   4.894   4.498   3.878
 3947SOL     OW12739   4.662   6.440   0.523
 3947SOL    HW112740   4.695   6.405   0.610
 3947SOL    HW212741   4.738   6.440   0.457
 3948SOL     OW12742   6.722   4.323   1.485
 3948SOL    HW112743   6.744   4.417   1.457
 3948SOL    HW212744   6.630   4.321   1.525
 3949SOL     OW12745   4.908   5.672   3.052
 3949SOL    HW112746   4.851   5.608   3.103
 3949SOL    HW212747   4.975   5.714   3.114
 3950SOL     OW12748   1.408   5.543   1.261
 3950SOL    HW112749   1.461   5.466   1.295
 3950SOL    HW212750   1.466   5.599   1.201
 3951SOL     OW12751   4.678   0.850   1.327
 3951SOL    HW112752   4.578   0.856   1.324
 3951SOL    HW212753   4.705   0.793   1.405
 3952SOL     OW12754   0.048   2.558   1.126
 3952SOL    HW112755   0.049   2.553   1.026
 3952SOL    HW212756   0.042   2.466   1.164
 3953SOL     OW12757   3.715   3.217   1.922
 3953SOL    HW112758   3.730   3.143   1.987
 3953SOL    HW212759   3.778   3.208   1.845
 3954SOL     OW12760   4.217   5.528   5.392
 3954SOL    HW112761   4.274   5.459   5.347
 3954SOL    HW212762   4.162   5.484   5.463
 3955SOL     OW12763   3.599   2.149   5.633
 3955SOL    HW112764   3.611   2.211   5.556
 3955SOL    HW212765   3.511   2.102   5.625
 3956SOL     OW12766   1.506   1.030   2.418
 3956SOL    HW112767   1.488   0.970   2.496
 3956SOL    HW212768   1.601   1.061   2.421
 3957SOL     OW12769   3.994   0.086   4.787
 3957SOL    HW112770   3.964   0.179   4.765
 3957SOL    HW212771   4.016   0.038   4.703
 3958SOL     OW12772   6.154   2.571   4.251
 3958SOL    HW112773   6.161   2.668   4.274
 3958SOL    HW212774   6.129   2.561   4.155
 3959SOL     OW12775   5.113   5.224   0.164
 3959SOL    HW112776   5.020   5.244   0.134
 3959SOL    HW212777   5.111   5.201   0.262
 3960SOL     OW12778   5.374   1.698   5.157
 3960SOL    HW112779   5.284   1.731   5.130
 3960SOL    HW212780   5.445   1.745   5.105
 3961SOL     OW12781   5.034   0.514   3.088
 3961SOL    HW112782   5.089   0.503   3.171
 3961SOL    HW212783   5.050   0.605   3.050
 3962SOL     OW12784   0.780   5.122   6.097
 3962SOL    HW112785   0.799   5.167   6.185
 3962SOL    HW212786   0.805   5.184   6.022
 3963SOL     OW12787   5.358   5.879   1.857
 3963SOL    HW112788   5.317   5.948   1.798
 3963SOL    HW212789   5.285   5.823   1.899
 3964SOL     OW12790   4.770   4.167   3.231
 3964SOL    HW112791   4.731   4.185   3.140
 3964SOL    HW212792   4.868   4.152   3.222
 3965SOL     OW12793   5.152   3.710   4.334
 3965SOL    HW112794   5.157   3.612   4.352
 3965SOL    HW212795   5.162   3.726   4.235
 3966SOL     OW12796   3.733   5.835   0.044
 3966SOL    HW112797   3.780   5.754   0.008
 3966SOL    HW212798   3.639   5.838   0.010
 3967SOL     OW12799   2.083   4.154   1.374
 3967SOL    HW112800   1.990   4.181   1.350
 3967SOL    HW212801   2.083   4.061   1.410
 3968SOL     OW12802   4.367   0.325   0.590
 3968SOL    HW112803   4.268   0.333   0.600
 3968SOL    HW212804   4.399   0.245   0.640
 3969SOL     OW12805   1.369   5.570   1.728
 3969SOL    HW112806   1.319   5.573   1.642
 3969SOL    HW212807   1.312   5.607   1.801
 3970SOL     OW12808   5.930   5.853   2.176
 3970SOL    HW112809   5.877   5.938   2.185
 3970SOL    HW212810   5.920   5.799   2.260
 3971SOL     OW12811   2.498   5.876   3.993
 3971SOL    HW112812   2.573   5.818   4.026
 3971SOL    HW212813   2.518   5.972   4.012
 3972SOL     OW12814   1.290   3.872   6.173
 3972SOL    HW112815   1.296   3.862   6.273
 3972SOL    HW212816   1.255   3.963   6.151
 3973SOL     OW12817   1.163   5.817   1.098
 3973SOL    HW112818   1.074   5.787   1.064
 3973SOL    HW212819   1.232   5.748   1.076
 3974SOL     OW12820   1.791   0.741   6.241
 3974SOL    HW112821   1.780   0.763   6.338
 3974SOL    HW212822   1.889   0.743   6.218
 3975SOL     OW12823   5.073   1.923   5.957
 3975SOL    HW112824   5.049   1.960   6.047
 3975SOL    HW212825   5.073   1.823   5.961
 3976SOL     OW12826   1.582   6.152   2.534
 3976SOL    HW112827   1.579   6.089   2.612
 3976SOL    HW212828   1.505   6.216   2.540
 3977SOL     OW12829   1.377   3.860   6.438
 3977SOL    HW112830   1.293   3.819   6.474
 3977SOL    HW212831   1.451   3.848   6.504
 3978SOL     OW12832   6.745   4.763   3.268
 3978SOL    HW112833   6.779   4.670   3.277
 3978SOL    HW212834   6.674   4.780   3.337
 3979SOL     OW12835   3.389   1.062   6.336
 3979SOL    HW112836   3.436   1.110   6.262
 3979SOL    HW212837   3.310   1.116   6.366
 3980SOL     OW12838   6.287   6.565   6.576
 3980SOL    HW112839   6.233   6.487   6.543
 3980SOL    HW212840   6.325   6.543   6.666
 3981SOL     OW12841   4.671   6.019   0.650
 3981SOL    HW112842   4.682   5.926   0.685
 3981SOL    HW212843   4.692   6.085   0.722
 3982SOL     OW12844   2.274   6.995   2.105
 3982SOL    HW112845   2.332   0.029   2.050
 3982SOL    HW212846   2.283   7.020   2.202
 3983SOL     OW12847   4.514   5.265   3.900
 3983SOL    HW112848   4.492   5.171   3.874
 3983SOL    HW212849   4.442   5.301   3.960
 3984SOL     OW12850   6.188   1.602   2.824
 3984SOL    HW112851   6.201   1.701   2.827
 3984SOL    HW212852   6.208   1.563   2.914
 3985SOL     OW12853   3.624   5.516   6.603
 3985SOL    HW112854   3.550   5.568   6.647
 3985SOL    HW212855   3.711   5.543   6.644
 3986SOL     OW12856   4.884   1.606   3.033
 3986SOL    HW112857   4.964   1.637   3.085
 3986SOL    HW212858   4.886   1.648   2.942
 3987SOL     OW12859   3.380   4.989   4.627
 3987SOL    HW112860   3.299   4.931   4.620
 3987SOL    HW212861   3.439   4.975   4.547
 3988SOL     OW12862   4.076   5.630   0.710
 3988SOL    HW112863   4.015   5.646   0.633
 3988SOL    HW212864   4.167   5.666   0.690
 3989SOL     OW12865   6.255   2.185   0.423
 3989SOL    HW112866   6.261   2.098   0.471
 3989SOL    HW212867   6.275   2.171   0.326
 3990SOL     OW12868   5.103   2.115   1.622
 3990SOL    HW112869   5.080   2.167   1.539
 3990SOL    HW212870   5.198   2.134   1.648
 3991SOL     OW12871   0.720   1.257   2.569
 3991SOL    HW112872   0.762   1.192   2.632
 3991SOL    HW212873   0.686   1.209   2.488
 3992SOL     OW12874   3.420   1.748   0.457
 3992SOL    HW112875   3.446   1.651   0.457
 3992SOL    HW212876   3.324   1.757   0.481
 3993SOL     OW12877   1.162   3.213   1.920
 3993SOL    HW112878   1.098   3.196   1.995
 3993SOL    HW212879   1.228   3.139   1.914
 3994SOL     OW12880   2.698   6.974   4.806
 3994SOL    HW112881   2.693   6.884   4.764
 3994SOL    HW212882   2.771   6.974   4.875
 3995SOL     OW12883   1.755   3.060   5.489
 3995SOL    HW112884   1.751   3.159   5.485
 3995SOL    HW212885   1.833   3.027   5.435
 3996SOL     OW12886   6.866   6.790   5.359
 3996SOL    HW112887   6.777   6.779   5.316
 3996SOL    HW212888   6.938   6.760   5.296
 3997SOL     OW12889   5.373   1.506   4.136
 3997SOL    HW112890   5.449   1.459   4.180
 3997SOL    HW212891   5.404   1.593   4.098
 3998SOL     OW12892   3.593   2.017   3.865
 3998SOL    HW112893   3.507   2.037   3.911
 3998SOL    HW212894   3.614   1.919   3.873
 3999SOL     OW12895   6.259   2.492   4.489
 3999SOL    HW112896   6.350   2.530   4.503
 3999SOL    HW212897   6.228   2.512   4.396
 4000SOL     OW12898   3.472   0.020   3.764
 4000SOL    HW112899   3.483   6.996   3.679
 4000SOL    HW212900   3.430   0.109   3.744
 4001SOL     OW12901   1.948   2.038   3.804
 4001SOL    HW112902   1.950   2.123   3.857
 4001SOL    HW212903   2.033   2.029   3.753
 4002SOL     OW12904   2.310   3.691   1.684
 4002SOL    HW112905   2.321   3.772   1.741
 4002SOL    HW212906   2.298   3.611   1.742
 4003SOL     OW12907   3.296   7.024   4.674
 4003SOL    HW112908   3.390   0.001   4.707
 4003SOL    HW212909   3.295   0.006   4.574
 4004SOL     OW12910   6.801   2.478   4.929
 4004SOL    HW112911   6.857   2.560   4.934
 4004SOL    HW212912   6.859   2.397   4.941
 4005SOL     OW12913   4.704   6.053   6.677
 4005SOL    HW112914   4.691   6.009   6.766
 4005SOL    HW212915   4.634   6.123   6.664
 4006SOL     OW12916   3.977   5.378   2.309
 4006SOL    HW112917   3.931   5.299   2.350
 4006SOL    HW212918   3.921   5.412   2.233
 4007SOL     OW12919   6.979   2.630   7.016
 4007SOL    HW112920   0.001   2.552   6.977
 4007SOL    HW212921   0.010   2.711   7.011
 4008SOL     OW12922   2.753   2.377   4.506
 4008SOL    HW112923   2.845   2.351   4.479
 4008SOL    HW212924   2.736   2.347   4.600
 4009SOL     OW12925   3.902   3.805   2.264
 4009SOL    HW112926   3.825   3.786   2.203
 4009SOL    HW212927   3.962   3.726   2.268
 4010SOL     OW12928   2.741   3.135   0.679
 4010SOL    HW112929   2.831   3.105   0.650
 4010SOL    HW212930   2.682   3.146   0.599
 4011SOL     OW12931   1.068   2.139   1.724
 4011SOL    HW112932   1.087   2.139   1.823
 4011SOL    HW212933   1.138   2.193   1.677
 4012SOL     OW12934   6.713   3.919   2.602
 4012SOL    HW112935   6.657   3.853   2.651
 4012SOL    HW212936   6.760   3.873   2.526
 4013SOL     OW12937   4.511   2.289   4.186
 4013SOL    HW112938   4.479   2.254   4.273
 4013SOL    HW212939   4.433   2.316   4.129
 4014SOL     OW12940   5.904   6.326   3.002
 4014SOL    HW112941   5.904   6.226   3.000
 4014SOL    HW212942   5.963   6.358   3.077
 4015SOL     OW12943   4.918   4.161   5.476
 4015SOL    HW112944   4.912   4.206   5.387
 4015SOL    HW212945   5.008   4.177   5.516
 4016SOL     OW12946   3.239   6.067   6.339
 4016SOL    HW112947   3.233   6.161   6.375
 4016SOL    HW212948   3.157   6.016   6.366
 4017SOL     OW12949   6.470   5.911   6.815
 4017SOL    HW112950   6.529   5.929   6.736
 4017SOL    HW212951   6.525   5.910   6.898
 4018SOL     OW12952   4.217   6.042   1.373
 4018SOL    HW112953   4.178   5.957   1.410
 4018SOL    HW212954   4.176   6.120   1.420
 4019SOL     OW12955   5.203   4.725   3.639
 4019SOL    HW112956   5.213   4.803   3.577
 4019SOL    HW212957   5.257   4.740   3.721
 4020SOL     OW12958   5.564   2.584   5.741
 4020SOL    HW112959   5.557   2.563   5.644
 4020SOL    HW212960   5.496   2.531   5.792
 4021SOL     OW12961   3.380   4.621   5.633
 4021SOL    HW112962   3.331   4.699   5.673
 4021SOL    HW212963   3.346   4.536   5.673
 4022SOL     OW12964   5.394   0.559   0.468
 4022SOL    HW112965   5.391   0.659   0.465
 4022SOL    HW212966   5.394   0.528   0.564
 4023SOL     OW12967   6.020   1.034   5.289
 4023SOL    HW112968   6.025   0.939   5.318
 4023SOL    HW212969   6.088   1.050   5.216
 4024SOL     OW12970   4.184   4.758   4.082
 4024SOL    HW112971   4.259   4.691   4.075
 4024SOL    HW212972   4.154   4.764   4.178
 4025SOL     OW12973   0.590   4.362   3.557
 4025SOL    HW112974   0.630   4.453   3.543
 4025SOL    HW212975   0.566   4.350   3.653
 4026SOL     OW12976   5.099   6.116   4.313
 4026SOL    HW112977   5.015   6.171   4.307
 4026SOL    HW212978   5.095   6.056   4.392
 4027SOL     OW12979   4.264   5.478   1.781
 4027SOL    HW112980   4.321   5.486   1.862
 4027SOL    HW212981   4.304   5.410   1.719
 4028SOL     OW12982   2.165   1.132   4.145
 4028SOL    HW112983   2.144   1.127   4.048
 4028SOL    HW212984   2.101   1.075   4.196
 4029SOL     OW12985   1.663   4.392   4.728
 4029SOL    HW112986   1.611   4.447   4.793
 4029SOL    HW212987   1.708   4.318   4.777
 4030SOL     OW12988   0.293   2.409   5.720
 4030SOL    HW112989   0.227   2.482   5.739
 4030SOL    HW212990   0.297   2.393   5.622
 4031SOL     OW12991   4.095   5.473   3.825
 4031SOL    HW112992   4.165   5.545   3.823
 4031SOL    HW212993   4.102   5.418   3.741
 4032SOL     OW12994   4.754   0.242   4.548
 4032SOL    HW112995   4.736   0.143   4.545
 4032SOL    HW212996   4.691   0.286   4.612
 4033SOL     OW12997   2.938   3.777   5.575
 4033SOL    HW112998   3.023   3.752   5.529
 4033SOL    HW212999   2.916   3.709   5.644
 4034SOL     OW13000   0.064   2.613   3.763
 4034SOL    HW113001   0.101   2.702   3.786
 4034SOL    HW213002   7.003   2.601   3.809
 4035SOL     OW13003   6.813   4.462   0.437
 4035SOL    HW113004   6.878   4.479   0.362
 4035SOL    HW213005   6.749   4.390   0.409
 4036SOL     OW13006   6.741   0.239   2.849
 4036SOL    HW113007   6.669   0.213   2.913
 4036SOL    HW213008   6.830   0.232   2.894
 4037SOL     OW13009   0.400   4.094   6.927
 4037SOL    HW113010   0.333   4.048   6.868
 4037SOL    HW213011   0.352   4.139   7.002
 4038SOL     OW13012   5.611   4.917   3.778
 4038SOL    HW113013   5.658   4.867   3.851
 4038SOL    HW213014   5.679   4.949   3.712
 4039SOL     OW13015   4.742   6.171   1.088
 4039SOL    HW113016   4.712   6.266   1.084
 4039SOL    HW213017   4.692   6.117   1.020
 4040SOL     OW13018   3.825   6.049   1.743
 4040SOL    HW113019   3.922   6.068   1.759
 4040SOL    HW213020   3.808   6.040   1.645
 4041SOL     OW13021   1.562   6.612   4.283
 4041SOL    HW113022   1.556   6.593   4.380
 4041SOL    HW213023   1.624   6.690   4.268
 4042SOL     OW13024   6.212   5.331   1.924
 4042SOL    HW113025   6.149   5.342   1.848
 4042SOL    HW213026   6.163   5.348   2.010
 4043SOL     OW13027   6.336   2.697   1.059
 4043SOL    HW113028   6.311   2.790   1.085
 4043SOL    HW213029   6.253   2.641   1.050
 4044SOL     OW13030   6.974   5.657   3.629
 4044SOL    HW113031   6.954   5.608   3.545
 4044SOL    HW213032   0.024   5.719   3.615
 4045SOL     OW13033   2.434   6.299   5.797
 4045SOL    HW113034   2.356   6.241   5.774
 4045SOL    HW213035   2.443   6.372   5.729
 4046SOL     OW13036   1.791   2.930   1.197
 4046SOL    HW113037   1.732   2.997   1.242
 4046SOL    HW213038   1.872   2.913   1.253
 4047SOL     OW13039   2.659   3.843   0.946
 4047SOL    HW113040   2.738   3.904   0.948
 4047SOL    HW213041   2.628   3.832   0.851
 4048SOL     OW13042   5.739   1.017   1.251
 4048SOL    HW113043   5.702   0.955   1.319
 4048SOL    HW213044   5.718   1.112   1.277
 4049SOL     OW13045   5.837   0.748   4.772
 4049SOL    HW113046   5.796   0.757   4.682
 4049SOL    HW213047   5.862   0.839   4.807
 4050SOL     OW13048   2.897   0.227   0.750
 4050SOL    HW113049   2.830   0.155   0.734
 4050SOL    HW213050   2.855   0.300   0.805
 4051SOL     OW13051   2.951   3.835   0.342
 4051SOL    HW113052   2.973   3.738   0.347
 4051SOL    HW213053   2.863   3.852   0.386
 4052SOL     OW13054   1.378   6.432   1.350
 4052SOL    HW113055   1.322   6.460   1.272
 4052SOL    HW213056   1.331   6.360   1.401
 4053SOL     OW13057   3.578   4.972   3.458
 4053SOL    HW113058   3.667   4.934   3.435
 4053SOL    HW213059   3.559   4.956   3.555
 4054SOL     OW13060   5.402   2.300   0.627
 4054SOL    HW113061   5.380   2.207   0.596
 4054SOL    HW213062   5.474   2.296   0.696
 4055SOL     OW13063   3.344   2.050   0.277
 4055SOL    HW113064   3.406   2.067   0.354
 4055SOL    HW213065   3.250   2.045   0.311
 4056SOL     OW13066   3.973   3.597   0.486
 4056SOL    HW113067   3.922   3.683   0.483
 4056SOL    HW213068   3.955   3.550   0.572
 4057SOL     OW13069   5.337   2.558   6.314
 4057SOL    HW113070   5.382   2.613   6.384
 4057SOL    HW213071   5.340   2.461   6.340
 4058SOL     OW13072   0.730   0.357   4.561
 4058SOL    HW113073   0.824   0.384   4.583
 4058SOL    HW213074   0.697   0.294   4.632
 4059SOL     OW13075   7.007   2.015   4.757
 4059SOL    HW113076   0.075   2.012   4.788
 4059SOL    HW213077   7.004   2.020   4.657
 4060SOL     OW13078   4.488   5.446   3.654
 4060SOL    HW113079   4.485   5.391   3.737
 4060SOL    HW213080   4.529   5.535   3.674
 4061SOL     OW13081   2.830   3.413   1.461
 4061SOL    HW113082   2.745   3.435   1.413
 4061SOL    HW213083   2.860   3.321   1.435
 4062SOL     OW13084   2.601   6.833   2.919
 4062SOL    HW113085   2.575   6.825   2.822
 4062SOL    HW213086   2.652   6.918   2.933
 4063SOL     OW13087   3.072   5.487   5.806
 4063SOL    HW113088   3.031   5.396   5.804
 4063SOL    HW213089   3.103   5.513   5.715
 4064SOL     OW13090   6.706   7.018   3.850
 4064SOL    HW113091   6.797   0.026   3.871
 4064SOL    HW213092   6.637   0.057   3.880
 4065SOL     OW13093   6.133   4.876   6.829
 4065SOL    HW113094   6.144   4.821   6.912
 4065SOL    HW213095   6.178   4.964   6.841
 4066SOL     OW13096   6.195   5.036   1.955
 4066SOL    HW113097   6.110   5.031   1.903
 4066SOL    HW213098   6.212   5.131   1.982
 4067SOL     OW13099   6.396   1.032   2.021
 4067SOL    HW113100   6.419   0.949   1.969
 4067SOL    HW213101   6.297   1.046   2.018
 4068SOL     OW13102   6.068   0.819   3.704
 4068SOL    HW113103   6.040   0.910   3.736
 4068SOL    HW213104   6.144   0.829   3.639
 4069SOL     OW13105   0.139   5.321   1.208
 4069SOL    HW113106   0.162   5.399   1.267
 4069SOL    HW213107   0.223   5.277   1.178
 4070SOL     OW13108   0.796   3.426   3.025
 4070SOL    HW113109   0.756   3.423   2.934
 4070SOL    HW213110   0.734   3.384   3.091
 4071SOL     OW13111   2.015   0.121   3.863
 4071SOL    HW113112   1.996   0.125   3.961
 4071SOL    HW213113   2.087   0.054   3.846
 4072SOL     OW13114   0.742   0.740   4.168
 4072SOL    HW113115   0.736   0.689   4.082
 4072SOL    HW213116   0.719   0.836   4.151
 4073SOL     OW13117   2.276   4.892   0.758
 4073SOL    HW113118   2.337   4.870   0.682
 4073SOL    HW213119   2.321   4.867   0.844
 4074SOL     OW13120   1.609   2.657   0.780
 4074SOL    HW113121   1.518   2.614   0.784
 4074SOL    HW213122   1.626   2.690   0.687
 4075SOL     OW13123   5.209   0.880   4.061
 4075SOL    HW113124   5.249   0.859   3.972
 4075SOL    HW213125   5.126   0.934   4.048
 4076SOL     OW13126   1.776   2.530   3.744
 4076SOL    HW113127   1.740   2.547   3.835
 4076SOL    HW213128   1.701   2.517   3.680
 4077SOL     OW13129   2.775   1.713   0.943
 4077SOL    HW113130   2.811   1.650   1.012
 4077SOL    HW213131   2.680   1.690   0.922
 4078SOL     OW13132   5.532   4.182   2.219
 4078SOL    HW113133   5.504   4.195   2.314
 4078SOL    HW213134   5.587   4.099   2.210
 4079SOL     OW13135   0.401   1.063   3.815
 4079SOL    HW113136   0.360   1.130   3.753
 4079SOL    HW213137   0.392   1.095   3.909
 4080SOL     OW13138   3.937   3.112   2.439
 4080SOL    HW113139   4.037   3.120   2.448
 4080SOL    HW213140   3.915   3.079   2.347
 4081SOL     OW13141   2.091   2.321   6.375
 4081SOL    HW113142   1.998   2.342   6.404
 4081SOL    HW213143   2.130   2.399   6.327
 4082SOL     OW13144   1.311   2.717   5.550
 4082SOL    HW113145   1.380   2.661   5.596
 4082SOL    HW213146   1.348   2.753   5.465
 4083SOL     OW13147   5.707   4.731   2.981
 4083SOL    HW113148   5.623   4.784   2.985
 4083SOL    HW213149   5.755   4.739   3.068
 4084SOL     OW13150   4.555   0.488   3.117
 4084SOL    HW113151   4.499   0.549   3.061
 4084SOL    HW213152   4.616   0.435   3.057
 4085SOL     OW13153   4.092   4.789   2.143
 4085SOL    HW113154   4.184   4.767   2.176
 4085SOL    HW213155   4.025   4.739   2.197
 4086SOL     OW13156   6.033   4.858   5.899
 4086SOL    HW113157   6.027   4.827   5.804
 4086SOL    HW213158   6.081   4.790   5.954
 4087SOL     OW13159   2.129   0.511   2.162
 4087SOL    HW113160   2.086   0.461   2.236
 4087SOL    HW213161   2.130   0.609   2.184
 4088SOL     OW13162   0.402   1.770   5.029
 4088SOL    HW113163   0.370   1.759   4.935
 4088SOL    HW213164   0.500   1.787   5.029
 4089SOL     OW13165   1.111   0.547   3.127
 4089SOL    HW113166   1.016   0.538   3.156
 4089SOL    HW213167   1.131   0.642   3.105
 4090SOL     OW13168   2.607   1.593   5.972
 4090SOL    HW113169   2.661   1.601   6.056
 4090SOL    HW213170   2.659   1.542   5.904
 4091SOL     OW13171   3.419   5.974   1.252
 4091SOL    HW113172   3.481   6.032   1.306
 4091SOL    HW213173   3.452   5.880   1.252
 4092SOL     OW13174   5.673   2.973   4.076
 4092SOL    HW113175   5.599   3.030   4.111
 4092SOL    HW213176   5.761   3.009   4.109
 4093SOL     OW13177   5.362   4.520   3.919
 4093SOL    HW113178   5.381   4.616   3.897
 4093SOL    HW213179   5.346   4.469   3.835
 4094SOL     OW13180   6.676   5.810   0.128
 4094SOL    HW113181   6.591   5.769   0.161
 4094SOL    HW213182   6.704   5.884   0.190
 4095SOL     OW13183   1.023   5.071   0.212
 4095SOL    HW113184   1.108   5.055   0.162
 4095SOL    HW213185   0.949   5.020   0.169
 4096SOL     OW13186   0.549   0.740   6.569
 4096SOL    HW113187   0.449   0.733   6.566
 4096SOL    HW213188   0.587   0.725   6.478
 4097SOL     OW13189   6.509   4.507   4.906
 4097SOL    HW113190   6.584   4.445   4.884
 4097SOL    HW213191   6.432   4.489   4.845
 4098SOL     OW13192   2.028   4.202   2.640
 4098SOL    HW113193   1.929   4.213   2.637
 4098SOL    HW213194   2.065   4.198   2.547
 4099SOL     OW13195   4.850   4.217   6.406
 4099SOL    HW113196   4.781   4.288   6.414
 4099SOL    HW213197   4.821   4.150   6.337
 4100SOL     OW13198   1.482   0.842   4.139
 4100SOL    HW113199   1.498   0.765   4.077
 4100SOL    HW213200   1.497   0.814   4.233
 4101SOL     OW13201   6.491   5.634   0.212
 4101SOL    HW113202   6.442   5.610   0.128
 4101SOL    HW213203   6.459   5.576   0.287
 4102SOL     OW13204   1.588   0.004   6.910
 4102SOL    HW113205   1.560   0.088   6.956
 4102SOL    HW213206   1.672   0.021   6.859
 4103SOL     OW13207   2.107   6.565   3.876
 4103SOL    HW113208   2.160   6.636   3.831
 4103SOL    HW213209   2.123   6.477   3.831
 4104SOL     OW13210   2.069   5.549   4.558
 4104SOL    HW113211   2.118   5.522   4.475
 4104SOL    HW213212   1.977   5.510   4.557
 4105SOL     OW13213   4.661   0.707   1.587
 4105SOL    HW113214   4.615   0.619   1.599
 4105SOL    HW213215   4.741   0.711   1.647
 4106SOL     OW13216   1.083   0.827   3.011
 4106SOL    HW113217   1.156   0.841   3.078
 4106SOL    HW213218   1.121   0.834   2.919
 4107SOL     OW13219   1.162   0.385   0.150
 4107SOL    HW113220   1.109   0.301   0.137
 4107SOL    HW213221   1.193   0.419   0.061
 4108SOL     OW13222   6.427   5.647   5.532
 4108SOL    HW113223   6.345   5.591   5.546
 4108SOL    HW213224   6.401   5.744   5.528
 4109SOL     OW13225   5.660   5.996   3.686
 4109SOL    HW113226   5.564   5.971   3.694
 4109SOL    HW213227   5.707   5.930   3.628
 4110SOL     OW13228   5.050   2.902   0.258
 4110SOL    HW113229   5.097   2.857   0.182
 4110SOL    HW213230   4.955   2.872   0.262
 4111SOL     OW13231   6.846   3.762   4.242
 4111SOL    HW113232   6.885   3.847   4.206
 4111SOL    HW213233   6.826   3.700   4.166
 4112SOL     OW13234   4.375   6.040   5.050
 4112SOL    HW113235   4.319   6.090   4.984
 4112SOL    HW213236   4.435   6.105   5.098
 4113SOL     OW13237   4.327   5.477   4.400
 4113SOL    HW113238   4.277   5.401   4.360
 4113SOL    HW213239   4.302   5.486   4.497
 4114SOL     OW13240   0.362   1.112   1.423
 4114SOL    HW113241   0.268   1.131   1.395
 4114SOL    HW213242   0.382   1.015   1.410
 4115SOL     OW13243   4.234   6.079   3.998
 4115SOL    HW113244   4.275   5.998   4.040
 4115SOL    HW213245   4.305   6.148   3.984
 4116SOL     OW13246   4.807   3.922   2.263
 4116SOL    HW113247   4.729   3.888   2.315
 4116SOL    HW213248   4.811   4.022   2.270
 4117SOL     OW13249   1.338   1.630   3.736
 4117SOL    HW113250   1.337   1.709   3.675
 4117SOL    HW213251   1.415   1.637   3.799
 4118SOL     OW13252   0.288   6.600   0.253
 4118SOL    HW113253   0.242   6.541   0.186
 4118SOL    HW213254   0.244   6.689   0.254
 4119SOL     OW13255   0.345   0.361   4.224
 4119SOL    HW113256   0.273   0.425   4.194
 4119SOL    HW213257   0.401   0.405   4.295
 4120SOL     OW13258   2.139   0.771   6.460
 4120SOL    HW113259   2.115   0.718   6.379
 4120SOL    HW213260   2.196   0.849   6.434
 4121SOL     OW13261   6.697   6.638   2.565
 4121SOL    HW113262   6.781   6.684   2.592
 4121SOL    HW213263   6.656   6.593   2.644
 4122SOL     OW13264   0.653   4.315   2.820
 4122SOL    HW113265   0.649   4.224   2.778
 4122SOL    HW213266   0.639   4.385   2.751
 4123SOL     OW13267   4.822   5.234   1.287
 4123SOL    HW113268   4.823   5.256   1.384
 4123SOL    HW213269   4.737   5.187   1.264
 4124SOL     OW13270   6.048   5.290   0.199
 4124SOL    HW113271   6.026   5.381   0.163
 4124SOL    HW213272   6.128   5.253   0.151
 4125SOL     OW13273   6.157   2.008   0.863
 4125SOL    HW113274   6.177   1.941   0.934
 4125SOL    HW213275   6.234   2.013   0.799
 4126SOL     OW13276   1.394   3.182   2.414
 4126SOL    HW113277   1.483   3.136   2.411
 4126SOL    HW213278   1.324   3.121   2.377
 4127SOL     OW13279   4.376   1.981   4.711
 4127SOL    HW113280   4.445   1.948   4.646
 4127SOL    HW213281   4.288   1.938   4.689
 4128SOL     OW13282   0.905   2.891   0.044
 4128SOL    HW113283   0.994   2.903   7.027
 4128SOL    HW213284   0.878   2.977   0.087
 4129SOL     OW13285   2.699   2.544   0.500
 4129SOL    HW113286   2.769   2.480   0.531
 4129SOL    HW213287   2.736   2.637   0.501
 4130SOL     OW13288   5.769   3.351   0.795
 4130SOL    HW113289   5.780   3.436   0.742
 4130SOL    HW213290   5.848   3.338   0.854
 4131SOL     OW13291   4.773   6.683   3.275
 4131SOL    HW113292   4.764   6.620   3.198
 4131SOL    HW213293   4.813   6.769   3.242
 4132SOL     OW13294   0.558   5.374   3.836
 4132SOL    HW113295   0.544   5.342   3.742
 4132SOL    HW213296   0.653   5.404   3.848
 4133SOL     OW13297   5.653   0.317   2.588
 4133SOL    HW113298   5.717   0.391   2.563
 4133SOL    HW213299   5.705   0.239   2.622
 4134SOL     OW13300   1.310   3.526   1.459
 4134SOL    HW113301   1.259   3.610   1.477
 4134SOL    HW213302   1.342   3.527   1.364
 4135SOL     OW13303   6.508   0.388   2.122
 4135SOL    HW113304   6.459   0.311   2.162
 4135SOL    HW213305   6.473   0.474   2.160
 4136SOL     OW13306   0.956   4.795   1.047
 4136SOL    HW113307   1.018   4.810   0.970
 4136SOL    HW213308   1.008   4.766   1.127
 4137SOL     OW13309   1.228   2.357   0.643
 4137SOL    HW113310   1.317   2.367   0.599
 4137SOL    HW213311   1.157   2.350   0.573
 4138SOL     OW13312   4.995   0.050   6.904
 4138SOL    HW113313   5.089   0.029   6.877
 4138SOL    HW213314   4.936   6.998   6.884
 4139SOL     OW13315   2.114   4.034   2.833
 4139SOL    HW113316   2.110   3.952   2.776
 4139SOL    HW213317   2.107   4.115   2.775
 4140SOL     OW13318   1.759   0.696   5.986
 4140SOL    HW113319   1.755   0.689   6.086
 4140SOL    HW213320   1.841   0.650   5.953
 4141SOL     OW13321   4.710   0.500   6.299
 4141SOL    HW113322   4.764   0.470   6.220
 4141SOL    HW213323   4.767   0.555   6.360
 4142SOL     OW13324   0.884   5.397   2.028
 4142SOL    HW113325   0.838   5.383   2.115
 4142SOL    HW213326   0.835   5.467   1.976
 4143SOL     OW13327   5.611   2.814   6.550
 4143SOL    HW113328   5.695   2.849   6.591
 4143SOL    HW213329   5.613   2.714   6.550
 4144SOL     OW13330   6.165   1.009   0.585
 4144SOL    HW113331   6.161   1.104   0.617
 4144SOL    HW213332   6.121   0.950   0.652
 4145SOL     OW13333   6.888   0.177   1.823
 4145SOL    HW113334   6.917   0.222   1.908
 4145SOL    HW213335   6.958   0.192   1.752
 4146SOL     OW13336   5.187   6.002   2.302
 4146SOL    HW113337   5.152   6.045   2.218
 4146SOL    HW213338   5.287   5.997   2.297
 4147SOL     OW13339   4.315   5.094   6.470
 4147SOL    HW113340   4.332   5.183   6.427
 4147SOL    HW213341   4.300   5.106   6.568
 4148SOL     OW13342   2.178   1.400   5.582
 4148SOL    HW113343   2.256   1.362   5.533
 4148SOL    HW213344   2.110   1.329   5.598
 4149SOL     OW13345   1.710   3.425   6.630
 4149SOL    HW113346   1.767   3.423   6.712
 4149SOL    HW213347   1.760   3.472   6.557
 4150SOL     OW13348   5.440   1.965   6.663
 4150SOL    HW113349   5.485   1.981   6.751
 4150SOL    HW213350   5.506   1.977   6.589
 4151SOL     OW13351   3.206   5.783   4.217
 4151SOL    HW113352   3.147   5.773   4.137
 4151SOL    HW213353   3.156   5.830   4.289
 4152SOL     OW13354   3.041   4.418   1.380
 4152SOL    HW113355   3.109   4.437   1.309
 4152SOL    HW213356   2.961   4.375   1.339
 4153SOL     OW13357   6.982   6.087   1.369
 4153SOL    HW113358   0.016   6.048   1.300
 4153SOL    HW213359   7.017   6.066   1.461
 4154SOL     OW13360   1.240   6.372   3.735
 4154SOL    HW113361   1.254   6.274   3.749
 4154SOL    HW213362   1.251   6.393   3.638
 4155SOL     OW13363   0.658   0.763   1.877
 4155SOL    HW113364   0.735   0.711   1.841
 4155SOL    HW213365   0.693   0.843   1.926
 4156SOL     OW13366   0.865   5.466   6.186
 4156SOL    HW113367   0.830   5.415   6.107
 4156SOL    HW213368   0.812   5.442   6.267
 4157SOL     OW13369   6.171   5.728   1.687
 4157SOL    HW113370   6.076   5.700   1.703
 4157SOL    HW213371   6.232   5.669   1.740
 4158SOL     OW13372   0.956   2.693   1.490
 4158SOL    HW113373   1.013   2.772   1.466
 4158SOL    HW213374   0.892   2.719   1.562
 4159SOL     OW13375   3.252   0.566   4.386
 4159SOL    HW113376   3.191   0.575   4.465
 4159SOL    HW213377   3.209   0.608   4.306
 4160SOL     OW13378   6.811   0.113   7.011
 4160SOL    HW113379   6.729   0.169   7.024
 4160SOL    HW213380   6.892   0.165   0.012
 4161SOL     OW13381   3.450   3.250   1.789
 4161SOL    HW113382   3.497   3.230   1.875
 4161SOL    HW213383   3.351   3.256   1.806
 4162SOL     OW13384   5.322   5.601   1.917
 4162SOL    HW113385   5.366   5.598   1.828
 4162SOL    HW213386   5.374   5.545   1.982
 4163SOL     OW13387   3.796   5.775   1.786
 4163SOL    HW113388   3.710   5.740   1.824
 4163SOL    HW213389   3.799   5.874   1.797
 4164SOL     OW13390   6.821   0.870   5.742
 4164SOL    HW113391   6.780   0.948   5.694
 4164SOL    HW213392   6.900   0.902   5.796
 4165SOL     OW13393   4.706   0.897   4.511
 4165SOL    HW113394   4.635   0.921   4.577
 4165SOL    HW213395   4.762   0.822   4.548
 4166SOL     OW13396   5.829   1.635   1.304
 4166SOL    HW113397   5.832   1.538   1.331
 4166SOL    HW213398   5.914   1.679   1.332
 4167SOL     OW13399   3.322   5.553   4.301
 4167SOL    HW113400   3.307   5.652   4.296
 4167SOL    HW213401   3.351   5.519   4.212
 4168SOL     OW13402   5.283   3.564   0.004
 4168SOL    HW113403   5.327   3.475   7.024
 4168SOL    HW213404   5.330   3.619   0.073
 4169SOL     OW13405   4.864   2.937   5.693
 4169SOL    HW113406   4.872   2.975   5.601
 4169SOL    HW213407   4.779   2.885   5.700
 4170SOL     OW13408   0.079   2.729   4.667
 4170SOL    HW113409   0.144   2.806   4.673
 4170SOL    HW213410   7.021   2.761   4.625
 4171SOL     OW13411   0.504   2.263   0.141
 4171SOL    HW113412   0.529   2.231   0.049
 4171SOL    HW213413   0.459   2.189   0.190
 4172SOL     OW13414   2.783   4.323   0.754
 4172SOL    HW113415   2.737   4.411   0.767
 4172SOL    HW213416   2.771   4.293   0.659
 4173SOL     OW13417   4.802   1.998   6.440
 4173SOL    HW113418   4.865   2.054   6.494
 4173SOL    HW213419   4.708   2.026   6.460
 4174SOL     OW13420   3.208   0.490   5.000
 4174SOL    HW113421   3.306   0.470   4.995
 4174SOL    HW213422   3.174   0.466   5.091
 4175SOL     OW13423   0.701   4.329   6.756
 4175SOL    HW113424   0.710   4.314   6.657
 4175SOL    HW213425   0.610   4.366   6.776
 4176SOL     OW13426   5.139   0.005   5.934
 4176SOL    HW113427   5.205   0.012   5.860
 4176SOL    HW213428   5.102   0.095   5.954
 4177SOL     OW13429   4.229   4.719   2.680
 4177SOL    HW113430   4.244   4.716   2.779
 4177SOL    HW213431   4.131   4.723   2.662
 4178SOL     OW13432   4.176   5.587   1.196
 4178SOL    HW113433   4.121   5.562   1.116
 4178SOL    HW213434   4.172   5.512   1.263
 4179SOL     OW13435   5.387   2.974   5.711
 4179SOL    HW113436   5.480   2.995   5.741
 4179SOL    HW213437   5.386   2.964   5.612
 4180SOL     OW13438   4.271   4.065   0.383
 4180SOL    HW113439   4.270   4.011   0.299
 4180SOL    HW213440   4.204   4.030   0.447
 4181SOL     OW13441   4.671   6.724   4.829
 4181SOL    HW113442   4.597   6.656   4.827
 4181SOL    HW213443   4.635   6.811   4.864
 4182SOL     OW13444   7.025   6.636   4.799
 4182SOL    HW113445   6.958   6.669   4.866
 4182SOL    HW213446   0.067   6.706   4.783
 4183SOL     OW13447   4.195   1.832   0.948
 4183SOL    HW113448   4.208   1.924   0.910
 4183SOL    HW213449   4.171   1.840   1.045
 4184SOL     OW13450   3.538   5.670   3.629
 4184SOL    HW113451   3.613   5.681   3.563
 4184SOL    HW213452   3.523   5.756   3.676
 4185SOL     OW13453   5.771   3.017   3.249
 4185SOL    HW113454   5.829   2.980   3.177
 4185SOL    HW213455   5.675   3.001   3.227
 4186SOL     OW13456   1.503   6.346   0.507
 4186SOL    HW113457   1.573   6.288   0.466
 4186SOL    HW213458   1.425   6.291   0.534
 4187SOL     OW13459   1.920   3.564   6.469
 4187SOL    HW113460   1.961   3.576   6.379
 4187SOL    HW213461   1.993   3.549   6.536
 4188SOL     OW13462   4.325   6.920   0.407
 4188SOL    HW113463   4.275   6.992   0.360
 4188SOL    HW213464   4.263   6.867   0.465
 4189SOL     OW13465   5.071   4.864   4.004
 4189SOL    HW113466   5.014   4.913   4.070
 4189SOL    HW213467   5.049   4.896   3.912
 4190SOL     OW13468   6.690   5.840   1.398
 4190SOL    HW113469   6.786   5.852   1.370
 4190SOL    HW213470   6.687   5.810   1.493
 4191SOL     OW13471   4.755   4.666   6.622
 4191SOL    HW113472   4.822   4.619   6.565
 4191SOL    HW213473   4.683   4.602   6.648
 4192SOL     OW13474   1.346   3.094   1.258
 4192SOL    HW113475   1.342   3.177   1.202
 4192SOL    HW213476   1.350   3.013   1.198
 4193SOL     OW13477   0.311   0.725   0.802
 4193SOL    HW113478   0.350   0.812   0.774
 4193SOL    HW213479   0.381   0.653   0.794
 4194SOL     OW13480   4.479   1.365   5.374
 4194SOL    HW113481   4.501   1.302   5.300
 4194SOL    HW213482   4.559   1.379   5.432
 4195SOL     OW13483   3.494   6.125   0.744
 4195SOL    HW113484   3.591   6.103   0.737
 4195SOL    HW213485   3.455   6.078   0.824
 4196SOL     OW13486   6.314   3.450   1.965
 4196SOL    HW113487   6.232   3.425   2.016
 4196SOL    HW213488   6.364   3.521   2.016
 4197SOL     OW13489   3.723   1.046   6.885
 4197SOL    HW113490   3.795   1.083   6.942
 4197SOL    HW213491   3.730   0.946   6.882
 4198SOL     OW13492   6.450   2.144   2.567
 4198SOL    HW113493   6.409   2.065   2.522
 4198SOL    HW213494   6.540   2.119   2.603
 4199SOL     OW13495   0.601   4.065   5.928
 4199SOL    HW113496   0.578   3.978   5.971
 4199SOL    HW213497   0.542   4.080   5.850
 4200SOL     OW13498   4.960   1.070   3.603
 4200SOL    HW113499   4.949   0.971   3.613
 4200SOL    HW213500   5.043   1.090   3.552
 4201SOL     OW13501   5.581   6.435   3.988
 4201SOL    HW113502   5.511   6.395   4.047
 4201SOL    HW213503   5.539   6.466   3.903
 4202SOL     OW13504   5.176   4.193   1.122
 4202SOL    HW113505   5.188   4.208   1.024
 4202SOL    HW213506   5.139   4.275   1.165
 4203SOL     OW13507   6.372   5.611   6.200
 4203SOL    HW113508   6.376   5.656   6.111
 4203SOL    HW213509   6.315   5.665   6.262
 4204SOL     OW13510   2.489   3.426   6.276
 4204SOL    HW113511   2.396   3.390   6.270
 4204SOL    HW213512   2.554   3.351   6.286
 4205SOL     OW13513   3.748   6.637   5.495
 4205SOL    HW113514   3.662   6.599   5.530
 4205SOL    HW213515   3.820   6.568   5.502
 4206SOL     OW13516   1.552   2.371   4.678
 4206SOL    HW113517   1.582   2.284   4.716
 4206SOL    HW213518   1.497   2.420   4.745
 4207SOL     OW13519   1.617   2.332   2.274
 4207SOL    HW113520   1.660   2.395   2.210
 4207SOL    HW213521   1.523   2.363   2.293
 4208SOL     OW13522   2.111   3.581   4.575
 4208SOL    HW113523   2.131   3.641   4.653
 4208SOL    HW213524   2.014   3.560   4.573
 4209SOL     OW13525   6.755   6.519   2.313
 4209SOL    HW113526   6.855   6.526   2.315
 4209SOL    HW213527   6.716   6.578   2.384
 4210SOL     OW13528   3.954   3.659   4.862
 4210SOL    HW113529   4.003   3.664   4.775
 4210SOL    HW213530   3.905   3.744   4.877
 4211SOL     OW13531   4.396   2.500   5.451
 4211SOL    HW113532   4.458   2.538   5.518
 4211SOL    HW213533   4.336   2.433   5.495
 4212SOL     OW13534   0.213   2.533   3.474
 4212SOL    HW113535   0.266   2.451   3.497
 4212SOL    HW213536   0.125   2.506   3.434
 4213SOL     OW13537   3.208   0.921   3.471
 4213SOL    HW113538   3.135   0.886   3.529
 4213SOL    HW213539   3.172   0.939   3.379
 4214SOL     OW13540   0.151   5.862   3.662
 4214SOL    HW113541   0.206   5.907   3.733
 4214SOL    HW213542   0.111   5.932   3.602
 4215SOL     OW13543   4.710   6.494   5.318
 4215SOL    HW113544   4.658   6.521   5.400
 4215SOL    HW213545   4.752   6.405   5.333
 4216SOL     OW13546   2.496   5.920   1.950
 4216SOL    HW113547   2.562   5.979   1.903
 4216SOL    HW213548   2.545   5.855   2.007
 4217SOL     OW13549   0.795   0.372   2.663
 4217SOL    HW113550   0.875   0.360   2.721
 4217SOL    HW213551   0.745   0.454   2.692
 4218SOL     OW13552   2.989   1.560   1.408
 4218SOL    HW113553   2.933   1.477   1.412
 4218SOL    HW213554   2.931   1.640   1.422
 4219SOL     OW13555   4.655   5.585   3.150
 4219SOL    HW113556   4.562   5.550   3.160
 4219SOL    HW213557   4.653   5.685   3.154
 4220SOL     OW13558   5.396   2.032   1.963
 4220SOL    HW113559   5.461   1.976   2.015
 4220SOL    HW213560   5.395   2.124   2.001
 4221SOL     OW13561   0.501   6.220   0.012
 4221SOL    HW113562   0.531   6.298   0.066
 4221SOL    HW213563   0.412   6.239   6.998
 4222SOL     OW13564   5.016   2.765   4.157
 4222SOL    HW113565   4.944   2.765   4.227
 4222SOL    HW213566   5.034   2.671   4.127
 4223SOL     OW13567   4.111   3.625   2.219
 4223SOL    HW113568   4.101   3.562   2.142
 4223SOL    HW213569   4.177   3.588   2.284
 4224SOL     OW13570   4.924   3.596   4.539
 4224SOL    HW113571   5.016   3.624   4.510
 4224SOL    HW213572   4.914   3.497   4.527
 4225SOL     OW13573   0.145   1.755   5.378
 4225SOL    HW113574   0.086   1.811   5.436
 4225SOL    HW213575   0.240   1.763   5.409
 4226SOL     OW13576   1.313   5.811   4.981
 4226SOL    HW113577   1.341   5.904   5.004
 4226SOL    HW213578   1.245   5.780   5.048
 4227SOL     OW13579   5.427   5.352   2.541
 4227SOL    HW113580   5.347   5.293   2.544
 4227SOL    HW213581   5.497   5.316   2.604
 4228SOL     OW13582   1.706   5.198   4.120
 4228SOL    HW113583   1.728   5.135   4.194
 4228SOL    HW213584   1.632   5.160   4.065
 4229SOL     OW13585   6.462   4.739   5.072
 4229SOL    HW113586   6.424   4.691   5.151
 4229SOL    HW213587   6.502   4.673   5.008
 4230SOL     OW13588   0.611   0.602   2.179
 4230SOL    HW113589   0.524   0.632   2.140
 4230SOL    HW213590   0.667   0.559   2.108
 4231SOL     OW13591   5.915   1.453   5.616
 4231SOL    HW113592   6.014   1.465   5.607
 4231SOL    HW213593   5.892   1.437   5.712
 4232SOL     OW13594   1.539   5.975   3.707
 4232SOL    HW113595   1.572   5.893   3.755
 4232SOL    HW213596   1.512   5.950   3.614
 4233SOL     OW13597   4.800   4.975   3.448
 4233SOL    HW113598   4.875   4.919   3.484
 4233SOL    HW213599   4.719   4.918   3.436
 4234SOL     OW13600   2.930   5.671   6.212
 4234SOL    HW113601   2.830   5.669   6.205
 4234SOL    HW213602   2.968   5.722   6.135
 4235SOL     OW13603   0.562   6.002   5.587
 4235SOL    HW113604   0.493   6.058   5.634
 4235SOL    HW213605   0.653   6.033   5.615
 4236SOL     OW13606   0.280   5.409   2.877
 4236SOL    HW113607   0.286   5.491   2.820
 4236SOL    HW213608   0.200   5.355   2.849
 4237SOL     OW13609   6.911   4.768   3.871
 4237SOL    HW113610   6.876   4.775   3.778
 4237SOL    HW213611   6.880   4.846   3.925
 4238SOL     OW13612   2.619   6.730   2.668
 4238SOL    HW113613   2.575   6.641   2.654
 4238SOL    HW213614   2.604   6.787   2.587
 4239SOL     OW13615   4.438   1.022   3.719
 4239SOL    HW113616   4.405   1.076   3.796
 4239SOL    HW213617   4.405   1.061   3.633
 4240SOL     OW13618   6.979   6.480   1.074
 4240SOL    HW113619   0.047   6.470   1.103
 4240SOL    HW213620   6.925   6.404   1.110
 4241SOL     OW13621   6.400   3.107   0.647
 4241SOL    HW113622   6.400   3.086   0.745
 4241SOL    HW213623   6.306   3.100   0.612
 4242SOL     OW13624   1.967   1.620   3.475
 4242SOL    HW113625   2.066   1.624   3.465
 4242SOL    HW213626   1.942   1.636   3.571
 4243SOL     OW13627   5.093   0.227   3.074
 4243SOL    HW113628   5.078   0.267   3.164
 4243SOL    HW213629   5.076   0.297   3.004
 4244SOL     OW13630   3.569   3.289   2.383
 4244SOL    HW113631   3.593   3.213   2.444
 4244SOL    HW213632   3.646   3.307   2.321
 4245SOL     OW13633   6.203   2.001   6.526
 4245SOL    HW113634   6.123   1.941   6.518
 4245SOL    HW213635   6.191   2.062   6.604
 4246SOL     OW13636   1.020   3.556   1.638
 4246SOL    HW113637   1.023   3.606   1.552
 4246SOL    HW213638   1.080   3.600   1.705
 4247SOL     OW13639   0.435   5.481   4.841
 4247SOL    HW113640   0.380   5.538   4.781
 4247SOL    HW213641   0.475   5.537   4.914
 4248SOL     OW13642   1.540   2.882   5.490
 4248SOL    HW113643   1.534   2.843   5.398
 4248SOL    HW213644   1.620   2.942   5.495
 4249SOL     OW13645   5.476   3.741   5.828
 4249SOL    HW113646   5.458   3.782   5.918
 4249SOL    HW213647   5.543   3.667   5.838
 4250SOL     OW13648   0.358   4.337   3.144
 4250SOL    HW113649   0.336   4.388   3.228
 4250SOL    HW213650   0.457   4.322   3.138
 4251SOL     OW13651   5.806   4.140   0.685
 4251SOL    HW113652   5.902   4.161   0.703
 4251SOL    HW213653   5.785   4.160   0.589
 4252SOL     OW13654   0.584   5.618   5.601
 4252SOL    HW113655   0.580   5.583   5.508
 4252SOL    HW213656   0.527   5.699   5.610
 4253SOL     OW13657   4.568   6.813   2.233
 4253SOL    HW113658   4.516   6.896   2.253
 4253SOL    HW213659   4.504   6.737   2.216
 4254SOL     OW13660   2.483   4.400   1.220
 4254SOL    HW113661   2.579   4.377   1.234
 4254SOL    HW213662   2.431   4.377   1.303
 4255SOL     OW13663   0.408   2.469   5.084
 4255SOL    HW113664   0.325   2.418   5.108
 4255SOL    HW213665   0.445   2.434   4.998
 4256SOL     OW13666   2.150   0.135   1.457
 4256SOL    HW113667   2.163   0.196   1.378
 4256SOL    HW213668   2.060   0.091   1.449
 4257SOL     OW13669   3.809   1.806   4.688
 4257SOL    HW113670   3.807   1.775   4.593
 4257SOL    HW213671   3.824   1.729   4.749
 4258SOL     OW13672   5.503   6.453   2.216
 4258SOL    HW113673   5.465   6.397   2.290
 4258SOL    HW213674   5.433   6.516   2.182
 4259SOL     OW13675   2.398   2.484   0.295
 4259SOL    HW113676   2.393   2.525   0.386
 4259SOL    HW213677   2.465   2.533   0.240
 4260SOL     OW13678   5.068   5.522   3.780
 4260SOL    HW113679   5.120   5.548   3.698
 4260SOL    HW213680   4.978   5.488   3.753
 4261SOL     OW13681   1.369   6.715   2.060
 4261SOL    HW113682   1.273   6.736   2.045
 4261SOL    HW213683   1.405   6.662   1.983
 4262SOL     OW13684   0.881   5.043   6.521
 4262SOL    HW113685   0.793   5.088   6.539
 4262SOL    HW213686   0.894   4.969   6.587
 4263SOL     OW13687   3.272   4.895   5.386
 4263SOL    HW113688   3.255   4.807   5.342
 4263SOL    HW213689   3.332   4.950   5.328
 4264SOL     OW13690   0.269   0.416   1.100
 4264SOL    HW113691   0.235   0.392   1.191
 4264SOL    HW213692   0.194   0.454   1.045
 4265SOL     OW13693   6.773   1.572   0.843
 4265SOL    HW113694   6.778   1.472   0.835
 4265SOL    HW213695   6.755   1.611   0.753
 4266SOL     OW13696   2.518   5.120   0.770
 4266SOL    HW113697   2.550   5.090   0.861
 4266SOL    HW213698   2.526   5.044   0.706
 4267SOL     OW13699   1.636   3.728   5.107
 4267SOL    HW113700   1.595   3.809   5.148
 4267SOL    HW213701   1.724   3.710   5.151
 4268SOL     OW13702   2.218   0.855   0.472
 4268SOL    HW113703   2.138   0.838   0.414
 4268SOL    HW213704   2.250   0.948   0.458
 4269SOL     OW13705   3.032   3.152   0.383
 4269SOL    HW113706   3.055   3.083   0.314
 4269SOL    HW213707   2.941   3.188   0.365
 4270SOL     OW13708   3.376   2.913   4.922
 4270SOL    HW113709   3.335   2.947   4.837
 4270SOL    HW213710   3.451   2.851   4.900
 4271SOL     OW13711   0.683   0.019   6.385
 4271SOL    HW113712   0.643   6.966   6.429
 4271SOL    HW213713   0.621   0.054   6.315
 4272SOL     OW13714   0.250   4.800   4.797
 4272SOL    HW113715   0.311   4.875   4.774
 4272SOL    HW213716   0.168   4.804   4.739
 4273SOL     OW13717   5.336   6.781   5.633
 4273SOL    HW113718   5.369   6.752   5.723
 4273SOL    HW213719   5.362   6.714   5.564
 4274SOL     OW13720   1.631   6.597   3.646
 4274SOL    HW113721   1.724   6.628   3.663
 4274SOL    HW213722   1.597   6.637   3.561
 4275SOL     OW13723   0.993   6.990   6.116
 4275SOL    HW113724   0.958   0.035   6.055
 4275SOL    HW213725   0.949   6.903   6.093
 4276SOL     OW13726   2.278   4.240   2.429
 4276SOL    HW113727   2.246   4.155   2.470
 4276SOL    HW213728   2.274   4.232   2.329
 4277SOL     OW13729   0.078   5.216   3.596
 4277SOL    HW113730   0.088   5.252   3.689
 4277SOL    HW213731   0.100   5.288   3.530
 4278SOL     OW13732   6.811   0.373   5.493
 4278SOL    HW113733   6.791   0.313   5.570
 4278SOL    HW213734   6.726   0.396   5.446
 4279SOL     OW13735   3.280   6.475   5.193
 4279SOL    HW113736   3.229   6.393   5.220
 4279SOL    HW213737   3.372   6.471   5.231
 4280SOL     OW13738   5.242   2.292   4.103
 4280SOL    HW113739   5.227   2.293   4.202
 4280SOL    HW213740   5.253   2.386   4.070
 4281SOL     OW13741   2.254   4.294   4.982
 4281SOL    HW113742   2.291   4.201   4.984
 4281SOL    HW213743   2.227   4.316   4.888
 4282SOL     OW13744   2.038   2.522   1.225
 4282SOL    HW113745   2.049   2.462   1.304
 4282SOL    HW213746   1.943   2.518   1.193
 4283SOL     OW13747   1.883   0.332   4.342
 4283SOL    HW113748   1.924   0.413   4.300
 4283SOL    HW213749   1.795   0.356   4.382
 4284SOL     OW13750   6.076   2.201   2.708
 4284SOL    HW113751   6.018   2.243   2.638
 4284SOL    HW213752   6.172   2.220   2.687
 4285SOL     OW13753   1.280   6.896   5.800
 4285SOL    HW113754   1.202   6.858   5.750
 4285SOL    HW213755   1.362   6.845   5.778
 4286SOL     OW13756   4.963   6.003   0.568
 4286SOL    HW113757   4.926   5.985   0.477
 4286SOL    HW213758   4.901   6.064   0.618
 4287SOL     OW13759   5.360   6.768   4.658
 4287SOL    HW113760   5.370   6.848   4.599
 4287SOL    HW213761   5.366   6.685   4.603
 4288SOL     OW13762   1.536   6.532   2.973
 4288SOL    HW113763   1.478   6.500   3.049
 4288SOL    HW213764   1.593   6.457   2.941
 4289SOL     OW13765   5.786   2.775   1.359
 4289SOL    HW113766   5.810   2.714   1.283
 4289SOL    HW213767   5.773   2.868   1.325
 4290SOL     OW13768   2.304   0.717   1.685
 4290SOL    HW113769   2.205   0.723   1.675
 4290SOL    HW213770   2.347   0.785   1.625
 4291SOL     OW13771   6.212   3.734   0.994
 4291SOL    HW113772   6.133   3.673   0.998
 4291SOL    HW213773   6.235   3.766   1.086
 4292SOL     OW13774   5.776   5.214   6.692
 4292SOL    HW113775   5.682   5.247   6.692
 4292SOL    HW213776   5.801   5.183   6.784
 4293SOL     OW13777   0.038   2.939   6.976
 4293SOL    HW113778   0.053   2.979   6.886
 4293SOL    HW213779   6.968   2.940   6.997
 4294SOL     OW13780   4.391   2.339   5.840
 4294SOL    HW113781   4.451   2.418   5.827
 4294SOL    HW213782   4.430   2.260   5.792
 4295SOL     OW13783   3.452   0.423   4.476
 4295SOL    HW113784   3.500   0.458   4.557
 4295SOL    HW213785   3.384   0.490   4.447
 4296SOL     OW13786   2.556   1.783   1.368
 4296SOL    HW113787   2.573   1.831   1.281
 4296SOL    HW213788   2.494   1.706   1.352
 4297SOL     OW13789   5.397   0.761   5.298
 4297SOL    HW113790   5.439   0.766   5.389
 4297SOL    HW213791   5.444   0.691   5.244
 4298SOL     OW13792   2.555   6.028   1.460
 4298SOL    HW113793   2.654   6.015   1.452
 4298SOL    HW213794   2.512   6.014   1.372
 4299SOL     OW13795   0.663   3.523   6.416
 4299SOL    HW113796   0.735   3.593   6.414
 4299SOL    HW213797   0.675   3.461   6.339
 4300SOL     OW13798   4.719   1.167   6.643
 4300SOL    HW113799   4.707   1.265   6.657
 4300SOL    HW213800   4.763   1.150   6.555
 4301SOL     OW13801   2.774   1.762   0.633
 4301SOL    HW113802   2.793   1.738   0.728
 4301SOL    HW213803   2.682   1.733   0.608
 4302SOL     OW13804   1.058   6.574   6.781
 4302SOL    HW113805   1.052   6.558   6.880
 4302SOL    HW213806   0.991   6.643   6.755
 4303SOL     OW13807   0.101   3.244   2.216
 4303SOL    HW113808   0.058   3.158   2.241
 4303SOL    HW213809   0.192   3.249   2.257
 4304SOL     OW13810   3.309   3.731   4.275
 4304SOL    HW113811   3.371   3.685   4.339
 4304SOL    HW213812   3.219   3.741   4.317
 4305SOL     OW13813   6.359   1.362   3.541
 4305SOL    HW113814   6.373   1.284   3.480
 4305SOL    HW213815   6.359   1.446   3.487
 4306SOL     OW13816   6.485   4.738   5.727
 4306SOL    HW113817   6.547   4.735   5.806
 4306SOL    HW213818   6.536   4.763   5.645
 4307SOL     OW13819   5.232   3.996   6.330
 4307SOL    HW113820   5.245   3.993   6.230
 4307SOL    HW213821   5.179   4.078   6.353
 4308SOL     OW13822   5.305   6.184   4.598
 4308SOL    HW113823   5.256   6.117   4.541
 4308SOL    HW213824   5.354   6.136   4.671
 4309SOL     OW13825   1.377   1.480   0.411
 4309SOL    HW113826   1.436   1.543   0.460
 4309SOL    HW213827   1.290   1.470   0.460
 4310SOL     OW13828   1.869   1.668   2.961
 4310SOL    HW113829   1.801   1.623   2.902
 4310SOL    HW213830   1.823   1.734   3.020
 4311SOL     OW13831   2.187   5.957   3.476
 4311SOL    HW113832   2.238   6.012   3.410
 4311SOL    HW213833   2.184   5.862   3.445
 4312SOL     OW13834   1.879   5.204   1.990
 4312SOL    HW113835   1.819   5.188   1.911
 4312SOL    HW213836   1.845   5.283   2.042
 4313SOL     OW13837   4.927   0.929   2.118
 4313SOL    HW113838   4.874   0.953   2.037
 4313SOL    HW213839   4.866   0.893   2.188
 4314SOL     OW13840   4.939   3.400   2.618
 4314SOL    HW113841   4.893   3.312   2.625
 4314SOL    HW213842   5.018   3.392   2.558
 4315SOL     OW13843   2.461   0.656   1.922
 4315SOL    HW113844   2.434   0.666   1.826
 4315SOL    HW213845   2.455   0.560   1.949
 4316SOL     OW13846   6.278   0.670   1.868
 4316SOL    HW113847   6.375   0.697   1.869
 4316SOL    HW213848   6.271   0.571   1.857
 4317SOL     OW13849   3.472   0.896   3.669
 4317SOL    HW113850   3.544   0.855   3.613
 4317SOL    HW213851   3.383   0.869   3.634
 4318SOL     OW13852   0.391   3.048   3.856
 4318SOL    HW113853   0.445   3.058   3.940
 4318SOL    HW213854   0.410   2.959   3.814
 4319SOL     OW13855   2.474   3.587   6.571
 4319SOL    HW113856   2.407   3.660   6.580
 4319SOL    HW213857   2.493   3.570   6.474
 4320SOL     OW13858   0.420   6.619   2.828
 4320SOL    HW113859   0.334   6.574   2.851
 4320SOL    HW213860   0.410   6.718   2.836
 4321SOL     OW13861   6.925   0.459   5.211
 4321SOL    HW113862   6.903   0.442   5.307
 4321SOL    HW213863   7.025   0.463   5.201
 4322SOL     OW13864   5.910   0.967   0.380
 4322SOL    HW113865   5.951   0.887   0.336
 4322SOL    HW213866   5.978   1.011   0.438
 4323SOL     OW13867   6.705   3.436   2.909
 4323SOL    HW113868   6.713   3.348   2.955
 4323SOL    HW213869   6.790   3.458   2.862
 4324SOL     OW13870   5.849   3.988   6.255
 4324SOL    HW113871   5.789   3.998   6.175
 4324SOL    HW213872   5.858   4.077   6.301
 4325SOL     OW13873   1.868   1.579   6.653
 4325SOL    HW113874   1.786   1.590   6.597
 4325SOL    HW213875   1.867   1.489   6.696
 4326SOL     OW13876   6.229   3.160   5.085
 4326SOL    HW113877   6.265   3.115   5.167
 4326SOL    HW213878   6.222   3.094   5.011
 4327SOL     OW13879   6.275   6.432   2.617
 4327SOL    HW113880   6.184   6.451   2.581
 4327SOL    HW213881   6.270   6.362   2.687
 4328SOL     OW13882   5.265   5.238   6.843
 4328SOL    HW113883   5.223   5.261   6.931
 4328SOL    HW213884   5.194   5.222   6.775
 4329SOL     OW13885   4.527   2.141   5.680
 4329SOL    HW113886   4.539   2.135   5.581
 4329SOL    HW213887   4.474   2.062   5.712
 4330SOL     OW13888   0.995   0.155   5.912
 4330SOL    HW113889   1.023   0.082   5.850
 4330SOL    HW213890   1.031   0.243   5.879
 4331SOL     OW13891   5.951   2.370   6.667
 4331SOL    HW113892   5.944   2.301   6.594
 4331SOL    HW213893   5.943   2.461   6.627
 4332SOL     OW13894   4.943   2.845   1.933
 4332SOL    HW113895   5.015   2.906   1.969
 4332SOL    HW213896   4.855   2.892   1.940
 4333SOL     OW13897   5.355   0.864   4.500
 4333SOL    HW113898   5.362   0.868   4.600
 4333SOL    HW213899   5.410   0.938   4.460
 4334SOL     OW13900   4.000   1.759   1.937
 4334SOL    HW113901   3.911   1.801   1.923
 4334SOL    HW213902   4.029   1.772   2.032
 4335SOL     OW13903   3.118   4.161   5.182
 4335SOL    HW113904   3.137   4.143   5.085
 4335SOL    HW213905   3.099   4.074   5.228
 4336SOL     OW13906   1.371   6.797   4.400
 4336SOL    HW113907   1.408   6.756   4.317
 4336SOL    HW213908   1.377   6.732   4.475
 4337SOL     OW13909   6.860   5.593   0.469
 4337SOL    HW113910   6.863   5.526   0.544
 4337SOL    HW213911   6.833   5.548   0.385
 4338SOL     OW13912   6.624   6.127   4.199
 4338SOL    HW113913   6.708   6.083   4.230
 4338SOL    HW213914   6.545   6.073   4.228
 4339SOL     OW13915   6.193   1.465   5.572
 4339SOL    HW113916   6.229   1.557   5.551
 4339SOL    HW213917   6.204   1.406   5.492
 4340SOL     OW13918   5.474   3.708   1.557
 4340SOL    HW113919   5.441   3.802   1.546
 4340SOL    HW213920   5.428   3.649   1.489
 4341SOL     OW13921   1.517   4.270   1.398
 4341SOL    HW113922   1.545   4.313   1.483
 4341SOL    HW213923   1.425   4.302   1.373
 4342SOL     OW13924   0.842   3.062   3.228
 4342SOL    HW113925   0.778   3.093   3.298
 4342SOL    HW213926   0.888   3.140   3.187
 4343SOL     OW13927   3.145   1.225   1.093
 4343SOL    HW113928   3.227   1.283   1.088
 4343SOL    HW213929   3.064   1.283   1.088
 4344SOL     OW13930   2.032   4.974   3.212
 4344SOL    HW113931   2.019   4.930   3.300
 4344SOL    HW213932   2.124   4.956   3.178
 4345SOL     OW13933   1.456   2.002   5.745
 4345SOL    HW113934   1.362   1.992   5.778
 4345SOL    HW213935   1.514   2.032   5.820
 4346SOL     OW13936   2.031   3.463   1.839
 4346SOL    HW113937   2.121   3.486   1.876
 4346SOL    HW213938   2.004   3.533   1.773
 4347SOL     OW13939   5.606   6.727   2.939
 4347SOL    HW113940   5.523   6.673   2.927
 4347SOL    HW213941   5.679   6.669   2.973
 4348SOL     OW13942   1.675   4.178   6.781
 4348SOL    HW113943   1.667   4.153   6.877
 4348SOL    HW213944   1.615   4.255   6.761
 4349SOL     OW13945   0.438   1.507   3.626
 4349SOL    HW113946   0.492   1.500   3.710
 4349SOL    HW213947   0.486   1.463   3.551
 4350SOL     OW13948   5.246   2.257   3.826
 4350SOL    HW113949   5.240   2.253   3.926
 4350SOL    HW213950   5.301   2.181   3.794
 4351SOL     OW13951   2.966   6.025   1.823
 4351SOL    HW113952   2.939   6.006   1.728
 4351SOL    HW213953   2.954   5.942   1.877
 4352SOL     OW13954   6.819   1.033   2.312
 4352SOL    HW113955   6.850   1.019   2.218
 4352SOL    HW213956   6.851   1.122   2.345
 4353SOL     OW13957   3.313   5.747   6.481
 4353SOL    HW113958   3.384   5.813   6.458
 4353SOL    HW213959   3.229   5.795   6.504
 4354SOL     OW13960   2.178   0.054   0.216
 4354SOL    HW113961   2.095   0.048   0.159
 4354SOL    HW213962   2.251   0.001   0.173
 4355SOL     OW13963   4.511   1.242   0.349
 4355SOL    HW113964   4.432   1.303   0.348
 4355SOL    HW213965   4.481   1.147   0.346
 4356SOL     OW13966   4.087   3.997   0.576
 4356SOL    HW113967   4.135   3.962   0.657
 4356SOL    HW213968   4.054   4.090   0.594
 4357SOL     OW13969   5.983   0.176   6.855
 4357SOL    HW113970   6.030   0.119   6.923
 4357SOL    HW213971   5.915   0.121   6.806
 4358SOL     OW13972   0.863   6.842   1.759
 4358SOL    HW113973   0.957   6.878   1.757
 4358SOL    HW213974   0.849   6.790   1.843
 4359SOL     OW13975   0.211   2.400   3.846
 4359SOL    HW113976   0.190   2.367   3.937
 4359SOL    HW213977   0.153   2.479   3.825
 4360SOL     OW13978   1.247   3.284   1.658
 4360SOL    HW113979   1.229   3.362   1.598
 4360SOL    HW213980   1.219   3.306   1.751
 4361SOL     OW13981   4.946   2.360   2.008
 4361SOL    HW113982   4.942   2.429   2.080
 4361SOL    HW213983   5.028   2.373   1.953
 4362SOL     OW13984   6.362   4.065   4.591
 4362SOL    HW113985   6.340   3.968   4.588
 4362SOL    HW213986   6.406   4.092   4.505
 4363SOL     OW13987   4.887   2.477   5.789
 4363SOL    HW113988   4.945   2.398   5.806
 4363SOL    HW213989   4.925   2.557   5.836
 4364SOL     OW13990   3.195   4.083   4.488
 4364SOL    HW113991   3.285   4.084   4.444
 4364SOL    HW213992   3.155   4.174   4.484
 4365SOL     OW13993   3.890   2.197   2.766
 4365SOL    HW113994   3.869   2.292   2.786
 4365SOL    HW213995   3.981   2.189   2.726
 4366SOL     OW13996   5.870   5.707   0.984
 4366SOL    HW113997   5.774   5.722   0.963
 4366SOL    HW213998   5.914   5.795   1.004
 4367SOL     OW13999   1.688   6.528   6.126
 4367SOL    HW114000   1.733   6.552   6.212
 4367SOL    HW214001   1.616   6.462   6.144
 4368SOL     OW14002   5.704   3.924   1.906
 4368SOL    HW114003   5.707   3.964   1.997
 4368SOL    HW214004   5.673   3.992   1.840
 4369SOL     OW14005   4.631   5.679   2.118
 4369SOL    HW114006   4.631   5.700   2.020
 4369SOL    HW214007   4.723   5.690   2.155
 4370SOL     OW14008   5.788   4.921   3.561
 4370SOL    HW114009   5.789   4.822   3.546
 4370SOL    HW214010   5.834   4.967   3.485
 4371SOL     OW14011   6.353   1.725   2.053
 4371SOL    HW114012   6.311   1.792   2.114
 4371SOL    HW214013   6.282   1.679   2.000
 4372SOL     OW14014   4.440   1.243   3.887
 4372SOL    HW114015   4.350   1.283   3.870
 4372SOL    HW214016   4.457   1.239   3.985
 4373SOL     OW14017   6.452   1.899   6.662
 4373SOL    HW114018   6.528   1.878   6.601
 4373SOL    HW214019   6.373   1.929   6.608
 4374SOL     OW14020   1.955   2.615   1.568
 4374SOL    HW114021   1.861   2.619   1.602
 4374SOL    HW214022   1.973   2.526   1.527
 4375SOL     OW14023   2.664   6.727   4.687
 4375SOL    HW114024   2.686   6.645   4.741
 4375SOL    HW214025   2.668   6.705   4.590
 4376SOL     OW14026   5.788   0.836   2.760
 4376SOL    HW114027   5.723   0.876   2.695
 4376SOL    HW214028   5.870   0.806   2.710
 4377SOL     OW14029   5.944   4.470   6.752
 4377SOL    HW114030   5.846   4.479   6.734
 4377SOL    HW214031   5.966   4.375   6.771
 4378SOL     OW14032   1.680   0.263   4.109
 4378SOL    HW114033   1.631   0.182   4.141
 4378SOL    HW214034   1.762   0.276   4.164
 4379SOL     OW14035   2.759   2.069   5.280
 4379SOL    HW114036   2.664   2.064   5.250
 4379SOL    HW214037   2.811   2.127   5.217
 4380SOL     OW14038   0.541   1.347   1.720
 4380SOL    HW114039   0.511   1.333   1.625
 4380SOL    HW214040   0.590   1.266   1.751
 4381SOL     OW14041   2.513   6.532   5.655
 4381SOL    HW114042   2.444   6.559   5.587
 4381SOL    HW214043   2.602   6.523   5.610
 4382SOL     OW14044   6.807   3.673   5.432
 4382SOL    HW114045   6.874   3.748   5.432
 4382SOL    HW214046   6.768   3.664   5.524
 4383SOL     OW14047   5.464   2.785   0.175
 4383SOL    HW114048   5.425   2.787   0.083
 4383SOL    HW214049   5.409   2.725   0.233
 4384SOL     OW14050   6.235   6.270   3.982
 4384SOL    HW114051   6.236   6.173   4.009
 4384SOL    HW214052   6.287   6.323   4.048
 4385SOL     OW14053   5.863   1.874   4.416
 4385SOL    HW114054   5.873   1.969   4.445
 4385SOL    HW214055   5.780   1.865   4.361
 4386SOL     OW14056   0.912   3.202   5.534
 4386SOL    HW114057   0.818   3.168   5.532
 4386SOL    HW214058   0.923   3.264   5.612
 4387SOL     OW14059   6.617   2.101   0.231
 4387SOL    HW114060   6.707   2.066   0.258
 4387SOL    HW214061   6.551   2.026   0.229
 4388SOL     OW14062   4.974   1.771   6.622
 4388SOL    HW114063   5.018   1.852   6.661
 4388SOL    HW214064   5.027   1.689   6.645
 4389SOL     OW14065   0.658   3.766   1.805
 4389SOL    HW114066   0.609   3.795   1.723
 4389SOL    HW214067   0.735   3.827   1.822
 4390SOL     OW14068   6.760   0.458   2.043
 4390SOL    HW114069   6.670   0.454   2.087
 4390SOL    HW214070   6.822   0.393   2.088
 4391SOL     OW14071   2.111   6.060   6.611
 4391SOL    HW114072   2.135   6.023   6.521
 4391SOL    HW214073   2.058   6.143   6.599
 4392SOL     OW14074   2.050   2.538   5.222
 4392SOL    HW114075   2.063   2.542   5.321
 4392SOL    HW214076   2.074   2.626   5.182
 4393SOL     OW14077   4.932   0.742   1.706
 4393SOL    HW114078   4.987   0.771   1.784
 4393SOL    HW214079   4.983   0.754   1.622
 4394SOL     OW14080   1.402   0.253   1.278
 4394SOL    HW114081   1.316   0.205   1.258
 4394SOL    HW214082   1.448   0.275   1.192
 4395SOL     OW14083   2.550   5.671   1.303
 4395SOL    HW114084   2.588   5.753   1.260
 4395SOL    HW214085   2.480   5.697   1.369
 4396SOL     OW14086   2.509   6.963   3.128
 4396SOL    HW114087   2.489   6.885   3.188
 4396SOL    HW214088   2.519   6.930   3.034
 4397SOL     OW14089   2.746   1.937   4.251
 4397SOL    HW114090   2.699   2.020   4.223
 4397SOL    HW214091   2.797   1.900   4.173
 4398SOL     OW14092   2.230   2.751   5.719
 4398SOL    HW114093   2.320   2.768   5.680
 4398SOL    HW214094   2.169   2.827   5.697
 4399SOL     OW14095   3.159   6.999   2.244
 4399SOL    HW114096   3.248   7.014   2.202
 4399SOL    HW214097   3.166   7.010   2.343
 4400SOL     OW14098   1.849   5.319   4.626
 4400SOL    HW114099   1.926   5.261   4.654
 4400SOL    HW214100   1.767   5.263   4.615
 4401SOL     OW14101   3.664   0.291   6.162
 4401SOL    HW114102   3.576   0.259   6.198
 4401SOL    HW214103   3.727   0.214   6.153
 4402SOL     OW14104   1.478   0.301   3.039
 4402SOL    HW114105   1.440   0.211   3.016
 4402SOL    HW214106   1.414   0.348   3.100
 4403SOL     OW14107   1.544   5.036   1.237
 4403SOL    HW114108   1.444   5.025   1.240
 4403SOL    HW214109   1.586   4.969   1.299
 4404SOL     OW14110   0.785   6.528   6.067
 4404SOL    HW114111   0.686   6.521   6.049
 4404SOL    HW214112   0.809   6.469   6.144
 4405SOL     OW14113   1.681   5.163   3.611
 4405SOL    HW114114   1.674   5.067   3.636
 4405SOL    HW214115   1.764   5.178   3.558
 4406SOL     OW14116   6.431   3.683   2.066
 4406SOL    HW114117   6.529   3.672   2.050
 4406SOL    HW214118   6.417   3.742   2.145
 4407SOL     OW14119   6.407   6.265   1.854
 4407SOL    HW114120   6.319   6.299   1.885
 4407SOL    HW214121   6.480   6.322   1.892
 4408SOL     OW14122   3.997   0.598   0.812
 4408SOL    HW114123   4.080   0.651   0.794
 4408SOL    HW214124   3.930   0.656   0.858
 4409SOL     OW14125   3.430   0.463   2.575
 4409SOL    HW114126   3.505   0.427   2.632
 4409SOL    HW214127   3.456   0.553   2.540
 4410SOL     OW14128   1.044   6.308   1.099
 4410SOL    HW114129   1.071   6.387   1.153
 4410SOL    HW214130   0.989   6.338   1.021
 4411SOL     OW14131   3.352   4.571   5.353
 4411SOL    HW114132   3.357   4.471   5.347
 4411SOL    HW214133   3.356   4.598   5.450
 4412SOL     OW14134   5.268   6.449   2.593
 4412SOL    HW114135   5.313   6.486   2.674
 4412SOL    HW214136   5.337   6.430   2.522
 4413SOL     OW14137   4.449   6.188   3.862
 4413SOL    HW114138   4.425   6.218   3.770
 4413SOL    HW214139   4.501   6.260   3.908
 4414SOL     OW14140   4.346   3.953   1.027
 4414SOL    HW114141   4.423   4.007   0.995
 4414SOL    HW214142   4.366   3.916   1.118
 4415SOL     OW14143   2.809   3.605   1.122
 4415SOL    HW114144   2.816   3.638   1.216
 4415SOL    HW214145   2.715   3.577   1.103
 4416SOL     OW14146   4.570   2.418   2.786
 4416SOL    HW114147   4.648   2.411   2.848
 4416SOL    HW214148   4.491   2.373   2.826
 4417SOL     OW14149   0.283   3.721   3.843
 4417SOL    HW114150   0.317   3.728   3.749
 4417SOL    HW214151   0.264   3.625   3.864
 4418SOL     OW14152   6.072   6.691   6.460
 4418SOL    HW114153   6.029   6.766   6.510
 4418SOL    HW214154   6.161   6.669   6.501
 4419SOL     OW14155   6.608   5.772   6.262
 4419SOL    HW114156   6.548   5.849   6.284
 4419SOL    HW214157   6.557   5.704   6.209
 4420SOL     OW14158   3.608   2.449   0.660
 4420SOL    HW114159   3.599   2.380   0.732
 4420SOL    HW214160   3.610   2.540   0.700
 4421SOL     OW14161   1.435   2.498   5.319
 4421SOL    HW114162   1.436   2.459   5.226
 4421SOL    HW214163   1.449   2.425   5.386
 4422SOL     OW14164   6.963   4.328   6.799
 4422SOL    HW114165   0.034   4.345   6.788
 4422SOL    HW214166   6.914   4.365   6.720
 4423SOL     OW14167   5.535   4.323   5.205
 4423SOL    HW114168   5.588   4.403   5.231
 4423SOL    HW214169   5.592   4.241   5.212
 4424SOL     OW14170   4.841   5.531   3.522
 4424SOL    HW114171   4.751   5.513   3.483
 4424SOL    HW214172   4.884   5.444   3.547
 4425SOL     OW14173   1.932   5.586   1.840
 4425SOL    HW114174   1.895   5.556   1.928
 4425SOL    HW214175   1.926   5.685   1.833
 4426SOL     OW14176   0.921   0.105   4.174
 4426SOL    HW114177   1.018   0.112   4.195
 4426SOL    HW214178   0.873   0.184   4.211
 4427SOL     OW14179   2.732   6.374   2.456
 4427SOL    HW114180   2.824   6.335   2.460
 4427SOL    HW214181   2.738   6.472   2.438
 4428SOL     OW14182   5.853   0.404   3.641
 4428SOL    HW114183   5.873   0.457   3.723
 4428SOL    HW214184   5.794   0.327   3.665
 4429SOL     OW14185   2.593   6.221   3.046
 4429SOL    HW114186   2.579   6.314   3.080
 4429SOL    HW214187   2.690   6.206   3.027
 4430SOL     OW14188   5.292   4.382   5.359
 4430SOL    HW114189   5.227   4.425   5.296
 4430SOL    HW214190   5.375   4.358   5.309
 4431SOL     OW14191   3.174   7.001   3.861
 4431SOL    HW114192   3.197   0.019   3.774
 4431SOL    HW214193   3.226   0.016   3.935
 4432SOL     OW14194   1.180   4.097   6.050
 4432SOL    HW114195   1.109   4.049   5.997
 4432SOL    HW214196   1.137   4.165   6.109
 4433SOL     OW14197   0.397   0.729   5.094
 4433SOL    HW114198   0.428   0.821   5.118
 4433SOL    HW214199   0.417   0.712   4.997
 4434SOL     OW14200   0.002   0.491   2.362
 4434SOL    HW114201   0.094   0.504   2.400
 4434SOL    HW214202   6.976   0.432   2.422
 4435SOL     OW14203   2.247   3.225   0.366
 4435SOL    HW114204   2.282   3.317   0.381
 4435SOL    HW214205   2.155   3.230   0.327
 4436SOL     OW14206   4.067   1.205   1.868
 4436SOL    HW114207   3.989   1.268   1.865
 4436SOL    HW214208   4.144   1.245   1.818
 4437SOL     OW14209   0.306   3.925   0.848
 4437SOL    HW114210   0.209   3.930   0.825
 4437SOL    HW214211   0.360   3.952   0.769
 4438SOL     OW14212   3.779   0.983   5.823
 4438SOL    HW114213   3.724   0.957   5.743
 4438SOL    HW214214   3.720   0.987   5.904
 4439SOL     OW14215   2.078   6.403   2.521
 4439SOL    HW114216   1.985   6.380   2.493
 4439SOL    HW214217   2.134   6.321   2.522
 4440SOL     OW14218   1.389   4.963   0.325
 4440SOL    HW114219   1.372   5.037   0.391
 4440SOL    HW214220   1.309   4.955   0.265
 4441SOL     OW14221   6.966   0.732   0.495
 4441SOL    HW114222   7.023   0.762   0.418
 4441SOL    HW214223   7.008   0.763   0.581
 4442SOL     OW14224   1.889   4.865   6.268
 4442SOL    HW114225   1.802   4.828   6.301
 4442SOL    HW214226   1.934   4.797   6.210
 4443SOL     OW14227   0.208   5.761   6.098
 4443SOL    HW114228   0.256   5.699   6.160
 4443SOL    HW214229   0.174   5.840   6.149
 4444SOL     OW14230   5.694   4.521   0.209
 4444SOL    HW114231   5.701   4.462   0.128
 4444SOL    HW214232   5.684   4.464   0.290
 4445SOL     OW14233   0.206   5.719   0.180
 4445SOL    HW114234   0.304   5.731   0.162
 4445SOL    HW214235   0.157   5.803   0.158
 4446SOL     OW14236   5.320   0.523   0.728
 4446SOL    HW114237   5.246   0.590   0.736
 4446SOL    HW214238   5.310   0.454   0.799
 4447SOL     OW14239   5.149   5.426   5.520
 4447SOL    HW114240   5.169   5.378   5.434
 4447SOL    HW214241   5.110   5.516   5.500
 4448SOL     OW14242   4.056   6.344   2.074
 4448SOL    HW114243   4.074   6.253   2.110
 4448SOL    HW214244   4.047   6.409   2.150
 4449SOL     OW14245   3.423   1.507   5.505
 4449SOL    HW114246   3.449   1.521   5.409
 4449SOL    HW214247   3.500   1.468   5.555
 4450SOL     OW14248   3.181   6.890   0.203
 4450SOL    HW114249   3.183   6.990   0.204
 4450SOL    HW214250   3.263   6.855   0.248
 4451SOL     OW14251   5.149   4.492   2.966
 4451SOL    HW114252   5.134   4.498   3.065
 4451SOL    HW214253   5.090   4.421   2.928
 4452SOL     OW14254   4.842   6.184   4.726
 4452SOL    HW114255   4.911   6.161   4.795
 4452SOL    HW214256   4.751   6.160   4.761
 4453SOL     OW14257   6.972   3.608   0.693
 4453SOL    HW114258   0.015   3.569   0.752
 4453SOL    HW214259   6.892   3.632   0.749
 4454SOL     OW14260   0.993   2.342   6.610
 4454SOL    HW114261   0.923   2.271   6.620
 4454SOL    HW214262   0.976   2.394   6.526
 4455SOL     OW14263   0.200   6.628   5.379
 4455SOL    HW114264   0.285   6.608   5.330
 4455SOL    HW214265   0.204   6.721   5.415
 4456SOL     OW14266   2.087   0.303   4.813
 4456SOL    HW114267   2.025   0.335   4.885
 4456SOL    HW214268   2.033   0.270   4.736
 4457SOL     OW14269   1.171   2.691   5.044
 4457SOL    HW114270   1.216   2.744   4.973
 4457SOL    HW214271   1.085   2.734   5.069
 4458SOL     OW14272   1.549   3.791   6.703
 4458SOL    HW114273   1.640   3.832   6.706
 4458SOL    HW214274   1.552   3.700   6.745
 4459SOL     OW14275   1.373   2.753   3.017
 4459SOL    HW114276   1.285   2.781   2.977
 4459SOL    HW214277   1.448   2.788   2.960
 4460SOL     OW14278   6.572   3.306   4.371
 4460SOL    HW114279   6.584   3.210   4.396
 4460SOL    HW214280   6.607   3.364   4.443
 4461SOL     OW14281   2.883   1.026   1.113
 4461SOL    HW114282   2.896   1.062   1.021
 4461SOL    HW214283   2.926   1.088   1.179
 4462SOL     OW14284   6.357   4.464   3.181
 4462SOL    HW114285   6.440   4.520   3.173
 4462SOL    HW214286   6.319   4.472   3.273
 4463SOL     OW14287   6.347   1.406   0.676
 4463SOL    HW114288   6.361   1.471   0.750
 4463SOL    HW214289   6.252   1.376   0.676
 4464SOL     OW14290   0.247   5.189   0.532
 4464SOL    HW114291   0.304   5.241   0.596
 4464SOL    HW214292   0.163   5.239   0.514
 4465SOL     OW14293   3.072   5.698   1.227
 4465SOL    HW114294   3.150   5.755   1.203
 4465SOL    HW214295   3.075   5.613   1.174
 4466SOL     OW14296   1.353   2.504   3.166
 4466SOL    HW114297   1.383   2.570   3.097
 4466SOL    HW214298   1.418   2.428   3.170
 4467SOL     OW14299   4.520   6.131   2.920
 4467SOL    HW114300   4.539   6.036   2.894
 4467SOL    HW214301   4.524   6.140   3.019
 4468SOL     OW14302   1.829   3.094   1.593
 4468SOL    HW114303   1.787   3.134   1.674
 4468SOL    HW214304   1.918   3.055   1.617
 4469SOL     OW14305   2.799   6.155   1.154
 4469SOL    HW114306   2.876   6.176   1.214
 4469SOL    HW214307   2.732   6.229   1.160
 4470SOL     OW14308   1.827   0.181   2.688
 4470SOL    HW114309   1.889   0.238   2.633
 4470SOL    HW214310   1.753   0.147   2.630
 4471SOL     OW14311   0.904   1.017   6.030
 4471SOL    HW114312   0.866   1.004   6.122
 4471SOL    HW214313   1.003   1.028   6.036
 4472SOL     OW14314   1.394   2.496   0.831
 4472SOL    HW114315   1.338   2.478   0.750
 4472SOL    HW214316   1.334   2.514   0.909
 4473SOL     OW14317   0.268   2.967   4.373
 4473SOL    HW114318   0.246   3.062   4.394
 4473SOL    HW214319   0.205   2.934   4.302
 4474SOL     OW14320   3.044   5.674   0.827
 4474SOL    HW114321   3.035   5.651   0.730
 4474SOL    HW214322   3.030   5.591   0.882
 4475SOL     OW14323   1.294   3.961   1.294
 4475SOL    HW114324   1.235   4.036   1.325
 4475SOL    HW214325   1.332   3.914   1.373
 4476SOL     OW14326   4.875   1.432   3.636
 4476SOL    HW114327   4.920   1.353   3.594
 4476SOL    HW214328   4.819   1.478   3.568
 4477SOL     OW14329   1.738   1.061   5.204
 4477SOL    HW114330   1.747   1.119   5.284
 4477SOL    HW214331   1.706   0.970   5.231
 4478SOL     OW14332   1.845   0.649   0.502
 4478SOL    HW114333   1.770   0.585   0.488
 4478SOL    HW214334   1.813   0.726   0.557
 4479SOL     OW14335   1.418   3.195   0.746
 4479SOL    HW114336   1.332   3.235   0.718
 4479SOL    HW214337   1.486   3.206   0.673
 4480SOL     OW14338   0.888   6.119   4.200
 4480SOL    HW114339   0.857   6.103   4.294
 4480SOL    HW214340   0.885   6.217   4.180
 4481SOL     OW14341   2.359   3.868   6.406
 4481SOL    HW114342   2.275   3.819   6.430
 4481SOL    HW214343   2.350   3.964   6.433
 4482SOL     OW14344   2.688   6.045   0.012
 4482SOL    HW114345   2.781   6.009   0.011
 4482SOL    HW214346   2.656   6.054   0.106
 4483SOL     OW14347   1.598   3.252   1.020
 4483SOL    HW114348   1.672   3.198   0.979
 4483SOL    HW214349   1.615   3.261   1.118
 4484SOL     OW14350   2.306   1.935   0.239
 4484SOL    HW114351   2.401   1.952   0.213
 4484SOL    HW214352   2.248   1.940   0.159
 4485SOL     OW14353   5.498   2.523   5.104
 4485SOL    HW114354   5.436   2.445   5.113
 4485SOL    HW214355   5.472   2.594   5.169
 4486SOL     OW14356   4.849   5.217   5.522
 4486SOL    HW114357   4.827   5.145   5.456
 4486SOL    HW214358   4.935   5.195   5.568
 4487SOL     OW14359   0.854   3.145   0.135
 4487SOL    HW114360   0.867   3.208   0.211
 4487SOL    HW214361   0.756   3.130   0.120
 4488SOL     OW14362   0.072   4.033   4.398
 4488SOL    HW114363   0.149   4.094   4.417
 4488SOL    HW214364   0.067   3.962   4.468
 4489SOL     OW14365   4.402   5.809   5.725
 4489SOL    HW114366   4.403   5.716   5.762
 4489SOL    HW214367   4.403   5.805   5.625
 4490SOL     OW14368   5.031   1.415   1.183
 4490SOL    HW114369   4.938   1.415   1.221
 4490SOL    HW214370   5.068   1.508   1.187
 4491SOL     OW14371   0.727   2.838   3.460
 4491SOL    HW114372   0.743   2.740   3.475
 4491SOL    HW214373   0.743   2.888   3.545
 4492SOL     OW14374   6.203   0.517   2.450
 4492SOL    HW114375   6.252   0.430   2.457
 4492SOL    HW214376   6.109   0.499   2.420
 4493SOL     OW14377   4.695   1.644   4.478
 4493SOL    HW114378   4.731   1.635   4.571
 4493SOL    HW214379   4.766   1.678   4.417
 4494SOL     OW14380   1.191   0.126   0.874
 4494SOL    HW114381   1.167   0.031   0.894
 4494SOL    HW214382   1.212   0.136   0.777
 4495SOL     OW14383   5.333   5.252   1.610
 4495SOL    HW114384   5.359   5.345   1.633
 4495SOL    HW214385   5.356   5.234   1.514
 4496SOL     OW14386   3.828   5.860   6.236
 4496SOL    HW114387   3.739   5.816   6.231
 4496SOL    HW214388   3.886   5.812   6.302
 4497SOL     OW14389   4.420   1.387   6.568
 4497SOL    HW114390   4.334   1.400   6.619
 4497SOL    HW214391   4.411   1.307   6.509
 4498SOL     OW14392   1.103   4.709   5.862
 4498SOL    HW114393   1.148   4.731   5.948
 4498SOL    HW214394   1.048   4.787   5.832
 4499SOL     OW14395   5.846   2.209   2.998
 4499SOL    HW114396   5.902   2.161   2.930
 4499SOL    HW214397   5.900   2.280   3.042
 4500SOL     OW14398   3.965   5.662   0.009
 4500SOL    HW114399   3.936   5.634   0.100
 4500SOL    HW214400   3.971   5.762   0.005
 4501SOL     OW14401   5.666   0.777   3.044
 4501SOL    HW114402   5.639   0.801   2.951
 4501SOL    HW214403   5.725   0.697   3.042
 4502SOL     OW14404   7.016   3.743   6.626
 4502SOL    HW114405   0.028   3.687   6.699
 4502SOL    HW214406   0.001   3.840   6.648
 4503SOL     OW14407   2.684   0.626   2.699
 4503SOL    HW114408   2.691   0.549   2.636
 4503SOL    HW214409   2.666   0.710   2.647
 4504SOL     OW14410   0.294   1.968   2.868
 4504SOL    HW114411   0.326   1.969   2.773
 4504SOL    HW214412   0.261   1.877   2.891
 4505SOL     OW14413   6.004   4.484   4.416
 4505SOL    HW114414   6.051   4.560   4.372
 4505SOL    HW214415   6.019   4.400   4.365
 4506SOL     OW14416   5.073   2.834   4.843
 4506SOL    HW114417   5.134   2.814   4.919
 4506SOL    HW214418   5.009   2.907   4.870
 4507SOL     OW14419   6.531   3.034   3.404
 4507SOL    HW114420   6.600   2.963   3.411
 4507SOL    HW214421   6.444   2.993   3.376
 4508SOL     OW14422   0.593   5.465   0.672
 4508SOL    HW114423   0.524   5.410   0.719
 4508SOL    HW214424   0.620   5.419   0.587
 4509SOL     OW14425   4.680   2.688   2.059
 4509SOL    HW114426   4.660   2.784   2.039
 4509SOL    HW214427   4.774   2.667   2.032
 4510SOL     OW14428   4.281   1.432   4.141
 4510SOL    HW114429   4.324   1.343   4.135
 4510SOL    HW214430   4.350   1.504   4.132
 4511SOL     OW14431   0.124   4.266   0.591
 4511SOL    HW114432   0.048   4.315   0.633
 4511SOL    HW214433   0.163   4.321   0.517
 4512SOL     OW14434   3.099   3.332   5.408
 4512SOL    HW114435   3.019   3.346   5.466
 4512SOL    HW214436   3.087   3.248   5.356
 4513SOL     OW14437   1.000   6.496   0.478
 4513SOL    HW114438   1.056   6.549   0.542
 4513SOL    HW214439   1.057   6.466   0.402
 4514SOL     OW14440   3.157   4.703   6.452
 4514SOL    HW114441   3.253   4.689   6.479
 4514SOL    HW214442   3.097   4.678   6.529
 4515SOL     OW14443   4.710   0.521   6.806
 4515SOL    HW114444   4.798   0.547   6.847
 4515SOL    HW214445   4.672   0.600   6.758
 4516SOL     OW14446   3.545   1.552   5.042
 4516SOL    HW114447   3.608   1.504   5.104
 4516SOL    HW214448   3.481   1.606   5.096
 4517SOL     OW14449   3.886   1.376   5.454
 4517SOL    HW114450   3.936   1.451   5.499
 4517SOL    HW214451   3.800   1.360   5.501
 4518SOL     OW14452   1.636   6.999   0.923
 4518SOL    HW114453   1.594   7.005   1.014
 4518SOL    HW214454   1.735   6.998   0.932
 4519SOL     OW14455   4.734   6.752   6.906
 4519SOL    HW114456   4.741   6.766   7.004
 4519SOL    HW214457   4.686   6.829   6.864
 4520SOL     OW14458   4.405   5.769   4.788
 4520SOL    HW114459   4.329   5.792   4.848
 4520SOL    HW214460   4.478   5.725   4.841
 4521SOL     OW14461   4.158   2.281   4.355
 4521SOL    HW114462   4.121   2.337   4.282
 4521SOL    HW214463   4.213   2.338   4.417
 4522SOL     OW14464   5.083   4.560   3.221
 4522SOL    HW114465   5.093   4.530   3.316
 4522SOL    HW214466   4.986   4.560   3.197
 4523SOL     OW14467   0.148   3.608   5.565
 4523SOL    HW114468   0.219   3.583   5.629
 4523SOL    HW214469   0.182   3.680   5.503
 4524SOL     OW14470   0.843   3.606   3.242
 4524SOL    HW114471   0.794   3.563   3.166
 4524SOL    HW214472   0.928   3.645   3.208
 4525SOL     OW14473   3.156   2.064   5.397
 4525SOL    HW114474   3.111   2.030   5.314
 4525SOL    HW214475   3.108   2.144   5.431
 4526SOL     OW14476   0.501   0.128   5.578
 4526SOL    HW114477   0.440   0.050   5.593
 4526SOL    HW214478   0.528   0.166   5.667
 4527SOL     OW14479   6.365   0.804   2.960
 4527SOL    HW114480   6.451   0.770   2.922
 4527SOL    HW214481   6.292   0.739   2.941
 4528SOL     OW14482   4.528   1.111   5.195
 4528SOL    HW114483   4.611   1.103   5.141
 4528SOL    HW214484   4.468   1.033   5.177
 4529SOL     OW14485   2.191   0.723   3.878
 4529SOL    HW114486   2.209   0.735   3.780
 4529SOL    HW214487   2.093   0.718   3.893
 4530SOL     OW14488   3.313   5.274   6.100
 4530SOL    HW114489   3.222   5.246   6.130
 4530SOL    HW214490   3.313   5.372   6.081
 4531SOL     OW14491   0.808   5.395   5.932
 4531SOL    HW114492   0.888   5.413   5.874
 4531SOL    HW214493   0.729   5.443   5.894
 4532SOL     OW14494   5.845   0.529   2.542
 4532SOL    HW114495   5.891   0.495   2.460
 4532SOL    HW214496   5.908   0.587   2.593
 4533SOL     OW14497   2.888   0.602   1.455
 4533SOL    HW114498   2.804   0.602   1.401
 4533SOL    HW214499   2.922   0.695   1.464
 4534SOL     OW14500   4.689   1.132   3.609
 4534SOL    HW114501   4.663   1.092   3.697
 4534SOL    HW214502   4.785   1.111   3.590
 4535SOL     OW14503   2.434   0.808   1.042
 4535SOL    HW114504   2.449   0.820   0.944
 4535SOL    HW214505   2.521   0.817   1.091
 4536SOL     OW14506   2.771   1.032   5.693
 4536SOL    HW114507   2.825   0.956   5.656
 4536SOL    HW214508   2.832   1.104   5.725
 4537SOL     OW14509   2.924   3.272   3.378
 4537SOL    HW114510   2.831   3.257   3.412
 4537SOL    HW214511   2.920   3.309   3.285
 4538SOL     OW14512   0.475   1.725   0.892
 4538SOL    HW114513   0.403   1.711   0.961
 4538SOL    HW214514   0.517   1.637   0.870
 4539SOL     OW14515   1.481   6.279   5.253
 4539SOL    HW114516   1.383   6.269   5.270
 4539SOL    HW214517   1.533   6.224   5.318
 4540SOL     OW14518   0.738   0.318   0.045
 4540SOL    HW114519   0.825   0.277   0.074
 4540SOL    HW214520   0.689   0.253   7.013
 4541SOL     OW14521   4.559   2.861   5.717
 4541SOL    HW114522   4.502   2.928   5.669
 4541SOL    HW214523   4.514   2.772   5.716
 4542SOL     OW14524   6.829   1.961   0.787
 4542SOL    HW114525   6.822   1.949   0.886
 4542SOL    HW214526   6.739   1.979   0.749
 4543SOL     OW14527   3.820   2.510   0.034
 4543SOL    HW114528   3.760   2.431   0.016
 4543SOL    HW214529   3.880   2.489   0.111
 4544SOL     OW14530   5.394   6.159   0.492
 4544SOL    HW114531   5.371   6.064   0.513
 4544SOL    HW214532   5.334   6.192   0.419
 4545SOL     OW14533   2.169   3.118   4.940
 4545SOL    HW114534   2.138   3.175   5.016
 4545SOL    HW214535   2.252   3.069   4.967
 4546SOL     OW14536   2.986   1.091   5.864
 4546SOL    HW114537   2.988   1.149   5.946
 4546SOL    HW214538   3.079   1.058   5.845
 4547SOL     OW14539   6.810   0.435   0.239
 4547SOL    HW114540   6.767   0.346   0.250
 4547SOL    HW214541   6.898   0.436   0.288
 4548SOL     OW14542   2.441   1.793   3.156
 4548SOL    HW114543   2.463   1.885   3.188
 4548SOL    HW214544   2.392   1.800   3.069
 4549SOL     OW14545   0.008   3.450   4.710
 4549SOL    HW114546   0.005   3.405   4.621
 4549SOL    HW214547   0.010   3.380   4.782
 4550SOL     OW14548   1.722   4.345   3.418
 4550SOL    HW114549   1.772   4.341   3.331
 4550SOL    HW214550   1.639   4.290   3.410
 4551SOL     OW14551   1.381   2.762   5.270
 4551SOL    HW114552   1.371   2.662   5.271
 4551SOL    HW214553   1.330   2.799   5.192
 4552SOL     OW14554   5.707   1.136   0.682
 4552SOL    HW114555   5.629   1.187   0.644
 4552SOL    HW214556   5.706   1.142   0.782
 4553SOL     OW14557   6.670   5.320   6.710
 4553SOL    HW114558   6.752   5.366   6.743
 4553SOL    HW214559   6.691   5.224   6.688
 4554SOL     OW14560   6.691   6.282   3.416
 4554SOL    HW114561   6.645   6.279   3.504
 4554SOL    HW214562   6.770   6.344   3.421
 4555SOL     OW14563   1.606   1.117   6.896
 4555SOL    HW114564   1.646   1.035   6.854
 4555SOL    HW214565   1.508   1.105   6.906
 4556SOL     OW14566   5.637   4.607   5.272
 4556SOL    HW114567   5.699   4.666   5.220
 4556SOL    HW214568   5.544   4.645   5.267
 4557SOL     OW14569   6.703   4.403   3.147
 4557SOL    HW114570   6.651   4.353   3.216
 4557SOL    HW214571   6.689   4.360   3.058
 4558SOL     OW14572   0.475   3.479   5.439
 4558SOL    HW114573   0.529   3.544   5.385
 4558SOL    HW214574   0.463   3.394   5.387
 4559SOL     OW14575   6.996   2.814   3.081
 4559SOL    HW114576   6.929   2.748   3.114
 4559SOL    HW214577   0.010   2.861   3.160
 4560SOL     OW14578   6.135   4.466   3.028
 4560SOL    HW114579   6.220   4.488   3.075
 4560SOL    HW214580   6.094   4.384   3.068
 4561SOL     OW14581   3.906   2.025   4.284
 4561SOL    HW114582   3.823   1.986   4.243
 4561SOL    HW214583   3.973   1.953   4.298
 4562SOL     OW14584   3.497   1.190   1.237
 4562SOL    HW114585   3.574   1.140   1.198
 4562SOL    HW214586   3.414   1.135   1.228
 4563SOL     OW14587   0.863   4.344   1.924
 4563SOL    HW114588   0.875   4.246   1.912
 4563SOL    HW214589   0.944   4.392   1.891
 4564SOL     OW14590   1.595   3.732   2.185
 4564SOL    HW114591   1.683   3.750   2.230
 4564SOL    HW214592   1.523   3.728   2.253
 4565SOL     OW14593   1.969   5.744   5.997
 4565SOL    HW114594   1.917   5.825   5.970
 4565SOL    HW214595   2.043   5.729   5.932
 4566SOL     OW14596   6.134   4.851   2.670
 4566SOL    HW114597   6.080   4.862   2.754
 4566SOL    HW214598   6.211   4.790   2.688
 4567SOL     OW14599   0.166   0.408   6.627
 4567SOL    HW114600   0.171   0.506   6.609
 4567SOL    HW214601   0.254   0.365   6.604
 4568SOL     OW14602   1.535   5.869   3.446
 4568SOL    HW114603   1.611   5.825   3.397
 4568SOL    HW214604   1.452   5.815   3.434
 4569SOL     OW14605   2.097   0.973   3.365
 4569SOL    HW114606   2.009   1.013   3.339
 4569SOL    HW214607   2.121   0.900   3.301
 4570SOL     OW14608   5.918   6.359   2.121
 4570SOL    HW114609   5.835   6.392   2.077
 4570SOL    HW214610   5.947   6.424   2.191
 4571SOL     OW14611   3.029   3.148   0.054
 4571SOL    HW114612   3.094   3.223   0.040
 4571SOL    HW214613   3.070   3.080   0.115
 4572SOL     OW14614   2.838   3.365   1.763
 4572SOL    HW114615   2.903   3.409   1.701
 4572SOL    HW214616   2.751   3.350   1.715
 4573SOL     OW14617   2.751   5.581   1.869
 4573SOL    HW114618   2.685   5.508   1.888
 4573SOL    HW214619   2.774   5.580   1.771
 4574SOL     OW14620   5.461   1.138   1.108
 4574SOL    HW114621   5.468   1.045   1.071
 4574SOL    HW214622   5.368   1.152   1.143
 4575SOL     OW14623   0.217   6.886   5.417
 4575SOL    HW114624   0.147   6.955   5.437
 4575SOL    HW214625   0.284   6.924   5.353
 4576SOL     OW14626   2.821   4.787   5.264
 4576SOL    HW114627   2.846   4.709   5.207
 4576SOL    HW214628   2.903   4.838   5.289
 4577SOL     OW14629   1.327   1.901   2.300
 4577SOL    HW114630   1.233   1.866   2.308
 4577SOL    HW214631   1.374   1.853   2.226
 4578SOL     OW14632   1.816   1.508   2.390
 4578SOL    HW114633   1.859   1.595   2.415
 4578SOL    HW214634   1.887   1.439   2.374
 4579SOL     OW14635   4.656   1.264   2.947
 4579SOL    HW114636   4.610   1.256   2.858
 4579SOL    HW214637   4.714   1.184   2.962
 4580SOL     OW14638   0.091   2.085   0.557
 4580SOL    HW114639   0.135   2.053   0.640
 4580SOL    HW214640   7.026   2.047   0.550
 4581SOL     OW14641   3.437   0.590   1.214
 4581SOL    HW114642   3.395   0.603   1.304
 4581SOL    HW214643   3.369   0.556   1.150
 4582SOL     OW14644   5.844   1.455   3.677
 4582SOL    HW114645   5.901   1.392   3.625
 4582SOL    HW214646   5.899   1.531   3.710
 4583SOL     OW14647   0.857   0.210   6.754
 4583SOL    HW114648   0.773   0.177   6.798
 4583SOL    HW214649   0.913   0.132   6.726
 4584SOL     OW14650   1.331   0.797   4.649
 4584SOL    HW114651   1.252   0.809   4.708
 4584SOL    HW214652   1.302   0.761   4.560
 4585SOL     OW14653   1.959   3.531   3.892
 4585SOL    HW114654   2.003   3.468   3.956
 4585SOL    HW214655   1.952   3.488   3.802
 4586SOL     OW14656   5.745   4.802   6.671
 4586SOL    HW114657   5.699   4.864   6.607
 4586SOL    HW214658   5.838   4.784   6.640
 4587SOL     OW14659   2.977   3.231   4.897
 4587SOL    HW114660   3.056   3.197   4.948
 4587SOL    HW214661   2.893   3.210   4.947
 4588SOL     OW14662   2.994   3.886   6.079
 4588SOL    HW114663   3.015   3.832   5.998
 4588SOL    HW214664   3.049   3.853   6.156
 4589SOL     OW14665   6.515   6.818   3.116
 4589SOL    HW114666   6.580   6.785   3.184
 4589SOL    HW214667   6.422   6.797   3.146
 4590SOL     OW14668   3.085   5.453   1.028
 4590SOL    HW114669   2.986   5.465   1.036
 4590SOL    HW214670   3.105   5.385   0.959
 4591SOL     OW14671   2.011   0.375   5.369
 4591SOL    HW114672   1.952   0.311   5.418
 4591SOL    HW214673   2.029   0.454   5.427
 4592SOL     OW14674   1.907   1.612   3.734
 4592SOL    HW114675   1.853   1.665   3.799
 4592SOL    HW214676   1.940   1.529   3.780
 4593SOL     OW14677   1.676   6.109   4.669
 4593SOL    HW114678   1.774   6.129   4.674
 4593SOL    HW214679   1.653   6.075   4.578
 4594SOL     OW14680   1.743   0.725   3.258
 4594SOL    HW114681   1.746   0.647   3.321
 4594SOL    HW214682   1.721   0.694   3.166
 4595SOL     OW14683   5.454   2.347   6.786
 4595SOL    HW114684   5.377   2.301   6.829
 4595SOL    HW214685   5.513   2.280   6.742
 4596SOL     OW14686   0.003   0.802   2.305
 4596SOL    HW114687   0.056   0.804   2.390
 4596SOL    HW214688   6.933   0.812   2.327
 4597SOL     OW14689   3.121   6.205   0.222
 4597SOL    HW114690   3.116   6.169   0.315
 4597SOL    HW214691   3.091   6.300   0.221
 4598SOL     OW14692   1.789   4.412   0.067
 4598SOL    HW114693   1.738   4.390   0.150
 4598SOL    HW214694   1.759   4.502   0.033
 4599SOL     OW14695   2.383   5.801   2.327
 4599SOL    HW114696   2.358   5.872   2.261
 4599SOL    HW214697   2.450   5.739   2.286
 4600SOL     OW14698   0.237   6.569   5.814
 4600SOL    HW114699   0.327   6.572   5.771
 4600SOL    HW214700   0.242   6.607   5.906
 4601SOL     OW14701   2.116   1.257   4.863
 4601SOL    HW114702   2.207   1.238   4.901
 4601SOL    HW214703   2.076   1.171   4.829
 4602SOL     OW14704   2.894   2.600   6.504
 4602SOL    HW114705   2.841   2.523   6.540
 4602SOL    HW214706   2.899   2.593   6.405
 4603SOL     OW14707   4.914   0.083   0.685
 4603SOL    HW114708   4.997   0.121   0.645
 4603SOL    HW214709   4.844   0.154   0.693
 4604SOL     OW14710   5.712   6.884   5.644
 4604SOL    HW114711   5.627   6.832   5.637
 4604SOL    HW214712   5.735   6.923   5.554
 4605SOL     OW14713   3.565   0.341   1.949
 4605SOL    HW114714   3.506   0.405   1.900
 4605SOL    HW214715   3.586   0.378   2.039
 4606SOL     OW14716   6.615   6.553   4.565
 4606SOL    HW114717   6.678   6.607   4.510
 4606SOL    HW214718   6.552   6.614   4.613
 4607SOL     OW14719   2.216   2.191   1.204
 4607SOL    HW114720   2.260   2.136   1.133
 4607SOL    HW214721   2.141   2.244   1.163
 4608SOL     OW14722   6.774   3.071   4.555
 4608SOL    HW114723   6.794   3.063   4.653
 4608SOL    HW214724   6.677   3.088   4.542
 4609SOL     OW14725   4.317   6.045   6.574
 4609SOL    HW114726   4.239   6.050   6.636
 4609SOL    HW214727   4.377   5.969   6.602
 4610SOL     OW14728   5.431   3.344   0.028
 4610SOL    HW114729   5.460   3.333   0.123
 4610SOL    HW214730   5.378   3.264   7.027
 4611SOL     OW14731   1.096   0.925   6.469
 4611SOL    HW114732   1.013   0.973   6.440
 4611SOL    HW214733   1.092   0.830   6.440
 4612SOL     OW14734   2.289   1.164   1.596
 4612SOL    HW114735   2.224   1.237   1.573
 4612SOL    HW214736   2.244   1.075   1.589
 4613SOL     OW14737   1.665   4.692   1.277
 4613SOL    HW114738   1.729   4.674   1.203
 4613SOL    HW214739   1.700   4.766   1.334
 4614SOL     OW14740   6.636   4.334   4.458
 4614SOL    HW114741   6.633   4.272   4.379
 4614SOL    HW214742   6.719   4.316   4.511
 4615SOL     OW14743   1.164   2.926   6.986
 4615SOL    HW114744   1.173   2.829   6.961
 4615SOL    HW214745   1.187   2.983   6.907
 4616SOL     OW14746   6.424   2.676   6.275
 4616SOL    HW114747   6.344   2.634   6.318
 4616SOL    HW214748   6.504   2.661   6.332
 4617SOL     OW14749   0.101   2.953   3.276
 4617SOL    HW114750   0.142   3.005   3.201
 4617SOL    HW214751   0.110   3.005   3.361
 4618SOL     OW14752   1.848   4.402   5.742
 4618SOL    HW114753   1.861   4.405   5.842
 4618SOL    HW214754   1.754   4.428   5.720
 4619SOL     OW14755   4.212   6.089   6.096
 4619SOL    HW114756   4.223   6.053   6.188
 4619SOL    HW214757   4.118   6.123   6.084
 4620SOL     OW14758   0.501   4.695   2.033
 4620SOL    HW114759   0.529   4.603   2.060
 4620SOL    HW214760   0.566   4.761   2.069
 4621SOL     OW14761   3.798   0.211   3.008
 4621SOL    HW114762   3.839   0.220   2.918
 4621SOL    HW214763   3.703   0.181   2.999
 4622SOL     OW14764   5.566   6.076   1.974
 4622SOL    HW114765   5.500   6.006   1.946
 4622SOL    HW214766   5.562   6.152   1.909
 4623SOL     OW14767   2.625   5.243   1.126
 4623SOL    HW114768   2.581   5.323   1.085
 4623SOL    HW214769   2.721   5.262   1.142
 4624SOL     OW14770   4.422   0.998   2.106
 4624SOL    HW114771   4.470   0.910   2.114
 4624SOL    HW214772   4.477   1.070   2.149
 4625SOL     OW14773   1.523   6.189   1.921
 4625SOL    HW114774   1.620   6.167   1.935
 4625SOL    HW214775   1.479   6.115   1.870
 4626SOL     OW14776   4.456   3.861   1.637
 4626SOL    HW114777   4.381   3.924   1.656
 4626SOL    HW214778   4.543   3.906   1.658
 4627SOL     OW14779   5.675   0.102   4.994
 4627SOL    HW114780   5.666   0.199   4.973
 4627SOL    HW214781   5.622   0.081   5.076
 4628SOL     OW14782   5.576   5.118   4.269
 4628SOL    HW114783   5.547   5.023   4.286
 4628SOL    HW214784   5.517   5.158   4.200
 4629SOL     OW14785   2.584   6.167   6.827
 4629SOL    HW114786   2.496   6.199   6.863
 4629SOL    HW214787   2.635   6.122   6.900
 4630SOL     OW14788   2.110   3.292   2.158
 4630SOL    HW114789   2.021   3.269   2.120
 4630SOL    HW214790   2.135   3.385   2.130
 4631SOL     OW14791   6.953   0.728   3.345
 4631SOL    HW114792   6.963   0.727   3.245
 4631SOL    HW214793   0.015   0.747   3.387
 4632SOL     OW14794   3.599   4.888   2.477
 4632SOL    HW114795   3.668   4.880   2.406
 4632SOL    HW214796   3.641   4.875   2.567
 4633SOL     OW14797   5.165   1.353   4.242
 4633SOL    HW114798   5.237   1.406   4.197
 4633SOL    HW214799   5.117   1.411   4.308
 4634SOL     OW14800   2.904   3.851   4.942
 4634SOL    HW114801   2.915   3.754   4.962
 4634SOL    HW214802   2.824   3.886   4.992
 4635SOL     OW14803   5.002   6.439   1.828
 4635SOL    HW114804   4.973   6.344   1.820
 4635SOL    HW214805   5.056   6.450   1.911
 4636SOL     OW14806   2.007   5.343   0.716
 4636SOL    HW114807   2.078   5.277   0.690
 4636SOL    HW214808   2.044   5.436   0.709
 4637SOL     OW14809   2.964   1.285   2.992
 4637SOL    HW114810   2.986   1.187   2.997
 4637SOL    HW214811   3.037   1.338   3.034
 4638SOL     OW14812   3.430   5.034   0.630
 4638SOL    HW114813   3.400   5.127   0.610
 4638SOL    HW214814   3.353   4.982   0.668
 4639SOL     OW14815   3.280   2.204   1.154
 4639SOL    HW114816   3.365   2.156   1.176
 4639SOL    HW214817   3.301   2.289   1.106
 4640SOL     OW14818   6.409   2.571   6.872
 4640SOL    HW114819   6.311   2.553   6.881
 4640SOL    HW214820   6.455   2.553   6.959
 4641SOL     OW14821   1.100   5.996   3.984
 4641SOL    HW114822   1.159   5.950   4.051
 4641SOL    HW214823   1.041   6.061   4.031
 4642SOL     OW14824   0.160   1.573   3.593
 4642SOL    HW114825   0.254   1.549   3.570
 4642SOL    HW214826   0.100   1.495   3.575
 4643SOL     OW14827   0.339   1.717   0.220
 4643SOL    HW114828   0.256   1.765   0.248
 4643SOL    HW214829   0.405   1.784   0.183
 4644SOL     OW14830   0.975   0.854   0.315
 4644SOL    HW114831   0.997   0.855   0.412
 4644SOL    HW214832   0.888   0.808   0.301
 4645SOL     OW14833   0.643   1.891   4.090
 4645SOL    HW114834   0.701   1.938   4.023
 4645SOL    HW214835   0.699   1.860   4.167
 4646SOL     OW14836   1.933   5.053   3.843
 4646SOL    HW114837   1.837   5.027   3.859
 4646SOL    HW214838   1.936   5.136   3.789
 4647SOL     OW14839   1.234   6.141   2.167
 4647SOL    HW114840   1.229   6.173   2.073
 4647SOL    HW214841   1.330   6.138   2.196
 4648SOL     OW14842   2.769   1.885   4.701
 4648SOL    HW114843   2.674   1.899   4.728
 4648SOL    HW214844   2.810   1.812   4.756
 4649SOL     OW14845   6.622   1.065   6.753
 4649SOL    HW114846   6.677   1.067   6.837
 4649SOL    HW214847   6.526   1.056   6.777
 4650SOL     OW14848   5.634   5.788   1.672
 4650SOL    HW114849   5.677   5.868   1.713
 4650SOL    HW214850   5.626   5.715   1.740
 4651SOL     OW14851   6.838   3.340   6.365
 4651SOL    HW114852   6.771   3.287   6.313
 4651SOL    HW214853   6.792   3.397   6.433
 4652SOL     OW14854   0.255   6.785   4.797
 4652SOL    HW114855   0.250   6.885   4.794
 4652SOL    HW214856   0.285   6.757   4.889
 4653SOL     OW14857   5.470   5.591   0.786
 4653SOL    HW114858   5.420   5.562   0.867
 4653SOL    HW214859   5.430   5.547   0.705
 4654SOL     OW14860   0.973   0.200   5.280
 4654SOL    HW114861   1.023   0.250   5.351
 4654SOL    HW214862   0.896   0.255   5.248
 4655SOL     OW14863   4.587   2.720   1.172
 4655SOL    HW114864   4.667   2.775   1.195
 4655SOL    HW214865   4.532   2.704   1.255
 4656SOL     OW14866   0.739   1.094   1.764
 4656SOL    HW114867   0.779   1.018   1.814
 4656SOL    HW214868   0.805   1.130   1.698
 4657SOL     OW14869   4.945   0.382   2.210
 4657SOL    HW114870   4.916   0.477   2.216
 4657SOL    HW214871   4.947   0.353   2.114
 4658SOL     OW14872   1.607   2.923   5.812
 4658SOL    HW114873   1.628   3.002   5.869
 4658SOL    HW214874   1.520   2.884   5.839
 4659SOL     OW14875   2.422   4.629   0.142
 4659SOL    HW114876   2.431   4.530   0.152
 4659SOL    HW214877   2.463   4.658   0.055
 4660SOL     OW14878   0.981   6.599   4.252
 4660SOL    HW114879   1.033   6.671   4.298
 4660SOL    HW214880   0.941   6.537   4.320
 4661SOL     OW14881   0.845   2.497   5.658
 4661SOL    HW114882   0.928   2.501   5.603
 4661SOL    HW214883   0.806   2.405   5.654
 4662SOL     OW14884   2.564   6.718   5.290
 4662SOL    HW114885   2.573   6.813   5.259
 4662SOL    HW214886   2.468   6.692   5.292
 4663SOL     OW14887   1.500   0.196   0.080
 4663SOL    HW114888   1.405   0.168   0.065
 4663SOL    HW214889   1.520   0.195   0.178
 4664SOL     OW14890   6.928   6.799   6.794
 4664SOL    HW114891   7.020   6.782   6.828
 4664SOL    HW214892   6.872   6.838   6.867
 4665SOL     OW14893   1.937   0.164   4.569
 4665SOL    HW114894   1.925   0.242   4.507
 4665SOL    HW214895   1.875   0.090   4.543
 4666SOL     OW14896   2.915   1.817   5.273
 4666SOL    HW114897   2.940   1.789   5.181
 4666SOL    HW214898   2.874   1.908   5.270
 4667SOL     OW14899   6.795   4.005   1.164
 4667SOL    HW114900   6.791   3.977   1.068
 4667SOL    HW214901   6.886   4.041   1.184
 4668SOL     OW14902   4.268   2.229   4.016
 4668SOL    HW114903   4.187   2.230   4.074
 4668SOL    HW214904   4.240   2.225   3.920
 4669SOL     OW14905   5.689   6.563   6.719
 4669SOL    HW114906   5.685   6.564   6.819
 4669SOL    HW214907   5.737   6.481   6.689
 4670SOL     OW14908   0.352   2.574   0.723
 4670SOL    HW114909   0.445   2.590   0.692
 4670SOL    HW214910   0.296   2.654   0.703
 4671SOL     OW14911   0.914   3.609   0.740
 4671SOL    HW114912   0.903   3.615   0.641
 4671SOL    HW214913   0.832   3.646   0.785
 4672SOL     OW14914   2.499   3.833   6.750
 4672SOL    HW114915   2.521   3.874   6.839
 4672SOL    HW214916   2.579   3.782   6.717
 4673SOL     OW14917   5.805   0.486   0.006
 4673SOL    HW114918   5.761   0.566   0.046
 4673SOL    HW214919   5.899   0.509   7.007
 4674SOL     OW14920   1.227   2.082   1.011
 4674SOL    HW114921   1.257   1.990   0.984
 4674SOL    HW214922   1.142   2.104   0.963
 4675SOL     OW14923   2.302   5.994   0.340
 4675SOL    HW114924   2.213   5.953   0.318
 4675SOL    HW214925   2.325   5.973   0.435
 4676SOL     OW14926   0.372   5.939   3.863
 4676SOL    HW114927   0.434   5.863   3.843
 4676SOL    HW214928   0.424   6.016   3.900
 4677SOL     OW14929   4.290   0.248   6.559
 4677SOL    HW114930   4.380   0.225   6.521
 4677SOL    HW214931   4.301   0.324   6.623
 4678SOL     OW14932   2.278   4.678   6.509
 4678SOL    HW114933   2.206   4.747   6.505
 4678SOL    HW214934   2.237   4.587   6.517
 4679SOL     OW14935   2.955   0.824   5.586
 4679SOL    HW114936   2.982   0.748   5.644
 4679SOL    HW214937   2.945   0.792   5.491
 4680SOL     OW14938   1.643   4.912   0.565
 4680SOL    HW114939   1.608   4.904   0.659
 4680SOL    HW214940   1.731   4.959   0.566
 4681SOL     OW14941   0.794   5.793   5.046
 4681SOL    HW114942   0.855   5.849   4.990
 4681SOL    HW214943   0.712   5.846   5.068
 4682SOL     OW14944   4.436   6.584   1.081
 4682SOL    HW114945   4.463   6.609   1.174
 4682SOL    HW214946   4.363   6.645   1.050
 4683SOL     OW14947   6.694   4.232   3.723
 4683SOL    HW114948   6.596   4.212   3.710
 4683SOL    HW214949   6.717   4.224   3.820
 4684SOL     OW14950   1.562   0.847   4.460
 4684SOL    HW114951   1.576   0.927   4.519
 4684SOL    HW214952   1.485   0.794   4.495
 4685SOL     OW14953   5.040   4.901   5.041
 4685SOL    HW114954   4.950   4.878   5.004
 4685SOL    HW214955   5.110   4.883   4.971
 4686SOL     OW14956   3.981   5.673   0.456
 4686SOL    HW114957   3.910   5.633   0.398
 4686SOL    HW214958   4.063   5.691   0.401
 4687SOL     OW14959   5.961   6.198   4.672
 4687SOL    HW114960   6.047   6.176   4.625
 4687SOL    HW214961   5.919   6.278   4.629
 4688SOL     OW14962   0.438   2.056   6.404
 4688SOL    HW114963   0.476   1.975   6.359
 4688SOL    HW214964   0.351   2.033   6.447
 4689SOL     OW14965   1.205   5.462   5.301
 4689SOL    HW114966   1.157   5.503   5.223
 4689SOL    HW214967   1.253   5.534   5.351
 4690SOL     OW14968   1.719   2.336   6.971
 4690SOL    HW114969   1.769   2.355   6.887
 4690SOL    HW214970   1.698   2.239   6.977
 4691SOL     OW14971   2.800   5.213   0.703
 4691SOL    HW114972   2.807   5.313   0.704
 4691SOL    HW214973   2.704   5.186   0.704
 4692SOL     OW14974   0.658   5.227   3.181
 4692SOL    HW114975   0.573   5.264   3.143
 4692SOL    HW214976   0.736   5.270   3.136
 4693SOL     OW14977   0.416   1.793   3.686
 4693SOL    HW114978   0.446   1.784   3.781
 4693SOL    HW214979   0.437   1.709   3.637
 4694SOL     OW14980   1.088   2.147   6.197
 4694SOL    HW114981   1.175   2.100   6.213
 4694SOL    HW214982   1.089   2.189   6.106
 4695SOL     OW14983   3.385   3.073   2.028
 4695SOL    HW114984   3.384   3.143   2.099
 4695SOL    HW214985   3.291   3.053   1.999
 4696SOL     OW14986   0.188   3.300   0.061
 4696SOL    HW114987   0.138   3.225   0.016
 4696SOL    HW214988   0.286   3.285   0.050
 4697SOL     OW14989   0.808   4.935   0.097
 4697SOL    HW114990   0.736   4.880   0.140
 4697SOL    HW214991   0.768   4.994   0.027
 4698SOL     OW14992   5.606   2.987   1.076
 4698SOL    HW114993   5.583   3.027   0.987
 4698SOL    HW214994   5.569   3.045   1.149
 4699SOL     OW14995   6.835   0.488   3.605
 4699SOL    HW114996   6.795   0.559   3.548
 4699SOL    HW214997   6.910   0.526   3.659
 4700SOL     OW14998   4.877   0.720   1.161
 4700SOL    HW114999   4.849   0.678   1.075
 4700SOL    HW215000   4.797   0.752   1.211
 4701SOL     OW15001   0.889   0.979   0.949
 4701SOL    HW115002   0.891   0.911   1.023
 4701SOL    HW215003   0.797   0.982   0.910
 4702SOL     OW15004   3.297   4.196   0.235
 4702SOL    HW115005   3.241   4.249   0.300
 4702SOL    HW215006   3.370   4.149   0.285
 4703SOL     OW15007   2.011   0.672   1.710
 4703SOL    HW115008   1.994   0.628   1.797
 4703SOL    HW215009   2.000   0.606   1.636
 4704SOL     OW15010   4.870   6.713   0.507
 4704SOL    HW115011   4.850   6.810   0.493
 4704SOL    HW215012   4.837   6.685   0.597
 4705SOL     OW15013   3.427   3.622   4.599
 4705SOL    HW115014   3.437   3.552   4.528
 4705SOL    HW215015   3.447   3.712   4.560
 4706SOL     OW15016   4.099   5.829   1.076
 4706SOL    HW115017   4.123   5.758   1.142
 4706SOL    HW215018   4.009   5.866   1.098
 4707SOL     OW15019   2.195   5.926   1.037
 4707SOL    HW115020   2.234   5.836   1.018
 4707SOL    HW215021   2.233   5.994   0.975
 4708SOL     OW15022   2.395   2.564   2.010
 4708SOL    HW115023   2.327   2.603   2.073
 4708SOL    HW215024   2.468   2.521   2.063
 4709SOL     OW15025   3.973   4.732   6.014
 4709SOL    HW115026   3.954   4.658   6.078
 4709SOL    HW215027   4.053   4.784   6.045
 4710SOL     OW15028   5.413   1.611   0.743
 4710SOL    HW115029   5.407   1.622   0.644
 4710SOL    HW215030   5.402   1.514   0.766
 4711SOL     OW15031   3.216   0.406   2.388
 4711SOL    HW115032   3.255   0.427   2.478
 4711SOL    HW215033   3.278   0.345   2.338
 4712SOL     OW15034   1.689   4.587   0.574
 4712SOL    HW115035   1.620   4.640   0.524
 4712SOL    HW215036   1.773   4.583   0.521
 4713SOL     OW15037   1.979   5.746   0.939
 4713SOL    HW115038   1.958   5.666   0.994
 4713SOL    HW215039   2.053   5.798   0.983
 4714SOL     OW15040   3.320   2.459   1.044
 4714SOL    HW115041   3.395   2.487   0.984
 4714SOL    HW215042   3.300   2.533   1.109
 4715SOL     OW15043   6.778   3.543   3.470
 4715SOL    HW115044   6.759   3.479   3.395
 4715SOL    HW215045   6.799   3.492   3.553
 4716SOL     OW15046   3.261   5.823   0.796
 4716SOL    HW115047   3.273   5.882   0.877
 4716SOL    HW215048   3.195   5.751   0.817
 4717SOL     OW15049   1.848   5.762   3.804
 4717SOL    HW115050   1.818   5.737   3.896
 4717SOL    HW215051   1.903   5.845   3.809
 4718SOL     OW15052   5.962   1.145   6.154
 4718SOL    HW115053   5.908   1.093   6.220
 4718SOL    HW215054   5.912   1.228   6.128
 4719SOL     OW15055   4.345   2.568   0.926
 4719SOL    HW115056   4.445   2.571   0.926
 4719SOL    HW215057   4.310   2.661   0.920
 4720SOL     OW15058   2.917   1.129   4.908
 4720SOL    HW115059   2.946   1.132   5.004
 4720SOL    HW215060   2.930   1.037   4.872
 4721SOL     OW15061   1.274   2.270   1.595
 4721SOL    HW115062   1.226   2.356   1.576
 4721SOL    HW215063   1.372   2.282   1.579
 4722SOL     OW15064   1.978   0.016   0.468
 4722SOL    HW115065   2.008   0.090   0.529
 4722SOL    HW215066   2.035   0.016   0.386
 4723SOL     OW15067   2.573   6.739   6.600
 4723SOL    HW115068   2.528   6.650   6.611
 4723SOL    HW215069   2.517   6.797   6.540
 4724SOL     OW15070   4.853   5.861   1.819
 4724SOL    HW115071   4.907   5.943   1.838
 4724SOL    HW215072   4.912   5.781   1.827
 4725SOL     OW15073   5.750   6.033   3.315
 4725SOL    HW115074   5.731   5.947   3.363
 4725SOL    HW215075   5.842   6.064   3.340
 4726SOL     OW15076   0.640   5.140   7.003
 4726SOL    HW115077   0.601   5.185   0.056
 4726SOL    HW215078   0.603   5.182   6.920
 4727SOL     OW15079   0.134   6.502   0.035
 4727SOL    HW115080   0.135   6.457   6.973
 4727SOL    HW215081   0.090   6.592   0.027
 4728SOL     OW15082   0.084   0.724   0.248
 4728SOL    HW115083   0.115   0.813   0.216
 4728SOL    HW215084   0.018   0.686   0.183
 4729SOL     OW15085   3.483   0.340   1.575
 4729SOL    HW115086   3.402   0.291   1.544
 4729SOL    HW215087   3.564   0.281   1.562
 4730SOL     OW15088   1.920   0.269   5.590
 4730SOL    HW115089   1.861   0.189   5.604
 4730SOL    HW215090   1.924   0.322   5.675
 4731SOL     OW15091   5.449   1.395   6.054
 4731SOL    HW115092   5.456   1.437   5.963
 4731SOL    HW215093   5.354   1.396   6.084
 4732SOL     OW15094   0.325   1.707   0.656
 4732SOL    HW115095   0.384   1.769   0.707
 4732SOL    HW215096   0.231   1.717   0.688
 4733SOL     OW15097   6.879   3.003   3.736
 4733SOL    HW115098   6.966   3.043   3.765
 4733SOL    HW215099   6.840   2.950   3.812
 4734SOL     OW15100   4.122   4.611   6.891
 4734SOL    HW115101   4.140   4.710   6.892
 4734SOL    HW215102   4.095   4.581   6.982
 4735SOL     OW15103   1.097   5.012   3.343
 4735SOL    HW115104   1.189   5.004   3.379
 4735SOL    HW215105   1.101   5.031   3.245
 4736SOL     OW15106   1.186   0.628   0.804
 4736SOL    HW115107   1.098   0.594   0.837
 4736SOL    HW215108   1.176   0.723   0.775
 4737SOL     OW15109   2.262   5.486   1.993
 4737SOL    HW115110   2.270   5.440   2.081
 4737SOL    HW215111   2.238   5.582   2.007
 4738SOL     OW15112   6.977   6.516   2.650
 4738SOL    HW115113   6.894   6.462   2.638
 4738SOL    HW215114   6.965   6.579   2.727
 4739SOL     OW15115   4.663   0.467   1.253
 4739SOL    HW115116   4.580   0.510   1.291
 4739SOL    HW215117   4.683   0.507   1.164
 4740SOL     OW15118   0.623   2.116   3.156
 4740SOL    HW115119   0.545   2.088   3.100
 4740SOL    HW215120   0.603   2.203   3.200
 4741SOL     OW15121   3.935   3.743   1.629
 4741SOL    HW115122   3.964   3.815   1.691
 4741SOL    HW215123   3.987   3.749   1.544
 4742SOL     OW15124   3.020   6.807   0.635
 4742SOL    HW115125   2.965   6.724   0.634
 4742SOL    HW215126   3.117   6.782   0.642
 4743SOL     OW15127   2.231   5.039   1.526
 4743SOL    HW115128   2.240   5.103   1.602
 4743SOL    HW215129   2.138   5.045   1.489
 4744SOL     OW15130   2.289   5.661   0.990
 4744SOL    HW115131   2.337   5.673   0.903
 4744SOL    HW215132   2.268   5.564   1.003
 4745SOL     OW15133   1.257   4.446   6.907
 4745SOL    HW115134   1.161   4.420   6.900
 4745SOL    HW215135   1.313   4.364   6.918
 4746SOL     OW15136   4.750   5.546   4.256
 4746SOL    HW115137   4.656   5.579   4.250
 4746SOL    HW215138   4.750   5.446   4.246
 4747SOL     OW15139   1.468   2.121   0.152
 4747SOL    HW115140   1.561   2.114   0.188
 4747SOL    HW215141   1.426   2.206   0.183
 4748SOL     OW15142   1.866   6.762   2.837
 4748SOL    HW115143   1.908   6.806   2.758
 4748SOL    HW215144   1.922   6.777   2.918
 4749SOL     OW15145   2.081   1.245   6.545
 4749SOL    HW115146   2.088   1.244   6.445
 4749SOL    HW215147   1.988   1.217   6.572
 4750SOL     OW15148   5.148   2.714   5.395
 4750SOL    HW115149   5.174   2.713   5.491
 4750SOL    HW215150   5.052   2.741   5.386
 4751SOL     OW15151   4.480   0.697   3.355
 4751SOL    HW115152   4.388   0.735   3.366
 4751SOL    HW215153   4.486   0.649   3.268
 4752SOL     OW15154   4.584   1.723   0.103
 4752SOL    HW115155   4.506   1.661   0.101
 4752SOL    HW215156   4.568   1.798   0.039
 4753SOL     OW15157   3.349   6.165   5.285
 4753SOL    HW115158   3.331   6.077   5.242
 4753SOL    HW215159   3.341   6.155   5.385
 4754SOL     OW15160   4.770   4.940   6.620
 4754SOL    HW115161   4.779   4.841   6.622
 4754SOL    HW215162   4.761   4.971   6.525
 4755SOL     OW15163   1.464   0.818   1.383
 4755SOL    HW115164   1.407   0.889   1.425
 4755SOL    HW215165   1.553   0.815   1.429
 4756SOL     OW15166   6.230   3.966   6.678
 4756SOL    HW115167   6.291   3.927   6.747
 4756SOL    HW215168   6.276   4.041   6.631
 4757SOL     OW15169   1.895   3.888   1.387
 4757SOL    HW115170   1.834   3.833   1.329
 4757SOL    HW215171   1.872   3.985   1.377
 4758SOL     OW15172   3.298   5.997   3.133
 4758SOL    HW115173   3.240   6.046   3.068
 4758SOL    HW215174   3.256   5.998   3.223
 4759SOL     OW15175   0.833   5.574   1.591
 4759SOL    HW115176   0.861   5.478   1.600
 4759SOL    HW215177   0.844   5.603   1.496
 4760SOL     OW15178   1.331   6.219   1.125
 4760SOL    HW115179   1.236   6.245   1.111
 4760SOL    HW215180   1.356   6.147   1.059
 4761SOL     OW15181   6.437   6.302   1.580
 4761SOL    HW115182   6.428   6.270   1.675
 4761SOL    HW215183   6.468   6.226   1.523
 4762SOL     OW15184   1.696   0.437   2.018
 4762SOL    HW115185   1.720   0.345   2.048
 4762SOL    HW215186   1.599   0.453   2.032
 4763SOL     OW15187   5.625   4.566   1.699
 4763SOL    HW115188   5.600   4.561   1.795
 4763SOL    HW215189   5.708   4.622   1.689
 4764SOL     OW15190   4.672   3.086   0.244
 4764SOL    HW115191   4.628   3.169   0.279
 4764SOL    HW215192   4.771   3.095   0.255
 4765SOL     OW15193   4.022   1.654   4.176
 4765SOL    HW115194   3.932   1.611   4.190
 4765SOL    HW215195   4.055   1.631   4.085
 4766SOL     OW15196   0.520   0.181   3.941
 4766SOL    HW115197   0.550   0.164   4.035
 4766SOL    HW215198   0.503   0.278   3.928
 4767SOL     OW15199   2.037   4.567   3.547
 4767SOL    HW115200   2.086   4.654   3.561
 4767SOL    HW215201   1.951   4.585   3.498
 4768SOL     OW15202   4.251   2.904   6.845
 4768SOL    HW115203   4.204   2.945   6.923
 4768SOL    HW215204   4.327   2.961   6.817
 4769SOL     OW15205   2.271   4.517   0.592
 4769SOL    HW115206   2.195   4.573   0.559
 4769SOL    HW215207   2.237   4.426   0.615
 4770SOL     OW15208   0.743   1.638   5.537
 4770SOL    HW115209   0.653   1.637   5.580
 4770SOL    HW215210   0.798   1.561   5.570
 4771SOL     OW15211   1.748   6.731   5.000
 4771SOL    HW115212   1.736   6.825   4.968
 4771SOL    HW215213   1.687   6.714   5.078
 4772SOL     OW15214   3.084   5.210   2.129
 4772SOL    HW115215   3.035   5.285   2.174
 4772SOL    HW215216   3.088   5.131   2.190
 4773SOL     OW15217   2.000   5.107   4.792
 4773SOL    HW115218   2.062   5.118   4.870
 4773SOL    HW215219   1.913   5.068   4.823
 4774SOL     OW15220   1.415   4.177   6.974
 4774SOL    HW115221   1.423   4.079   6.957
 4774SOL    HW215222   1.388   4.192   0.042
 4775SOL     OW15223   6.396   6.443   5.162
 4775SOL    HW115224   6.452   6.493   5.228
 4775SOL    HW215225   6.422   6.347   5.163
 4776SOL     OW15226   0.145   1.157   6.428
 4776SOL    HW115227   0.142   1.235   6.365
 4776SOL    HW215228   0.220   1.168   6.493
 4777SOL     OW15229   1.218   0.159   2.211
 4777SOL    HW115230   1.288   0.190   2.147
 4777SOL    HW215231   1.207   0.060   2.203
 4778SOL     OW15232   1.609   1.335   6.608
 4778SOL    HW115233   1.560   1.365   6.526
 4778SOL    HW215234   1.547   1.287   6.669
 4779SOL     OW15235   5.444   0.320   4.456
 4779SOL    HW115236   5.528   0.269   4.478
 4779SOL    HW215237   5.372   0.294   4.520
 4780SOL     OW15238   6.090   2.970   4.864
 4780SOL    HW115239   6.031   2.954   4.785
 4780SOL    HW215240   6.168   2.908   4.861
 4781SOL     OW15241   2.024   5.645   2.257
 4781SOL    HW115242   2.087   5.598   2.318
 4781SOL    HW215243   1.971   5.712   2.309
 4782SOL     OW15244   6.577   6.776   3.970
 4782SOL    HW115245   6.521   6.721   3.908
 4782SOL    HW215246   6.604   6.860   3.925
 4783SOL     OW15247   6.270   3.636   6.770
 4783SOL    HW115248   6.311   3.724   6.793
 4783SOL    HW215249   6.256   3.630   6.671
 4784SOL     OW15250   5.265   3.130   6.986
 4784SOL    HW115251   5.204   3.180   6.924
 4784SOL    HW215252   5.233   3.141   0.053
 4785SOL     OW15253   7.015   6.696   4.207
 4785SOL    HW115254   0.034   6.766   4.152
 4785SOL    HW215255   0.043   6.676   4.288
 4786SOL     OW15256   1.829   5.277   0.485
 4786SOL    HW115257   1.894   5.314   0.551
 4786SOL    HW215258   1.738   5.275   0.526
 4787SOL     OW15259   3.509   1.537   3.843
 4787SOL    HW115260   3.550   1.449   3.867
 4787SOL    HW215261   3.426   1.551   3.897
 4788SOL     OW15262   6.254   6.332   0.545
 4788SOL    HW115263   6.308   6.326   0.629
 4788SOL    HW215264   6.190   6.255   0.541
 4789SOL     OW15265   5.997   1.230   2.570
 4789SOL    HW115266   6.028   1.152   2.625
 4789SOL    HW215267   5.973   1.306   2.631
 4790SOL     OW15268   6.432   2.061   5.056
 4790SOL    HW115269   6.513   2.099   5.012
 4790SOL    HW215270   6.415   2.108   5.142
 4791SOL     OW15271   0.186   0.440   0.768
 4791SOL    HW115272   0.105   0.497   0.781
 4791SOL    HW215273   0.259   0.495   0.727
 4792SOL     OW15274   2.009   3.162   2.944
 4792SOL    HW115275   2.038   3.227   3.015
 4792SOL    HW215276   2.003   3.210   2.856
 4793SOL     OW15277   0.886   3.467   5.683
 4793SOL    HW115278   0.855   3.551   5.637
 4793SOL    HW215279   0.977   3.482   5.721
 4794SOL     OW15280   4.212   1.576   4.457
 4794SOL    HW115281   4.223   1.574   4.358
 4794SOL    HW215282   4.188   1.668   4.487
 4795SOL     OW15283   0.156   0.846   6.309
 4795SOL    HW115284   0.152   0.748   6.332
 4795SOL    HW215285   0.084   0.894   6.358
 4796SOL     OW15286   4.334   0.925   5.208
 4796SOL    HW115287   4.288   0.912   5.296
 4796SOL    HW215288   4.393   0.847   5.189
 4797SOL     OW15289   1.171   5.203   5.244
 4797SOL    HW115290   1.218   5.197   5.156
 4797SOL    HW215291   1.160   5.299   5.270
 4798SOL     OW15292   4.303   5.241   6.722
 4798SOL    HW115293   4.354   5.308   6.776
 4798SOL    HW215294   4.311   5.151   6.765
 4799SOL     OW15295   3.175   2.975   0.210
 4799SOL    HW115296   3.169   2.888   0.161
 4799SOL    HW215297   3.270   3.007   0.210
 4800SOL     OW15298   1.161   4.098   0.479
 4800SOL    HW115299   1.210   4.168   0.530
 4800SOL    HW215300   1.091   4.056   0.537
 4801SOL     OW15301   5.575   2.626   1.789
 4801SOL    HW115302   5.653   2.573   1.824
 4801SOL    HW215303   5.511   2.643   1.864
 4802SOL     OW15304   6.189   0.245   4.135
 4802SOL    HW115305   6.251   0.324   4.129
 4802SOL    HW215306   6.244   0.161   4.138
 4803SOL     OW15307   5.120   4.244   6.301
 4803SOL    HW115308   5.133   4.245   6.202
 4803SOL    HW215309   5.024   4.261   6.323
 4804SOL     OW15310   4.673   1.469   1.176
 4804SOL    HW115311   4.761   1.473   1.224
 4804SOL    HW215312   4.609   1.534   1.219
 4805SOL     OW15313   6.800   0.803   6.988
 4805SOL    HW115314   6.886   0.826   6.942
 4805SOL    HW215315   6.752   0.887   7.014
 4806SOL     OW15316   1.215   1.266   3.198
 4806SOL    HW115317   1.183   1.356   3.170
 4806SOL    HW215318   1.166   1.236   3.280
 4807SOL     OW15319   0.519   3.804   5.565
 4807SOL    HW115320   0.539   3.896   5.530
 4807SOL    HW215321   0.429   3.804   5.609
 4808SOL     OW15322   4.061   5.812   1.494
 4808SOL    HW115323   4.125   5.753   1.446
 4808SOL    HW215324   3.996   5.755   1.545
 4809SOL     OW15325   3.500   4.292   1.207
 4809SOL    HW115326   3.450   4.219   1.254
 4809SOL    HW215327   3.557   4.341   1.274
 4810SOL     OW15328   0.695   4.878   3.984
 4810SOL    HW115329   0.723   4.918   3.897
 4810SOL    HW215330   0.724   4.937   4.059
 4811SOL     OW15331   3.520   4.098   4.094
 4811SOL    HW115332   3.598   4.066   4.039
 4811SOL    HW215333   3.461   4.154   4.038
 4812SOL     OW15334   1.142   0.244   2.462
 4812SOL    HW115335   1.175   0.210   2.374
 4812SOL    HW215336   1.074   0.316   2.447
 4813SOL     OW15337   6.414   1.421   5.769
 4813SOL    HW115338   6.400   1.459   5.860
 4813SOL    HW215339   6.329   1.425   5.717
 4814SOL     OW15340   6.297   4.196   1.713
 4814SOL    HW115341   6.365   4.123   1.702
 4814SOL    HW215342   6.294   4.251   1.630
 4815SOL     OW15343   5.961   5.065   1.823
 4815SOL    HW115344   5.975   5.005   1.744
 4815SOL    HW215345   5.896   5.136   1.799
 4816SOL     OW15346   2.134   1.233   2.605
 4816SOL    HW115347   2.101   1.270   2.692
 4816SOL    HW215348   2.092   1.284   2.529
 4817SOL     OW15349   3.790   2.428   0.463
 4817SOL    HW115350   3.834   2.342   0.489
 4817SOL    HW215351   3.707   2.441   0.516
 4818SOL     OW15352   4.011   0.547   5.604
 4818SOL    HW115353   3.985   0.640   5.631
 4818SOL    HW215354   3.930   0.488   5.603
 4819SOL     OW15355   3.143   0.343   1.101
 4819SOL    HW115356   3.167   0.414   1.034
 4819SOL    HW215357   3.130   0.386   1.191
 4820SOL     OW15358   6.082   4.122   1.938
 4820SOL    HW115359   6.030   4.037   1.940
 4820SOL    HW215360   6.130   4.129   1.850
 4821SOL     OW15361   0.109   4.878   1.272
 4821SOL    HW115362   0.075   4.936   1.346
 4821SOL    HW215363   0.090   4.923   1.184
 4822SOL     OW15364   1.663   4.067   2.759
 4822SOL    HW115365   1.711   4.152   2.780
 4822SOL    HW215366   1.626   4.028   2.844
 4823SOL     OW15367   1.310   1.153   4.448
 4823SOL    HW115368   1.385   1.118   4.503
 4823SOL    HW215369   1.223   1.128   4.490
 4824SOL     OW15370   5.353   2.718   1.957
 4824SOL    HW115371   5.263   2.719   1.913
 4824SOL    HW215372   5.400   2.805   1.939
 4825SOL     OW15373   0.674   3.191   3.451
 4825SOL    HW115374   0.683   3.290   3.460
 4825SOL    HW215375   0.583   3.163   3.484
 4826SOL     OW15376   6.557   6.176   6.995
 4826SOL    HW115377   6.482   6.183   6.929
 4826SOL    HW215378   6.518   6.164   0.060
 4827SOL     OW15379   5.697   0.795   1.396
 4827SOL    HW115380   5.600   0.780   1.418
 4827SOL    HW215381   5.751   0.792   1.480
 4828SOL     OW15382   5.201   3.982   0.464
 4828SOL    HW115383   5.141   4.004   0.388
 4828SOL    HW215384   5.193   3.885   0.487
 4829SOL     OW15385   3.018   0.596   5.741
 4829SOL    HW115386   2.977   0.511   5.776
 4829SOL    HW215387   3.018   0.665   5.813
 4830SOL     OW15388   4.009   7.023   5.188
 4830SOL    HW115389   4.052   0.004   5.098
 4830SOL    HW215390   3.969   6.932   5.198
 4831SOL     OW15391   6.355   4.029   5.816
 4831SOL    HW115392   6.443   4.058   5.853
 4831SOL    HW215393   6.370   3.957   5.748
 4832SOL     OW15394   2.076   3.480   6.686
 4832SOL    HW115395   2.139   3.402   6.680
 4832SOL    HW215396   2.128   3.564   6.702
 4833SOL     OW15397   5.296   1.648   3.328
 4833SOL    HW115398   5.386   1.607   3.312
 4833SOL    HW215399   5.226   1.576   3.329
 4834SOL     OW15400   5.547   0.615   2.491
 4834SOL    HW115401   5.615   0.544   2.507
 4834SOL    HW215402   5.578   0.700   2.535
 4835SOL     OW15403   2.168   0.421   6.370
 4835SOL    HW115404   2.078   0.398   6.408
 4835SOL    HW215405   2.240   0.381   6.426
 4836SOL     OW15406   5.263   2.218   3.324
 4836SOL    HW115407   5.180   2.244   3.275
 4836SOL    HW215408   5.333   2.188   3.259
 4837SOL     OW15409   1.291   3.859   0.420
 4837SOL    HW115410   1.323   3.842   0.327
 4837SOL    HW215411   1.262   3.954   0.429
 4838SOL     OW15412   2.512   5.848   2.572
 4838SOL    HW115413   2.453   5.814   2.498
 4838SOL    HW215414   2.469   5.927   2.615
 4839SOL     OW15415   0.356   6.253   6.729
 4839SOL    HW115416   0.442   6.261   6.679
 4839SOL    HW215417   0.320   6.160   6.718
 4840SOL     OW15418   6.968   6.684   0.347
 4840SOL    HW115419   6.967   6.593   0.388
 4840SOL    HW215420   6.922   6.749   0.407
 4841SOL     OW15421   2.684   5.839   2.128
 4841SOL    HW115422   2.695   5.881   2.218
 4841SOL    HW215423   2.771   5.845   2.079
 4842SOL     OW15424   3.770   6.122   1.083
 4842SOL    HW115425   3.731   6.180   1.155
 4842SOL    HW215426   3.784   6.030   1.119
 4843SOL     OW15427   0.076   3.384   0.299
 4843SOL    HW115428   0.128   3.389   0.384
 4843SOL    HW215429   0.138   3.370   0.223
 4844SOL     OW15430   6.192   1.772   5.739
 4844SOL    HW115431   6.247   1.711   5.795
 4844SOL    HW215432   6.220   1.763   5.643
 4845SOL     OW15433   6.323   5.487   4.053
 4845SOL    HW115434   6.303   5.445   3.965
 4845SOL    HW215435   6.240   5.486   4.110
 4846SOL     OW15436   1.283   4.083   1.032
 4846SOL    HW115437   1.308   4.020   1.106
 4846SOL    HW215438   1.352   4.077   0.959
 4847SOL     OW15439   3.934   2.184   4.512
 4847SOL    HW115440   3.911   2.113   4.446
 4847SOL    HW215441   3.996   2.250   4.469
 4848SOL     OW15442   2.773   2.341   2.861
 4848SOL    HW115443   2.782   2.367   2.765
 4848SOL    HW215444   2.861   2.307   2.895
 4849SOL     OW15445   1.252   6.129   0.152
 4849SOL    HW115446   1.347   6.131   0.183
 4849SOL    HW215447   1.227   6.035   0.128
 4850SOL     OW15448   4.219   0.583   2.578
 4850SOL    HW115449   4.283   0.532   2.635
 4850SOL    HW215450   4.270   0.643   2.517
 4851SOL     OW15451   5.248   6.391   5.098
 4851SOL    HW115452   5.266   6.396   5.000
 4851SOL    HW215453   5.183   6.463   5.123
 4852SOL     OW15454   1.670   1.292   0.079
 4852SOL    HW115455   1.650   1.274   0.175
 4852SOL    HW215456   1.625   1.222   0.022
 4853SOL     OW15457   3.095   1.715   2.342
 4853SOL    HW115458   3.192   1.741   2.337
 4853SOL    HW215459   3.041   1.793   2.372
 4854SOL     OW15460   4.893   6.748   1.436
 4854SOL    HW115461   4.887   6.841   1.470
 4854SOL    HW215462   4.982   6.735   1.391
 4855SOL     OW15463   0.376   2.430   2.318
 4855SOL    HW115464   0.333   2.420   2.408
 4855SOL    HW215465   0.358   2.522   2.283
 4856SOL     OW15466   2.860   4.780   3.597
 4856SOL    HW115467   2.879   4.732   3.682
 4856SOL    HW215468   2.776   4.834   3.607
 4857SOL     OW15469   6.753   1.833   5.723
 4857SOL    HW115470   6.844   1.802   5.751
 4857SOL    HW215471   6.694   1.753   5.709
 4858SOL     OW15472   1.188   1.383   3.757
 4858SOL    HW115473   1.244   1.351   3.833
 4858SOL    HW215474   1.225   1.469   3.721
 4859SOL     OW15475   2.440   5.798   4.952
 4859SOL    HW115476   2.366   5.750   4.905
 4859SOL    HW215477   2.525   5.747   4.940
 4860SOL     OW15478   4.605   5.096   0.954
 4860SOL    HW115479   4.507   5.091   0.974
 4860SOL    HW215480   4.636   5.191   0.962
 4861SOL     OW15481   5.395   3.639   5.114
 4861SOL    HW115482   5.382   3.594   5.025
 4861SOL    HW215483   5.314   3.692   5.137
 4862SOL     OW15484   1.209   6.454   2.244
 4862SOL    HW115485   1.252   6.469   2.333
 4862SOL    HW215486   1.276   6.416   2.181
 4863SOL     OW15487   6.126   4.236   6.890
 4863SOL    HW115488   6.083   4.206   6.805
 4863SOL    HW215489   6.189   4.312   6.870
 4864SOL     OW15490   2.627   1.283   3.366
 4864SOL    HW115491   2.634   1.295   3.266
 4864SOL    HW215492   2.690   1.347   3.411
 4865SOL     OW15493   2.097   6.560   4.784
 4865SOL    HW115494   2.074   6.609   4.868
 4865SOL    HW215495   2.182   6.596   4.746
 4866SOL     OW15496   6.697   3.923   0.147
 4866SOL    HW115497   6.674   3.887   0.237
 4866SOL    HW215498   6.729   3.849   0.088
 4867SOL     OW15499   5.165   6.975   3.026
 4867SOL    HW115500   5.161   0.040   3.066
 4867SOL    HW215501   5.102   6.970   2.949
 4868SOL     OW15502   0.003   4.664   0.685
 4868SOL    HW115503   0.097   4.656   0.718
 4868SOL    HW215504   6.969   4.610   0.743
 4869SOL     OW15505   0.455   0.910   0.427
 4869SOL    HW115506   0.508   0.826   0.415
 4869SOL    HW215507   0.514   0.990   0.411
 4870SOL     OW15508   0.698   6.036   2.069
 4870SOL    HW115509   0.630   5.979   2.114
 4870SOL    HW215510   0.733   6.104   2.133
 4871SOL     OW15511   1.507   1.499   4.364
 4871SOL    HW115512   1.450   1.536   4.290
 4871SOL    HW215513   1.601   1.532   4.354
 4872SOL     OW15514   5.769   6.884   3.240
 4872SOL    HW115515   5.715   6.928   3.168
 4872SOL    HW215516   5.866   6.893   3.219
 4873SOL     OW15517   6.649   5.846   5.675
 4873SOL    HW115518   6.735   5.894   5.658
 4873SOL    HW215519   6.575   5.889   5.623
 4874SOL     OW15520   5.062   2.717   2.753
 4874SOL    HW115521   5.076   2.686   2.847
 4874SOL    HW215522   5.053   2.637   2.693
 4875SOL     OW15523   5.692   6.625   5.014
 4875SOL    HW115524   5.672   6.682   5.093
 4875SOL    HW215525   5.788   6.595   5.018
 4876SOL     OW15526   1.981   0.940   2.766
 4876SOL    HW115527   1.977   1.039   2.755
 4876SOL    HW215528   1.958   0.916   2.860
 4877SOL     OW15529   7.019   1.860   5.163
 4877SOL    HW115530   7.011   1.959   5.174
 4877SOL    HW215531   0.054   1.823   5.232
 4878SOL     OW15532   1.138   2.601   2.354
 4878SOL    HW115533   1.172   2.600   2.448
 4878SOL    HW215534   1.072   2.528   2.341
 4879SOL     OW15535   5.609   1.594   3.265
 4879SOL    HW115536   5.695   1.582   3.315
 4879SOL    HW215537   5.629   1.598   3.167
 4880SOL     OW15538   6.316   2.282   6.209
 4880SOL    HW115539   6.226   2.277   6.166
 4880SOL    HW215540   6.355   2.190   6.216
 4881SOL     OW15541   1.713   3.148   1.828
 4881SOL    HW115542   1.784   3.195   1.881
 4881SOL    HW215543   1.646   3.108   1.890
 4882SOL     OW15544   4.523   2.534   4.695
 4882SOL    HW115545   4.449   2.510   4.758
 4882SOL    HW215546   4.571   2.452   4.666
 4883SOL     OW15547   6.391   3.995   1.432
 4883SOL    HW115548   6.463   4.030   1.372
 4883SOL    HW215549   6.427   3.984   1.525
 4884SOL     OW15550   2.451   6.691   1.748
 4884SOL    HW115551   2.392   6.732   1.678
 4884SOL    HW215552   2.399   6.622   1.799
 4885SOL     OW15553   1.270   4.339   0.582
 4885SOL    HW115554   1.189   4.370   0.633
 4885SOL    HW215555   1.352   4.374   0.625
 4886SOL     OW15556   2.957   1.360   2.182
 4886SOL    HW115557   2.951   1.441   2.123
 4886SOL    HW215558   3.012   1.382   2.262
 4887SOL     OW15559   0.000   6.675   1.293
 4887SOL    HW115560   0.014   6.586   1.251
 4887SOL    HW215561   6.965   6.666   1.371
 4888SOL     OW15562   3.814   6.312   3.161
 4888SOL    HW115563   3.814   6.390   3.098
 4888SOL    HW215564   3.905   6.270   3.162
 4889SOL     OW15565   6.904   2.834   3.527
 4889SOL    HW115566   6.868   2.912   3.579
 4889SOL    HW215567   6.965   2.781   3.585
 4890SOL     OW15568   0.526   1.723   4.768
 4890SOL    HW115569   0.572   1.714   4.856
 4890SOL    HW215570   0.576   1.672   4.699
 4891SOL     OW15571   2.644   5.647   6.154
 4891SOL    HW115572   2.577   5.579   6.125
 4891SOL    HW215573   2.645   5.723   6.090
 4892SOL     OW15574   5.540   6.020   2.987
 4892SOL    HW115575   5.552   6.085   3.063
 4892SOL    HW215576   5.529   6.071   2.901
 4893SOL     OW15577   0.517   3.264   1.938
 4893SOL    HW115578   0.445   3.330   1.960
 4893SOL    HW215579   0.588   3.268   2.008
 4894SOL     OW15580   4.744   6.975   1.929
 4894SOL    HW115581   4.792   6.976   1.842
 4894SOL    HW215582   4.725   6.880   1.956
 4895SOL     OW15583   6.814   4.635   4.133
 4895SOL    HW115584   6.874   4.572   4.084
 4895SOL    HW215585   6.868   4.713   4.166
 4896SOL     OW15586   1.650   4.813   4.002
 4896SOL    HW115587   1.594   4.771   4.073
 4896SOL    HW215588   1.628   4.910   3.994
 4897SOL     OW15589   1.649   6.506   5.184
 4897SOL    HW115590   1.725   6.454   5.145
 4897SOL    HW215591   1.586   6.443   5.231
 4898SOL     OW15592   4.342   1.782   3.848
 4898SOL    HW115593   4.357   1.832   3.933
 4898SOL    HW215594   4.292   1.840   3.784
 4899SOL     OW15595   0.149   5.522   1.844
 4899SOL    HW115596   0.094   5.585   1.899
 4899SOL    HW215597   0.192   5.454   1.904
 4900SOL     OW15598   3.617   6.028   5.717
 4900SOL    HW115599   3.670   6.112   5.715
 4900SOL    HW215600   3.625   5.985   5.807
 4901SOL     OW15601   6.868   1.501   6.261
 4901SOL    HW115602   6.890   1.443   6.340
 4901SOL    HW215603   6.905   1.459   6.178
 4902SOL     OW15604   1.702   0.278   6.042
 4902SOL    HW115605   1.784   0.328   6.071
 4902SOL    HW215606   1.696   0.192   6.092
 4903SOL     OW15607   5.407   4.871   2.232
 4903SOL    HW115608   5.389   4.826   2.320
 4903SOL    HW215609   5.442   4.963   2.249
 4904SOL     OW15610   2.036   0.582   0.320
 4904SOL    HW115611   1.968   0.624   0.380
 4904SOL    HW215612   2.073   0.500   0.363
 4905SOL     OW15613   3.230   6.496   2.195
 4905SOL    HW115614   3.266   6.537   2.111
 4905SOL    HW215615   3.169   6.562   2.240
 4906SOL     OW15616   5.092   3.268   4.919
 4906SOL    HW115617   5.043   3.355   4.910
 4906SOL    HW215618   5.173   3.269   4.861
 4907SOL     OW15619   4.906   1.433   6.402
 4907SOL    HW115620   4.860   1.453   6.488
 4907SOL    HW215621   4.911   1.516   6.347
 4908SOL     OW15622   4.101   6.678   6.731
 4908SOL    HW115623   4.124   6.696   6.635
 4908SOL    HW215624   4.183   6.650   6.780
 4909SOL     OW15625   5.380   4.874   4.390
 4909SOL    HW115626   5.371   4.855   4.292
 4909SOL    HW215627   5.434   4.803   4.433
 4910SOL     OW15628   4.731   1.608   5.602
 4910SOL    HW115629   4.662   1.679   5.617
 4910SOL    HW215630   4.822   1.645   5.616
 4911SOL     OW15631   0.244   2.387   2.046
 4911SOL    HW115632   0.235   2.462   2.111
 4911SOL    HW215633   0.234   2.300   2.094
 4912SOL     OW15634   6.003   2.286   4.219
 4912SOL    HW115635   5.923   2.344   4.230
 4912SOL    HW215636   6.056   2.287   4.304
 4913SOL     OW15637   6.758   3.053   5.809
 4913SOL    HW115638   6.721   3.020   5.896
 4913SOL    HW215639   6.726   3.147   5.794
 4914SOL     OW15640   4.892   0.438   3.526
 4914SOL    HW115641   4.968   0.385   3.564
 4914SOL    HW215642   4.909   0.456   3.429
 4915SOL     OW15643   3.570   5.306   5.915
 4915SOL    HW115644   3.470   5.300   5.920
 4915SOL    HW215645   3.600   5.283   5.823
 4916SOL     OW15646   6.363   2.400   3.741
 4916SOL    HW115647   6.428   2.401   3.665
 4916SOL    HW215648   6.398   2.341   3.814
 4917SOL     OW15649   4.666   6.875   0.764
 4917SOL    HW115650   4.710   6.899   0.677
 4917SOL    HW215651   4.570   6.852   0.748
 4918SOL     OW15652   6.148   5.188   2.745
 4918SOL    HW115653   6.090   5.245   2.803
 4918SOL    HW215654   6.216   5.141   2.801
 4919SOL     OW15655   3.724   4.079   2.473
 4919SOL    HW115656   3.700   4.135   2.393
 4919SOL    HW215657   3.675   4.114   2.553
 4920SOL     OW15658   5.918   0.762   5.498
 4920SOL    HW115659   5.847   0.728   5.559
 4920SOL    HW215660   5.986   0.814   5.551
 4921SOL     OW15661   0.306   0.155   2.407
 4921SOL    HW115662   0.344   0.063   2.411
 4921SOL    HW215663   0.358   0.216   2.466
 4922SOL     OW15664   3.625   2.251   6.539
 4922SOL    HW115665   3.541   2.305   6.547
 4922SOL    HW215666   3.680   2.264   6.621
 4923SOL     OW15667   3.924   1.723   2.547
 4923SOL    HW115668   3.917   1.763   2.638
 4923SOL    HW215669   3.921   1.796   2.478
 4924SOL     OW15670   2.358   0.542   5.519
 4924SOL    HW115671   2.344   0.612   5.449
 4924SOL    HW215672   2.356   0.452   5.477
 4925SOL     OW15673   5.409   5.903   3.718
 4925SOL    HW115674   5.351   5.973   3.675
 4925SOL    HW215675   5.359   5.860   3.793
 4926SOL     OW15676   5.624   2.577   0.806
 4926SOL    HW115677   5.591   2.485   0.828
 4926SOL    HW215678   5.709   2.594   0.854
 4927SOL     OW15679   3.389   1.786   6.517
 4927SOL    HW115680   3.307   1.829   6.478
 4927SOL    HW215681   3.445   1.748   6.443
 4928SOL     OW15682   0.195   1.902   0.382
 4928SOL    HW115683   0.178   1.811   0.420
 4928SOL    HW215684   0.133   1.968   0.425
 4929SOL     OW15685   0.566   6.775   4.940
 4929SOL    HW115686   0.488   6.813   4.990
 4929SOL    HW215687   0.541   6.685   4.904
 4930SOL     OW15688   5.559   6.362   2.495
 4930SOL    HW115689   5.562   6.386   2.592
 4930SOL    HW215690   5.622   6.287   2.478
 4931SOL     OW15691   6.320   5.961   0.702
 4931SOL    HW115692   6.357   5.916   0.620
 4931SOL    HW215693   6.358   5.917   0.784
 4932SOL     OW15694   2.833   3.471   2.064
 4932SOL    HW115695   2.854   3.405   1.992
 4932SOL    HW215696   2.738   3.502   2.053
 4933SOL     OW15697   3.155   6.591   5.434
 4933SOL    HW115698   3.195   6.556   5.349
 4933SOL    HW215699   3.094   6.667   5.412
 4934SOL     OW15700   3.976   4.905   2.922
 4934SOL    HW115701   3.963   4.893   2.824
 4934SOL    HW215702   4.022   4.992   2.940
 4935SOL     OW15703   0.408   0.970   6.341
 4935SOL    HW115704   0.318   0.927   6.331
 4935SOL    HW215705   0.406   1.033   6.419
 4936SOL     OW15706   3.059   3.288   0.698
 4936SOL    HW115707   3.045   3.218   0.768
 4936SOL    HW215708   3.136   3.263   0.640
 4937SOL     OW15709   4.560   2.674   5.142
 4937SOL    HW115710   4.605   2.745   5.196
 4937SOL    HW215711   4.595   2.675   5.049
 4938SOL     OW15712   4.175   5.649   6.105
 4938SOL    HW115713   4.244   5.675   6.174
 4938SOL    HW215714   4.141   5.732   6.061
 4939SOL     OW15715   4.577   2.913   5.980
 4939SOL    HW115716   4.589   2.906   5.881
 4939SOL    HW215717   4.495   2.864   6.007
 4940SOL     OW15718   2.040   6.073   4.411
 4940SOL    HW115719   1.968   6.004   4.403
 4940SOL    HW215720   2.092   6.077   4.326
 4941SOL     OW15721   5.544   0.132   0.610
 4941SOL    HW115722   5.575   0.177   0.526
 4941SOL    HW215723   5.609   0.150   0.683
 4942SOL     OW15724   4.971   3.778   5.689
 4942SOL    HW115725   5.032   3.748   5.763
 4942SOL    HW215726   5.024   3.788   5.605
 4943SOL     OW15727   4.726   2.340   1.206
 4943SOL    HW115728   4.680   2.417   1.161
 4943SOL    HW215729   4.730   2.356   1.304
 4944SOL     OW15730   2.325   5.023   2.603
 4944SOL    HW115731   2.336   5.084   2.525
 4944SOL    HW215732   2.244   4.966   2.589
 4945SOL     OW15733   0.715   6.928   4.224
 4945SOL    HW115734   0.762   7.005   4.181
 4945SOL    HW215735   0.648   6.962   4.289
 4946SOL     OW15736   1.064   4.129   2.325
 4946SOL    HW115737   0.982   4.082   2.291
 4946SOL    HW215738   1.145   4.089   2.283
 4947SOL     OW15739   0.480   6.789   0.737
 4947SOL    HW115740   0.463   6.711   0.676
 4947SOL    HW215741   0.476   6.874   0.684
 4948SOL     OW15742   2.091   1.408   1.873
 4948SOL    HW115743   2.013   1.431   1.930
 4948SOL    HW215744   2.077   1.317   1.833
 4949SOL     OW15745   5.492   1.776   4.094
 4949SOL    HW115746   5.481   1.790   3.995
 4949SOL    HW215747   5.423   1.830   4.143
 4950SOL     OW15748   3.101   6.049   5.081
 4950SOL    HW115749   3.011   6.006   5.081
 4950SOL    HW215750   3.162   5.998   5.141
 4951SOL     OW15751   4.042   2.172   3.461
 4951SOL    HW115752   4.038   2.270   3.441
 4951SOL    HW215753   3.964   2.146   3.518
 4952SOL     OW15754   0.924   6.134   5.148
 4952SOL    HW115755   0.949   6.061   5.084
 4952SOL    HW215756   0.861   6.099   5.216
 4953SOL     OW15757   1.627   5.361   1.581
 4953SOL    HW115758   1.644   5.312   1.667
 4953SOL    HW215759   1.695   5.433   1.571
 4954SOL     OW15760   5.439   5.991   6.623
 4954SOL    HW115761   5.501   5.923   6.662
 4954SOL    HW215762   5.381   5.948   6.555
 4955SOL     OW15763   1.272   6.555   1.140
 4955SOL    HW115764   1.357   6.570   1.090
 4955SOL    HW215765   1.253   6.633   1.200
 4956SOL     OW15766   4.865   6.255   4.282
 4956SOL    HW115767   4.852   6.347   4.321
 4956SOL    HW215768   4.781   6.202   4.293
 4957SOL     OW15769   0.913   0.245   3.794
 4957SOL    HW115770   0.925   0.341   3.767
 4957SOL    HW215771   0.967   0.227   3.876
 4958SOL     OW15772   0.086   5.953   0.071
 4958SOL    HW115773   0.105   5.973   0.168
 4958SOL    HW215774   0.026   6.024   0.034
 4959SOL     OW15775   0.928   0.874   1.305
 4959SOL    HW115776   0.969   0.933   1.375
 4959SOL    HW215777   0.996   0.853   1.235
 4960SOL     OW15778   3.839   6.642   5.057
 4960SOL    HW115779   3.747   6.604   5.054
 4960SOL    HW215780   3.873   6.655   4.963
 4961SOL     OW15781   4.617   0.273   5.027
 4961SOL    HW115782   4.526   0.232   5.029
 4961SOL    HW215783   4.687   0.201   5.026
 4962SOL     OW15784   0.018   1.249   1.177
 4962SOL    HW115785   0.032   1.226   1.273
 4962SOL    HW215786   6.948   1.255   1.158
 4963SOL     OW15787   0.222   5.000   1.527
 4963SOL    HW115788   0.259   5.085   1.564
 4963SOL    HW215789   0.169   4.953   1.598
 4964SOL     OW15790   3.799   6.407   3.426
 4964SOL    HW115791   3.795   6.357   3.339
 4964SOL    HW215792   3.893   6.406   3.461
 4965SOL     OW15793   6.834   6.694   4.456
 4965SOL    HW115794   6.818   6.715   4.360
 4965SOL    HW215795   6.925   6.652   4.466
 4966SOL     OW15796   3.686   4.958   3.866
 4966SOL    HW115797   3.654   5.040   3.819
 4966SOL    HW215798   3.785   4.960   3.874
 4967SOL     OW15799   4.132   2.431   5.924
 4967SOL    HW115800   4.212   2.399   5.875
 4967SOL    HW215801   4.160   2.487   6.002
 4968SOL     OW15802   5.895   3.505   5.564
 4968SOL    HW115803   5.820   3.475   5.505
 4968SOL    HW215804   5.859   3.543   5.648
 4969SOL     OW15805   0.961   1.900   1.835
 4969SOL    HW115806   0.909   1.859   1.760
 4969SOL    HW215807   1.002   1.986   1.803
 4970SOL     OW15808   0.867   2.713   5.977
 4970SOL    HW115809   0.927   2.783   5.938
 4970SOL    HW215810   0.809   2.674   5.905
 4971SOL     OW15811   5.966   5.691   3.816
 4971SOL    HW115812   6.021   5.645   3.745
 4971SOL    HW215813   6.027   5.726   3.886
 4972SOL     OW15814   1.171   2.798   6.261
 4972SOL    HW115815   1.213   2.761   6.344
 4972SOL    HW215816   1.173   2.729   6.189
 4973SOL     OW15817   5.768   6.142   2.710
 4973SOL    HW115818   5.672   6.143   2.737
 4973SOL    HW215819   5.802   6.236   2.704
 4974SOL     OW15820   5.456   6.848   1.868
 4974SOL    HW115821   5.369   6.873   1.909
 4974SOL    HW215822   5.440   6.813   1.775
 4975SOL     OW15823   5.743   5.957   0.290
 4975SOL    HW115824   5.740   5.860   0.316
 4975SOL    HW215825   5.727   6.013   0.370
 4976SOL     OW15826   3.979   0.535   4.754
 4976SOL    HW115827   3.926   0.592   4.816
 4976SOL    HW215828   3.920   0.464   4.715
 4977SOL     OW15829   3.490   4.082   0.390
 4977SOL    HW115830   3.534   4.052   0.306
 4977SOL    HW215831   3.411   4.023   0.409
 4978SOL     OW15832   5.672   3.123   6.053
 4978SOL    HW115833   5.760   3.168   6.034
 4978SOL    HW215834   5.678   3.027   6.027
 4979SOL     OW15835   1.505   1.668   5.155
 4979SOL    HW115836   1.444   1.667   5.075
 4979SOL    HW215837   1.542   1.577   5.170
 4980SOL     OW15838   2.635   5.604   2.268
 4980SOL    HW115839   2.673   5.674   2.207
 4980SOL    HW215840   2.601   5.528   2.213
 4981SOL     OW15841   4.291   6.423   5.461
 4981SOL    HW115842   4.283   6.523   5.450
 4981SOL    HW215843   4.348   6.402   5.540
 4982SOL     OW15844   2.643   2.895   0.222
 4982SOL    HW115845   2.682   2.945   0.145
 4982SOL    HW215846   2.593   2.815   0.189
 4983SOL     OW15847   5.270   3.124   4.117
 4983SOL    HW115848   5.335   3.101   4.189
 4983SOL    HW215849   5.190   3.064   4.123
 4984SOL     OW15850   4.872   3.930   2.600
 4984SOL    HW115851   4.916   3.978   2.524
 4984SOL    HW215852   4.856   3.835   2.574
 4985SOL     OW15853   5.417   4.196   2.546
 4985SOL    HW115854   5.496   4.189   2.606
 4985SOL    HW215855   5.344   4.246   2.593
 4986SOL     OW15856   5.111   4.850   1.886
 4986SOL    HW115857   5.177   4.783   1.921
 4986SOL    HW215858   5.158   4.937   1.871
 4987SOL     OW15859   0.372   3.563   1.175
 4987SOL    HW115860   0.359   3.571   1.077
 4987SOL    HW215861   0.438   3.490   1.194
 4988SOL     OW15862   0.542   2.084   5.547
 4988SOL    HW115863   0.571   2.076   5.451
 4988SOL    HW215864   0.567   2.000   5.596
 4989SOL     OW15865   0.326   0.956   0.660
 4989SOL    HW115866   0.367   0.940   0.571
 4989SOL    HW215867   0.350   1.048   0.692
 4990SOL     OW15868   0.523   2.799   5.565
 4990SOL    HW115869   0.547   2.743   5.644
 4990SOL    HW215870   0.514   2.740   5.484
 4991SOL     OW15871   1.609   2.747   4.495
 4991SOL    HW115872   1.641   2.657   4.524
 4991SOL    HW215873   1.600   2.806   4.575
 4992SOL     OW15874   3.303   0.880   5.911
 4992SOL    HW115875   3.310   0.781   5.918
 4992SOL    HW215876   3.251   0.916   5.988
 4993SOL     OW15877   2.927   6.022   3.849
 4993SOL    HW115878   2.884   5.990   3.765
 4993SOL    HW215879   2.934   6.122   3.847
 4994SOL     OW15880   0.390   6.937   2.441
 4994SOL    HW115881   0.372   6.854   2.494
 4994SOL    HW215882   0.368   6.922   2.345
 4995SOL     OW15883   5.612   2.865   6.025
 4995SOL    HW115884   5.529   2.824   6.063
 4995SOL    HW215885   5.686   2.858   6.092
 4996SOL     OW15886   0.755   1.336   4.022
 4996SOL    HW115887   0.794   1.274   4.091
 4996SOL    HW215888   0.829   1.384   3.976
 4997SOL     OW15889   0.625   2.379   3.286
 4997SOL    HW115890   0.716   2.400   3.251
 4997SOL    HW215891   0.559   2.444   3.249
 4998SOL     OW15892   1.539   5.623   4.834
 4998SOL    HW115893   1.528   5.715   4.871
 4998SOL    HW215894   1.629   5.615   4.792
 4999SOL     OW15895   6.270   4.360   1.462
 4999SOL    HW115896   6.208   4.438   1.459
 4999SOL    HW215897   6.261   4.307   1.378
 5000SOL     OW15898   6.738   6.036   4.750
 5000SOL    HW115899   6.719   5.951   4.701
 5000SOL    HW215900   6.774   6.105   4.687
 5001SOL     OW15901   4.534   4.187   5.684
 5001SOL    HW115902   4.565   4.092   5.685
 5001SOL    HW215903   4.526   4.219   5.589
 5002SOL     OW15904   2.519   1.421   1.552
 5002SOL    HW115905   2.442   1.358   1.542
 5002SOL    HW215906   2.517   1.462   1.644
 5003SOL     OW15907   6.780   5.494   3.056
 5003SOL    HW115908   6.772   5.527   2.962
 5003SOL    HW215909   6.874   5.467   3.074
 5004SOL     OW15910   3.481   5.667   6.993
 5004SOL    HW115911   3.477   5.634   6.899
 5004SOL    HW215912   3.396   5.645   0.013
 5005SOL     OW15913   4.321   2.180   6.823
 5005SOL    HW115914   4.421   2.185   6.817
 5005SOL    HW215915   4.291   2.089   6.795
 5006SOL     OW15916   5.356   5.347   3.753
 5006SOL    HW115917   5.311   5.261   3.777
 5006SOL    HW215918   5.442   5.355   3.804
 5007SOL     OW15919   3.986   1.845   4.998
 5007SOL    HW115920   4.021   1.753   5.017
 5007SOL    HW215921   4.062   1.906   4.976
 5008SOL     OW15922   6.419   2.010   3.806
 5008SOL    HW115923   6.453   2.103   3.818
 5008SOL    HW215924   6.384   1.976   3.893
 5009SOL     OW15925   1.957   6.108   3.540
 5009SOL    HW115926   1.868   6.111   3.496
 5009SOL    HW215927   2.025   6.075   3.475
 5010SOL     OW15928   4.019   3.235   4.634
 5010SOL    HW115929   4.038   3.254   4.730
 5010SOL    HW215930   4.084   3.286   4.577
 5011SOL     OW15931   2.031   2.594   2.405
 5011SOL    HW115932   1.980   2.601   2.319
 5011SOL    HW215933   2.053   2.686   2.438
 5012SOL     OW15934   6.218   3.034   7.021
 5012SOL    HW115935   6.148   3.098   6.988
 5012SOL    HW215936   6.200   3.012   0.090
 5013SOL     OW15937   4.486   1.033   6.740
 5013SOL    HW115938   4.583   1.054   6.726
 5013SOL    HW215939   4.446   1.000   6.655
 5014SOL     OW15940   6.222   6.745   6.989
 5014SOL    HW115941   6.214   6.842   7.014
 5014SOL    HW215942   6.301   6.705   0.008
 5015SOL     OW15943   4.877   2.347   3.482
 5015SOL    HW115944   4.795   2.292   3.494
 5015SOL    HW215945   4.919   2.327   3.393
 5016SOL     OW15946   2.174   6.870   2.501
 5016SOL    HW115947   2.231   6.949   2.481
 5016SOL    HW215948   2.084   6.901   2.534
 5017SOL     OW15949   2.607   2.797   1.481
 5017SOL    HW115950   2.546   2.721   1.503
 5017SOL    HW215951   2.559   2.863   1.423
 5018SOL     OW15952   6.703   5.239   4.148
 5018SOL    HW115953   6.641   5.307   4.188
 5018SOL    HW215954   6.650   5.166   4.107
 5019SOL     OW15955   2.939   5.253   5.821
 5019SOL    HW115956   2.995   5.178   5.785
 5019SOL    HW215957   2.851   5.253   5.774
 5020SOL     OW15958   4.912   6.242   6.730
 5020SOL    HW115959   4.865   6.156   6.751
 5020SOL    HW215960   4.883   6.274   6.640
 5021SOL     OW15961   1.693   5.209   5.746
 5021SOL    HW115962   1.763   5.231   5.814
 5021SOL    HW215963   1.727   5.231   5.654
 5022SOL     OW15964   1.333   5.150   0.718
 5022SOL    HW115965   1.303   5.240   0.689
 5022SOL    HW215966   1.253   5.094   0.741
 5023SOL     OW15967   6.483   2.968   2.466
 5023SOL    HW115968   6.518   3.058   2.493
 5023SOL    HW215969   6.523   2.898   2.525
 5024SOL     OW15970   5.691   3.648   5.142
 5024SOL    HW115971   5.594   3.661   5.125
 5024SOL    HW215972   5.726   3.724   5.196
 5025SOL     OW15973   6.637   1.642   2.824
 5025SOL    HW115974   6.733   1.654   2.800
 5025SOL    HW215975   6.630   1.589   2.908
 5026SOL     OW15976   0.596   6.402   2.755
 5026SOL    HW115977   0.531   6.473   2.781
 5026SOL    HW215978   0.688   6.440   2.754
 5027SOL     OW15979   1.235   6.778   3.213
 5027SOL    HW115980   1.311   6.843   3.222
 5027SOL    HW215981   1.225   6.728   3.299
 5028SOL     OW15982   0.927   0.407   2.408
 5028SOL    HW115983   0.914   0.501   2.374
 5028SOL    HW215984   0.885   0.398   2.498
 5029SOL     OW15985   0.120   1.059   2.177
 5029SOL    HW115986   0.068   0.980   2.209
 5029SOL    HW215987   0.157   1.109   2.256
 5030SOL     OW15988   1.462   5.846   6.885
 5030SOL    HW115989   1.524   5.771   6.906
 5030SOL    HW215990   1.427   5.835   6.791
 5031SOL     OW15991   5.629   0.119   4.535
 5031SOL    HW115992   5.641   0.059   4.456
 5031SOL    HW215993   5.679   0.081   4.613
 5032SOL     OW15994   1.357   5.987   0.843
 5032SOL    HW115995   1.368   6.009   0.747
 5032SOL    HW215996   1.375   5.889   0.857
 5033SOL     OW15997   1.578   4.500   5.757
 5033SOL    HW115998   1.524   4.568   5.706
 5033SOL    HW215999   1.626   4.546   5.832
 5034SOL     OW16000   6.602   3.970   0.458
 5034SOL    HW116001   6.573   3.932   0.546
 5034SOL    HW216002   6.525   4.013   0.413
 5035SOL     OW16003   6.093   4.089   1.123
 5035SOL    HW116004   6.189   4.097   1.148
 5035SOL    HW216005   6.079   4.124   1.030
 5036SOL     OW16006   1.824   0.642   2.294
 5036SOL    HW116007   1.829   0.706   2.371
 5036SOL    HW216008   1.735   0.650   2.249
 5037SOL     OW16009   4.484   2.386   3.466
 5037SOL    HW116010   4.438   2.398   3.554
 5037SOL    HW216011   4.558   2.454   3.457
 5038SOL     OW16012   2.760   6.682   5.471
 5038SOL    HW116013   2.776   6.583   5.466
 5038SOL    HW216014   2.685   6.707   5.410
 5039SOL     OW16015   1.824   1.473   3.979
 5039SOL    HW116016   1.827   1.516   4.069
 5039SOL    HW216017   1.916   1.466   3.942
 5040SOL     OW16018   2.649   3.209   6.295
 5040SOL    HW116019   2.679   3.129   6.243
 5040SOL    HW216020   2.712   3.225   6.371
 5041SOL     OW16021   1.300   5.478   0.924
 5041SOL    HW116022   1.354   5.405   0.966
 5041SOL    HW216023   1.264   5.445   0.836
 5042SOL     OW16024   5.991   2.466   6.196
 5042SOL    HW116025   6.056   2.475   6.271
 5042SOL    HW216026   6.012   2.384   6.143
 5043SOL     OW16027   4.361   0.171   3.620
 5043SOL    HW116028   4.311   0.121   3.550
 5043SOL    HW216029   4.343   0.269   3.611
 5044SOL     OW16030   6.036   4.250   3.158
 5044SOL    HW116031   6.018   4.306   3.239
 5044SOL    HW216032   5.958   4.191   3.141
 5045SOL     OW16033   6.106   2.930   6.528
 5045SOL    HW116034   6.118   3.014   6.582
 5045SOL    HW216035   6.181   2.923   6.462
 5046SOL     OW16036   3.237   3.089   5.097
 5046SOL    HW116037   3.294   3.025   5.044
 5046SOL    HW216038   3.268   3.182   5.081
 5047SOL     OW16039   1.122   0.675   2.561
 5047SOL    HW116040   1.205   0.629   2.528
 5047SOL    HW216041   1.087   0.736   2.491
 5048SOL     OW16042   5.598   3.164   1.451
 5048SOL    HW116043   5.591   3.231   1.525
 5048SOL    HW216044   5.528   3.184   1.382
 5049SOL     OW16045   1.498   2.607   2.602
 5049SOL    HW116046   1.576   2.593   2.663
 5049SOL    HW216047   1.527   2.659   2.522
 5050SOL     OW16048   0.864   3.275   1.079
 5050SOL    HW116049   0.921   3.195   1.101
 5050SOL    HW216050   0.773   3.244   1.052
 5051SOL     OW16051   2.897   4.990   0.381
 5051SOL    HW116052   2.811   4.946   0.405
 5051SOL    HW216053   2.970   4.952   0.439
 5052SOL     OW16054   5.388   3.936   1.147
 5052SOL    HW116055   5.375   3.837   1.157
 5052SOL    HW216056   5.486   3.956   1.146
 5053SOL     OW16057   2.178   4.625   6.972
 5053SOL    HW116058   2.214   4.618   0.038
 5053SOL    HW216059   2.247   4.590   6.907
 5054SOL     OW16060   3.913   5.890   4.951
 5054SOL    HW116061   3.897   5.869   5.048
 5054SOL    HW216062   3.844   5.843   4.896
 5055SOL     OW16063   1.468   1.970   4.033
 5055SOL    HW116064   1.494   1.951   3.938
 5055SOL    HW216065   1.369   1.987   4.037
 5056SOL     OW16066   2.027   2.294   5.407
 5056SOL    HW116067   2.071   2.355   5.473
 5056SOL    HW216068   1.929   2.294   5.423
 5057SOL     OW16069   0.923   4.753   2.845
 5057SOL    HW116070   0.983   4.686   2.888
 5057SOL    HW216071   0.829   4.737   2.875
 5058SOL     OW16072   3.398   3.789   6.961
 5058SOL    HW116073   3.339   3.826   0.006
 5058SOL    HW216074   3.397   3.850   6.882
 5059SOL     OW16075   3.712   1.318   3.495
 5059SOL    HW116076   3.749   1.259   3.567
 5059SOL    HW216077   3.629   1.278   3.458
 5060SOL     OW16078   0.043   3.661   5.861
 5060SOL    HW116079   0.069   3.610   5.779
 5060SOL    HW216080   0.041   3.598   5.939
 5061SOL     OW16081   3.769   2.465   5.443
 5061SOL    HW116082   3.862   2.445   5.413
 5061SOL    HW216083   3.704   2.417   5.383
 5062SOL     OW16084   5.499   0.690   3.386
 5062SOL    HW116085   5.412   0.725   3.420
 5062SOL    HW216086   5.550   0.763   3.342
 5063SOL     OW16087   1.299   0.885   1.916
 5063SOL    HW116088   1.382   0.871   1.862
 5063SOL    HW216089   1.324   0.910   2.010
 5064SOL     OW16090   4.991   5.908   0.982
 5064SOL    HW116091   5.046   5.846   1.038
 5064SOL    HW216092   5.052   5.975   0.938
 5065SOL     OW16093   2.195   0.877   2.589
 5065SOL    HW116094   2.127   0.921   2.648
 5065SOL    HW216095   2.236   0.799   2.638
 5066SOL     OW16096   2.600   4.965   2.482
 5066SOL    HW116097   2.585   4.867   2.475
 5066SOL    HW216098   2.564   4.999   2.569
 5067SOL     OW16099   4.919   2.918   0.611
 5067SOL    HW116100   4.849   2.856   0.646
 5067SOL    HW216101   4.986   2.866   0.558
 5068SOL     OW16102   2.737   5.817   0.887
 5068SOL    HW116103   2.716   5.859   0.975
 5068SOL    HW216104   2.828   5.775   0.891
 5069SOL     OW16105   3.576   4.947   5.099
 5069SOL    HW116106   3.598   4.981   5.007
 5069SOL    HW216107   3.479   4.920   5.102
 5070SOL     OW16108   5.868   3.860   4.551
 5070SOL    HW116109   5.790   3.841   4.491
 5070SOL    HW216110   5.868   3.957   4.577
 5071SOL     OW16111   2.878   0.319   4.268
 5071SOL    HW116112   2.918   0.347   4.181
 5071SOL    HW216113   2.782   0.347   4.272
 5072SOL     OW16114   0.362   1.486   0.093
 5072SOL    HW116115   0.333   1.579   0.118
 5072SOL    HW216116   0.395   1.486   7.025
 5073SOL     OW16117   2.554   1.081   2.392
 5073SOL    HW116118   2.484   1.086   2.464
 5073SOL    HW216119   2.564   1.170   2.348
 5074SOL     OW16120   3.531   2.283   1.652
 5074SOL    HW116121   3.519   2.186   1.676
 5074SOL    HW216122   3.597   2.324   1.715
 5075SOL     OW16123   1.172   3.513   0.203
 5075SOL    HW116124   1.169   3.573   0.123
 5075SOL    HW216125   1.188   3.568   0.285
 5076SOL     OW16126   5.809   6.888   6.076
 5076SOL    HW116127   5.774   6.889   6.170
 5076SOL    HW216128   5.765   6.961   6.024
 5077SOL     OW16129   0.513   4.334   3.820
 5077SOL    HW116130   0.510   4.247   3.868
 5077SOL    HW216131   0.522   4.409   3.886
 5078SOL     OW16132   0.431   1.782   4.225
 5078SOL    HW116133   0.339   1.757   4.196
 5078SOL    HW216134   0.494   1.776   4.147
 5079SOL     OW16135   1.544   3.186   5.639
 5079SOL    HW116136   1.521   3.088   5.636
 5079SOL    HW216137   1.492   3.234   5.568
 5080SOL     OW16138   5.572   5.813   6.768
 5080SOL    HW116139   5.524   5.801   6.854
 5080SOL    HW216140   5.652   5.753   6.766
 5081SOL     OW16141   3.114   5.713   5.482
 5081SOL    HW116142   3.057   5.760   5.415
 5081SOL    HW216143   3.120   5.767   5.566
 5082SOL     OW16144   5.812   6.106   2.165
 5082SOL    HW116145   5.739   6.092   2.097
 5082SOL    HW216146   5.840   6.202   2.163
 5083SOL     OW16147   1.744   0.326   2.922
 5083SOL    HW116148   1.648   0.322   2.948
 5083SOL    HW216149   1.758   0.273   2.838
 5084SOL     OW16150   2.037   5.118   5.446
 5084SOL    HW116151   1.975   5.048   5.412
 5084SOL    HW216152   2.047   5.110   5.545
 5085SOL     OW16153   0.585   4.458   5.582
 5085SOL    HW116154   0.504   4.420   5.628
 5085SOL    HW216155   0.660   4.392   5.588
 5086SOL     OW16156   1.692   5.164   1.808
 5086SOL    HW116157   1.614   5.192   1.865
 5086SOL    HW216158   1.679   5.070   1.778
 5087SOL     OW16159   6.430   4.576   2.293
 5087SOL    HW116160   6.401   4.517   2.369
 5087SOL    HW216161   6.363   4.571   2.219
 5088SOL     OW16162   5.660   6.396   1.988
 5088SOL    HW116163   5.662   6.481   1.934
 5088SOL    HW216164   5.604   6.410   2.070
 5089SOL     OW16165   5.598   5.349   5.637
 5089SOL    HW116166   5.621   5.341   5.734
 5089SOL    HW216167   5.538   5.273   5.611
 5090SOL     OW16168   3.131   7.016   4.874
 5090SOL    HW116169   3.186   7.021   4.790
 5090SOL    HW216170   3.071   0.069   4.879
 5091SOL     OW16171   6.148   6.889   6.269
 5091SOL    HW116172   6.066   6.843   6.303
 5091SOL    HW216173   6.208   6.911   6.346
 5092SOL     OW16174   3.049   3.599   4.083
 5092SOL    HW116175   3.091   3.527   4.139
 5092SOL    HW216176   2.970   3.637   4.132
 5093SOL     OW16177   2.711   2.129   3.028
 5093SOL    HW116178   2.727   2.171   3.117
 5093SOL    HW216179   2.713   2.199   2.957
 5094SOL     OW16180   2.107   5.969   5.177
 5094SOL    HW116181   2.084   5.981   5.081
 5094SOL    HW216182   2.206   5.968   5.188
 5095SOL     OW16183   6.650   1.499   3.034
 5095SOL    HW116184   6.718   1.430   3.011
 5095SOL    HW216185   6.660   1.525   3.130
 5096SOL     OW16186   5.418   2.674   5.325
 5096SOL    HW116187   5.459   2.743   5.386
 5096SOL    HW216188   5.319   2.683   5.327
 5097SOL     OW16189   1.227   0.570   5.703
 5097SOL    HW116190   1.201   0.664   5.727
 5097SOL    HW216191   1.279   0.570   5.618
 5098SOL     OW16192   3.198   3.194   1.302
 5098SOL    HW116193   3.232   3.282   1.268
 5098SOL    HW216194   3.185   3.200   1.401
 5099SOL     OW16195   1.802   0.224   1.801
 5099SOL    HW116196   1.734   0.154   1.822
 5099SOL    HW216197   1.887   0.204   1.850
 5100SOL     OW16198   5.461   4.474   2.269
 5100SOL    HW116199   5.507   4.542   2.327
 5100SOL    HW216200   5.506   4.386   2.278
 5101SOL     OW16201   3.691   0.558   6.293
 5101SOL    HW116202   3.651   0.648   6.277
 5101SOL    HW216203   3.678   0.501   6.212
 5102SOL     OW16204   4.677   4.357   4.628
 5102SOL    HW116205   4.675   4.321   4.534
 5102SOL    HW216206   4.772   4.376   4.654
 5103SOL     OW16207   0.478   1.071   6.094
 5103SOL    HW116208   0.446   1.161   6.063
 5103SOL    HW216209   0.443   1.052   6.185
 5104SOL     OW16210   3.435   3.572   1.564
 5104SOL    HW116211   3.450   3.477   1.537
 5104SOL    HW216212   3.513   3.604   1.618
 5105SOL     OW16213   4.186   3.619   6.497
 5105SOL    HW116214   4.117   3.657   6.559
 5105SOL    HW216215   4.148   3.542   6.447
 5106SOL     OW16216   4.228   2.563   0.604
 5106SOL    HW116217   4.187   2.616   0.679
 5106SOL    HW216218   4.328   2.564   0.615
 5107SOL     OW16219   4.806   3.419   0.166
 5107SOL    HW116220   4.746   3.477   0.112
 5107SOL    HW216221   4.752   3.370   0.235
 5108SOL     OW16222   4.177   4.687   0.202
 5108SOL    HW116223   4.220   4.681   0.292
 5108SOL    HW216224   4.079   4.706   0.213
 5109SOL     OW16225   1.248   2.755   1.341
 5109SOL    HW116226   1.346   2.743   1.322
 5109SOL    HW216227   1.199   2.774   1.257
 5110SOL     OW16228   4.772   0.522   5.789
 5110SOL    HW116229   4.686   0.567   5.815
 5110SOL    HW216230   4.821   0.580   5.724
 5111SOL     OW16231   0.355   6.578   4.659
 5111SOL    HW116232   0.328   6.665   4.700
 5111SOL    HW216233   0.393   6.594   4.568
 5112SOL     OW16234   6.956   0.235   3.596
 5112SOL    HW116235   0.026   0.235   3.572
 5112SOL    HW216236   6.923   0.329   3.599
 5113SOL     OW16237   1.816   3.930   6.744
 5113SOL    HW116238   1.783   4.025   6.747
 5113SOL    HW216239   1.908   3.928   6.704
 5114SOL     OW16240   4.652   5.377   1.075
 5114SOL    HW116241   4.593   5.327   1.139
 5114SOL    HW216242   4.719   5.430   1.126
 5115SOL     OW16243   1.773   3.725   1.198
 5115SOL    HW116244   1.824   3.735   1.112
 5115SOL    HW216245   1.681   3.764   1.187
 5116SOL     OW16246   1.673   0.682   6.502
 5116SOL    HW116247   1.696   0.634   6.587
 5116SOL    HW216248   1.609   0.755   6.522
 5117SOL     OW16249   1.387   2.352   3.890
 5117SOL    HW116250   1.379   2.352   3.790
 5117SOL    HW216251   1.470   2.303   3.916
 5118SOL     OW16252   5.017   5.893   5.988
 5118SOL    HW116253   5.082   5.902   5.912
 5118SOL    HW216254   4.927   5.925   5.959
 5119SOL     OW16255   5.501   1.211   0.301
 5119SOL    HW116256   5.483   1.246   0.393
 5119SOL    HW216257   5.430   1.145   0.276
 5120SOL     OW16258   5.507   6.485   6.049
 5120SOL    HW116259   5.592   6.534   6.070
 5120SOL    HW216260   5.530   6.392   6.020
 5121SOL     OW16261   1.437   3.595   6.194
 5121SOL    HW116262   1.528   3.634   6.178
 5121SOL    HW216263   1.375   3.667   6.227
 5122SOL     OW16264   5.459   5.462   4.512
 5122SOL    HW116265   5.540   5.415   4.479
 5122SOL    HW216266   5.447   5.444   4.609
 5123SOL     OW16267   4.810   3.165   1.480
 5123SOL    HW116268   4.859   3.249   1.457
 5123SOL    HW216269   4.803   3.156   1.579
 5124SOL     OW16270   2.226   5.863   4.689
 5124SOL    HW116271   2.183   5.901   4.771
 5124SOL    HW216272   2.258   5.937   4.631
 5125SOL     OW16273   6.927   1.978   3.791
 5125SOL    HW116274   6.895   1.967   3.885
 5125SOL    HW216275   6.948   2.074   3.774
 5126SOL     OW16276   2.522   0.301   0.516
 5126SOL    HW116277   2.486   0.284   0.424
 5126SOL    HW216278   2.598   0.366   0.511
 5127SOL     OW16279   1.889   5.324   6.813
 5127SOL    HW116280   1.881   5.297   6.717
 5127SOL    HW216281   1.985   5.321   6.840
 5128SOL     OW16282   5.953   7.008   2.170
 5128SOL    HW116283   6.049   7.025   2.147
 5128SOL    HW216284   5.939   7.027   2.267
 5129SOL     OW16285   5.621   0.030   1.032
 5129SOL    HW116286   5.614   0.110   0.973
 5129SOL    HW216287   5.685   6.992   0.993
 5130SOL     OW16288   0.040   4.624   3.246
 5130SOL    HW116289   6.976   4.582   3.248
 5130SOL    HW216290   0.050   4.686   3.324
 5131SOL     OW16291   2.554   2.455   2.970
 5131SOL    HW116292   2.561   2.553   2.952
 5131SOL    HW216293   2.637   2.409   2.937
 5132SOL     OW16294   3.002   6.372   5.267
 5132SOL    HW116295   2.958   6.408   5.350
 5132SOL    HW216296   3.006   6.445   5.199
 5133SOL     OW16297   3.716   6.869   6.138
 5133SOL    HW116298   3.695   6.776   6.166
 5133SOL    HW216299   3.634   6.912   6.100
 5134SOL     OW16300   6.711   3.655   0.268
 5134SOL    HW116301   6.784   3.663   0.336
 5134SOL    HW216302   6.751   3.639   0.178
 5135SOL     OW16303   6.737   1.952   4.570
 5135SOL    HW116304   6.817   1.948   4.510
 5135SOL    HW216305   6.734   2.042   4.615
 5136SOL     OW16306   4.093   1.009   4.097
 5136SOL    HW116307   4.171   0.972   4.047
 5136SOL    HW216308   4.115   1.102   4.128
 5137SOL     OW16309   3.287   4.324   6.679
 5137SOL    HW116310   3.241   4.412   6.672
 5137SOL    HW216311   3.234   4.263   6.737
 5138SOL     OW16312   2.623   3.446   6.004
 5138SOL    HW116313   2.622   3.545   6.018
 5138SOL    HW216314   2.582   3.400   6.082
 5139SOL     OW16315   0.606   0.410   3.384
 5139SOL    HW116316   0.596   0.351   3.465
 5139SOL    HW216317   0.670   0.367   3.320
 5140SOL     OW16318   3.589   2.806   1.367
 5140SOL    HW116319   3.562   2.725   1.419
 5140SOL    HW216320   3.566   2.793   1.271
 5141SOL     OW16321   6.519   3.308   0.059
 5141SOL    HW116322   6.449   3.364   0.103
 5141SOL    HW216323   6.527   3.221   0.108
 5142SOL     OW16324   5.298   3.118   3.805
 5142SOL    HW116325   5.285   3.129   3.903
 5142SOL    HW216326   5.217   3.076   3.765
 5143SOL     OW16327   6.454   5.151   4.616
 5143SOL    HW116328   6.518   5.074   4.606
 5143SOL    HW216329   6.363   5.123   4.586
 5144SOL     OW16330   1.815   1.395   5.096
 5144SOL    HW116331   1.814   1.469   5.029
 5144SOL    HW216332   1.887   1.412   5.163
 5145SOL     OW16333   3.116   5.877   5.701
 5145SOL    HW116334   3.203   5.889   5.749
 5145SOL    HW216335   3.061   5.960   5.710
 5146SOL     OW16336   3.022   4.893   6.909
 5146SOL    HW116337   3.119   4.910   6.895
 5146SOL    HW216338   2.990   4.946   6.987
 5147SOL     OW16339   6.037   5.120   6.679
 5147SOL    HW116340   5.993   5.041   6.722
 5147SOL    HW216341   5.967   5.187   6.653
 5148SOL     OW16342   0.598   5.879   1.653
 5148SOL    HW116343   0.503   5.897   1.628
 5148SOL    HW216344   0.648   5.846   1.573
 5149SOL     OW16345   6.605   1.472   4.709
 5149SOL    HW116346   6.575   1.567   4.704
 5149SOL    HW216347   6.585   1.426   4.623
 5150SOL     OW16348   1.582   5.119   4.526
 5150SOL    HW116349   1.492   5.082   4.504
 5150SOL    HW216350   1.573   5.213   4.558
 5151SOL     OW16351   4.560   0.806   6.903
 5151SOL    HW116352   4.547   0.807   6.804
 5151SOL    HW216353   4.654   0.831   6.925
 5152SOL     OW16354   0.633   4.717   0.259
 5152SOL    HW116355   0.551   4.773   0.248
 5152SOL    HW216356   0.640   4.651   0.185
 5153SOL     OW16357   1.761   1.452   0.547
 5153SOL    HW116358   1.768   1.552   0.547
 5153SOL    HW216359   1.796   1.417   0.633
 5154SOL     OW16360   2.159   3.078   4.673
 5154SOL    HW116361   2.161   3.163   4.620
 5154SOL    HW216362   2.138   3.098   4.768
 5155SOL     OW16363   2.912   0.985   2.375
 5155SOL    HW116364   2.857   1.006   2.294
 5155SOL    HW216365   3.003   1.025   2.364
 5156SOL     OW16366   5.624   2.828   5.488
 5156SOL    HW116367   5.634   2.837   5.587
 5156SOL    HW216368   5.682   2.895   5.441
 5157SOL     OW16369   5.445   3.318   3.468
 5157SOL    HW116370   5.360   3.294   3.422
 5157SOL    HW216371   5.511   3.243   3.457
 5158SOL     OW16372   4.356   1.412   1.516
 5158SOL    HW116373   4.361   1.472   1.596
 5158SOL    HW216374   4.339   1.468   1.434
 5159SOL     OW16375   1.130   3.023   4.274
 5159SOL    HW116376   1.229   3.016   4.258
 5159SOL    HW216377   1.111   3.108   4.323
 5160SOL     OW16378   2.054   2.767   4.417
 5160SOL    HW116379   2.062   2.678   4.373
 5160SOL    HW216380   2.141   2.791   4.459
 5161SOL     OW16381   1.237   3.010   6.486
 5161SOL    HW116382   1.176   3.033   6.563
 5161SOL    HW216383   1.251   2.911   6.484
 5162SOL     OW16384   6.301   6.180   4.778
 5162SOL    HW116385   6.295   6.151   4.682
 5162SOL    HW216386   6.392   6.217   4.795
 5163SOL     OW16387   5.358   3.672   0.945
 5163SOL    HW116388   5.427   3.618   0.898
 5163SOL    HW216389   5.372   3.769   0.925
 5164SOL     OW16390   5.938   4.478   6.282
 5164SOL    HW116391   5.918   4.574   6.262
 5164SOL    HW216392   5.921   4.423   6.201
 5165SOL     OW16393   6.402   4.558   4.211
 5165SOL    HW116394   6.364   4.564   4.303
 5165SOL    HW216395   6.363   4.479   4.164
 5166SOL     OW16396   1.116   6.920   1.738
 5166SOL    HW116397   1.143   6.840   1.792
 5166SOL    HW216398   1.154   7.003   1.780
 5167SOL     OW16399   0.608   6.521   5.622
 5167SOL    HW116400   0.589   6.430   5.658
 5167SOL    HW216401   0.658   6.513   5.536
 5168SOL     OW16402   4.285   2.360   2.971
 5168SOL    HW116403   4.318   2.410   3.051
 5168SOL    HW216404   4.202   2.309   2.995
 5169SOL     OW16405   3.846   4.534   6.184
 5169SOL    HW116406   3.933   4.485   6.191
 5169SOL    HW216407   3.774   4.471   6.156
 5170SOL     OW16408   5.367   3.802   4.453
 5170SOL    HW116409   5.279   3.775   4.414
 5170SOL    HW216410   5.401   3.729   4.512
 5171SOL     OW16411   2.579   4.722   4.709
 5171SOL    HW116412   2.535   4.652   4.765
 5171SOL    HW216413   2.650   4.768   4.762
 5172SOL     OW16414   1.803   5.563   1.558
 5172SOL    HW116415   1.743   5.629   1.513
 5172SOL    HW216416   1.848   5.606   1.636
 5173SOL     OW16417   5.834   3.712   5.953
 5173SOL    HW116418   5.914   3.735   5.897
 5173SOL    HW216419   5.859   3.713   6.050
 5174SOL     OW16420   1.149   4.418   5.870
 5174SOL    HW116421   1.146   4.497   5.931
 5174SOL    HW216422   1.243   4.384   5.864
 5175SOL     OW16423   0.458   4.757   6.564
 5175SOL    HW116424   0.394   4.812   6.618
 5175SOL    HW216425   0.529   4.817   6.527
 5176SOL     OW16426   5.069   3.578   0.830
 5176SOL    HW116427   5.041   3.668   0.862
 5176SOL    HW216428   5.168   3.567   0.843
 5177SOL     OW16429   5.488   6.698   6.608
 5177SOL    HW116430   5.471   6.658   6.518
 5177SOL    HW216431   5.554   6.641   6.658
 5178SOL     OW16432   2.488   2.126   1.797
 5178SOL    HW116433   2.454   2.211   1.756
 5178SOL    HW216434   2.432   2.049   1.767
 5179SOL     OW16435   2.599   6.055   5.842
 5179SOL    HW116436   2.555   6.143   5.859
 5179SOL    HW216437   2.557   6.011   5.762
 5180SOL     OW16438   3.200   2.095   1.410
 5180SOL    HW116439   3.241   2.114   1.320
 5180SOL    HW216440   3.233   2.163   1.476
 5181SOL     OW16441   3.624   5.841   2.199
 5181SOL    HW116442   3.603   5.937   2.215
 5181SOL    HW216443   3.562   5.805   2.128
 5182SOL     OW16444   5.253   4.484   1.886
 5182SOL    HW116445   5.223   4.420   1.816
 5182SOL    HW216446   5.277   4.571   1.845
 5183SOL     OW16447   4.687   0.421   2.660
 5183SOL    HW116448   4.683   0.321   2.665
 5183SOL    HW216449   4.605   0.456   2.614
 5184SOL     OW16450   0.990   1.243   2.884
 5184SOL    HW116451   1.078   1.239   2.931
 5184SOL    HW216452   0.952   1.335   2.892
 5185SOL     OW16453   3.850   0.249   2.458
 5185SOL    HW116454   3.776   0.263   2.523
 5185SOL    HW216455   3.914   0.326   2.463
 5186SOL     OW16456   6.224   4.480   0.670
 5186SOL    HW116457   6.224   4.422   0.751
 5186SOL    HW216458   6.148   4.545   0.675
 5187SOL     OW16459   5.346   1.561   3.848
 5187SOL    HW116460   5.423   1.570   3.784
 5187SOL    HW216461   5.268   1.520   3.801
 5188SOL     OW16462   0.836   3.930   5.515
 5188SOL    HW116463   0.743   3.965   5.510
 5188SOL    HW216464   0.880   3.940   5.426
 5189SOL     OW16465   4.830   5.286   6.333
 5189SOL    HW116466   4.889   5.364   6.312
 5189SOL    HW216467   4.738   5.319   6.357
 5190SOL     OW16468   1.430   2.349   3.629
 5190SOL    HW116469   1.433   2.268   3.571
 5190SOL    HW216470   1.501   2.413   3.600
 5191SOL     OW16471   3.819   0.247   1.897
 5191SOL    HW116472   3.878   0.268   1.976
 5191SOL    HW216473   3.724   0.267   1.921
 5192SOL     OW16474   6.201   4.456   2.763
 5192SOL    HW116475   6.176   4.455   2.860
 5192SOL    HW216476   6.123   4.427   2.708
 5193SOL     OW16477   4.894   3.679   2.514
 5193SOL    HW116478   4.981   3.693   2.465
 5193SOL    HW216479   4.901   3.599   2.573
 5194SOL     OW16480   6.133   0.880   5.662
 5194SOL    HW116481   6.167   0.849   5.751
 5194SOL    HW216482   6.206   0.928   5.613
 5195SOL     OW16483   5.832   6.379   6.001
 5195SOL    HW116484   5.915   6.349   5.953
 5195SOL    HW216485   5.762   6.404   5.934
 5196SOL     OW16486   0.647   3.055   1.707
 5196SOL    HW116487   0.558   3.050   1.663
 5196SOL    HW216488   0.709   3.108   1.649
 5197SOL     OW16489   3.220   6.379   4.771
 5197SOL    HW116490   3.182   6.469   4.749
 5197SOL    HW216491   3.186   6.349   4.860
 5198SOL     OW16492   4.104   6.663   5.541
 5198SOL    HW116493   4.195   6.701   5.559
 5198SOL    HW216494   4.049   6.666   5.624
 5199SOL     OW16495   0.843   4.953   1.619
 5199SOL    HW116496   0.888   4.864   1.614
 5199SOL    HW216497   0.910   5.025   1.603
 5200SOL     OW16498   6.691   0.677   4.960
 5200SOL    HW116499   6.592   0.690   4.948
 5200SOL    HW216500   6.708   0.595   5.013
 5201SOL     OW16501   6.533   5.218   5.108
 5201SOL    HW116502   6.593   5.162   5.051
 5201SOL    HW216503   6.507   5.300   5.058
 5202SOL     OW16504   3.696   2.955   5.983
 5202SOL    HW116505   3.634   3.002   5.919
 5202SOL    HW216506   3.768   2.909   5.932
 5203SOL     OW16507   1.798   0.739   6.879
 5203SOL    HW116508   1.828   0.824   6.922
 5203SOL    HW216509   1.711   0.710   6.918
 5204SOL     OW16510   2.692   0.065   0.747
 5204SOL    HW116511   2.658   0.039   0.838
 5204SOL    HW216512   2.617   0.063   0.681
 5205SOL     OW16513   0.433   6.128   1.162
 5205SOL    HW116514   0.507   6.077   1.207
 5205SOL    HW216515   0.447   6.226   1.176
 5206SOL     OW16516   1.143   4.921   4.210
 5206SOL    HW116517   1.196   4.850   4.257
 5206SOL    HW216518   1.049   4.888   4.196
 5207SOL     OW16519   6.665   0.505   3.790
 5207SOL    HW116520   6.737   0.501   3.721
 5207SOL    HW216521   6.699   0.468   3.876
 5208SOL     OW16522   5.259   2.114   0.476
 5208SOL    HW116523   5.304   2.088   0.391
 5208SOL    HW216524   5.186   2.048   0.496
 5209SOL     OW16525   5.919   5.803   2.893
 5209SOL    HW116526   5.825   5.787   2.862
 5209SOL    HW216527   5.978   5.730   2.859
 5210SOL     OW16528   5.340   4.230   0.456
 5210SOL    HW116529   5.286   4.147   0.472
 5210SOL    HW216530   5.396   4.249   0.536
 5211SOL     OW16531   4.990   2.600   4.755
 5211SOL    HW116532   4.959   2.612   4.661
 5211SOL    HW216533   5.010   2.690   4.795
 5212SOL     OW16534   1.171   3.625   0.453
 5212SOL    HW116535   1.078   3.663   0.451
 5212SOL    HW216536   1.237   3.699   0.443
 5213SOL     OW16537   4.012   3.863   3.181
 5213SOL    HW116538   4.077   3.875   3.106
 5213SOL    HW216539   3.962   3.777   3.168
 5214SOL     OW16540   5.559   3.734   5.404
 5214SOL    HW116541   5.477   3.695   5.362
 5214SOL    HW216542   5.599   3.668   5.467
 5215SOL     OW16543   0.342   3.758   5.066
 5215SOL    HW116544   0.268   3.824   5.082
 5215SOL    HW216545   0.315   3.669   5.101
 5216SOL     OW16546   5.331   5.272   1.343
 5216SOL    HW116547   5.367   5.277   1.250
 5216SOL    HW216548   5.249   5.215   1.344
 5217SOL     OW16549   4.635   5.845   3.164
 5217SOL    HW116550   4.725   5.880   3.190
 5217SOL    HW216551   4.573   5.849   3.243
 5218SOL     OW16552   0.805   0.059   1.010
 5218SOL    HW116553   0.709   0.087   1.002
 5218SOL    HW216554   0.820   0.021   1.101
 5219SOL     OW16555   3.468   1.421   4.518
 5219SOL    HW116556   3.566   1.425   4.537
 5219SOL    HW216557   3.417   1.433   4.603
 5220SOL     OW16558   2.168   4.859   4.079
 5220SOL    HW116559   2.225   4.861   4.161
 5220SOL    HW216560   2.225   4.833   4.000
 5221SOL     OW16561   6.590   5.707   1.150
 5221SOL    HW116562   6.620   5.738   1.240
 5221SOL    HW216563   6.668   5.704   1.087
 5222SOL     OW16564   5.956   3.834   1.167
 5222SOL    HW116565   5.999   3.922   1.146
 5222SOL    HW216566   5.914   3.837   1.257
 5223SOL     OW16567   0.011   2.815   0.854
 5223SOL    HW116568   6.998   2.724   0.865
 5223SOL    HW216569   7.008   2.874   0.930
 5224SOL     OW16570   0.035   2.412   4.654
 5224SOL    HW116571   0.101   2.348   4.694
 5224SOL    HW216572   0.048   2.503   4.693
 5225SOL     OW16573   0.036   1.782   4.305
 5225SOL    HW116574   0.072   1.770   4.398
 5225SOL    HW216575   0.004   1.694   4.270
 5226SOL     OW16576   0.658   6.557   3.501
 5226SOL    HW116577   0.691   6.571   3.594
 5226SOL    HW216578   0.723   6.499   3.451
 5227SOL     OW16579   0.327   3.044   5.552
 5227SOL    HW116580   0.398   3.007   5.611
 5227SOL    HW216581   0.368   3.083   5.469
 5228SOL     OW16582   1.308   1.478   5.467
 5228SOL    HW116583   1.301   1.501   5.564
 5228SOL    HW216584   1.401   1.447   5.446
 5229SOL     OW16585   3.358   1.810   5.921
 5229SOL    HW116586   3.334   1.794   5.825
 5229SOL    HW216587   3.452   1.843   5.927
 5230SOL     OW16588   0.016   0.069   2.260
 5230SOL    HW116589   0.111   0.041   2.250
 5230SOL    HW216590   7.018   0.068   2.357
 5231SOL     OW16591   6.914   2.484   1.874
 5231SOL    HW116592   6.843   2.434   1.925
 5231SOL    HW216593   7.004   2.450   1.901
 5232SOL     OW16594   1.438   3.168   6.031
 5232SOL    HW116595   1.358   3.188   5.974
 5232SOL    HW216596   1.430   3.219   6.117
 5233SOL     OW16597   3.088   0.078   2.832
 5233SOL    HW116598   3.048   0.131   2.758
 5233SOL    HW216599   3.117   0.139   2.905
 5234SOL     OW16600   2.512   2.032   6.943
 5234SOL    HW116601   2.463   1.946   6.936
 5234SOL    HW216602   2.503   2.069   0.009
 5235SOL     OW16603   2.005   2.363   1.468
 5235SOL    HW116604   1.946   2.326   1.396
 5235SOL    HW216605   2.030   2.290   1.531
 5236SOL     OW16606   3.136   5.116   1.581
 5236SOL    HW116607   3.235   5.117   1.568
 5236SOL    HW216608   3.102   5.023   1.572
 5237SOL     OW16609   2.157   1.639   2.637
 5237SOL    HW116610   2.120   1.687   2.717
 5237SOL    HW216611   2.082   1.618   2.574
 5238SOL     OW16612   0.825   6.553   2.747
 5238SOL    HW116613   0.857   6.527   2.838
 5238SOL    HW216614   0.902   6.550   2.683
 5239SOL     OW16615   2.282   3.965   0.435
 5239SOL    HW116616   2.373   3.999   0.410
 5239SOL    HW216617   2.288   3.919   0.524
 5240SOL     OW16618   2.222   3.886   6.069
 5240SOL    HW116619   2.274   3.804   6.090
 5240SOL    HW216620   2.227   3.905   5.971
 5241SOL     OW16621   0.570   5.965   2.356
 5241SOL    HW116622   0.626   5.949   2.438
 5241SOL    HW216623   0.496   5.897   2.353
 5242SOL     OW16624   4.363   0.525   0.196
 5242SOL    HW116625   4.399   0.533   0.288
 5242SOL    HW216626   4.433   0.551   0.130
 5243SOL     OW16627   2.750   6.203   2.052
 5243SOL    HW116628   2.695   6.157   1.983
 5243SOL    HW216629   2.714   6.183   2.143
 5244SOL     OW16630   4.648   1.886   0.652
 5244SOL    HW116631   4.568   1.846   0.608
 5244SOL    HW216632   4.727   1.825   0.641
 5245SOL     OW16633   3.187   3.683   1.635
 5245SOL    HW116634   3.126   3.603   1.630
 5245SOL    HW216635   3.278   3.656   1.605
 5246SOL     OW16636   6.412   3.852   6.848
 5246SOL    HW116637   6.510   3.869   6.835
 5246SOL    HW216638   6.381   3.897   6.931
 5247SOL     OW16639   4.304   1.881   6.416
 5247SOL    HW116640   4.329   1.824   6.338
 5247SOL    HW216641   4.371   1.869   6.489
 5248SOL     OW16642   5.876   1.104   3.529
 5248SOL    HW116643   5.809   1.031   3.518
 5248SOL    HW216644   5.870   1.167   3.451
 5249SOL     OW16645   0.477   4.554   0.468
 5249SOL    HW116646   0.526   4.641   0.464
 5249SOL    HW216647   0.540   4.482   0.499
 5250SOL     OW16648   1.574   6.093   1.006
 5250SOL    HW116649   1.647   6.029   0.988
 5250SOL    HW216650   1.492   6.065   0.956
 5251SOL     OW16651   0.836   4.652   0.445
 5251SOL    HW116652   0.810   4.722   0.512
 5251SOL    HW216653   0.764   4.643   0.377
 5252SOL     OW16654   3.677   6.434   2.284
 5252SOL    HW116655   3.674   6.523   2.237
 5252SOL    HW216656   3.771   6.412   2.306
 5253SOL     OW16657   0.186   5.349   4.530
 5253SOL    HW116658   0.194   5.298   4.444
 5253SOL    HW216659   0.146   5.289   4.599
 5254SOL     OW16660   5.181   6.419   3.677
 5254SOL    HW116661   5.152   6.371   3.594
 5254SOL    HW216662   5.137   6.508   3.681
 5255SOL     OW16663   6.601   2.077   5.432
 5255SOL    HW116664   6.682   2.083   5.373
 5255SOL    HW216665   6.597   2.158   5.490
 5256SOL     OW16666   0.203   1.608   2.184
 5256SOL    HW116667   0.296   1.574   2.179
 5256SOL    HW216668   0.195   1.691   2.129
 5257SOL     OW16669   4.042   1.195   6.345
 5257SOL    HW116670   4.037   1.165   6.440
 5257SOL    HW216671   3.987   1.278   6.334
 5258SOL     OW16672   4.356   1.480   3.341
 5258SOL    HW116673   4.268   1.461   3.385
 5258SOL    HW216674   4.427   1.424   3.382
 5259SOL     OW16675   6.148   4.897   3.505
 5259SOL    HW116676   6.182   4.912   3.598
 5259SOL    HW216677   6.215   4.931   3.439
 5260SOL     OW16678   2.381   0.595   0.489
 5260SOL    HW116679   2.387   0.497   0.508
 5260SOL    HW216680   2.285   0.621   0.480
 5261SOL     OW16681   5.677   4.546   6.679
 5261SOL    HW116682   5.698   4.644   6.680
 5261SOL    HW216683   5.582   4.533   6.708
 5262SOL     OW16684   1.775   1.113   2.488
 5262SOL    HW116685   1.864   1.132   2.446
 5262SOL    HW216686   1.729   1.199   2.509
 5263SOL     OW16687   1.054   6.286   2.459
 5263SOL    HW116688   1.019   6.379   2.476
 5263SOL    HW216689   1.082   6.279   2.363
 5264SOL     OW16690   6.420   1.375   1.765
 5264SOL    HW116691   6.443   1.472   1.759
 5264SOL    HW216692   6.474   1.332   1.837
 5265SOL     OW16693   6.409   4.845   4.813
 5265SOL    HW116694   6.433   4.817   4.906
 5265SOL    HW216695   6.311   4.859   4.807
 5266SOL     OW16696   1.653   0.284   6.788
 5266SOL    HW116697   1.677   0.374   6.753
 5266SOL    HW216698   1.561   0.258   6.757
 5267SOL     OW16699   5.386   2.230   4.434
 5267SOL    HW116700   5.323   2.161   4.397
 5267SOL    HW216701   5.335   2.294   4.492
 5268SOL     OW16702   4.783   0.181   6.088
 5268SOL    HW116703   4.836   0.122   6.148
 5268SOL    HW216704   4.686   0.178   6.114
 5269SOL     OW16705   0.497   6.942   3.913
 5269SOL    HW116706   0.583   6.937   3.862
 5269SOL    HW216707   0.482   0.010   3.942
 5270SOL     OW16708   0.234   1.571   6.241
 5270SOL    HW116709   0.298   1.602   6.311
 5270SOL    HW216710   0.277   1.576   6.151
 5271SOL     OW16711   0.410   4.789   3.293
 5271SOL    HW116712   0.357   4.818   3.213
 5271SOL    HW216713   0.507   4.783   3.269
 5272SOL     OW16714   4.299   0.268   0.125
 5272SOL    HW116715   4.258   0.215   0.199
 5272SOL    HW216716   4.313   0.363   0.155
 5273SOL     OW16717   2.198   2.000   2.711
 5273SOL    HW116718   2.172   1.983   2.616
 5273SOL    HW216719   2.139   2.071   2.749
 5274SOL     OW16720   4.929   5.221   1.004
 5274SOL    HW116721   4.889   5.246   1.092
 5274SOL    HW216722   4.898   5.129   0.978
 5275SOL     OW16723   4.470   1.853   6.628
 5275SOL    HW116724   4.527   1.932   6.606
 5275SOL    HW216725   4.508   1.771   6.585
 5276SOL     OW16726   4.545   6.746   1.892
 5276SOL    HW116727   4.463   6.770   1.944
 5276SOL    HW216728   4.577   6.655   1.921
 5277SOL     OW16729   2.339   2.805   1.840
 5277SOL    HW116730   2.296   2.756   1.764
 5277SOL    HW216731   2.392   2.742   1.896
 5278SOL     OW16732   4.541   3.624   1.699
 5278SOL    HW116733   4.501   3.716   1.699
 5278SOL    HW216734   4.638   3.630   1.721
 5279SOL     OW16735   2.260   5.425   2.674
 5279SOL    HW116736   2.356   5.432   2.649
 5279SOL    HW216737   2.241   5.333   2.709
 5280SOL     OW16738   4.578   6.973   4.940
 5280SOL    HW116739   4.646   0.018   4.950
 5280SOL    HW216740   4.513   6.998   4.869
 5281SOL     OW16741   0.307   2.667   2.225
 5281SOL    HW116742   0.306   2.667   2.125
 5281SOL    HW216743   0.333   2.757   2.258
 5282SOL     OW16744   5.082   1.559   2.249
 5282SOL    HW116745   5.062   1.461   2.246
 5282SOL    HW216746   5.151   1.581   2.181
 5283SOL     OW16747   5.467   5.337   6.414
 5283SOL    HW116748   5.406   5.261   6.392
 5283SOL    HW216749   5.562   5.309   6.399
 5284SOL     OW16750   5.119   2.983   3.669
 5284SOL    HW116751   5.063   3.020   3.595
 5284SOL    HW216752   5.075   2.902   3.707
 5285SOL     OW16753   3.309   5.949   2.338
 5285SOL    HW116754   3.326   5.949   2.240
 5285SOL    HW216755   3.342   5.862   2.377
 5286SOL     OW16756   2.226   4.922   2.309
 5286SOL    HW116757   2.168   4.840   2.312
 5286SOL    HW216758   2.169   5.003   2.297
 5287SOL     OW16759   0.803   1.784   1.655
 5287SOL    HW116760   0.819   1.835   1.571
 5287SOL    HW216761   0.733   1.714   1.638
 5288SOL     OW16762   4.675   1.147   0.574
 5288SOL    HW116763   4.674   1.229   0.630
 5288SOL    HW216764   4.619   1.162   0.492
 5289SOL     OW16765   1.956   6.165   0.964
 5289SOL    HW116766   2.050   6.135   0.980
 5289SOL    HW216767   1.917   6.113   0.889
 5290SOL     OW16768   4.770   5.780   1.043
 5290SOL    HW116769   4.799   5.692   1.082
 5290SOL    HW216770   4.851   5.832   1.015
 5291SOL     OW16771   2.264   5.174   6.148
 5291SOL    HW116772   2.237   5.081   6.121
 5291SOL    HW216773   2.321   5.214   6.077
 5292SOL     OW16774   5.054   2.438   6.534
 5292SOL    HW116775   5.141   2.452   6.580
 5292SOL    HW216776   5.048   2.500   6.455
 5293SOL     OW16777   0.822   1.227   4.462
 5293SOL    HW116778   0.732   1.240   4.504
 5293SOL    HW216779   0.867   1.315   4.452
 5294SOL     OW16780   5.269   2.047   5.633
 5294SOL    HW116781   5.307   2.083   5.718
 5294SOL    HW216782   5.176   2.082   5.622
 5295SOL     OW16783   6.149   0.715   1.627
 5295SOL    HW116784   6.146   0.704   1.727
 5295SOL    HW216785   6.199   0.798   1.604
 5296SOL     OW16786   0.921   3.757   0.475
 5296SOL    HW116787   0.916   3.794   0.383
 5296SOL    HW216788   0.943   3.830   0.540
 5297SOL     OW16789   2.102   3.212   1.783
 5297SOL    HW116790   2.197   3.222   1.751
 5297SOL    HW216791   2.062   3.303   1.796
 5298SOL     OW16792   1.061   5.263   1.331
 5298SOL    HW116793   1.019   5.181   1.292
 5298SOL    HW216794   1.075   5.331   1.260
 5299SOL     OW16795   3.018   0.410   1.626
 5299SOL    HW116796   2.981   0.499   1.599
 5299SOL    HW216797   2.947   0.340   1.616
 5300SOL     OW16798   6.954   4.973   3.573
 5300SOL    HW116799   0.001   5.040   3.581
 5300SOL    HW216800   6.869   5.014   3.608
 5301SOL     OW16801   4.829   0.510   0.326
 5301SOL    HW116802   4.783   0.439   0.273
 5301SOL    HW216803   4.906   0.546   0.274
 5302SOL     OW16804   6.618   4.207   3.334
 5302SOL    HW116805   6.682   4.237   3.404
 5302SOL    HW216806   6.525   4.206   3.371
 5303SOL     OW16807   0.733   5.517   3.660
 5303SOL    HW116808   0.724   5.476   3.569
 5303SOL    HW216809   0.785   5.602   3.654
 5304SOL     OW16810   4.934   2.154   5.108
 5304SOL    HW116811   5.027   2.126   5.083
 5304SOL    HW216812   4.925   2.153   5.208
 5305SOL     OW16813   2.872   1.041   2.668
 5305SOL    HW116814   2.777   1.062   2.687
 5305SOL    HW216815   2.883   1.020   2.571
 5306SOL     OW16816   2.383   0.217   4.438
 5306SOL    HW116817   2.362   0.221   4.536
 5306SOL    HW216818   2.454   0.284   4.417
 5307SOL     OW16819   4.326   7.009   6.818
 5307SOL    HW116820   4.358   0.060   6.872
 5307SOL    HW216821   4.250   0.011   6.760
 5308SOL     OW16822   0.253   1.176   2.647
 5308SOL    HW116823   0.162   1.197   2.610
 5308SOL    HW216824   0.279   1.248   2.712
 5309SOL     OW16825   4.037   3.169   4.261
 5309SOL    HW116826   4.108   3.236   4.241
 5309SOL    HW216827   3.976   3.159   4.182
 5310SOL     OW16828   5.962   1.845   0.795
 5310SOL    HW116829   5.897   1.867   0.868
 5310SOL    HW216830   6.034   1.915   0.792
 5311SOL     OW16831   1.701   5.668   6.816
 5311SOL    HW116832   1.726   5.593   6.877
 5311SOL    HW216833   1.755   5.749   6.838
 5312SOL     OW16834   0.241   2.663   1.963
 5312SOL    HW116835   0.160   2.694   1.915
 5312SOL    HW216836   0.245   2.563   1.961
 5313SOL     OW16837   1.197   5.865   6.870
 5313SOL    HW116838   1.294   5.868   6.895
 5313SOL    HW216839   1.182   5.921   6.788
 5314SOL     OW16840   3.129   4.595   0.728
 5314SOL    HW116841   3.152   4.499   0.712
 5314SOL    HW216842   3.043   4.617   0.683
 5315SOL     OW16843   4.853   3.233   2.349
 5315SOL    HW116844   4.914   3.262   2.275
 5315SOL    HW216845   4.787   3.306   2.368
 5316SOL     OW16846   6.261   5.411   4.972
 5316SOL    HW116847   6.215   5.499   4.959
 5316SOL    HW216848   6.267   5.391   5.069
 5317SOL     OW16849   5.873   5.641   3.138
 5317SOL    HW116850   5.801   5.668   3.201
 5317SOL    HW216851   5.877   5.706   3.062
 5318SOL     OW16852   0.393   2.351   4.578
 5318SOL    HW116853   0.406   2.409   4.498
 5318SOL    HW216854   0.393   2.408   4.660
 5319SOL     OW16855   3.758   0.439   1.450
 5319SOL    HW116856   3.771   0.530   1.409
 5319SOL    HW216857   3.764   0.446   1.549
 5320SOL     OW16858   5.888   3.926   5.611
 5320SOL    HW116859   5.977   3.900   5.649
 5320SOL    HW216860   5.886   4.026   5.599
 5321SOL     OW16861   1.800   5.632   6.373
 5321SOL    HW116862   1.734   5.578   6.424
 5321SOL    HW216863   1.810   5.596   6.280
 5322SOL     OW16864   3.170   6.131   0.489
 5322SOL    HW116865   3.126   6.194   0.553
 5322SOL    HW216866   3.267   6.153   0.482
 5323SOL     OW16867   5.976   3.323   0.194
 5323SOL    HW116868   6.076   3.323   0.197
 5323SOL    HW216869   5.945   3.378   0.116
 5324SOL     OW16870   3.876   3.178   1.694
 5324SOL    HW116871   3.972   3.152   1.690
 5324SOL    HW216872   3.819   3.098   1.673
 5325SOL     OW16873   4.808   5.988   4.510
 5325SOL    HW116874   4.747   6.036   4.573
 5325SOL    HW216875   4.801   6.028   4.419
 5326SOL     OW16876   0.576   0.299   2.272
 5326SOL    HW116877   0.578   0.375   2.337
 5326SOL    HW216878   0.526   0.326   2.190
 5327SOL     OW16879   6.572   1.109   4.145
 5327SOL    HW116880   6.539   1.192   4.189
 5327SOL    HW216881   6.506   1.078   4.077
 5328SOL     OW16882   3.657   4.756   1.244
 5328SOL    HW116883   3.670   4.834   1.183
 5328SOL    HW216884   3.652   4.788   1.339
 5329SOL     OW16885   6.436   5.445   0.403
 5329SOL    HW116886   6.350   5.437   0.455
 5329SOL    HW216887   6.511   5.465   0.466
 5330SOL     OW16888   3.863   5.151   0.486
 5330SOL    HW116889   3.908   5.190   0.566
 5330SOL    HW216890   3.915   5.071   0.454
 5331SOL     OW16891   4.281   2.592   6.531
 5331SOL    HW116892   4.252   2.540   6.450
 5331SOL    HW216893   4.248   2.545   6.613
 5332SOL     OW16894   5.847   3.088   0.128
 5332SOL    HW116895   5.879   2.994   0.141
 5332SOL    HW216896   5.907   3.150   0.177
 5333SOL     OW16897   1.202   1.983   4.056
 5333SOL    HW116898   1.152   1.954   4.137
 5333SOL    HW216899   1.205   2.083   4.053
 5334SOL     OW16900   3.599   5.807   1.574
 5334SOL    HW116901   3.506   5.810   1.538
 5334SOL    HW216902   3.597   5.783   1.671
 5335SOL     OW16903   0.311   4.666   1.388
 5335SOL    HW116904   0.274   4.758   1.396
 5335SOL    HW216905   0.408   4.671   1.366
 5336SOL     OW16906   1.569   2.866   5.070
 5336SOL    HW116907   1.601   2.951   5.112
 5336SOL    HW216908   1.555   2.797   5.141
 5337SOL     OW16909   6.425   4.952   0.595
 5337SOL    HW116910   6.374   4.878   0.551
 5337SOL    HW216911   6.501   4.914   0.648
 5338SOL     OW16912   6.060   3.466   0.578
 5338SOL    HW116913   5.985   3.481   0.513
 5338SOL    HW216914   6.133   3.532   0.561
 5339SOL     OW16915   5.126   3.393   2.425
 5339SOL    HW116916   5.091   3.431   2.339
 5339SOL    HW216917   5.165   3.303   2.408
 5340SOL     OW16918   5.105   3.592   1.893
 5340SOL    HW116919   5.049   3.671   1.920
 5340SOL    HW216920   5.052   3.534   1.831
 5341SOL     OW16921   4.524   4.420   3.679
 5341SOL    HW116922   4.438   4.370   3.688
 5341SOL    HW216923   4.522   4.501   3.737
 5342SOL     OW16924   6.663   5.633   5.092
 5342SOL    HW116925   6.731   5.561   5.098
 5342SOL    HW216926   6.707   5.722   5.109
 5343SOL     OW16927   3.420   3.068   6.288
 5343SOL    HW116928   3.378   2.978   6.277
 5343SOL    HW216929   3.511   3.068   6.246
 5344SOL     OW16930   0.089   1.354   6.221
 5344SOL    HW116931   0.028   1.371   6.143
 5344SOL    HW216932   0.143   1.437   6.239
 5345SOL     OW16933   5.276   1.428   6.527
 5345SOL    HW116934   5.274   1.379   6.615
 5345SOL    HW216935   5.317   1.518   6.541
 5346SOL     OW16936   3.318   5.702   3.187
 5346SOL    HW116937   3.287   5.783   3.138
 5346SOL    HW216938   3.280   5.703   3.280
 5347SOL     OW16939   6.125   2.047   4.058
 5347SOL    HW116940   6.064   2.084   4.127
 5347SOL    HW216941   6.176   2.122   4.015
 5348SOL     OW16942   4.922   2.585   4.469
 5348SOL    HW116943   4.848   2.606   4.405
 5348SOL    HW216944   4.988   2.660   4.468
 5349SOL     OW16945   1.021   3.689   1.411
 5349SOL    HW116946   1.050   3.730   1.325
 5349SOL    HW216947   0.937   3.733   1.443
 5350SOL     OW16948   1.274   6.099   6.722
 5350SOL    HW116949   1.334   6.143   6.788
 5350SOL    HW216950   1.234   6.168   6.662
 5351SOL     OW16951   6.714   5.984   3.607
 5351SOL    HW116952   6.617   5.992   3.627
 5351SOL    HW216953   6.729   5.914   3.537
 5352SOL     OW16954   1.076   3.003   6.116
 5352SOL    HW116955   1.120   2.941   6.182
 5352SOL    HW216956   1.069   3.095   6.156
 5353SOL     OW16957   3.953   4.873   3.599
 5353SOL    HW116958   4.002   4.953   3.635
 5353SOL    HW216959   3.970   4.795   3.659
 5354SOL     OW16960   3.885   5.634   1.570
 5354SOL    HW116961   3.940   5.561   1.611
 5354SOL    HW216962   3.848   5.692   1.642
 5355SOL     OW16963   5.505   4.911   5.387
 5355SOL    HW116964   5.429   4.907   5.323
 5355SOL    HW216965   5.514   4.824   5.435
 5356SOL     OW16966   0.538   5.998   0.708
 5356SOL    HW116967   0.572   5.905   0.697
 5356SOL    HW216968   0.603   6.063   0.668
 5357SOL     OW16969   6.158   3.600   2.820
 5357SOL    HW116970   6.148   3.510   2.777
 5357SOL    HW216971   6.243   3.604   2.871
 5358SOL     OW16972   4.842   0.897   6.931
 5358SOL    HW116973   4.858   0.916   6.834
 5358SOL    HW216974   4.881   0.808   6.954
 5359SOL     OW16975   3.253   2.182   6.606
 5359SOL    HW116976   3.261   2.253   6.535
 5359SOL    HW216977   3.181   2.208   6.671
 5360SOL     OW16978   5.960   5.072   4.011
 5360SOL    HW116979   5.958   5.161   4.056
 5360SOL    HW216980   5.919   5.079   3.920
 5361SOL     OW16981   1.340   5.096   2.496
 5361SOL    HW116982   1.383   5.186   2.498
 5361SOL    HW216983   1.244   5.104   2.520
 5362SOL     OW16984   5.911   1.825   2.418
 5362SOL    HW116985   5.920   1.790   2.512
 5362SOL    HW216986   5.894   1.749   2.356
 5363SOL     OW16987   5.269   4.909   3.445
 5363SOL    HW116988   5.356   4.958   3.441
 5363SOL    HW216989   5.261   4.847   3.367
 5364SOL     OW16990   4.637   1.740   2.771
 5364SOL    HW116991   4.606   1.680   2.844
 5364SOL    HW216992   4.665   1.828   2.810
 5365SOL     OW16993   2.941   3.770   4.671
 5365SOL    HW116994   2.916   3.676   4.693
 5365SOL    HW216995   2.928   3.828   4.751
 5366SOL     OW16996   6.447   6.032   3.664
 5366SOL    HW116997   6.397   5.979   3.731
 5366SOL    HW216998   6.384   6.092   3.615
 5367SOL     OW16999   5.863   5.604   1.405
 5367SOL    HW117000   5.767   5.624   1.385
 5367SOL    HW217001   5.917   5.688   1.397
 5368SOL     OW17002   0.079   6.042   4.501
 5368SOL    HW117003   0.157   6.030   4.441
 5368SOL    HW217004   0.054   5.954   4.542
 5369SOL     OW17005   4.016   5.724   2.717
 5369SOL    HW117006   4.014   5.694   2.812
 5369SOL    HW217007   4.081   5.799   2.707
 5370SOL     OW17008   1.784   2.969   0.537
 5370SOL    HW117009   1.708   3.019   0.496
 5370SOL    HW217010   1.756   2.874   0.554
 5371SOL     OW17011   6.275   5.379   4.665
 5371SOL    HW117012   6.217   5.444   4.713
 5371SOL    HW217013   6.322   5.321   4.732
 5372SOL     OW17014   1.996   6.986   2.684
 5372SOL    HW117015   1.933   0.034   2.701
 5372SOL    HW217016   2.076   6.995   2.743
 5373SOL     OW17017   2.879   1.091   6.516
 5373SOL    HW117018   2.799   1.032   6.503
 5373SOL    HW217019   2.856   1.165   6.579
 5374SOL     OW17020   2.013   4.032   1.715
 5374SOL    HW117021   1.933   3.973   1.720
 5374SOL    HW217022   2.062   4.029   1.802
 5375SOL     OW17023   2.448   4.830   5.052
 5375SOL    HW117024   2.353   4.851   5.027
 5375SOL    HW217025   2.449   4.759   5.122
 5376SOL     OW17026   0.552   0.274   5.787
 5376SOL    HW117027   0.465   0.283   5.836
 5376SOL    HW217028   0.568   0.356   5.733
 5377SOL     OW17029   1.268   1.446   2.780
 5377SOL    HW117030   1.250   1.543   2.762
 5377SOL    HW217031   1.291   1.401   2.694
 5378SOL     OW17032   4.204   0.161   2.516
 5378SOL    HW117033   4.124   0.120   2.472
 5378SOL    HW217034   4.176   0.208   2.600
 5379SOL     OW17035   2.360   2.125   4.265
 5379SOL    HW117036   2.445   2.083   4.233
 5379SOL    HW217037   2.286   2.058   4.258
 5380SOL     OW17038   4.704   5.977   2.062
 5380SOL    HW117039   4.660   5.924   1.989
 5380SOL    HW217040   4.719   5.919   2.142
 5381SOL     OW17041   2.750   0.270   3.640
 5381SOL    HW117042   2.671   0.308   3.592
 5381SOL    HW217043   2.811   0.225   3.575
 5382SOL     OW17044   4.686   0.904   2.617
 5382SOL    HW117045   4.714   0.830   2.555
 5382SOL    HW217046   4.743   0.900   2.700
 5383SOL     OW17047   2.288   2.909   4.470
 5383SOL    HW117048   2.248   2.964   4.543
 5383SOL    HW217049   2.316   2.821   4.507
 5384SOL     OW17050   5.691   5.590   5.521
 5384SOL    HW117051   5.644   5.512   5.563
 5384SOL    HW217052   5.700   5.575   5.423
 5385SOL     OW17053   3.864   3.353   6.168
 5385SOL    HW117054   3.810   3.419   6.114
 5385SOL    HW217055   3.850   3.371   6.265
 5386SOL     OW17056   5.177   4.637   4.104
 5386SOL    HW117057   5.138   4.713   4.052
 5386SOL    HW217058   5.228   4.577   4.043
 5387SOL     OW17059   1.195   1.573   4.238
 5387SOL    HW117060   1.110   1.615   4.206
 5387SOL    HW217061   1.272   1.608   4.186
 5388SOL     OW17062   7.008   6.938   3.195
 5388SOL    HW117063   0.048   6.895   3.256
 5388SOL    HW217064   6.921   6.889   3.203
 5389SOL     OW17065   5.221   1.056   3.505
 5389SOL    HW117066   5.260   1.080   3.416
 5389SOL    HW217067   5.283   1.085   3.578
 5390SOL     OW17068   6.819   3.844   3.495
 5390SOL    HW117069   6.807   3.747   3.516
 5390SOL    HW217070   6.784   3.863   3.403
 5391SOL     OW17071   2.924   2.505   1.019
 5391SOL    HW117072   2.970   2.424   1.056
 5391SOL    HW217073   2.863   2.477   0.944
 5392SOL     OW17074   5.934   0.610   3.828
 5392SOL    HW117075   6.002   0.665   3.780
 5392SOL    HW217076   5.845   0.656   3.825
 5393SOL     OW17077   4.342   2.436   4.480
 5393SOL    HW117078   4.348   2.521   4.533
 5393SOL    HW217079   4.409   2.370   4.514
 5394SOL     OW17080   0.850   2.201   1.549
 5394SOL    HW117081   0.931   2.169   1.599
 5394SOL    HW217082   0.786   2.242   1.614
 5395SOL     OW17083   6.493   1.201   0.769
 5395SOL    HW117084   6.427   1.169   0.837
 5395SOL    HW217085   6.448   1.265   0.707
 5396SOL     OW17086   4.326   3.724   0.572
 5396SOL    HW117087   4.238   3.679   0.587
 5396SOL    HW217088   4.372   3.739   0.659
 5397SOL     OW17089   6.924   0.606   2.790
 5397SOL    HW117090   6.897   0.562   2.876
 5397SOL    HW217091   7.016   0.644   2.799
 5398SOL     OW17092   6.245   2.905   2.307
 5398SOL    HW117093   6.306   2.963   2.360
 5398SOL    HW217094   6.189   2.850   2.369
 5399SOL     OW17095   1.860   2.256   0.200
 5399SOL    HW117096   1.826   2.329   0.140
 5399SOL    HW217097   1.922   2.196   0.149
 5400SOL     OW17098   4.693   2.913   1.439
 5400SOL    HW117099   4.731   3.005   1.437
 5400SOL    HW217100   4.691   2.880   1.533
 5401SOL     OW17101   5.277   2.410   1.296
 5401SOL    HW117102   5.250   2.461   1.214
 5401SOL    HW217103   5.359   2.452   1.336
 5402SOL     OW17104   1.287   6.047   2.759
 5402SOL    HW117105   1.263   6.100   2.677
 5402SOL    HW217106   1.203   6.025   2.810
 5403SOL     OW17107   4.804   2.389   0.039
 5403SOL    HW117108   4.778   2.429   6.978
 5403SOL    HW217109   4.812   2.462   0.108
 5404SOL     OW17110   4.899   0.056   0.276
 5404SOL    HW117111   4.842   0.071   0.195
 5404SOL    HW217112   4.967   7.013   0.255
 5405SOL     OW17113   0.104   4.855   0.185
 5405SOL    HW117114   0.134   4.928   0.247
 5405SOL    HW217115   0.082   4.773   0.238
 5406SOL     OW17116   2.169   1.043   6.048
 5406SOL    HW117117   2.190   1.001   5.960
 5406SOL    HW217118   2.165   1.142   6.038
 5407SOL     OW17119   1.664   6.789   3.007
 5407SOL    HW117120   1.735   6.826   2.946
 5407SOL    HW217121   1.648   6.693   2.985
 5408SOL     OW17122   2.193   1.686   4.303
 5408SOL    HW117123   2.282   1.712   4.340
 5408SOL    HW217124   2.200   1.596   4.259
 5409SOL     OW17125   1.147   2.322   2.208
 5409SOL    HW117126   1.185   2.397   2.154
 5409SOL    HW217127   1.070   2.281   2.159
 5410SOL     OW17128   6.411   2.157   0.713
 5410SOL    HW117129   6.505   2.191   0.717
 5410SOL    HW217130   6.348   2.229   0.742
 5411SOL     OW17131   3.827   5.533   6.818
 5411SOL    HW117132   3.891   5.559   6.891
 5411SOL    HW217133   3.806   5.436   6.825
 5412SOL     OW17134   0.505   2.218   6.169
 5412SOL    HW117135   0.577   2.285   6.189
 5412SOL    HW217136   0.468   2.183   6.255
 5413SOL     OW17137   0.986   5.315   4.876
 5413SOL    HW117138   0.947   5.298   4.967
 5413SOL    HW217139   1.053   5.389   4.883
 5414SOL     OW17140   5.318   4.438   6.053
 5414SOL    HW117141   5.273   4.351   6.034
 5414SOL    HW217142   5.315   4.495   5.970
 5415SOL     OW17143   3.762   1.268   0.577
 5415SOL    HW117144   3.818   1.186   0.589
 5415SOL    HW217145   3.821   1.348   0.569
 5416SOL     OW17146   3.842   5.584   0.232
 5416SOL    HW117147   3.743   5.598   0.226
 5416SOL    HW217148   3.861   5.486   0.236
 5417SOL     OW17149   4.538   6.575   4.095
 5417SOL    HW117150   4.605   6.595   4.167
 5417SOL    HW217151   4.550   6.480   4.065
 5418SOL     OW17152   6.353   2.962   5.787
 5418SOL    HW117153   6.333   2.868   5.816
 5418SOL    HW217154   6.344   2.969   5.688
 5419SOL     OW17155   4.145   1.542   6.092
 5419SOL    HW117156   4.176   1.448   6.106
 5419SOL    HW217157   4.106   1.577   6.177
 5420SOL     OW17158   1.757   2.044   1.857
 5420SOL    HW117159   1.660   2.068   1.869
 5420SOL    HW217160   1.793   2.089   1.776
 5421SOL     OW17161   3.706   4.955   2.188
 5421SOL    HW117162   3.662   4.890   2.126
 5421SOL    HW217163   3.671   5.047   2.170
 5422SOL     OW17164   2.816   5.098   3.739
 5422SOL    HW117165   2.856   5.082   3.829
 5422SOL    HW217166   2.764   5.018   3.710
 5423SOL     OW17167   4.965   0.028   1.747
 5423SOL    HW117168   5.032   7.011   1.806
 5423SOL    HW217169   4.973   7.017   1.654
 5424SOL     OW17170   4.190   3.652   5.324
 5424SOL    HW117171   4.174   3.639   5.422
 5424SOL    HW217172   4.284   3.624   5.301
 5425SOL     OW17173   1.471   4.269   5.827
 5425SOL    HW117174   1.524   4.342   5.785
 5425SOL    HW217175   1.531   4.209   5.880
 5426SOL     OW17176   6.883   5.145   1.444
 5426SOL    HW117177   6.872   5.199   1.361
 5426SOL    HW217178   6.977   5.109   1.449
 5427SOL     OW17179   4.241   3.488   0.396
 5427SOL    HW117180   4.312   3.477   0.465
 5427SOL    HW217181   4.160   3.531   0.438
 5428SOL     OW17182   5.398   5.517   3.356
 5428SOL    HW117183   5.404   5.579   3.277
 5428SOL    HW217184   5.394   5.422   3.323
 5429SOL     OW17185   2.572   6.962   4.375
 5429SOL    HW117186   2.572   6.958   4.275
 5429SOL    HW217187   2.484   7.000   4.406
 5430SOL     OW17188   2.587   3.927   5.652
 5430SOL    HW117189   2.651   3.965   5.585
 5430SOL    HW217190   2.566   3.832   5.628
 5431SOL     OW17191   4.564   4.525   0.473
 5431SOL    HW117192   4.657   4.532   0.510
 5431SOL    HW217193   4.519   4.614   0.482
 5432SOL     OW17194   0.513   5.371   6.776
 5432SOL    HW117195   0.524   5.445   6.842
 5432SOL    HW217196   0.448   5.399   6.705
 5433SOL     OW17197   3.437   6.995   1.203
 5433SOL    HW117198   3.346   0.008   1.194
 5433SOL    HW217199   3.506   0.041   1.197
 5434SOL     OW17200   4.686   0.584   4.188
 5434SOL    HW117201   4.666   0.561   4.283
 5434SOL    HW217202   4.783   0.565   4.170
 5435SOL     OW17203   6.775   5.063   0.601
 5435SOL    HW117204   6.827   5.149   0.603
 5435SOL    HW217205   6.796   5.013   0.517
 5436SOL     OW17206   1.917   4.472   2.649
 5436SOL    HW117207   2.004   4.489   2.602
 5436SOL    HW217208   1.867   4.401   2.599
 5437SOL     OW17209   3.434   6.418   0.872
 5437SOL    HW117210   3.384   6.430   0.787
 5437SOL    HW217211   3.457   6.321   0.884
 5438SOL     OW17212   4.937   6.190   2.261
 5438SOL    HW117213   4.962   6.106   2.214
 5438SOL    HW217214   4.868   6.171   2.331
 5439SOL     OW17215   1.075   4.279   1.206
 5439SOL    HW117216   1.119   4.262   1.118
 5439SOL    HW217217   1.135   4.338   1.262
 5440SOL     OW17218   5.886   6.239   3.758
 5440SOL    HW117219   5.914   6.145   3.740
 5440SOL    HW217220   5.817   6.266   3.690
 5441SOL     OW17221   5.382   2.285   4.837
 5441SOL    HW117222   5.359   2.380   4.817
 5441SOL    HW217223   5.458   2.256   4.779
 5442SOL     OW17224   3.034   0.587   6.478
 5442SOL    HW117225   2.978   0.548   6.551
 5442SOL    HW217226   3.005   0.549   6.390
 5443SOL     OW17227   5.514   1.162   3.055
 5443SOL    HW117228   5.613   1.161   3.062
 5443SOL    HW217229   5.486   1.225   2.983
 5444SOL     OW17230   6.993   0.969   6.441
 5444SOL    HW117231   0.034   1.042   6.439
 5444SOL    HW217232   6.904   1.007   6.468
 5445SOL     OW17233   5.831   6.062   6.078
 5445SOL    HW117234   5.804   6.142   6.024
 5445SOL    HW217235   5.773   6.055   6.159
 5446SOL     OW17236   6.883   4.444   6.181
 5446SOL    HW117237   6.934   4.528   6.163
 5446SOL    HW217238   6.910   4.373   6.116
 5447SOL     OW17239   0.217   1.229   1.658
 5447SOL    HW117240   0.278   1.150   1.672
 5447SOL    HW217241   0.199   1.272   1.746
 5448SOL     OW17242   5.312   4.722   2.860
 5448SOL    HW117243   5.244   4.658   2.898
 5448SOL    HW217244   5.266   4.785   2.798
 5449SOL     OW17245   3.186   1.267   1.993
 5449SOL    HW117246   3.214   1.309   1.907
 5449SOL    HW217247   3.100   1.308   2.024
 5450SOL     OW17248   4.573   5.867   2.453
 5450SOL    HW117249   4.570   5.898   2.548
 5450SOL    HW217250   4.499   5.801   2.437
 5451SOL     OW17251   6.371   6.332   3.753
 5451SOL    HW117252   6.317   6.287   3.824
 5451SOL    HW217253   6.428   6.264   3.707
 5452SOL     OW17254   2.164   3.801   2.672
 5452SOL    HW117255   2.123   3.710   2.677
 5452SOL    HW217256   2.256   3.794   2.633
 5453SOL     OW17257   6.804   4.966   4.042
 5453SOL    HW117258   6.737   4.917   4.097
 5453SOL    HW217259   6.767   5.054   4.014
 5454SOL     OW17260   5.918   3.979   3.253
 5454SOL    HW117261   6.017   3.986   3.266
 5454SOL    HW217262   5.895   3.886   3.223
 5455SOL     OW17263   2.464   2.069   3.556
 5455SOL    HW117264   2.551   2.078   3.605
 5455SOL    HW217265   2.442   2.156   3.511
 5456SOL     OW17266   5.341   2.563   0.583
 5456SOL    HW117267   5.430   2.587   0.623
 5456SOL    HW217268   5.331   2.464   0.581
 5457SOL     OW17269   5.827   0.985   6.339
 5457SOL    HW117270   5.753   0.918   6.330
 5457SOL    HW217271   5.893   0.952   6.407
 5458SOL     OW17272   5.870   3.522   0.003
 5458SOL    HW117273   5.967   3.500   7.015
 5458SOL    HW217274   5.816   3.493   6.951
 5459SOL     OW17275   1.863   3.508   4.698
 5459SOL    HW117276   1.813   3.576   4.752
 5459SOL    HW217277   1.887   3.431   4.757
 5460SOL     OW17278   1.156   0.527   1.420
 5460SOL    HW117279   1.224   0.600   1.430
 5460SOL    HW217280   1.074   0.563   1.376
 5461SOL     OW17281   6.553   1.151   5.866
 5461SOL    HW117282   6.487   1.193   5.804
 5461SOL    HW217283   6.636   1.129   5.815
 5462SOL     OW17284   4.942   4.512   6.496
 5462SOL    HW117285   5.036   4.504   6.464
 5462SOL    HW217286   4.924   4.444   6.567
 5463SOL     OW17287   0.975   3.243   5.918
 5463SOL    HW117288   1.065   3.225   5.879
 5463SOL    HW217289   0.984   3.303   5.998
 5464SOL     OW17290   1.809   5.893   5.580
 5464SOL    HW117291   1.736   5.935   5.527
 5464SOL    HW217292   1.884   5.866   5.519
 5465SOL     OW17293   0.458   6.920   4.345
 5465SOL    HW117294   0.382   6.975   4.313
 5465SOL    HW217295   0.461   6.834   4.294
 5466SOL     OW17296   5.810   2.146   4.447
 5466SOL    HW117297   5.865   2.208   4.391
 5466SOL    HW217298   5.826   2.165   4.544
 5467SOL     OW17299   4.907   3.360   3.998
 5467SOL    HW117300   5.001   3.373   3.967
 5467SOL    HW217301   4.884   3.431   4.065
 5468SOL     OW17302   0.092   1.122   0.963
 5468SOL    HW117303   0.069   1.174   1.045
 5468SOL    HW217304   0.055   1.030   0.970
 5469SOL     OW17305   3.481   0.774   4.189
 5469SOL    HW117306   3.474   0.821   4.101
 5469SOL    HW217307   3.399   0.719   4.204
 5470SOL     OW17308   4.408   5.086   4.118
 5470SOL    HW117309   4.313   5.103   4.092
 5470SOL    HW217310   4.411   5.045   4.209
 5471SOL     OW17311   4.831   0.774   3.276
 5471SOL    HW117312   4.793   0.691   3.236
 5471SOL    HW217313   4.930   0.774   3.269
 5472SOL     OW17314   2.976   3.222   6.592
 5472SOL    HW117315   2.995   3.195   6.498
 5472SOL    HW217316   2.878   3.239   6.602
 5473SOL     OW17317   2.817   5.026   2.002
 5473SOL    HW117318   2.808   4.944   1.944
 5473SOL    HW217319   2.904   5.022   2.052
 5474SOL     OW17320   1.016   4.811   2.396
 5474SOL    HW117321   1.085   4.832   2.465
 5474SOL    HW217322   0.994   4.713   2.399
 5475SOL     OW17323   0.678   1.269   5.169
 5475SOL    HW117324   0.602   1.318   5.127
 5475SOL    HW217325   0.748   1.335   5.197
 5476SOL     OW17326   2.456   6.929   4.978
 5476SOL    HW117327   2.543   6.950   4.933
 5476SOL    HW217328   2.390   7.001   4.958
 5477SOL     OW17329   1.852   3.941   4.090
 5477SOL    HW117330   1.762   3.933   4.047
 5477SOL    HW217331   1.840   3.954   4.188
 5478SOL     OW17332   4.998   4.811   5.982
 5478SOL    HW117333   4.930   4.748   5.946
 5478SOL    HW217334   5.035   4.775   6.068
 5479SOL     OW17335   4.807   2.004   4.570
 5479SOL    HW117336   4.872   2.039   4.502
 5479SOL    HW217337   4.843   2.019   4.662
 5480SOL     OW17338   1.126   3.565   4.233
 5480SOL    HW117339   1.030   3.556   4.261
 5480SOL    HW217340   1.149   3.492   4.168
 5481SOL     OW17341   4.555   1.646   6.477
 5481SOL    HW117342   4.503   1.566   6.508
 5481SOL    HW217343   4.585   1.630   6.383
 5482SOL     OW17344   5.219   3.139   1.718
 5482SOL    HW117345   5.203   3.053   1.669
 5482SOL    HW217346   5.295   3.127   1.781
 5483SOL     OW17347   6.804   2.694   6.786
 5483SOL    HW117348   6.872   2.665   6.853
 5483SOL    HW217349   6.755   2.614   6.751
 5484SOL     OW17350   6.707   6.521   5.038
 5484SOL    HW117351   6.718   6.620   5.028
 5484SOL    HW217352   6.635   6.501   5.105
 5485SOL     OW17353   3.527   0.333   5.365
 5485SOL    HW117354   3.490   0.420   5.397
 5485SOL    HW217355   3.583   0.292   5.437
 5486SOL     OW17356   1.276   0.746   3.823
 5486SOL    HW117357   1.268   0.758   3.922
 5486SOL    HW217358   1.320   0.658   3.803
 5487SOL     OW17359   4.525   5.065   0.568
 5487SOL    HW117360   4.469   5.047   0.649
 5487SOL    HW217361   4.466   5.096   0.494
 5488SOL     OW17362   4.906   0.861   6.039
 5488SOL    HW117363   4.806   0.864   6.045
 5488SOL    HW217364   4.937   0.923   5.967
 5489SOL     OW17365   0.823   3.783   3.497
 5489SOL    HW117366   0.909   3.755   3.454
 5489SOL    HW217367   0.786   3.864   3.450
 5490SOL     OW17368   2.081   2.360   6.799
 5490SOL    HW117369   2.164   2.341   6.746
 5490SOL    HW217370   2.106   2.410   6.882
 5491SOL     OW17371   0.249   5.558   1.358
 5491SOL    HW117372   0.299   5.618   1.296
 5491SOL    HW217373   0.310   5.488   1.393
 5492SOL     OW17374   1.575   1.283   5.158
 5492SOL    HW117375   1.564   1.198   5.210
 5492SOL    HW217376   1.670   1.294   5.132
 5493SOL     OW17377   2.878   2.653   0.202
 5493SOL    HW117378   2.854   2.673   0.297
 5493SOL    HW217379   2.966   2.696   0.181
 5494SOL     OW17380   6.064   2.728   2.401
 5494SOL    HW117381   6.087   2.631   2.412
 5494SOL    HW217382   6.035   2.745   2.307
 5495SOL     OW17383   3.525   2.893   2.476
 5495SOL    HW117384   3.541   2.811   2.531
 5495SOL    HW217385   3.504   2.866   2.382
 5496SOL     OW17386   3.746   5.642   1.327
 5496SOL    HW117387   3.647   5.643   1.332
 5496SOL    HW217388   3.784   5.620   1.417
 5497SOL     OW17389   6.147   6.778   2.438
 5497SOL    HW117390   6.172   6.707   2.373
 5497SOL    HW217391   6.076   6.744   2.499
 5498SOL     OW17392   4.379   0.386   5.355
 5498SOL    HW117393   4.436   0.396   5.437
 5498SOL    HW217394   4.364   0.289   5.336
 5499SOL     OW17395   0.160   2.287   4.108
 5499SOL    HW117396   0.152   2.188   4.121
 5499SOL    HW217397   0.188   2.329   4.194
 5500SOL     OW17398   1.785   6.038   1.569
 5500SOL    HW117399   1.773   6.035   1.668
 5500SOL    HW217400   1.853   5.970   1.541
 5501SOL     OW17401   2.429   7.024   2.629
 5501SOL    HW117402   2.478   0.060   2.689
 5501SOL    HW217403   2.487   6.998   2.552
 5502SOL     OW17404   4.448   3.960   7.017
 5502SOL    HW117405   4.537   3.915   7.012
 5502SOL    HW217406   4.393   3.936   6.937
 5503SOL     OW17407   1.310   5.617   4.345
 5503SOL    HW117408   1.245   5.692   4.348
 5503SOL    HW217409   1.351   5.604   4.435
 5504SOL     OW17410   3.251   2.092   4.841
 5504SOL    HW117411   3.321   2.160   4.819
 5504SOL    HW217412   3.194   2.126   4.916
 5505SOL     OW17413   2.752   4.722   5.896
 5505SOL    HW117414   2.691   4.642   5.891
 5505SOL    HW217415   2.847   4.691   5.894
 5506SOL     OW17416   6.271   6.825   5.315
 5506SOL    HW117417   6.302   6.880   5.392
 5506SOL    HW217418   6.327   6.845   5.235
 5507SOL     OW17419   2.888   5.709   4.245
 5507SOL    HW117420   2.936   5.637   4.295
 5507SOL    HW217421   2.936   5.727   4.159
 5508SOL     OW17422   2.198   0.601   5.970
 5508SOL    HW117423   2.244   0.513   5.973
 5508SOL    HW217424   2.265   0.673   5.948
 5509SOL     OW17425   5.711   6.308   6.635
 5509SOL    HW117426   5.643   6.298   6.562
 5509SOL    HW217427   5.695   6.238   6.704
 5510SOL     OW17428   4.738   0.810   5.300
 5510SOL    HW117429   4.656   0.769   5.260
 5510SOL    HW217430   4.713   0.892   5.351
 5511SOL     OW17431   0.474   1.553   2.074
 5511SOL    HW117432   0.448   1.553   1.978
 5511SOL    HW217433   0.506   1.645   2.100
 5512SOL     OW17434   1.985   0.255   1.085
 5512SOL    HW117435   1.915   0.288   1.149
 5512SOL    HW217436   1.945   0.185   1.026
 5513SOL     OW17437   3.826   4.985   4.455
 5513SOL    HW117438   3.888   4.934   4.514
 5513SOL    HW217439   3.817   5.079   4.488
 5514SOL     OW17440   5.954   5.024   3.364
 5514SOL    HW117441   6.023   4.963   3.403
 5514SOL    HW217442   5.982   5.050   3.271
 5515SOL     OW17443   0.012   2.732   1.823
 5515SOL    HW117444   0.037   2.727   1.726
 5515SOL    HW217445   6.964   2.669   1.841
 5516SOL     OW17446   1.336   3.524   5.952
 5516SOL    HW117447   1.405   3.472   5.902
 5516SOL    HW217448   1.366   3.539   6.046
 5517SOL     OW17449   2.576   1.479   2.872
 5517SOL    HW117450   2.603   1.574   2.855
 5517SOL    HW217451   2.544   1.438   2.787
 5518SOL     OW17452   5.788   4.753   5.070
 5518SOL    HW117453   5.746   4.843   5.062
 5518SOL    HW217454   5.751   4.693   4.999
 5519SOL     OW17455   5.140   3.439   3.889
 5519SOL    HW117456   5.117   3.384   3.808
 5519SOL    HW217457   5.224   3.491   3.870
 5520SOL     OW17458   1.512   3.781   1.528
 5520SOL    HW117459   1.489   3.865   1.578
 5520SOL    HW217460   1.483   3.702   1.582
 5521SOL     OW17461   5.580   5.228   1.922
 5521SOL    HW117462   5.579   5.310   1.980
 5521SOL    HW217463   5.490   5.184   1.925
 5522SOL     OW17464   2.039   3.772   1.973
 5522SOL    HW117465   2.039   3.778   1.873
 5522SOL    HW217466   2.100   3.699   2.003
 5523SOL     OW17467   2.855   0.937   1.958
 5523SOL    HW117468   2.948   0.943   1.923
 5523SOL    HW217469   2.844   1.002   2.034
 5524SOL     OW17470   6.952   5.695   6.081
 5524SOL    HW117471   0.019   5.699   6.048
 5524SOL    HW217472   6.943   5.750   6.164
 5525SOL     OW17473   0.211   5.326   4.809
 5525SOL    HW117474   0.220   5.230   4.837
 5525SOL    HW217475   0.297   5.373   4.823
 5526SOL     OW17476   6.316   2.813   4.818
 5526SOL    HW117477   6.412   2.825   4.844
 5526SOL    HW217478   6.288   2.719   4.836
 5527SOL     OW17479   2.089   3.585   1.096
 5527SOL    HW117480   2.089   3.603   0.998
 5527SOL    HW217481   2.124   3.493   1.114
 5528SOL     OW17482   0.419   3.411   3.643
 5528SOL    HW117483   0.504   3.409   3.695
 5528SOL    HW217484   0.415   3.495   3.589
 5529SOL     OW17485   1.738   1.790   5.048
 5529SOL    HW117486   1.658   1.786   5.108
 5529SOL    HW217487   1.820   1.770   5.101
 5530SOL     OW17488   1.075   2.504   0.823
 5530SOL    HW117489   1.111   2.497   0.916
 5530SOL    HW217490   1.133   2.454   0.760
 5531SOL     OW17491   3.089   2.818   5.953
 5531SOL    HW117492   3.137   2.797   5.868
 5531SOL    HW217493   3.025   2.745   5.975
 5532SOL     OW17494   2.914   1.454   1.088
 5532SOL    HW117495   2.989   1.520   1.077
 5532SOL    HW217496   2.865   1.474   1.172
 5533SOL     OW17497   4.418   0.793   1.239
 5533SOL    HW117498   4.332   0.832   1.271
 5533SOL    HW217499   4.413   0.693   1.242
 5534SOL     OW17500   6.933   4.093   5.757
 5534SOL    HW117501   6.835   4.113   5.765
 5534SOL    HW217502   6.949   4.039   5.675
 5535SOL     OW17503   6.404   3.265   3.461
 5535SOL    HW117504   6.471   3.324   3.506
 5535SOL    HW217505   6.438   3.171   3.462
 5536SOL     OW17506   1.740   0.544   3.461
 5536SOL    HW117507   1.734   0.577   3.555
 5536SOL    HW217508   1.654   0.497   3.436
 5537SOL     OW17509   4.302   1.114   4.540
 5537SOL    HW117510   4.391   1.156   4.523
 5537SOL    HW217511   4.280   1.052   4.465
 5538SOL     OW17512   5.492   1.916   0.584
 5538SOL    HW117513   5.477   1.818   0.572
 5538SOL    HW217514   5.427   1.952   0.651
 5539SOL     OW17515   3.222   6.812   6.976
 5539SOL    HW117516   3.208   6.904   6.939
 5539SOL    HW217517   3.196   6.811   0.045
 5540SOL     OW17518   5.245   0.635   6.584
 5540SOL    HW117519   5.219   0.541   6.605
 5540SOL    HW217520   5.237   0.691   6.666
 5541SOL     OW17521   4.655   3.551   5.960
 5541SOL    HW117522   4.719   3.492   6.009
 5541SOL    HW217523   4.561   3.523   5.979
 5542SOL     OW17524   3.883   4.736   0.200
 5542SOL    HW117525   3.810   4.692   0.253
 5542SOL    HW217526   3.858   4.737   0.103
 5543SOL     OW17527   1.596   0.471   0.681
 5543SOL    HW117528   1.518   0.525   0.649
 5543SOL    HW217529   1.564   0.404   0.748
 5544SOL     OW17530   3.657   5.873   5.939
 5544SOL    HW117531   3.634   5.778   5.916
 5544SOL    HW217532   3.697   5.877   6.030
 5545SOL     OW17533   3.906   0.497   3.200
 5545SOL    HW117534   3.920   0.441   3.282
 5545SOL    HW217535   3.939   0.590   3.217
 5546SOL     OW17536   0.588   5.593   5.075
 5546SOL    HW117537   0.570   5.541   5.159
 5546SOL    HW217538   0.669   5.651   5.089
 5547SOL     OW17539   5.281   1.566   4.594
 5547SOL    HW117540   5.309   1.473   4.573
 5547SOL    HW217541   5.307   1.626   4.518
 5548SOL     OW17542   6.356   4.670   5.299
 5548SOL    HW117543   6.285   4.734   5.327
 5548SOL    HW217544   6.359   4.593   5.363
 5549SOL     OW17545   4.386   3.138   0.921
 5549SOL    HW117546   4.409   3.058   0.975
 5549SOL    HW217547   4.467   3.195   0.908
 5550SOL     OW17548   1.958   3.832   2.224
 5550SOL    HW117549   1.969   3.805   2.128
 5550SOL    HW217550   1.861   3.842   2.245
 5551SOL     OW17551   1.839   5.424   4.060
 5551SOL    HW117552   1.922   5.374   4.035
 5551SOL    HW217553   1.778   5.363   4.111
 5552SOL     OW17554   0.212   6.689   6.821
 5552SOL    HW117555   0.279   6.615   6.824
 5552SOL    HW217556   0.221   6.746   6.902
 5553SOL     OW17557   4.378   0.265   6.861
 5553SOL    HW117558   4.356   0.359   6.834
 5553SOL    HW217559   4.354   0.252   6.957
 5554SOL     OW17560   5.033   2.528   1.582
 5554SOL    HW117561   5.113   2.470   1.566
 5554SOL    HW217562   4.954   2.470   1.605
 5555SOL     OW17563   1.740   4.199   2.233
 5555SOL    HW117564   1.696   4.222   2.147
 5555SOL    HW217565   1.838   4.220   2.228
 5556SOL     OW17566   6.893   0.528   4.777
 5556SOL    HW117567   6.854   0.543   4.868
 5556SOL    HW217568   6.968   0.462   4.783
 5557SOL     OW17569   3.328   6.306   1.823
 5557SOL    HW117570   3.358   6.245   1.896
 5557SOL    HW217571   3.228   6.306   1.818
 5558SOL     OW17572   3.844   4.857   6.946
 5558SOL    HW117573   3.791   4.782   6.907
 5558SOL    HW217574   3.863   4.925   6.875
 5559SOL     OW17575   2.057   0.364   2.559
 5559SOL    HW117576   2.010   0.381   2.472
 5559SOL    HW217577   2.153   0.391   2.551
 5560SOL     OW17578   0.855   5.892   3.051
 5560SOL    HW117579   0.804   5.829   2.992
 5560SOL    HW217580   0.877   5.975   3.001
 5561SOL     OW17581   3.338   0.062   4.072
 5561SOL    HW117582   3.421   0.097   4.029
 5561SOL    HW217583   3.295   0.136   4.125
 5562SOL     OW17584   4.063   3.805   1.385
 5562SOL    HW117585   4.099   3.779   1.296
 5562SOL    HW217586   4.104   3.891   1.414
 5563SOL     OW17587   2.714   4.666   2.919
 5563SOL    HW117588   2.662   4.644   3.002
 5563SOL    HW217589   2.786   4.732   2.942
 5564SOL     OW17590   5.391   0.874   5.886
 5564SOL    HW117591   5.406   0.796   5.947
 5564SOL    HW217592   5.474   0.891   5.834
 5565SOL     OW17593   3.077   2.404   6.686
 5565SOL    HW117594   3.050   2.388   6.591
 5565SOL    HW217595   3.017   2.351   6.747
 5566SOL     OW17596   1.099   3.001   6.728
 5566SOL    HW117597   1.132   3.082   6.776
 5566SOL    HW217598   1.011   3.020   6.686
 5567SOL     OW17599   6.914   4.817   1.534
 5567SOL    HW117600   6.828   4.772   1.558
 5567SOL    HW217601   6.910   4.846   1.438
 5568SOL     OW17602   4.667   6.314   1.739
 5568SOL    HW117603   4.588   6.253   1.744
 5568SOL    HW217604   4.708   6.307   1.648
 5569SOL     OW17605   2.294   2.848   4.194
 5569SOL    HW117606   2.297   2.867   4.292
 5569SOL    HW217607   2.342   2.763   4.174
 5570SOL     OW17608   0.278   3.822   3.114
 5570SOL    HW117609   0.349   3.863   3.057
 5570SOL    HW217610   0.266   3.876   3.197
 5571SOL     OW17611   6.470   5.084   1.968
 5571SOL    HW117612   6.386   5.038   1.938
 5571SOL    HW217613   6.503   5.145   1.896
 5572SOL     OW17614   1.119   3.172   4.995
 5572SOL    HW117615   1.160   3.123   5.072
 5572SOL    HW217616   1.161   3.262   4.986
 5573SOL     OW17617   2.981   5.463   4.363
 5573SOL    HW117618   2.893   5.449   4.410
 5573SOL    HW217619   3.055   5.451   4.428
 5574SOL     OW17620   6.810   2.201   6.311
 5574SOL    HW117621   6.853   2.222   6.399
 5574SOL    HW217622   6.738   2.133   6.324
 5575SOL     OW17623   0.720   6.929   1.554
 5575SOL    HW117624   0.649   6.979   1.603
 5575SOL    HW217625   0.779   6.882   1.620
 5576SOL     OW17626   2.248   3.959   3.652
 5576SOL    HW117627   2.215   3.884   3.709
 5576SOL    HW217628   2.201   4.044   3.677
 5577SOL     OW17629   1.394   3.327   6.245
 5577SOL    HW117630   1.402   3.423   6.219
 5577SOL    HW217631   1.436   3.314   6.335
 5578SOL     OW17632   3.818   3.419   2.793
 5578SOL    HW117633   3.897   3.362   2.770
 5578SOL    HW217634   3.848   3.500   2.843
 5579SOL     OW17635   0.346   2.775   1.703
 5579SOL    HW117636   0.360   2.766   1.802
 5579SOL    HW217637   0.400   2.852   1.669
 5580SOL     OW17638   5.285   1.999   5.326
 5580SOL    HW117639   5.227   1.972   5.403
 5580SOL    HW217640   5.257   1.949   5.244
 5581SOL     OW17641   0.486   1.935   0.028
 5581SOL    HW117642   0.512   2.017   7.004
 5581SOL    HW217643   0.479   1.957   0.125
 5582SOL     OW17644   2.293   2.633   6.686
 5582SOL    HW117645   2.228   2.615   6.612
 5582SOL    HW217646   2.386   2.634   6.649
 5583SOL     OW17647   5.397   1.058   2.083
 5583SOL    HW117648   5.392   1.152   2.050
 5583SOL    HW217649   5.492   1.026   2.079
 5584SOL     OW17650   0.206   4.198   5.159
 5584SOL    HW117651   0.157   4.271   5.206
 5584SOL    HW217652   0.304   4.217   5.160
 5585SOL     OW17653   4.851   4.878   1.854
 5585SOL    HW117654   4.947   4.852   1.864
 5585SOL    HW217655   4.801   4.855   1.938
 5586SOL     OW17656   6.686   2.831   6.408
 5586SOL    HW117657   6.636   2.850   6.493
 5586SOL    HW217658   6.744   2.751   6.421
 5587SOL     OW17659   5.150   0.313   6.371
 5587SOL    HW117660   5.066   0.258   6.375
 5587SOL    HW217661   5.169   0.351   6.462
 5588SOL     OW17662   3.313   6.685   1.338
 5588SOL    HW117663   3.373   6.728   1.406
 5588SOL    HW217664   3.356   6.601   1.305
 5589SOL     OW17665   5.791   4.739   6.298
 5589SOL    HW117666   5.801   4.764   6.202
 5589SOL    HW217667   5.865   4.781   6.351
 5590SOL     OW17668   5.921   5.654   4.572
 5590SOL    HW117669   5.937   5.724   4.503
 5590SOL    HW217670   5.841   5.679   4.627
 5591SOL     OW17671   6.065   1.727   1.385
 5591SOL    HW117672   6.020   1.811   1.418
 5591SOL    HW217673   6.131   1.697   1.453
 5592SOL     OW17674   0.813   4.613   3.436
 5592SOL    HW117675   0.904   4.656   3.436
 5592SOL    HW217676   0.770   4.628   3.525
 5593SOL     OW17677   6.513   1.831   0.311
 5593SOL    HW117678   6.543   1.881   0.393
 5593SOL    HW217679   6.480   1.741   0.337
 5594SOL     OW17680   5.551   2.130   5.372
 5594SOL    HW117681   5.618   2.057   5.366
 5594SOL    HW217682   5.459   2.091   5.377
 5595SOL     OW17683   1.062   2.532   5.461
 5595SOL    HW117684   1.002   2.549   5.383
 5595SOL    HW217685   1.115   2.614   5.481
 5596SOL     OW17686   4.271   6.807   2.670
 5596SOL    HW117687   4.362   6.847   2.675
 5596SOL    HW217688   4.265   6.729   2.733
 5597SOL     OW17689   4.874   3.246   3.279
 5597SOL    HW117690   4.840   3.339   3.293
 5597SOL    HW217691   4.891   3.231   3.181
 5598SOL     OW17692   5.161   2.069   4.550
 5598SOL    HW117693   5.171   1.980   4.505
 5598SOL    HW217694   5.190   2.062   4.646
 5599SOL     OW17695   0.426   2.096   4.110
 5599SOL    HW117696   0.334   2.062   4.092
 5599SOL    HW217697   0.493   2.034   4.069
 5600SOL     OW17698   1.430   2.468   4.121
 5600SOL    HW117699   1.427   2.425   4.031
 5600SOL    HW217700   1.509   2.530   4.125
 5601SOL     OW17701   2.566   1.325   5.671
 5601SOL    HW117702   2.542   1.229   5.660
 5601SOL    HW217703   2.495   1.372   5.724
 5602SOL     OW17704   0.780   1.379   0.826
 5602SOL    HW117705   0.832   1.395   0.910
 5602SOL    HW217706   0.690   1.421   0.834
 5603SOL     OW17707   5.257   2.268   6.961
 5603SOL    HW117708   5.278   2.350   7.015
 5603SOL    HW217709   5.158   2.254   6.959
 5604SOL     OW17710   5.864   2.003   5.609
 5604SOL    HW117711   5.844   1.993   5.706
 5604SOL    HW217712   5.853   1.915   5.563
 5605SOL     OW17713   0.559   1.975   4.679
 5605SOL    HW117714   0.554   1.878   4.705
 5605SOL    HW217715   0.484   1.996   4.616
 5606SOL     OW17716   4.396   0.075   1.674
 5606SOL    HW117717   4.329   0.014   1.717
 5606SOL    HW217718   4.471   0.092   1.737
 5607SOL     OW17719   5.402   1.640   1.759
 5607SOL    HW117720   5.493   1.618   1.723
 5607SOL    HW217721   5.339   1.653   1.683
 5608SOL     OW17722   4.180   6.981   4.936
 5608SOL    HW117723   4.147   6.886   4.943
 5608SOL    HW217724   4.119   0.006   4.876
 5609SOL     OW17725   2.828   6.600   6.596
 5609SOL    HW117726   2.824   6.528   6.665
 5609SOL    HW217727   2.744   6.654   6.599
 5610SOL     OW17728   5.109   0.507   0.310
 5610SOL    HW117729   5.136   0.427   0.362
 5610SOL    HW217730   5.188   0.567   0.296
 5611SOL     OW17731   1.296   4.621   3.370
 5611SOL    HW117732   1.287   4.523   3.353
 5611SOL    HW217733   1.206   4.665   3.363
 5612SOL     OW17734   2.886   0.291   5.504
 5612SOL    HW117735   2.849   0.331   5.588
 5612SOL    HW217736   2.932   0.205   5.526
 5613SOL     OW17737   4.307   4.560   1.934
 5613SOL    HW117738   4.391   4.535   1.885
 5613SOL    HW217739   4.230   4.507   1.898
 5614SOL     OW17740   4.728   2.311   3.168
 5614SOL    HW117741   4.792   2.252   3.119
 5614SOL    HW217742   4.656   2.254   3.210
 5615SOL     OW17743   1.685   0.886   0.260
 5615SOL    HW117744   1.604   0.876   0.317
 5615SOL    HW217745   1.679   0.823   0.182
 5616SOL     OW17746   2.342   0.937   4.256
 5616SOL    HW117747   2.303   1.009   4.199
 5616SOL    HW217748   2.273   0.867   4.273
 5617SOL     OW17749   1.936   0.650   4.643
 5617SOL    HW117750   1.873   0.599   4.701
 5617SOL    HW217751   2.029   0.616   4.657
 5618SOL     OW17752   7.027   4.216   3.919
 5618SOL    HW117753   0.019   4.178   4.009
 5618SOL    HW217754   0.051   4.166   3.850
 5619SOL     OW17755   2.220   3.792   5.577
 5619SOL    HW117756   2.277   3.715   5.608
 5619SOL    HW217757   2.220   3.863   5.648
 5620SOL     OW17758   3.774   2.301   6.765
 5620SOL    HW117759   3.819   2.389   6.756
 5620SOL    HW217760   3.745   2.288   6.860
 5621SOL     OW17761   1.544   2.067   5.454
 5621SOL    HW117762   1.524   2.086   5.551
 5621SOL    HW217763   1.471   2.009   5.417
 5622SOL     OW17764   5.114   0.687   6.024
 5622SOL    HW117765   5.020   0.717   6.011
 5622SOL    HW217766   5.123   0.640   6.112
 5623SOL     OW17767   1.569   6.105   6.595
 5623SOL    HW117768   1.634   6.084   6.669
 5623SOL    HW217769   1.509   6.180   6.624
 5624SOL     OW17770   1.039   4.737   3.447
 5624SOL    HW117771   1.058   4.725   3.544
 5624SOL    HW217772   1.021   4.833   3.428
 5625SOL     OW17773   6.625   2.853   4.858
 5625SOL    HW117774   6.614   2.879   4.954
 5625SOL    HW217775   6.683   2.919   4.811
 5626SOL     OW17776   3.585   0.228   4.939
 5626SOL    HW117777   3.582   0.309   4.998
 5626SOL    HW217778   3.521   0.159   4.973
 5627SOL     OW17779   1.240   6.151   1.468
 5627SOL    HW117780   1.186   6.108   1.396
 5627SOL    HW217781   1.327   6.102   1.478
 5628SOL     OW17782   2.182   1.917   4.963
 5628SOL    HW117783   2.181   2.006   4.916
 5628SOL    HW217784   2.106   1.913   5.027
 5629SOL     OW17785   3.594   3.850   2.593
 5629SOL    HW117786   3.665   3.872   2.526
 5629SOL    HW217787   3.578   3.931   2.651
 5630SOL     OW17788   0.936   4.536   1.389
 5630SOL    HW117789   0.937   4.445   1.348
 5630SOL    HW217790   0.865   4.591   1.346
 5631SOL     OW17791   4.525   0.950   0.318
 5631SOL    HW117792   4.515   0.982   0.224
 5631SOL    HW217793   4.446   0.893   0.341
 5632SOL     OW17794   4.332   3.928   6.758
 5632SOL    HW117795   4.379   4.014   6.734
 5632SOL    HW217796   4.367   3.854   6.701
 5633SOL     OW17797   6.515   2.633   4.454
 5633SOL    HW117798   6.592   2.572   4.474
 5633SOL    HW217799   6.534   2.723   4.493
 5634SOL     OW17800   4.058   5.471   4.103
 5634SOL    HW117801   4.043   5.564   4.139
 5634SOL    HW217802   4.016   5.463   4.013
 5635SOL     OW17803   2.679   2.414   4.923
 5635SOL    HW117804   2.729   2.487   4.875
 5635SOL    HW217805   2.677   2.332   4.866
 5636SOL     OW17806   4.670   5.479   2.882
 5636SOL    HW117807   4.661   5.541   2.804
 5636SOL    HW217808   4.678   5.532   2.966
 5637SOL     OW17809   5.697   6.748   3.699
 5637SOL    HW117810   5.744   6.825   3.655
 5637SOL    HW217811   5.638   6.703   3.633
 5638SOL     OW17812   5.145   2.741   6.802
 5638SOL    HW117813   5.186   2.812   6.744
 5638SOL    HW217814   5.047   2.734   6.782
 5639SOL     OW17815   1.410   1.428   6.430
 5639SOL    HW117816   1.446   1.521   6.425
 5639SOL    HW217817   1.315   1.431   6.463
 5640SOL     OW17818   2.702   0.302   3.353
 5640SOL    HW117819   2.627   0.286   3.289
 5640SOL    HW217820   2.766   0.225   3.350
 5641SOL     OW17821   6.579   5.201   5.629
 5641SOL    HW117822   6.484   5.214   5.658
 5641SOL    HW217823   6.636   5.180   5.709
 5642SOL     OW17824   1.321   2.000   6.058
 5642SOL    HW117825   1.263   2.012   5.977
 5642SOL    HW217826   1.364   1.910   6.055
 5643SOL     OW17827   6.116   2.262   4.481
 5643SOL    HW117828   6.084   2.202   4.555
 5643SOL    HW217829   6.157   2.344   4.520
 5644SOL     OW17830   3.208   7.020   6.637
 5644SOL    HW117831   3.306   7.011   6.650
 5644SOL    HW217832   3.175   6.948   6.577
 5645SOL     OW17833   5.798   3.258   4.023
 5645SOL    HW117834   5.780   3.279   3.927
 5645SOL    HW217835   5.866   3.321   4.059
 5646SOL     OW17836   1.750   4.330   2.829
 5646SOL    HW117837   1.672   4.391   2.818
 5646SOL    HW217838   1.829   4.367   2.781
 5647SOL     OW17839   6.643   5.941   3.123
 5647SOL    HW117840   6.593   6.022   3.153
 5647SOL    HW217841   6.733   5.968   3.088
 5648SOL     OW17842   4.214   6.320   2.738
 5648SOL    HW117843   4.159   6.368   2.806
 5648SOL    HW217844   4.311   6.327   2.764
 5649SOL     OW17845   0.508   6.142   4.027
 5649SOL    HW117846   0.492   6.109   4.121
 5649SOL    HW217847   0.606   6.148   4.010
 5650SOL     OW17848   6.819   4.101   0.643
 5650SOL    HW117849   6.738   4.097   0.583
 5650SOL    HW217850   6.898   4.063   0.594
 5651SOL     OW17851   1.516   0.540   1.304
 5651SOL    HW117852   1.427   0.494   1.292
 5651SOL    HW217853   1.502   0.630   1.345
 5652SOL     OW17854   1.223   5.571   1.482
 5652SOL    HW117855   1.152   5.631   1.447
 5652SOL    HW217856   1.304   5.578   1.423
 5653SOL     OW17857   0.391   6.584   1.372
 5653SOL    HW117858   0.344   6.560   1.457
 5653SOL    HW217859   0.446   6.666   1.386
 5654SOL     OW17860   2.498   6.072   5.000
 5654SOL    HW117861   2.416   6.130   4.998
 5654SOL    HW217862   2.472   5.977   4.984
 5655SOL     OW17863   6.507   3.051   4.457
 5655SOL    HW117864   6.432   2.993   4.488
 5655SOL    HW217865   6.500   3.065   4.358
 5656SOL     OW17866   0.482   3.319   0.242
 5656SOL    HW117867   0.445   3.253   0.308
 5656SOL    HW217868   0.487   3.277   0.152
 5657SOL     OW17869   4.525   5.579   4.968
 5657SOL    HW117870   4.608   5.525   4.955
 5657SOL    HW217871   4.445   5.519   4.968
 5658SOL     OW17872   1.885   1.808   5.755
 5658SOL    HW117873   1.907   1.882   5.818
 5658SOL    HW217874   1.965   1.788   5.698
 5659SOL     OW17875   3.935   4.247   6.371
 5659SOL    HW117876   3.978   4.320   6.319
 5659SOL    HW217877   3.896   4.285   6.455
 5660SOL     OW17878   4.112   0.720   6.718
 5660SOL    HW117879   4.174   0.654   6.760
 5660SOL    HW217880   4.163   0.797   6.683
 5661SOL     OW17881   1.096   5.211   5.764
 5661SOL    HW117882   1.019   5.266   5.733
 5661SOL    HW217883   1.146   5.176   5.684
 5662SOL     OW17884   2.217   6.213   2.279
 5662SOL    HW117885   2.312   6.188   2.258
 5662SOL    HW217886   2.194   6.299   2.232
 5663SOL     OW17887   0.741   2.535   0.428
 5663SOL    HW117888   0.786   2.472   0.491
 5663SOL    HW217889   0.809   2.580   0.371
 5664SOL     OW17890   5.166   4.231   4.444
 5664SOL    HW117891   5.136   4.143   4.407
 5664SOL    HW217892   5.181   4.296   4.370
 5665SOL     OW17893   2.537   1.173   1.179
 5665SOL    HW117894   2.527   1.268   1.207
 5665SOL    HW217895   2.465   1.117   1.220
 5666SOL     OW17896   5.374   1.347   4.857
 5666SOL    HW117897   5.318   1.430   4.864
 5666SOL    HW217898   5.342   1.280   4.925
 5667SOL     OW17899   2.463   5.153   4.854
 5667SOL    HW117900   2.458   5.116   4.761
 5667SOL    HW217901   2.557   5.148   4.887
 5668SOL     OW17902   5.214   3.153   3.384
 5668SOL    HW117903   5.155   3.097   3.325
 5668SOL    HW217904   5.300   3.105   3.400
 5669SOL     OW17905   6.559   4.297   6.820
 5669SOL    HW117906   6.592   4.208   6.852
 5669SOL    HW217907   6.460   4.302   6.832
 5670SOL     OW17908   1.313   2.107   2.138
 5670SOL    HW117909   1.267   2.188   2.174
 5670SOL    HW217910   1.335   2.045   2.213
 5671SOL     OW17911   0.504   6.792   3.432
 5671SOL    HW117912   0.471   6.788   3.527
 5671SOL    HW217913   0.509   6.700   3.394
 5672SOL     OW17914   5.083   3.570   5.389
 5672SOL    HW117915   4.986   3.582   5.367
 5672SOL    HW217916   5.098   3.589   5.486
 5673SOL     OW17917   0.602   0.842   0.832
 5673SOL    HW117918   0.607   0.743   0.822
 5673SOL    HW217919   0.518   0.867   0.881
 5674SOL     OW17920   1.911   5.452   5.651
 5674SOL    HW117921   1.871   5.418   5.566
 5674SOL    HW217922   1.987   5.514   5.631
 5675SOL     OW17923   2.047   1.838   0.378
 5675SOL    HW117924   1.962   1.869   0.336
 5675SOL    HW217925   2.112   1.812   0.306
 5676SOL     OW17926   2.784   2.064   1.543
 5676SOL    HW117927   2.767   1.973   1.581
 5676SOL    HW217928   2.860   2.059   1.478
 5677SOL     OW17929   6.932   0.632   1.363
 5677SOL    HW117930   6.885   0.547   1.387
 5677SOL    HW217931   6.868   0.708   1.367
 5678SOL     OW17932   3.503   2.073   1.829
 5678SOL    HW117933   3.413   2.075   1.873
 5678SOL    HW217934   3.565   2.135   1.876
 5679SOL     OW17935   6.140   3.343   5.348
 5679SOL    HW117936   6.120   3.328   5.251
 5679SOL    HW217937   6.115   3.437   5.373
 5680SOL     OW17938   1.656   6.083   5.375
 5680SOL    HW117939   1.639   6.021   5.298
 5680SOL    HW217940   1.744   6.129   5.363
 5681SOL     OW17941   1.015   3.919   3.713
 5681SOL    HW117942   1.088   3.956   3.771
 5681SOL    HW217943   0.981   3.835   3.754
 5682SOL     OW17944   2.210   4.243   1.737
 5682SOL    HW117945   2.148   4.174   1.699
 5682SOL    HW217946   2.194   4.330   1.691
 5683SOL     OW17947   6.027   1.341   6.456
 5683SOL    HW117948   6.038   1.436   6.427
 5683SOL    HW217949   6.044   1.335   6.555
 5684SOL     OW17950   1.887   2.840   5.761
 5684SOL    HW117951   1.787   2.834   5.761
 5684SOL    HW217952   1.915   2.935   5.753
 5685SOL     OW17953   2.607   1.563   3.818
 5685SOL    HW117954   2.545   1.534   3.891
 5685SOL    HW217955   2.642   1.483   3.771
 5686SOL     OW17956   3.491   6.218   6.221
 5686SOL    HW117957   3.582   6.177   6.214
 5686SOL    HW217958   3.480   6.258   6.312
 5687SOL     OW17959   2.590   6.692   6.136
 5687SOL    HW117960   2.654   6.768   6.140
 5687SOL    HW217961   2.571   6.668   6.041
 5688SOL     OW17962   2.405   2.702   3.275
 5688SOL    HW117963   2.391   2.760   3.195
 5688SOL    HW217964   2.332   2.633   3.280
 5689SOL     OW17965   0.444   2.077   1.769
 5689SOL    HW117966   0.462   2.156   1.828
 5689SOL    HW217967   0.462   2.102   1.674
 5690SOL     OW17968   1.493   5.977   0.135
 5690SOL    HW117969   1.593   5.971   0.133
 5690SOL    HW217970   1.454   5.887   0.120
 5691SOL     OW17971   3.157   1.079   2.599
 5691SOL    HW117972   3.168   1.103   2.502
 5691SOL    HW217973   3.061   1.055   2.616
 5692SOL     OW17974   4.401   4.916   1.287
 5692SOL    HW117975   4.446   4.918   1.377
 5692SOL    HW217976   4.469   4.894   1.217
 5693SOL     OW17977   3.758   1.144   1.451
 5693SOL    HW117978   3.740   1.144   1.353
 5693SOL    HW217979   3.851   1.111   1.468
 5694SOL     OW17980   0.952   6.501   1.866
 5694SOL    HW117981   0.959   6.422   1.805
 5694SOL    HW217982   0.855   6.521   1.884
 5695SOL     OW17983   1.724   0.596   0.859
 5695SOL    HW117984   1.673   0.552   0.785
 5695SOL    HW217985   1.714   0.542   0.943
 5696SOL     OW17986   1.536   7.008   3.859
 5696SOL    HW117987   1.634   7.001   3.839
 5696SOL    HW217988   1.523   0.022   3.949
 5697SOL     OW17989   6.293   2.838   0.529
 5697SOL    HW117990   6.254   2.854   0.439
 5697SOL    HW217991   6.389   2.868   0.530
 5698SOL     OW17992   2.630   2.468   3.929
 5698SOL    HW117993   2.605   2.550   3.878
 5698SOL    HW217994   2.684   2.407   3.871
 5699SOL     OW17995   2.188   2.467   2.944
 5699SOL    HW117996   2.111   2.529   2.931
 5699SOL    HW217997   2.170   2.406   3.021
 5700SOL     OW17998   6.273   0.775   3.340
 5700SOL    HW117999   6.216   0.696   3.316
 5700SOL    HW218000   6.312   0.761   3.431
 5701SOL     OW18001   0.351   0.845   1.406
 5701SOL    HW118002   0.256   0.832   1.381
 5701SOL    HW218003   0.383   0.766   1.458
 5702SOL     OW18004   2.689   6.707   4.416
 5702SOL    HW118005   2.652   6.794   4.383
 5702SOL    HW218006   2.787   6.702   4.394
 5703SOL     OW18007   7.002   2.807   6.581
 5703SOL    HW118008   6.984   2.823   6.678
 5703SOL    HW218009   6.939   2.738   6.546
 5704SOL     OW18010   5.078   4.332   3.724
 5704SOL    HW118011   5.011   4.262   3.700
 5704SOL    HW218012   5.080   4.343   3.823
 5705SOL     OW18013   6.190   6.803   5.786
 5705SOL    HW118014   6.091   6.788   5.785
 5705SOL    HW218015   6.209   6.900   5.766
 5706SOL     OW18016   4.973   2.192   6.875
 5706SOL    HW118017   4.943   2.250   6.951
 5706SOL    HW218018   4.969   2.096   6.903
 5707SOL     OW18019   5.877   5.708   2.403
 5707SOL    HW118020   5.787   5.664   2.413
 5707SOL    HW218021   5.888   5.777   2.475
 5708SOL     OW18022   4.565   5.791   2.895
 5708SOL    HW118023   4.599   5.758   2.983
 5708SOL    HW218024   4.641   5.804   2.832
 5709SOL     OW18025   0.815   1.548   2.532
 5709SOL    HW118026   0.757   1.469   2.554
 5709SOL    HW218027   0.811   1.567   2.434
 5710SOL     OW18028   2.667   2.152   1.112
 5710SOL    HW118029   2.662   2.243   1.071
 5710SOL    HW218030   2.762   2.120   1.109
 5711SOL     OW18031   5.380   2.319   2.056
 5711SOL    HW118032   5.450   2.389   2.044
 5711SOL    HW218033   5.304   2.336   1.992
 5712SOL     OW18034   6.193   6.393   1.471
 5712SOL    HW118035   6.152   6.481   1.493
 5712SOL    HW218036   6.270   6.376   1.532
 5713SOL     OW18037   2.492   6.398   0.642
 5713SOL    HW118038   2.460   6.487   0.611
 5713SOL    HW218039   2.572   6.410   0.701
 5714SOL     OW18040   6.180   6.991   1.242
 5714SOL    HW118041   6.259   6.998   1.303
 5714SOL    HW218042   6.197   6.919   1.175
 5715SOL     OW18043   0.866   0.237   1.354
 5715SOL    HW118044   0.856   0.209   1.449
 5715SOL    HW218045   0.963   0.235   1.329
 5716SOL     OW18046   6.557   4.663   6.009
 5716SOL    HW118047   6.469   4.694   5.974
 5716SOL    HW218048   6.595   4.731   6.071
 5717SOL     OW18049   1.110   4.909   2.760
 5717SOL    HW118050   1.072   4.990   2.715
 5717SOL    HW218051   1.036   4.845   2.782
 5718SOL     OW18052   0.953   3.346   0.319
 5718SOL    HW118053   0.880   3.413   0.309
 5718SOL    HW218054   1.039   3.385   0.284
 5719SOL     OW18055   2.314   3.943   0.745
 5719SOL    HW118056   2.372   3.863   0.759
 5719SOL    HW218057   2.346   4.017   0.805
 5720SOL     OW18058   2.401   4.547   5.974
 5720SOL    HW118059   2.490   4.523   5.936
 5720SOL    HW218060   2.350   4.602   5.908
 5721SOL     OW18061   3.748   4.383   0.358
 5721SOL    HW118062   3.708   4.399   0.448
 5721SOL    HW218063   3.676   4.389   0.288
 5722SOL     OW18064   0.920   1.141   5.559
 5722SOL    HW118065   0.951   1.232   5.532
 5722SOL    HW218066   0.998   1.089   5.595
 5723SOL     OW18067   4.427   3.115   6.799
 5723SOL    HW118068   4.378   3.166   6.870
 5723SOL    HW218069   4.394   3.144   6.709
 5724SOL     OW18070   6.049   2.733   3.653
 5724SOL    HW118071   6.029   2.685   3.567
 5724SOL    HW218072   5.985   2.703   3.724
 5725SOL     OW18073   6.750   4.104   4.215
 5725SOL    HW118074   6.832   4.058   4.180
 5725SOL    HW218075   6.715   4.168   4.146
 5726SOL     OW18076   5.379   4.851   2.530
 5726SOL    HW118077   5.452   4.901   2.576
 5726SOL    HW218078   5.302   4.840   2.593
 5727SOL     OW18079   0.530   2.108   5.249
 5727SOL    HW118080   0.552   2.149   5.160
 5727SOL    HW218081   0.518   2.010   5.239
 5728SOL     OW18082   4.913   6.489   5.015
 5728SOL    HW118083   4.820   6.470   4.983
 5728SOL    HW218084   4.910   6.563   5.083
 5729SOL     OW18085   1.919   1.804   5.276
 5729SOL    HW118086   1.908   1.888   5.224
 5729SOL    HW218087   1.872   1.813   5.364
 5730SOL     OW18088   6.501   4.344   5.166
 5730SOL    HW118089   6.528   4.251   5.142
 5730SOL    HW218090   6.546   4.409   5.104
 5731SOL     OW18091   0.445   6.137   1.912
 5731SOL    HW118092   0.531   6.148   1.963
 5731SOL    HW218093   0.391   6.064   1.954
 5732SOL     OW18094   1.149   7.023   3.466
 5732SOL    HW118095   1.167   6.926   3.478
 5732SOL    HW218096   1.082   0.026   3.533
 5733SOL     OW18097   3.705   0.842   5.552
 5733SOL    HW118098   3.656   0.758   5.578
 5733SOL    HW218099   3.646   0.898   5.494
 5734SOL     OW18100   1.913   6.320   3.038
 5734SOL    HW118101   1.967   6.238   3.023
 5734SOL    HW218102   1.957   6.398   2.994
 5735SOL     OW18103   2.929   1.680   2.058
 5735SOL    HW118104   2.986   1.692   2.139
 5735SOL    HW218105   2.984   1.691   1.975
 5736SOL     OW18106   1.655   4.884   0.270
 5736SOL    HW118107   1.679   4.899   0.366
 5736SOL    HW218108   1.572   4.934   0.247
 5737SOL     OW18109   5.274   4.758   0.922
 5737SOL    HW118110   5.188   4.784   0.966
 5737SOL    HW218111   5.301   4.828   0.857
 5738SOL     OW18112   1.427   3.844   5.951
 5738SOL    HW118113   1.374   3.862   6.034
 5738SOL    HW218114   1.366   3.845   5.871
 5739SOL     OW18115   1.033   1.168   1.089
 5739SOL    HW118116   1.129   1.194   1.083
 5739SOL    HW218117   1.011   1.106   1.013
 5740SOL     OW18118   4.116   5.633   6.444
 5740SOL    HW118119   4.047   5.579   6.395
 5740SOL    HW218120   4.075   5.675   6.524
 5741SOL     OW18121   0.684   4.967   3.544
 5741SOL    HW118122   0.606   4.977   3.481
 5741SOL    HW218123   0.658   4.905   3.618
 5742SOL     OW18124   6.508   6.557   4.282
 5742SOL    HW118125   6.523   6.512   4.370
 5742SOL    HW218126   6.586   6.614   4.260
 5743SOL     OW18127   1.910   6.644   5.304
 5743SOL    HW118128   1.872   6.578   5.239
 5743SOL    HW218129   1.909   6.606   5.396
 5744SOL     OW18130   5.526   6.794   2.551
 5744SOL    HW118131   5.587   6.716   2.541
 5744SOL    HW218132   5.552   6.866   2.486
 5745SOL     OW18133   0.863   1.967   3.927
 5745SOL    HW118134   0.946   1.923   3.961
 5745SOL    HW218135   0.889   2.042   3.866
 5746SOL     OW18136   5.729   3.703   0.126
 5746SOL    HW118137   5.798   3.650   0.076
 5746SOL    HW218138   5.678   3.643   0.188
 5747SOL     OW18139   1.179   6.169   3.209
 5747SOL    HW118140   1.087   6.178   3.169
 5747SOL    HW218141   1.176   6.195   3.305
 5748SOL     OW18142   2.475   6.239   2.782
 5748SOL    HW118143   2.431   6.163   2.733
 5748SOL    HW218144   2.507   6.208   2.871
 5749SOL     OW18145   2.344   1.538   3.704
 5749SOL    HW118146   2.283   1.613   3.732
 5749SOL    HW218147   2.439   1.563   3.725
 5750SOL     OW18148   6.778   5.540   2.770
 5750SOL    HW118149   6.702   5.588   2.725
 5750SOL    HW218150   6.786   5.448   2.732
 5751SOL     OW18151   2.691   4.299   6.086
 5751SOL    HW118152   2.763   4.231   6.097
 5751SOL    HW218153   2.629   4.295   6.164
 5752SOL     OW18154   6.344   0.162   6.961
 5752SOL    HW118155   6.319   0.197   0.025
 5752SOL    HW218156   6.364   0.239   6.900
 5753SOL     OW18157   3.595   2.306   0.261
 5753SOL    HW118158   3.569   2.258   0.344
 5753SOL    HW218159   3.694   2.299   0.248
 5754SOL     OW18160   6.344   4.430   1.042
 5754SOL    HW118161   6.318   4.522   1.013
 5754SOL    HW218162   6.272   4.392   1.100
 5755SOL     OW18163   3.532   3.920   1.588
 5755SOL    HW118164   3.534   3.924   1.488
 5755SOL    HW218165   3.570   3.833   1.619
 5756SOL     OW18166   6.952   6.295   4.448
 5756SOL    HW118167   6.978   6.308   4.352
 5756SOL    HW218168   6.990   6.209   4.481
 5757SOL     OW18169   0.426   5.337   1.348
 5757SOL    HW118170   0.476   5.325   1.434
 5757SOL    HW218171   0.388   5.249   1.319
 5758SOL     OW18172   1.142   1.770   5.485
 5758SOL    HW118173   1.201   1.847   5.460
 5758SOL    HW218174   1.175   1.688   5.439
 5759SOL     OW18175   5.173   2.041   5.067
 5759SOL    HW118176   5.212   2.026   4.976
 5759SOL    HW218177   5.130   1.957   5.100
 5760SOL     OW18178   1.705   5.769   2.041
 5760SOL    HW118179   1.709   5.820   2.127
 5760SOL    HW218180   1.611   5.772   2.005
 5761SOL     OW18181   4.803   0.084   5.030
 5761SOL    HW118182   4.843   0.002   4.988
 5761SOL    HW218183   4.873   0.155   5.037
 5762SOL     OW18184   5.468   5.808   1.132
 5762SOL    HW118185   5.531   5.766   1.198
 5762SOL    HW218186   5.377   5.814   1.171
 5763SOL     OW18187   1.047   1.118   1.364
 5763SOL    HW118188   1.089   1.205   1.390
 5763SOL    HW218189   1.036   1.114   1.265
 5764SOL     OW18190   4.517   3.601   5.548
 5764SOL    HW118191   4.442   3.543   5.577
 5764SOL    HW218192   4.563   3.639   5.628
 5765SOL     OW18193   5.768   4.640   0.554
 5765SOL    HW118194   5.858   4.665   0.590
 5765SOL    HW218195   5.743   4.703   0.480
 5766SOL     OW18196   2.923   1.460   3.405
 5766SOL    HW118197   2.847   1.469   3.469
 5766SOL    HW218198   2.939   1.363   3.385
 5767SOL     OW18199   0.175   6.449   1.221
 5767SOL    HW118200   0.216   6.534   1.253
 5767SOL    HW218201   0.200   6.375   1.283
 5768SOL     OW18202   6.736   0.943   2.849
 5768SOL    HW118203   6.646   0.968   2.813
 5768SOL    HW218204   6.731   0.850   2.887
 5769SOL     OW18205   2.366   5.378   3.702
 5769SOL    HW118206   2.333   5.304   3.645
 5769SOL    HW218207   2.437   5.344   3.764
 5770SOL     OW18208   6.175   0.181   1.870
 5770SOL    HW118209   6.112   0.240   1.820
 5770SOL    HW218210   6.242   0.142   1.807
 5771SOL     OW18211   0.917   1.900   2.109
 5771SOL    HW118212   0.821   1.927   2.120
 5771SOL    HW218213   0.944   1.913   2.013
 5772SOL     OW18214   6.590   4.077   6.977
 5772SOL    HW118215   6.641   4.023   0.017
 5772SOL    HW218216   6.500   4.100   7.015
 5773SOL     OW18217   5.661   5.795   4.177
 5773SOL    HW118218   5.667   5.813   4.079
 5773SOL    HW218219   5.624   5.703   4.192
 5774SOL     OW18220   2.425   5.170   3.004
 5774SOL    HW118221   2.485   5.223   2.944
 5774SOL    HW218222   2.432   5.073   2.981
 5775SOL     OW18223   0.019   0.228   0.635
 5775SOL    HW118224   6.957   0.271   0.647
 5775SOL    HW218225   0.090   0.286   0.676
 5776SOL     OW18226   5.286   1.229   5.674
 5776SOL    HW118227   5.376   1.206   5.637
 5776SOL    HW218228   5.246   1.148   5.717
 5777SOL     OW18229   6.371   0.580   5.216
 5777SOL    HW118230   6.426   0.664   5.216
 5777SOL    HW218231   6.281   0.600   5.177
 5778SOL     OW18232   2.662   0.000   3.714
 5778SOL    HW118233   2.712   0.081   3.683
 5778SOL    HW218234   2.719   6.946   3.701
 5779SOL     OW18235   4.262   1.190   2.594
 5779SOL    HW118236   4.218   1.109   2.632
 5779SOL    HW218237   4.279   1.176   2.496
 5780SOL     OW18238   6.184   3.810   1.475
 5780SOL    HW118239   6.259   3.875   1.465
 5780SOL    HW218240   6.100   3.851   1.441
 5781SOL     OW18241   2.211   5.150   4.968
 5781SOL    HW118242   2.298   5.161   4.920
 5781SOL    HW218243   2.216   5.193   5.058
 5782SOL     OW18244   2.711   1.298   3.088
 5782SOL    HW118245   2.652   1.335   3.016
 5782SOL    HW218246   2.806   1.297   3.057
 5783SOL     OW18247   2.179   6.669   1.002
 5783SOL    HW118248   2.204   6.587   1.054
 5783SOL    HW218249   2.120   6.643   0.926
 5784SOL     OW18250   1.767   5.484   7.012
 5784SOL    HW118251   1.785   5.458   0.079
 5784SOL    HW218252   1.805   5.416   6.950
 5785SOL     OW18253   2.599   1.347   0.469
 5785SOL    HW118254   2.624   1.435   0.508
 5785SOL    HW218255   2.502   1.348   0.442
 5786SOL     OW18256   1.609   3.500   0.900
 5786SOL    HW118257   1.544   3.567   0.936
 5786SOL    HW218258   1.592   3.411   0.943
 5787SOL     OW18259   7.022   3.145   5.827
 5787SOL    HW118260   6.932   3.134   5.785
 5787SOL    HW218261   7.011   3.186   5.917
 5788SOL     OW18262   1.826   2.349   1.794
 5788SOL    HW118263   1.841   2.443   1.762
 5788SOL    HW218264   1.834   2.286   1.716
 5789SOL     OW18265   3.095   5.202   6.754
 5789SOL    HW118266   3.087   5.259   6.673
 5789SOL    HW218267   3.150   5.122   6.733
 5790SOL     OW18268   6.407   5.498   3.612
 5790SOL    HW118269   6.420   5.535   3.520
 5790SOL    HW218270   6.464   5.547   3.677
 5791SOL     OW18271   3.982   1.226   2.264
 5791SOL    HW118272   3.972   1.254   2.359
 5791SOL    HW218273   3.996   1.307   2.207
 5792SOL     OW18274   4.673   2.644   2.672
 5792SOL    HW118275   4.689   2.546   2.681
 5792SOL    HW218276   4.708   2.691   2.753
 5793SOL     OW18277   3.956   2.446   6.471
 5793SOL    HW118278   4.038   2.436   6.414
 5793SOL    HW218279   3.875   2.421   6.418
 5794SOL     OW18280   3.763   6.607   7.012
 5794SOL    HW118281   3.785   6.685   0.044
 5794SOL    HW218282   3.832   6.536   7.023
 5795SOL     OW18283   2.188   5.998   1.574
 5795SOL    HW118284   2.186   6.098   1.576
 5795SOL    HW218285   2.282   5.967   1.570
 5796SOL     OW18286   5.332   0.771   6.350
 5796SOL    HW118287   5.301   0.727   6.434
 5796SOL    HW218288   5.267   0.754   6.277
 5797SOL     OW18289   6.606   2.697   1.071
 5797SOL    HW118290   6.600   2.770   1.140
 5797SOL    HW218291   6.515   2.675   1.037
 5798SOL     OW18292   1.753   3.785   4.851
 5798SOL    HW118293   1.832   3.795   4.912
 5798SOL    HW218294   1.673   3.826   4.893
 5799SOL     OW18295   2.777   0.045   3.242
 5799SOL    HW118296   2.691   0.026   3.195
 5799SOL    HW218297   2.826   6.986   3.258
 5800SOL     OW18298   1.944   0.484   1.472
 5800SOL    HW118299   1.901   0.539   1.400
 5800SOL    HW218300   1.878   0.420   1.510
 5801SOL     OW18301   2.168   1.719   2.050
 5801SOL    HW118302   2.257   1.744   2.012
 5801SOL    HW218303   2.098   1.783   2.017
 5802SOL     OW18304   0.940   0.170   1.920
 5802SOL    HW118305   1.037   0.148   1.926
 5802SOL    HW218306   0.904   0.189   2.011
 5803SOL     OW18307   0.479   5.693   4.192
 5803SOL    HW118308   0.466   5.718   4.096
 5803SOL    HW218309   0.527   5.605   4.197
 5804SOL     OW18310   6.381   1.868   2.972
 5804SOL    HW118311   6.308   1.934   2.993
 5804SOL    HW218312   6.468   1.903   3.007
 5805SOL     OW18313   1.482   2.710   2.174
 5805SOL    HW118314   1.402   2.745   2.223
 5805SOL    HW218315   1.522   2.784   2.120
 5806SOL     OW18316   6.700   4.273   1.945
 5806SOL    HW118317   6.717   4.178   1.920
 5806SOL    HW218318   6.732   4.333   1.872
 5807SOL     OW18319   1.892   0.985   1.588
 5807SOL    HW118320   1.989   0.962   1.582
 5807SOL    HW218321   1.872   1.024   1.678
 5808SOL     OW18322   6.722   0.632   5.698
 5808SOL    HW118323   6.807   0.588   5.668
 5808SOL    HW218324   6.741   0.728   5.718
 5809SOL     OW18325   7.013   2.498   5.456
 5809SOL    HW118326   0.083   2.474   5.450
 5809SOL    HW218327   6.969   2.482   5.367
 5810SOL     OW18328   3.131   6.631   5.039
 5810SOL    HW118329   3.156   6.716   5.083
 5810SOL    HW218330   3.180   6.555   5.081
 5811SOL     OW18331   4.225   4.666   6.313
 5811SOL    HW118332   4.186   4.757   6.326
 5811SOL    HW218333   4.285   4.645   6.389
 5812SOL     OW18334   5.283   2.943   6.650
 5812SOL    HW118335   5.260   2.960   6.554
 5812SOL    HW218336   5.381   2.928   6.659
 5813SOL     OW18337   4.818   5.658   0.595
 5813SOL    HW118338   4.848   5.573   0.638
 5813SOL    HW218339   4.773   5.716   0.664
 5814SOL     OW18340   5.667   0.969   2.002
 5814SOL    HW118341   5.708   0.926   1.921
 5814SOL    HW218342   5.738   0.990   2.069
 5815SOL     OW18343   6.142   2.872   3.998
 5815SOL    HW118344   6.169   2.797   3.938
 5815SOL    HW218345   6.042   2.876   4.006
 5816SOL     OW18346   0.382   3.918   2.572
 5816SOL    HW118347   0.343   3.854   2.507
 5816SOL    HW218348   0.311   3.982   2.603
 5817SOL     OW18349   5.829   3.736   3.190
 5817SOL    HW118350   5.889   3.663   3.158
 5817SOL    HW218351   5.769   3.765   3.115
 5818SOL     OW18352   2.518   0.799   4.426
 5818SOL    HW118353   2.445   0.865   4.408
 5818SOL    HW218354   2.593   0.846   4.473
 5819SOL     OW18355   3.960   4.366   0.729
 5819SOL    HW118356   3.991   4.389   0.636
 5819SOL    HW218357   4.037   4.330   0.782
 5820SOL     OW18358   6.168   6.264   2.821
 5820SOL    HW118359   6.218   6.196   2.875
 5820SOL    HW218360   6.084   6.222   2.786
 5821SOL     OW18361   0.088   7.001   1.752
 5821SOL    HW118362   7.018   7.022   1.765
 5821SOL    HW218363   0.129   0.041   1.690
 5822SOL     OW18364   1.343   3.802   3.027
 5822SOL    HW118365   1.288   3.824   3.108
 5822SOL    HW218366   1.367   3.705   3.028
 5823SOL     OW18367   1.769   6.376   3.656
 5823SOL    HW118368   1.868   6.381   3.668
 5823SOL    HW218369   1.731   6.468   3.649
 5824SOL     OW18370   1.579   0.021   2.534
 5824SOL    HW118371   1.637   6.979   2.493
 5824SOL    HW218372   1.505   0.046   2.471
 5825SOL     OW18373   4.975   1.601   4.005
 5825SOL    HW118374   4.925   1.679   3.968
 5825SOL    HW218375   5.027   1.558   3.931
 5826SOL     OW18376   1.489   6.738   5.754
 5826SOL    HW118377   1.497   6.679   5.673
 5826SOL    HW218378   1.578   6.747   5.797
 5827SOL     OW18379   2.061   4.154   3.716
 5827SOL    HW118380   1.964   4.168   3.698
 5827SOL    HW218381   2.108   4.242   3.712
 5828SOL     OW18382   3.981   0.824   5.617
 5828SOL    HW118383   3.965   0.838   5.714
 5828SOL    HW218384   3.908   0.869   5.564
 5829SOL     OW18385   2.346   0.459   3.196
 5829SOL    HW118386   2.366   0.362   3.204
 5829SOL    HW218387   2.352   0.487   3.100
 5830SOL     OW18388   4.170   5.272   4.279
 5830SOL    HW118389   4.105   5.334   4.235
 5830SOL    HW218390   4.160   5.180   4.240
 5831SOL     OW18391   1.732   2.073   5.007
 5831SOL    HW118392   1.723   2.116   4.917
 5831SOL    HW218393   1.729   1.974   4.998
 5832SOL     OW18394   2.868   5.320   2.247
 5832SOL    HW118395   2.793   5.291   2.188
 5832SOL    HW218396   2.878   5.256   2.323
 5833SOL     OW18397   3.842   5.307   0.259
 5833SOL    HW118398   3.789   5.266   0.185
 5833SOL    HW218399   3.834   5.249   0.340
 5834SOL     OW18400   5.970   2.619   6.537
 5834SOL    HW118401   6.027   2.592   6.460
 5834SOL    HW218402   6.004   2.704   6.577
 5835SOL     OW18403   4.894   2.001   2.628
 5835SOL    HW118404   4.964   1.942   2.588
 5835SOL    HW218405   4.813   1.946   2.650
 5836SOL     OW18406   5.324   6.052   2.603
 5836SOL    HW118407   5.297   6.061   2.507
 5836SOL    HW218408   5.242   6.055   2.661
 5837SOL     OW18409   2.884   5.226   6.107
 5837SOL    HW118410   2.784   5.214   6.112
 5837SOL    HW218411   2.908   5.263   6.018
 5838SOL     OW18412   3.825   2.702   0.495
 5838SOL    HW118413   3.823   2.602   0.487
 5838SOL    HW218414   3.918   2.733   0.514
 5839SOL     OW18415   1.701   2.337   0.625
 5839SOL    HW118416   1.799   2.318   0.619
 5839SOL    HW218417   1.681   2.388   0.708
 5840SOL     OW18418   0.056   3.617   3.533
 5840SOL    HW118419   0.026   3.580   3.621
 5840SOL    HW218420   0.061   3.542   3.466
 5841SOL     OW18421   4.917   1.054   0.656
 5841SOL    HW118422   4.920   0.966   0.704
 5841SOL    HW218423   4.821   1.077   0.637
 5842SOL     OW18424   2.657   1.889   1.141
 5842SOL    HW118425   2.684   1.865   1.048
 5842SOL    HW218426   2.664   1.988   1.153
 5843SOL     OW18427   2.908   3.659   0.860
 5843SOL    HW118428   2.979   3.599   0.897
 5843SOL    HW218429   2.842   3.680   0.931
 5844SOL     OW18430   0.323   5.860   4.745
 5844SOL    HW118431   0.251   5.861   4.814
 5844SOL    HW218432   0.328   5.769   4.703
 5845SOL     OW18433   1.758   6.909   2.388
 5845SOL    HW118434   1.765   6.930   2.290
 5845SOL    HW218435   1.786   6.814   2.404
 5846SOL     OW18436   0.245   3.802   5.431
 5846SOL    HW118437   0.344   3.807   5.443
 5846SOL    HW218438   0.220   3.851   5.347
 5847SOL     OW18439   1.514   4.379   6.473
 5847SOL    HW118440   1.464   4.301   6.435
 5847SOL    HW218441   1.596   4.397   6.419
 5848SOL     OW18442   1.710   5.589   2.359
 5848SOL    HW118443   1.642   5.553   2.296
 5848SOL    HW218444   1.784   5.524   2.371
 5849SOL     OW18445   3.009   6.088   6.103
 5849SOL    HW118446   2.961   6.069   6.188
 5849SOL    HW218447   2.998   6.010   6.040
 5850SOL     OW18448   0.703   1.317   2.123
 5850SOL    HW118449   0.791   1.309   2.075
 5850SOL    HW218450   0.656   1.400   2.092
 5851SOL     OW18451   6.417   3.638   4.174
 5851SOL    HW118452   6.337   3.695   4.191
 5851SOL    HW218453   6.388   3.546   4.147
 5852SOL     OW18454   5.030   4.235   2.175
 5852SOL    HW118455   5.054   4.332   2.169
 5852SOL    HW218456   5.037   4.193   2.085
 5853SOL     OW18457   4.749   4.837   6.343
 5853SOL    HW118458   4.839   4.812   6.378
 5853SOL    HW218459   4.756   4.920   6.287
 5854SOL     OW18460   3.648   5.021   5.472
 5854SOL    HW118461   3.550   5.037   5.463
 5854SOL    HW218462   3.694   5.047   5.387
 5855SOL     OW18463   2.234   2.909   3.002
 5855SOL    HW118464   2.182   2.920   2.917
 5855SOL    HW218465   2.176   2.865   3.071
 5856SOL     OW18466   1.115   5.760   3.023
 5856SOL    HW118467   1.162   5.816   3.091
 5856SOL    HW218468   1.023   5.796   3.009
 5857SOL     OW18469   5.584   4.968   6.522
 5857SOL    HW118470   5.529   5.009   6.448
 5857SOL    HW218471   5.580   5.026   6.603
 5858SOL     OW18472   1.791   0.815   2.503
 5858SOL    HW118473   1.807   0.779   2.595
 5858SOL    HW218474   1.767   0.912   2.510
 5859SOL     OW18475   5.610   5.693   1.359
 5859SOL    HW118476   5.566   5.605   1.378
 5859SOL    HW218477   5.588   5.758   1.432
 5860SOL     OW18478   0.495   3.968   3.021
 5860SOL    HW118479   0.563   3.957   2.949
 5860SOL    HW218480   0.475   4.065   3.034
 5861SOL     OW18481   4.766   0.968   5.067
 5861SOL    HW118482   4.830   1.036   5.029
 5861SOL    HW218483   4.817   0.900   5.119
 5862SOL     OW18484   6.443   5.538   2.835
 5862SOL    HW118485   6.503   5.574   2.764
 5862SOL    HW218486   6.347   5.557   2.811
 5863SOL     OW18487   4.130   0.015   6.638
 5863SOL    HW118488   4.036   0.002   6.607
 5863SOL    HW218489   4.168   0.097   6.595
 5864SOL     OW18490   3.412   4.003   2.378
 5864SOL    HW118491   3.491   4.039   2.329
 5864SOL    HW218492   3.329   4.048   2.344
 5865SOL     OW18493   6.688   0.335   6.384
 5865SOL    HW118494   6.635   0.379   6.457
 5865SOL    HW218495   6.757   0.399   6.349
 5866SOL     OW18496   3.038   3.058   2.761
 5866SOL    HW118497   3.120   3.031   2.710
 5866SOL    HW218498   2.981   2.978   2.778
 5867SOL     OW18499   2.818   1.538   1.748
 5867SOL    HW118500   2.813   1.637   1.757
 5867SOL    HW218501   2.732   1.497   1.778
 5868SOL     OW18502   0.849   1.379   6.311
 5868SOL    HW118503   0.900   1.442   6.370
 5868SOL    HW218504   0.799   1.314   6.368
 5869SOL     OW18505   1.333   6.162   3.509
 5869SOL    HW118506   1.409   6.109   3.470
 5869SOL    HW218507   1.335   6.154   3.609
 5870SOL     OW18508   3.529   5.874   4.334
 5870SOL    HW118509   3.600   5.867   4.264
 5870SOL    HW218510   3.545   5.956   4.389
 5871SOL     OW18511   3.197   3.167   3.770
 5871SOL    HW118512   3.267   3.097   3.772
 5871SOL    HW218513   3.147   3.167   3.857
 5872SOL     OW18514   4.676   5.790   0.793
 5872SOL    HW118515   4.593   5.736   0.776
 5872SOL    HW218516   4.704   5.779   0.888
 5873SOL     OW18517   4.492   6.046   2.653
 5873SOL    HW118518   4.455   6.081   2.567
 5873SOL    HW218519   4.506   6.122   2.717
 5874SOL     OW18520   1.151   4.187   5.355
 5874SOL    HW118521   1.231   4.131   5.379
 5874SOL    HW218522   1.133   4.253   5.428
 5875SOL     OW18523   3.337   1.869   1.454
 5875SOL    HW118524   3.406   1.921   1.405
 5875SOL    HW218525   3.253   1.923   1.463
 5876SOL     OW18526   3.324   2.962   1.530
 5876SOL    HW118527   3.358   2.943   1.438
 5876SOL    HW218528   3.272   2.884   1.563
 5877SOL     OW18529   5.765   4.358   1.195
 5877SOL    HW118530   5.728   4.442   1.234
 5877SOL    HW218531   5.774   4.289   1.267
 5878SOL     OW18532   2.273   4.652   2.582
 5878SOL    HW118533   2.343   4.673   2.651
 5878SOL    HW218534   2.208   4.728   2.576
 5879SOL     OW18535   0.497   4.238   4.243
 5879SOL    HW118536   0.548   4.158   4.213
 5879SOL    HW218537   0.497   4.242   4.343
 5880SOL     OW18538   3.293   5.519   0.370
 5880SOL    HW118539   3.292   5.607   0.322
 5880SOL    HW218540   3.262   5.447   0.308
 5881SOL     OW18541   1.336   5.891   4.554
 5881SOL    HW118542   1.423   5.851   4.582
 5881SOL    HW218543   1.351   5.985   4.521
 5882SOL     OW18544   4.804   0.649   2.536
 5882SOL    HW118545   4.884   0.673   2.591
 5882SOL    HW218546   4.788   0.550   2.542
 5883SOL     OW18547   0.086   3.396   5.391
 5883SOL    HW118548   0.091   3.485   5.437
 5883SOL    HW218549   0.084   3.323   5.459
 5884SOL     OW18550   0.787   1.385   3.595
 5884SOL    HW118551   0.848   1.456   3.631
 5884SOL    HW218552   0.788   1.387   3.495
 5885SOL     OW18553   5.889   6.961   0.902
 5885SOL    HW118554   5.953   6.972   0.826
 5885SOL    HW218555   5.912   7.026   0.975
 5886SOL     OW18556   0.070   1.066   6.727
 5886SOL    HW118557   7.006   1.101   6.745
 5886SOL    HW218558   0.075   0.970   6.754
 5887SOL     OW18559   4.434   6.459   2.825
 5887SOL    HW118560   4.433   6.421   2.918
 5887SOL    HW218561   4.460   6.555   2.829
 5888SOL     OW18562   1.301   0.404   3.239
 5888SOL    HW118563   1.233   0.450   3.181
 5888SOL    HW218564   1.270   0.311   3.260
 5889SOL     OW18565   2.744   0.573   0.257
 5889SOL    HW118566   2.745   0.482   0.299
 5889SOL    HW218567   2.834   0.616   0.269
 5890SOL     OW18568   3.400   5.074   5.778
 5890SOL    HW118569   3.491   5.036   5.760
 5890SOL    HW218570   3.378   5.064   5.875
 5891SOL     OW18571   1.862   3.512   6.859
 5891SOL    HW118572   1.883   3.475   6.950
 5891SOL    HW218573   1.945   3.508   6.802
 5892SOL     OW18574   1.492   0.109   2.280
 5892SOL    HW118575   1.393   0.116   2.288
 5892SOL    HW218576   1.535   0.185   2.329
 5893SOL     OW18577   1.913   0.918   3.008
 5893SOL    HW118578   1.883   0.975   3.085
 5893SOL    HW218579   1.933   0.825   3.041
 5894SOL     OW18580   0.653   3.406   3.778
 5894SOL    HW118581   0.731   3.466   3.759
 5894SOL    HW218582   0.683   3.310   3.775
 5895SOL     OW18583   5.306   3.725   3.700
 5895SOL    HW118584   5.318   3.824   3.705
 5895SOL    HW218585   5.232   3.704   3.635
 5896SOL     OW18586   4.662   2.220   5.431
 5896SOL    HW118587   4.598   2.249   5.360
 5896SOL    HW218588   4.709   2.300   5.469
 5897SOL     OW18589   3.904   7.024   1.774
 5897SOL    HW118590   3.878   0.078   1.827
 5897SOL    HW218591   4.003   7.020   1.766
 5898SOL     OW18592   1.760   0.205   2.150
 5898SOL    HW118593   1.852   0.167   2.143
 5898SOL    HW218594   1.702   0.142   2.201
 5899SOL     OW18595   5.221   6.962   3.973
 5899SOL    HW118596   5.286   6.901   3.929
 5899SOL    HW218597   5.250   0.030   3.960
 5900SOL     OW18598   4.349   5.035   2.099
 5900SOL    HW118599   4.364   4.980   2.181
 5900SOL    HW218600   4.278   5.103   2.116
 5901SOL     OW18601   3.406   0.073   5.474
 5901SOL    HW118602   3.399   7.005   5.444
 5901SOL    HW218603   3.439   0.130   5.399
 5902SOL     OW18604   6.312   0.984   6.730
 5902SOL    HW118605   6.301   0.938   6.641
 5902SOL    HW218606   6.265   0.931   6.800
 5903SOL     OW18607   6.958   3.142   6.495
 5903SOL    HW118608   6.907   3.211   6.444
 5903SOL    HW218609   7.021   3.094   6.434
 5904SOL     OW18610   0.187   4.204   2.616
 5904SOL    HW118611   0.185   4.200   2.716
 5904SOL    HW218612   0.234   4.287   2.587
 5905SOL     OW18613   6.469   4.855   2.121
 5905SOL    HW118614   6.396   4.805   2.075
 5905SOL    HW218615   6.470   4.950   2.088
 5906SOL     OW18616   6.827   1.634   3.996
 5906SOL    HW118617   6.830   1.539   3.965
 5906SOL    HW218618   6.732   1.664   4.000
 5907SOL     OW18619   2.003   0.109   1.940
 5907SOL    HW118620   2.100   0.127   1.926
 5907SOL    HW218621   1.991   0.049   2.020
 5908SOL     OW18622   0.216   2.599   6.132
 5908SOL    HW118623   0.243   2.572   6.039
 5908SOL    HW218624   0.268   2.545   6.199
 5909SOL     OW18625   6.799   3.915   0.891
 5909SOL    HW118626   6.888   3.918   0.845
 5909SOL    HW218627   6.727   3.934   0.825
 5910SOL     OW18628   2.179   1.729   3.768
 5910SOL    HW118629   2.198   1.813   3.819
 5910SOL    HW218630   2.084   1.702   3.783
 5911SOL     OW18631   0.400   5.399   6.314
 5911SOL    HW118632   0.382   5.367   6.220
 5911SOL    HW218633   0.339   5.351   6.377
 5912SOL     OW18634   0.633   0.939   3.801
 5912SOL    HW118635   0.707   0.988   3.755
 5912SOL    HW218636   0.549   0.992   3.795
 5913SOL     OW18637   5.757   1.535   6.932
 5913SOL    HW118638   5.747   1.436   6.941
 5913SOL    HW218639   5.690   1.580   6.991
 5914SOL     OW18640   0.103   6.180   0.653
 5914SOL    HW118641   0.106   6.149   0.749
 5914SOL    HW218642   0.010   6.168   0.617
 5915SOL     OW18643   3.874   1.682   5.982
 5915SOL    HW118644   3.918   1.772   5.980
 5915SOL    HW218645   3.929   1.619   6.038
 5916SOL     OW18646   0.687   6.393   2.435
 5916SOL    HW118647   0.689   6.491   2.456
 5916SOL    HW218648   0.735   6.376   2.349
 5917SOL     OW18649   3.332   4.933   0.364
 5917SOL    HW118650   3.271   4.869   0.410
 5917SOL    HW218651   3.410   4.953   0.424
 5918SOL     OW18652   2.990   6.785   5.329
 5918SOL    HW118653   3.020   6.880   5.333
 5918SOL    HW218654   2.913   6.772   5.391
 5919SOL     OW18655   3.218   3.053   4.334
 5919SOL    HW118656   3.157   3.104   4.395
 5919SOL    HW218657   3.276   2.992   4.389
 5920SOL     OW18658   5.567   0.593   5.162
 5920SOL    HW118659   5.649   0.559   5.208
 5920SOL    HW218660   5.590   0.620   5.068
 5921SOL     OW18661   2.873   4.533   6.174
 5921SOL    HW118662   2.783   4.489   6.174
 5921SOL    HW218663   2.941   4.471   6.136
 5922SOL     OW18664   5.197   3.666   2.484
 5922SOL    HW118665   5.230   3.701   2.572
 5922SOL    HW218666   5.184   3.567   2.490
 5923SOL     OW18667   6.467   0.293   3.406
 5923SOL    HW118668   6.393   0.227   3.397
 5923SOL    HW218669   6.553   0.245   3.420
 5924SOL     OW18670   5.587   0.088   3.399
 5924SOL    HW118671   5.510   0.139   3.436
 5924SOL    HW218672   5.556   7.027   3.363
 5925SOL     OW18673   4.404   0.534   1.311
 5925SOL    HW118674   4.379   0.439   1.288
 5925SOL    HW218675   4.348   0.565   1.388
 5926SOL     OW18676   4.878   4.971   4.202
 5926SOL    HW118677   4.793   4.989   4.152
 5926SOL    HW218678   4.901   5.051   4.258
 5927SOL     OW18679   0.732   4.603   1.856
 5927SOL    HW118680   0.687   4.682   1.896
 5927SOL    HW218681   0.800   4.567   1.920
 5928SOL     OW18682   2.996   0.699   0.276
 5928SOL    HW118683   3.096   0.699   0.284
 5928SOL    HW218684   2.970   0.713   0.181
 5929SOL     OW18685   1.714   0.949   6.680
 5929SOL    HW118686   1.624   0.925   6.644
 5929SOL    HW218687   1.756   1.019   6.623
 5930SOL     OW18688   1.697   3.397   2.156
 5930SOL    HW118689   1.658   3.388   2.248
 5930SOL    HW218690   1.693   3.493   2.128
 5931SOL     OW18691   5.109   6.499   2.885
 5931SOL    HW118692   5.052   6.459   2.813
 5931SOL    HW218693   5.050   6.547   2.951
 5932SOL     OW18694   2.704   0.883   6.508
 5932SOL    HW118695   2.611   0.885   6.472
 5932SOL    HW218696   2.711   0.812   6.579
 5933SOL     OW18697   6.219   6.002   4.113
 5933SOL    HW118698   6.314   5.972   4.109
 5933SOL    HW218699   6.188   6.003   4.208
 5934SOL     OW18700   3.181   3.496   6.437
 5934SOL    HW118701   3.120   3.435   6.490
 5934SOL    HW218702   3.271   3.454   6.430
 5935SOL     OW18703   1.240   5.926   5.981
 5935SOL    HW118704   1.285   5.889   6.062
 5935SOL    HW218705   1.147   5.889   5.975
 5936SOL     OW18706   3.109   3.055   1.984
 5936SOL    HW118707   3.101   3.087   2.078
 5936SOL    HW218708   3.020   3.060   1.939
 5937SOL     OW18709   0.198   3.127   1.572
 5937SOL    HW118710   0.232   3.213   1.611
 5937SOL    HW218711   0.124   3.092   1.629
 5938SOL     OW18712   0.461   4.690   4.628
 5938SOL    HW118713   0.402   4.690   4.710
 5938SOL    HW218714   0.404   4.689   4.546
 5939SOL     OW18715   3.428   1.084   4.933
 5939SOL    HW118716   3.405   1.043   4.845
 5939SOL    HW218717   3.458   1.178   4.920
 5940SOL     OW18718   5.529   5.717   2.212
 5940SOL    HW118719   5.569   5.803   2.246
 5940SOL    HW218720   5.430   5.721   2.219
 5941SOL     OW18721   0.316   2.432   2.574
 5941SOL    HW118722   0.251   2.476   2.636
 5941SOL    HW218723   0.408   2.438   2.613
 5942SOL     OW18724   5.113   2.860   6.145
 5942SOL    HW118725   5.077   2.899   6.060
 5942SOL    HW218726   5.206   2.829   6.131
 5943SOL     OW18727   3.012   4.225   1.750
 5943SOL    HW118728   2.967   4.307   1.786
 5943SOL    HW218729   2.943   4.158   1.724
 5944SOL     OW18730   0.062   3.557   6.831
 5944SOL    HW118731   0.036   3.460   6.833
 5944SOL    HW218732   0.149   3.570   6.877
 5945SOL     OW18733   6.904   6.041   4.978
 5945SOL    HW118734   6.840   6.050   4.902
 5945SOL    HW218735   6.912   6.128   5.026
 5946SOL     OW18736   2.844   4.023   0.752
 5946SOL    HW118737   2.930   4.026   0.701
 5946SOL    HW218738   2.817   4.115   0.778
 5947SOL     OW18739   3.633   3.327   4.827
 5947SOL    HW118740   3.693   3.372   4.761
 5947SOL    HW218741   3.670   3.237   4.850
 5948SOL     OW18742   4.805   3.681   1.734
 5948SOL    HW118743   4.853   3.593   1.732
 5948SOL    HW218744   4.821   3.726   1.822
 5949SOL     OW18745   6.674   4.203   2.690
 5949SOL    HW118746   6.757   4.251   2.717
 5949SOL    HW218747   6.695   4.108   2.669
 5950SOL     OW18748   4.171   0.414   5.091
 5950SOL    HW118749   4.086   0.409   5.038
 5950SOL    HW218750   4.155   0.467   5.174
 5951SOL     OW18751   0.340   3.868   6.471
 5951SOL    HW118752   0.245   3.879   6.441
 5951SOL    HW218753   0.380   3.788   6.427
 5952SOL     OW18754   4.165   4.658   0.740
 5952SOL    HW118755   4.084   4.667   0.681
 5952SOL    HW218756   4.136   4.646   0.835
 5953SOL     OW18757   6.483   2.979   5.065
 5953SOL    HW118758   6.528   2.914   5.126
 5953SOL    HW218759   6.475   3.067   5.111
 5954SOL     OW18760   1.615   5.908   4.113
 5954SOL    HW118761   1.527   5.860   4.119
 5954SOL    HW218762   1.689   5.841   4.112
 5955SOL     OW18763   5.350   3.494   0.585
 5955SOL    HW118764   5.287   3.419   0.603
 5955SOL    HW218765   5.405   3.511   0.666
 5956SOL     OW18766   5.271   2.286   5.419
 5956SOL    HW118767   5.201   2.217   5.439
 5956SOL    HW218768   5.282   2.296   5.321
 5957SOL     OW18769   0.816   1.801   3.072
 5957SOL    HW118770   0.722   1.834   3.075
 5957SOL    HW218771   0.848   1.800   2.977
 5958SOL     OW18772   3.634   0.034   2.566
 5958SOL    HW118773   3.607   0.043   2.470
 5958SOL    HW218774   3.609   6.970   2.599
 5959SOL     OW18775   5.105   2.259   4.372
 5959SOL    HW118776   5.007   2.260   4.349
 5959SOL    HW218777   5.123   2.184   4.435
 5960SOL     OW18778   4.193   0.452   6.197
 5960SOL    HW118779   4.281   0.406   6.207
 5960SOL    HW218780   4.190   0.497   6.108
 5961SOL     OW18781   2.783   2.125   3.291
 5961SOL    HW118782   2.803   2.179   3.373
 5961SOL    HW218783   2.780   2.028   3.315
 5962SOL     OW18784   4.940   6.302   1.236
 5962SOL    HW118785   4.890   6.237   1.179
 5962SOL    HW218786   5.003   6.355   1.180
 5963SOL     OW18787   3.345   4.585   0.244
 5963SOL    HW118788   3.361   4.511   0.178
 5963SOL    HW218789   3.369   4.672   0.203
 5964SOL     OW18790   2.556   6.839   2.412
 5964SOL    HW118791   2.627   6.848   2.341
 5964SOL    HW218792   2.503   6.756   2.394
 5965SOL     OW18793   1.910   0.467   0.033
 5965SOL    HW118794   1.970   0.541   0.002
 5965SOL    HW218795   1.903   0.470   0.133
 5966SOL     OW18796   2.664   0.928   4.856
 5966SOL    HW118797   2.623   1.013   4.890
 5966SOL    HW218798   2.607   0.850   4.882
 5967SOL     OW18799   3.512   2.082   4.374
 5967SOL    HW118800   3.432   2.121   4.329
 5967SOL    HW218801   3.499   2.083   4.473
 5968SOL     OW18802   5.616   2.557   1.543
 5968SOL    HW118803   5.667   2.630   1.496
 5968SOL    HW218804   5.612   2.577   1.641
 5969SOL     OW18805   5.220   0.795   0.216
 5969SOL    HW118806   5.133   0.831   0.252
 5969SOL    HW218807   5.226   0.817   0.119
 5970SOL     OW18808   0.318   3.144   0.742
 5970SOL    HW118809   0.335   3.046   0.752
 5970SOL    HW218810   0.244   3.171   0.804
 5971SOL     OW18811   0.165   6.625   3.559
 5971SOL    HW118812   0.249   6.571   3.558
 5971SOL    HW218813   0.092   6.571   3.601
 5972SOL     OW18814   4.835   4.988   0.882
 5972SOL    HW118815   4.742   5.022   0.899
 5972SOL    HW218816   4.884   5.052   0.823
 5973SOL     OW18817   2.418   2.207   2.878
 5973SOL    HW118818   2.374   2.294   2.860
 5973SOL    HW218819   2.435   2.160   2.791
 5974SOL     OW18820   5.578   1.892   5.651
 5974SOL    HW118821   5.504   1.947   5.613
 5974SOL    HW218822   5.583   1.805   5.601
 5975SOL     OW18823   4.771   5.030   0.450
 5975SOL    HW118824   4.766   5.041   0.351
 5975SOL    HW218825   4.683   5.054   0.491
 5976SOL     OW18826   2.478   3.449   5.762
 5976SOL    HW118827   2.444   3.356   5.744
 5976SOL    HW218828   2.534   3.449   5.844
 5977SOL     OW18829   6.263   4.095   0.587
 5977SOL    HW118830   6.320   4.121   0.510
 5977SOL    HW218831   6.213   4.011   0.564
 5978SOL     OW18832   2.557   4.052   0.410
 5978SOL    HW118833   2.613   3.986   0.459
 5978SOL    HW218834   2.580   4.049   0.312
 5979SOL     OW18835   5.592   0.754   1.739
 5979SOL    HW118836   5.675   0.781   1.689
 5979SOL    HW218837   5.569   0.659   1.716
 5980SOL     OW18838   2.906   3.225   0.972
 5980SOL    HW118839   2.869   3.157   1.036
 5980SOL    HW218840   2.944   3.302   1.024
 5981SOL     OW18841   2.620   2.534   0.789
 5981SOL    HW118842   2.591   2.449   0.745
 5981SOL    HW218843   2.695   2.574   0.737
 5982SOL     OW18844   5.803   2.877   0.928
 5982SOL    HW118845   5.744   2.915   1.000
 5982SOL    HW218846   5.787   2.927   0.842
 5983SOL     OW18847   0.035   1.092   3.418
 5983SOL    HW118848   7.018   1.002   3.422
 5983SOL    HW218849   7.025   1.150   3.491
 5984SOL     OW18850   6.308   6.857   3.482
 5984SOL    HW118851   6.282   6.912   3.562
 5984SOL    HW218852   6.385   6.799   3.505
 5985SOL     OW18853   5.714   3.099   2.940
 5985SOL    HW118854   5.758   3.159   2.874
 5985SOL    HW218855   5.617   3.121   2.945
 5986SOL     OW18856   4.126   3.522   5.063
 5986SOL    HW118857   4.159   3.590   5.129
 5986SOL    HW218858   4.074   3.568   4.991
 5987SOL     OW18859   6.756   0.018   5.416
 5987SOL    HW118860   6.751   0.044   5.512
 5987SOL    HW218861   6.783   6.949   5.409
 5988SOL     OW18862   1.251   2.456   6.373
 5988SOL    HW118863   1.296   2.400   6.303
 5988SOL    HW218864   1.185   2.400   6.423
 5989SOL     OW18865   0.721   6.080   6.530
 5989SOL    HW118866   0.690   6.093   6.624
 5989SOL    HW218867   0.810   6.034   6.530
 5990SOL     OW18868   3.667   5.011   1.840
 5990SOL    HW118869   3.631   4.933   1.892
 5990SOL    HW218870   3.743   4.981   1.782
 5991SOL     OW18871   5.028   6.865   1.055
 5991SOL    HW118872   4.963   6.804   1.099
 5991SOL    HW218873   5.023   6.854   0.956
 5992SOL     OW18874   4.056   6.035   2.115
 5992SOL    HW118875   3.964   6.055   2.150
 5992SOL    HW218876   4.097   5.962   2.169
 5993SOL     OW18877   6.277   1.968   0.209
 5993SOL    HW118878   6.362   1.915   0.211
 5993SOL    HW218879   6.221   1.946   0.290
 5994SOL     OW18880   0.662   3.649   0.466
 5994SOL    HW118881   0.667   3.570   0.406
 5994SOL    HW218882   0.753   3.688   0.478
 5995SOL     OW18883   4.671   4.037   1.439
 5995SOL    HW118884   4.638   4.077   1.525
 5995SOL    HW218885   4.694   3.941   1.454
 5996SOL     OW18886   2.768   5.526   1.295
 5996SOL    HW118887   2.815   5.563   1.375
 5996SOL    HW218888   2.687   5.580   1.276
 5997SOL     OW18889   6.504   0.171   3.919
 5997SOL    HW118890   6.451   0.222   3.851
 5997SOL    HW218891   6.442   0.125   3.983
 5998SOL     OW18892   5.877   6.345   1.246
 5998SOL    HW118893   5.931   6.299   1.317
 5998SOL    HW218894   5.790   6.297   1.236
 5999SOL     OW18895   5.093   2.942   1.171
 5999SOL    HW118896   5.147   2.869   1.213
 5999SOL    HW218897   5.118   3.030   1.212
 6000SOL     OW18898   0.615   4.087   1.177
 6000SOL    HW118899   0.686   4.036   1.128
 6000SOL    HW218900   0.529   4.038   1.172
 6001SOL     OW18901   6.848   5.203   5.802
 6001SOL    HW118902   6.789   5.254   5.864
 6001SOL    HW218903   6.940   5.242   5.804
 6002SOL     OW18904   6.143   4.862   4.736
 6002SOL    HW118905   6.058   4.814   4.715
 6002SOL    HW218906   6.190   4.886   4.650
 6003SOL     OW18907   0.828   2.871   4.849
 6003SOL    HW118908   0.882   2.955   4.854
 6003SOL    HW218909   0.849   2.822   4.765
 6004SOL     OW18910   5.075   2.824   4.473
 6004SOL    HW118911   5.006   2.895   4.460
 6004SOL    HW218912   5.134   2.848   4.550
 6005SOL     OW18913   3.893   5.093   6.425
 6005SOL    HW118914   3.843   5.145   6.494
 6005SOL    HW218915   3.930   5.155   6.356
 6006SOL     OW18916   2.975   6.129   5.728
 6006SOL    HW118917   2.981   6.216   5.681
 6006SOL    HW218918   2.907   6.134   5.801
 6007SOL     OW18919   2.662   5.833   6.408
 6007SOL    HW118920   2.658   5.763   6.336
 6007SOL    HW218921   2.571   5.848   6.445
 6008SOL     OW18922   3.434   3.953   6.161
 6008SOL    HW118923   3.383   3.870   6.139
 6008SOL    HW218924   3.397   4.030   6.108
 6009SOL     OW18925   3.489   4.950   3.095
 6009SOL    HW118926   3.439   4.867   3.072
 6009SOL    HW218927   3.587   4.933   3.089
 6010SOL     OW18928   0.777   5.708   4.780
 6010SOL    HW118929   0.780   5.692   4.879
 6010SOL    HW218930   0.859   5.668   4.738
 6011SOL     OW18931   6.468   1.947   1.362
 6011SOL    HW118932   6.498   2.025   1.417
 6011SOL    HW218933   6.490   1.862   1.411
 6012SOL     OW18934   6.886   0.340   5.941
 6012SOL    HW118935   6.931   0.429   5.931
 6012SOL    HW218936   6.914   0.298   6.028
 6013SOL     OW18937   6.013   1.683   2.126
 6013SOL    HW118938   6.095   1.695   2.181
 6013SOL    HW218939   6.035   1.628   2.045
 6014SOL     OW18940   3.849   3.551   3.934
 6014SOL    HW118941   3.884   3.464   3.970
 6014SOL    HW218942   3.923   3.617   3.928
 6015SOL     OW18943   5.559   1.393   4.289
 6015SOL    HW118944   5.646   1.346   4.271
 6015SOL    HW218945   5.515   1.352   4.368
 6016SOL     OW18946   4.944   0.947   4.342
 6016SOL    HW118947   4.926   1.041   4.314
 6016SOL    HW218948   4.859   0.904   4.374
 6017SOL     OW18949   0.071   2.039   5.449
 6017SOL    HW118950   0.156   2.056   5.499
 6017SOL    HW218951   0.020   1.965   5.494
 6018SOL     OW18952   2.833   1.174   5.331
 6018SOL    HW118953   2.791   1.265   5.340
 6018SOL    HW218954   2.763   1.104   5.342
 6019SOL     OW18955   6.851   3.674   0.015
 6019SOL    HW118956   6.809   3.650   6.955
 6019SOL    HW218957   6.886   3.591   0.059
 6020SOL     OW18958   0.993   4.838   6.935
 6020SOL    HW118959   1.074   4.834   6.992
 6020SOL    HW218960   0.913   4.859   6.991
 6021SOL     OW18961   5.410   6.904   3.750
 6021SOL    HW118962   5.509   6.914   3.758
 6021SOL    HW218963   5.387   6.859   3.664
 6022SOL     OW18964   6.239   1.539   1.548
 6022SOL    HW118965   6.266   1.540   1.645
 6022SOL    HW218966   6.296   1.475   1.498
 6023SOL     OW18967   4.216   0.372   2.224
 6023SOL    HW118968   4.175   0.328   2.144
 6023SOL    HW218969   4.294   0.317   2.256
 6024SOL     OW18970   0.827   5.771   0.144
 6024SOL    HW118971   0.753   5.814   0.092
 6024SOL    HW218972   0.866   5.696   0.090
 6025SOL     OW18973   3.428   0.473   4.809
 6025SOL    HW118974   3.506   0.497   4.751
 6025SOL    HW218975   3.415   0.374   4.807
 6026SOL     OW18976   6.056   4.862   4.439
 6026SOL    HW118977   6.118   4.803   4.387
 6026SOL    HW218978   5.990   4.903   4.377
 6027SOL     OW18979   6.016   4.170   6.660
 6027SOL    HW118980   6.096   4.116   6.634
 6027SOL    HW218981   5.959   4.185   6.579
 6028SOL     OW18982   5.935   5.474   6.060
 6028SOL    HW118983   5.994   5.399   6.030
 6028SOL    HW218984   5.839   5.450   6.046
 6029SOL     OW18985   2.104   0.749   3.185
 6029SOL    HW118986   2.175   0.716   3.124
 6029SOL    HW218987   2.041   0.675   3.208
 6030SOL     OW18988   5.495   3.555   4.276
 6030SOL    HW118989   5.432   3.516   4.208
 6030SOL    HW218990   5.448   3.627   4.327
 6031SOL     OW18991   0.552   6.295   4.672
 6031SOL    HW118992   0.515   6.382   4.705
 6031SOL    HW218993   0.545   6.226   4.745
 6032SOL     OW18994   3.492   6.247   3.521
 6032SOL    HW118995   3.532   6.333   3.490
 6032SOL    HW218996   3.532   6.221   3.608
 6033SOL     OW18997   1.737   1.966   2.605
 6033SOL    HW118998   1.648   1.919   2.604
 6033SOL    HW218999   1.774   1.970   2.512
 6034SOL     OW19000   0.617   0.406   0.301
 6034SOL    HW119001   0.675   0.367   0.229
 6034SOL    HW219002   0.522   0.385   0.281
 6035SOL     OW19003   2.221   0.671   2.774
 6035SOL    HW119004   2.235   0.708   2.867
 6035SOL    HW219005   2.154   0.597   2.777
 6036SOL     OW19006   6.551   3.071   1.180
 6036SOL    HW119007   6.615   3.142   1.210
 6036SOL    HW219008   6.582   2.982   1.212
 6037SOL     OW19009   5.055   1.872   6.911
 6037SOL    HW119010   5.103   1.908   6.831
 6037SOL    HW219011   4.968   1.833   6.883
 6038SOL     OW19012   0.257   1.732   5.800
 6038SOL    HW119013   0.167   1.772   5.818
 6038SOL    HW219014   0.275   1.732   5.701
 6039SOL     OW19015   3.839   3.367   3.377
 6039SOL    HW119016   3.881   3.422   3.304
 6039SOL    HW219017   3.833   3.272   3.346
 6040SOL     OW19018   0.369   1.526   0.430
 6040SOL    HW119019   0.367   1.576   0.516
 6040SOL    HW219020   0.335   1.585   0.356
 6041SOL     OW19021   2.443   3.180   5.735
 6041SOL    HW119022   2.463   3.135   5.822
 6041SOL    HW219023   2.480   3.125   5.660
 6042SOL     OW19024   3.479   5.980   3.473
 6042SOL    HW119025   3.468   6.079   3.476
 6042SOL    HW219026   3.473   5.943   3.565
 6043SOL     OW19027   2.286   0.393   3.491
 6043SOL    HW119028   2.241   0.306   3.472
 6043SOL    HW219029   2.356   0.380   3.561
 6044SOL     OW19030   0.979   3.196   1.718
 6044SOL    HW119031   0.919   3.266   1.758
 6044SOL    HW219032   1.054   3.177   1.780
 6045SOL     OW19033   4.700   1.995   3.241
 6045SOL    HW119034   4.695   2.031   3.334
 6045SOL    HW219035   4.623   2.030   3.187
 6046SOL     OW19036   3.402   2.834   2.206
 6046SOL    HW119037   3.458   2.899   2.156
 6046SOL    HW219038   3.398   2.747   2.157
 6047SOL     OW19039   6.078   1.777   1.108
 6047SOL    HW119040   6.065   1.751   1.203
 6047SOL    HW219041   6.075   1.696   1.050
 6048SOL     OW19042   6.144   5.938   4.385
 6048SOL    HW119043   6.049   5.908   4.371
 6048SOL    HW219044   6.204   5.858   4.387
 6049SOL     OW19045   4.554   5.300   5.458
 6049SOL    HW119046   4.610   5.356   5.519
 6049SOL    HW219047   4.606   5.219   5.431
 6050SOL     OW19048   3.833   6.496   1.646
 6050SOL    HW119049   3.928   6.472   1.625
 6050SOL    HW219050   3.831   6.558   1.725
 6051SOL     OW19051   0.912   1.134   3.184
 6051SOL    HW119052   0.855   1.084   3.118
 6051SOL    HW219053   0.985   1.183   3.135
 6052SOL     OW19054   5.355   6.497   0.427
 6052SOL    HW119055   5.332   6.402   0.404
 6052SOL    HW219056   5.291   6.558   0.381
 6053SOL     OW19057   3.988   3.208   6.411
 6053SOL    HW119058   3.913   3.264   6.446
 6053SOL    HW219059   4.003   3.131   6.472
 6054SOL     OW19060   3.911   3.972   0.963
 6054SOL    HW119061   3.851   3.964   0.884
 6054SOL    HW219062   3.857   3.990   1.045
 6055SOL     OW19063   3.146   4.321   0.689
 6055SOL    HW119064   3.189   4.258   0.753
 6055SOL    HW219065   3.127   4.273   0.603
 6056SOL     OW19066   5.253   5.895   4.827
 6056SOL    HW119067   5.221   5.813   4.875
 6056SOL    HW219068   5.329   5.872   4.767
 6057SOL     OW19069   4.664   0.124   4.263
 6057SOL    HW119070   4.716   0.199   4.305
 6057SOL    HW219071   4.567   0.149   4.261
 6058SOL     OW19072   5.338   2.494   5.903
 6058SOL    HW119073   5.318   2.455   5.814
 6058SOL    HW219074   5.357   2.421   5.968
 6059SOL     OW19075   3.930   3.208   6.903
 6059SOL    HW119076   3.911   3.264   6.984
 6059SOL    HW219077   3.844   3.185   6.857
 6060SOL     OW19078   2.625   3.252   6.857
 6060SOL    HW119079   2.541   3.299   6.827
 6060SOL    HW219080   2.602   3.161   6.891
 6061SOL     OW19081   3.489   5.161   7.022
 6061SOL    HW119082   3.580   5.170   0.036
 6061SOL    HW219083   3.497   5.152   6.923
 6062SOL     OW19084   2.040   2.130   0.036
 6062SOL    HW119085   2.082   2.044   0.007
 6062SOL    HW219086   2.088   2.206   7.020
 6063SOL     OW19087   4.634   3.894   6.337
 6063SOL    HW119088   4.576   3.951   6.395
 6063SOL    HW219089   4.685   3.952   6.274
 6064SOL     OW19090   0.452   5.697   0.950
 6064SOL    HW119091   0.378   5.752   0.911
 6064SOL    HW219092   0.455   5.608   0.904
 6065SOL     OW19093   0.659   6.655   2.528
 6065SOL    HW119094   0.721   6.708   2.586
 6065SOL    HW219095   0.565   6.677   2.551
 6066SOL     OW19096   5.483   5.943   3.435
 6066SOL    HW119097   5.456   5.872   3.499
 6066SOL    HW219098   5.401   5.986   3.397
 6067SOL     OW19099   5.590   0.031   6.085
 6067SOL    HW119100   5.636   7.022   6.167
 6067SOL    HW219101   5.496   7.024   6.083
 6068SOL     OW19102   4.673   1.905   5.095
 6068SOL    HW119103   4.675   2.005   5.091
 6068SOL    HW219104   4.578   1.874   5.107
 6069SOL     OW19105   0.107   3.864   6.328
 6069SOL    HW119106   0.069   3.773   6.317
 6069SOL    HW219107   0.033   3.931   6.333
 6070SOL     OW19108   2.912   1.314   0.501
 6070SOL    HW119109   2.884   1.362   0.584
 6070SOL    HW219110   2.981   1.245   0.524
 6071SOL     OW19111   6.233   0.581   5.514
 6071SOL    HW119112   6.276   0.582   5.424
 6071SOL    HW219113   6.137   0.555   5.505
 6072SOL     OW19114   6.996   2.553   0.866
 6072SOL    HW119115   6.896   2.562   0.864
 6072SOL    HW219116   0.000   2.516   0.779
 6073SOL     OW19117   4.495   2.563   0.586
 6073SOL    HW119118   4.513   2.653   0.624
 6073SOL    HW219119   4.514   2.563   0.488
 6074SOL     OW19120   0.387   6.412   2.523
 6074SOL    HW119121   0.379   6.355   2.442
 6074SOL    HW219122   0.480   6.407   2.559
 6075SOL     OW19123   4.871   6.860   6.643
 6075SOL    HW119124   4.963   6.893   6.620
 6075SOL    HW219125   4.816   6.935   6.680
 6076SOL     OW19126   1.345   4.961   3.485
 6076SOL    HW119127   1.320   5.038   3.544
 6076SOL    HW219128   1.367   4.882   3.541
 6077SOL     OW19129   5.170   6.899   1.986
 6077SOL    HW119130   5.162   6.895   2.085
 6077SOL    HW219131   5.110   6.830   1.945
 6078SOL     OW19132   3.886   3.420   0.683
 6078SOL    HW119133   3.801   3.377   0.713
 6078SOL    HW219134   3.950   3.425   0.759
 6079SOL     OW19135   3.375   3.559   6.731
 6079SOL    HW119136   3.371   3.627   6.804
 6079SOL    HW219137   3.293   3.502   6.734
 6080SOL     OW19138   6.918   4.695   6.881
 6080SOL    HW119139   6.887   4.743   6.963
 6080SOL    HW219140   6.886   4.600   6.884
 6081SOL     OW19141   1.544   3.395   4.233
 6081SOL    HW119142   1.562   3.492   4.247
 6081SOL    HW219143   1.531   3.350   4.321
 6082SOL     OW19144   4.683   0.930   0.798
 6082SOL    HW119145   4.644   0.993   0.731
 6082SOL    HW219146   4.649   0.954   0.889
 6083SOL     OW19147   4.621   0.273   6.465
 6083SOL    HW119148   4.656   0.365   6.449
 6083SOL    HW219149   4.607   0.259   6.563
 6084SOL     OW19150   0.159   6.775   2.718
 6084SOL    HW119151   0.074   6.799   2.672
 6084SOL    HW219152   0.140   6.738   2.809
 6085SOL     OW19153   0.441   6.303   0.782
 6085SOL    HW119154   0.540   6.311   0.798
 6085SOL    HW219155   0.422   6.215   0.739
 6086SOL     OW19156   3.370   4.002   6.433
 6086SOL    HW119157   3.396   3.984   6.339
 6086SOL    HW219158   3.437   3.962   6.495
 6087SOL     OW19159   4.974   6.852   0.775
 6087SOL    HW119160   4.945   6.948   0.769
 6087SOL    HW219161   5.074   6.847   0.764
 6088SOL     OW19162   5.568   6.182   3.195
 6088SOL    HW119163   5.612   6.109   3.247
 6088SOL    HW219164   5.570   6.267   3.248
 6089SOL     OW19165   6.267   3.789   3.478
 6089SOL    HW119166   6.244   3.844   3.397
 6089SOL    HW219167   6.324   3.843   3.539
 6090SOL     OW19168   3.970   6.060   3.957
 6090SOL    HW119169   4.069   6.055   3.960
 6090SOL    HW219170   3.941   6.117   3.879
 6091SOL     OW19171   1.845   1.189   1.867
 6091SOL    HW119172   1.914   1.128   1.906
 6091SOL    HW219173   1.859   1.282   1.903
 6092SOL     OW19174   3.611   6.142   1.358
 6092SOL    HW119175   3.590   6.225   1.408
 6092SOL    HW219176   3.696   6.102   1.392
 6093SOL     OW19177   2.369   2.255   2.025
 6093SOL    HW119178   2.414   2.204   1.952
 6093SOL    HW219179   2.414   2.236   2.112
 6094SOL     OW19180   0.287   5.964   4.360
 6094SOL    HW119181   0.329   5.907   4.430
 6094SOL    HW219182   0.358   6.009   4.306
 6095SOL     OW19183   4.492   5.235   1.214
 6095SOL    HW119184   4.406   5.214   1.167
 6095SOL    HW219185   4.485   5.207   1.310
 6096SOL     OW19186   5.700   6.510   3.027
 6096SOL    HW119187   5.770   6.438   3.026
 6096SOL    HW219188   5.610   6.468   3.024
 6097SOL     OW19189   1.812   5.486   2.088
 6097SOL    HW119190   1.883   5.533   2.141
 6097SOL    HW219191   1.737   5.549   2.070
 6098SOL     OW19192   6.632   1.208   4.799
 6098SOL    HW119193   6.580   1.292   4.813
 6098SOL    HW219194   6.576   1.129   4.825
 6099SOL     OW19195   4.229   0.769   6.330
 6099SOL    HW119196   4.146   0.713   6.331
 6099SOL    HW219197   4.249   0.797   6.236
 6100SOL     OW19198   0.379   6.501   4.903
 6100SOL    HW119199   0.369   6.516   4.804
 6100SOL    HW219200   0.289   6.482   4.943
 6101SOL     OW19201   6.658   2.830   1.297
 6101SOL    HW119202   6.592   2.807   1.368
 6101SOL    HW219203   6.750   2.804   1.327
 6102SOL     OW19204   4.516   6.975   2.740
 6102SOL    HW119205   4.556   0.006   2.669
 6102SOL    HW219206   4.531   7.018   2.829
 6103SOL     OW19207   0.145   1.613   1.795
 6103SOL    HW119208   0.243   1.625   1.811
 6103SOL    HW219209   0.093   1.664   1.863
 6104SOL     OW19210   6.530   0.761   4.160
 6104SOL    HW119211   6.539   0.858   4.181
 6104SOL    HW219212   6.537   0.747   4.062
 6105SOL     OW19213   3.161   4.696   5.226
 6105SOL    HW119214   3.084   4.645   5.188
 6105SOL    HW219215   3.230   4.632   5.259
 6106SOL     OW19216   6.222   5.261   6.321
 6106SOL    HW119217   6.201   5.197   6.395
 6106SOL    HW219218   6.189   5.352   6.345
 6107SOL     OW19219   5.510   4.683   5.596
 6107SOL    HW119220   5.430   4.623   5.596
 6107SOL    HW219221   5.505   4.745   5.674
 6108SOL     OW19222   2.515   1.616   0.888
 6108SOL    HW119223   2.442   1.657   0.942
 6108SOL    HW219224   2.498   1.518   0.878
 6109SOL     OW19225   6.251   6.826   3.231
 6109SOL    HW119226   6.167   6.879   3.223
 6109SOL    HW219227   6.285   6.833   3.325
 6110SOL     OW19228   2.035   2.024   4.660
 6110SOL    HW119229   1.948   2.068   4.641
 6110SOL    HW219230   2.020   1.929   4.689
 6111SOL     OW19231   1.880   4.676   1.118
 6111SOL    HW119232   1.977   4.683   1.139
 6111SOL    HW219233   1.863   4.708   1.025
 6112SOL     OW19234   5.121   0.161   2.543
 6112SOL    HW119235   5.191   0.189   2.476
 6112SOL    HW219236   5.050   0.230   2.548
 6113SOL     OW19237   2.086   5.619   0.090
 6113SOL    HW119238   2.105   5.613   7.019
 6113SOL    HW219239   2.046   5.533   0.121
 6114SOL     OW19240   5.178   1.638   1.272
 6114SOL    HW119241   5.162   1.737   1.262
 6114SOL    HW219242   5.140   1.607   1.359
 6115SOL     OW19243   0.752   0.588   5.406
 6115SOL    HW119244   0.848   0.616   5.406
 6115SOL    HW219245   0.746   0.489   5.415
 6116SOL     OW19246   5.253   1.787   5.593
 6116SOL    HW119247   5.282   1.741   5.677
 6116SOL    HW219248   5.275   1.884   5.598
 6117SOL     OW19249   1.643   2.386   0.950
 6117SOL    HW119250   1.713   2.451   0.976
 6117SOL    HW219251   1.559   2.435   0.926
 6118SOL     OW19252   6.444   0.511   0.410
 6118SOL    HW119253   6.475   0.606   0.407
 6118SOL    HW219254   6.356   0.507   0.459
 6119SOL     OW19255   6.612   1.598   1.066
 6119SOL    HW119256   6.689   1.582   1.129
 6119SOL    HW219257   6.646   1.608   0.973
 6120SOL     OW19258   2.318   0.695   5.313
 6120SOL    HW119259   2.351   0.770   5.256
 6120SOL    HW219260   2.282   0.622   5.256
 6121SOL     OW19261   0.597   2.916   4.612
 6121SOL    HW119262   0.616   2.998   4.559
 6121SOL    HW219263   0.680   2.886   4.659
 6122SOL     OW19264   5.299   5.376   5.923
 6122SOL    HW119265   5.305   5.445   5.995
 6122SOL    HW219266   5.344   5.292   5.955
 6123SOL     OW19267   5.560   1.766   4.932
 6123SOL    HW119268   5.649   1.787   4.971
 6123SOL    HW219269   5.567   1.761   4.833
 6124SOL     OW19270   2.487   6.835   3.628
 6124SOL    HW119271   2.398   6.845   3.673
 6124SOL    HW219272   2.543   6.916   3.647
 6125SOL     OW19273   2.016   1.932   6.652
 6125SOL    HW119274   2.065   2.019   6.643
 6125SOL    HW219275   1.918   1.950   6.661
 6126SOL     OW19276   6.172   2.681   5.514
 6126SOL    HW119277   6.260   2.721   5.486
 6126SOL    HW219278   6.097   2.737   5.479
 6127SOL     OW19279   3.896   2.202   1.788
 6127SOL    HW119280   3.820   2.256   1.823
 6127SOL    HW219281   3.958   2.179   1.864
 6128SOL     OW19282   6.257   5.824   0.409
 6128SOL    HW119283   6.356   5.829   0.422
 6128SOL    HW219284   6.231   5.730   0.387
 6129SOL     OW19285   1.518   5.364   2.731
 6129SOL    HW119286   1.527   5.462   2.743
 6129SOL    HW219287   1.608   5.321   2.733
 6130SOL     OW19288   5.713   1.949   0.730
 6130SOL    HW119289   5.673   1.928   0.640
 6130SOL    HW219290   5.798   1.897   0.740
 6131SOL     OW19291   6.906   1.734   2.371
 6131SOL    HW119292   6.869   1.641   2.369
 6131SOL    HW219293   6.978   1.740   2.441
 6132SOL     OW19294   3.596   1.387   6.381
 6132SOL    HW119295   3.570   1.393   6.477
 6132SOL    HW219296   3.514   1.381   6.324
 6133SOL     OW19297   1.609   1.276   4.015
 6133SOL    HW119298   1.593   1.235   4.104
 6133SOL    HW219299   1.689   1.336   4.020
 6134SOL     OW19300   5.307   6.671   6.383
 6134SOL    HW119301   5.264   6.687   6.471
 6134SOL    HW219302   5.275   6.740   6.317
 6135SOL     OW19303   6.487   6.932   6.956
 6135SOL    HW119304   6.482   6.874   6.874
 6135SOL    HW219305   6.446   7.021   6.936
 6136SOL     OW19306   1.611   2.925   2.600
 6136SOL    HW119307   1.638   3.012   2.561
 6136SOL    HW219308   1.633   2.851   2.537
 6137SOL     OW19309   0.012   4.327   1.829
 6137SOL    HW119310   6.993   4.412   1.805
 6137SOL    HW219311   0.074   4.301   1.754
 6138SOL     OW19312   3.481   0.097   1.872
 6138SOL    HW119313   3.385   0.094   1.846
 6138SOL    HW219314   3.503   0.188   1.908
 6139SOL     OW19315   1.631   0.739   5.561
 6139SOL    HW119316   1.662   0.656   5.606
 6139SOL    HW219317   1.533   0.733   5.543
 6140SOL     OW19318   1.471   6.951   3.146
 6140SOL    HW119319   1.557   6.908   3.118
 6140SOL    HW219320   1.446   7.022   3.081
 6141SOL     OW19321   0.502   0.828   5.626
 6141SOL    HW119322   0.440   0.750   5.622
 6141SOL    HW219323   0.507   0.862   5.720
 6142SOL     OW19324   0.510   0.359   1.475
 6142SOL    HW119325   0.523   0.372   1.377
 6142SOL    HW219326   0.437   0.420   1.507
 6143SOL     OW19327   6.533   4.389   5.423
 6143SOL    HW119328   6.445   4.396   5.470
 6143SOL    HW219329   6.517   4.369   5.326
 6144SOL     OW19330   4.137   5.117   2.964
 6144SOL    HW119331   4.086   5.186   2.913
 6144SOL    HW219332   4.235   5.132   2.952
 6145SOL     OW19333   4.997   3.186   4.316
 6145SOL    HW119334   4.948   3.099   4.312
 6145SOL    HW219335   4.964   3.246   4.243
 6146SOL     OW19336   5.234   0.044   5.023
 6146SOL    HW119337   5.285   7.012   4.961
 6146SOL    HW219338   5.174   0.103   4.969
 6147SOL     OW19339   1.866   2.305   3.561
 6147SOL    HW119340   1.859   2.357   3.476
 6147SOL    HW219341   1.831   2.360   3.637
 6148SOL     OW19342   3.367   5.794   0.307
 6148SOL    HW119343   3.371   5.879   0.255
 6148SOL    HW219344   3.307   5.806   0.386
 6149SOL     OW19345   2.898   0.266   1.974
 6149SOL    HW119346   2.927   0.271   2.070
 6149SOL    HW219347   2.954   0.327   1.919
 6150SOL     OW19348   6.299   4.192   6.521
 6150SOL    HW119349   6.224   4.252   6.490
 6150SOL    HW219350   6.382   4.246   6.532
 6151SOL     OW19351   4.634   4.456   4.232
 6151SOL    HW119352   4.601   4.478   4.141
 6151SOL    HW219353   4.655   4.540   4.282
 6152SOL     OW19354   1.204   4.734   4.415
 6152SOL    HW119355   1.173   4.654   4.364
 6152SOL    HW219356   1.136   4.758   4.484
 6153SOL     OW19357   5.281   4.976   0.748
 6153SOL    HW119358   5.230   4.942   0.670
 6153SOL    HW219359   5.348   5.044   0.718
 6154SOL     OW19360   5.960   3.143   2.013
 6154SOL    HW119361   6.042   3.086   2.021
 6154SOL    HW219362   5.888   3.106   2.071
 6155SOL     OW19363   1.553   1.567   2.968
 6155SOL    HW119364   1.463   1.584   2.929
 6155SOL    HW219365   1.546   1.558   3.067
 6156SOL     OW19366   5.080   5.107   1.344
 6156SOL    HW119367   5.015   5.121   1.269
 6156SOL    HW219368   5.034   5.062   1.420
 6157SOL     OW19369   1.266   2.358   2.435
 6157SOL    HW119370   1.302   2.270   2.466
 6157SOL    HW219371   1.247   2.353   2.337
 6158SOL     OW19372   2.947   2.962   5.654
 6158SOL    HW119373   3.045   2.962   5.634
 6158SOL    HW219374   2.924   2.883   5.711
 6159SOL     OW19375   5.660   2.963   0.473
 6159SOL    HW119376   5.639   3.000   0.383
 6159SOL    HW219377   5.709   2.876   0.464
 6160SOL     OW19378   0.649   0.109   6.897
 6160SOL    HW119379   0.665   0.013   6.877
 6160SOL    HW219380   0.559   0.119   6.941
 6161SOL     OW19381   4.551   2.663   6.489
 6161SOL    HW119382   4.462   2.618   6.500
 6161SOL    HW219383   4.564   2.729   6.563
 6162SOL     OW19384   6.457   5.357   3.045
 6162SOL    HW119385   6.459   5.407   2.958
 6162SOL    HW219386   6.533   5.386   3.102
 6163SOL     OW19387   5.805   5.795   3.575
 6163SOL    HW119388   5.898   5.759   3.589
 6163SOL    HW219389   5.740   5.719   3.576
 6164SOL     OW19390   3.515   4.165   4.862
 6164SOL    HW119391   3.452   4.090   4.844
 6164SOL    HW219392   3.504   4.236   4.792
 6165SOL     OW19393   3.785   1.751   0.411
 6165SOL    HW119394   3.784   1.845   0.378
 6165SOL    HW219395   3.790   1.751   0.511
 6166SOL     OW19396   1.136   2.082   6.818
 6166SOL    HW119397   1.134   2.175   6.853
 6166SOL    HW219398   1.173   2.021   6.888
 6167SOL     OW19399   1.294   3.808   3.298
 6167SOL    HW119400   1.386   3.804   3.338
 6167SOL    HW219401   1.234   3.860   3.359
 6168SOL     OW19402   0.397   3.773   4.319
 6168SOL    HW119403   0.384   3.842   4.389
 6168SOL    HW219404   0.361   3.685   4.351
 6169SOL     OW19405   2.535   6.645   0.205
 6169SOL    HW119406   2.631   6.664   0.182
 6169SOL    HW219407   2.513   6.687   0.293
 6170SOL     OW19408   3.860   4.401   6.881
 6170SOL    HW119409   3.869   4.341   6.801
 6170SOL    HW219410   3.935   4.384   6.945
 6171SOL     OW19411   2.130   4.455   2.456
 6171SOL    HW119412   2.174   4.542   2.479
 6171SOL    HW219413   2.200   4.384   2.448
 6172SOL     OW19414   1.035   5.976   2.806
 6172SOL    HW119415   0.939   6.003   2.797
 6172SOL    HW219416   1.063   5.928   2.723
 6173SOL     OW19417   1.396   5.369   2.507
 6173SOL    HW119418   1.297   5.371   2.521
 6173SOL    HW219419   1.442   5.357   2.595
 6174SOL     OW19420   5.568   5.296   3.073
 6174SOL    HW119421   5.572   5.382   3.022
 6174SOL    HW219422   5.509   5.231   3.025
 6175SOL     OW19423   5.098   0.318   3.335
 6175SOL    HW119424   5.080   0.279   3.425
 6175SOL    HW219425   5.184   0.369   3.338
 6176SOL     OW19426   6.294   3.605   5.680
 6176SOL    HW119427   6.242   3.602   5.594
 6176SOL    HW219428   6.335   3.516   5.698
 6177SOL     OW19429   5.679   2.034   0.384
 6177SOL    HW119430   5.675   2.124   0.428
 6177SOL    HW219431   5.616   1.972   0.430
 6178SOL     OW19432   5.525   3.523   0.790
 6178SOL    HW119433   5.586   3.452   0.826
 6178SOL    HW219434   5.576   3.582   0.727
 6179SOL     OW19435   6.886   2.459   5.789
 6179SOL    HW119436   6.939   2.387   5.835
 6179SOL    HW219437   6.826   2.418   5.720
 6180SOL     OW19438   4.246   6.766   0.961
 6180SOL    HW119439   4.148   6.762   0.939
 6180SOL    HW219440   4.261   6.838   1.030
 6181SOL     OW19441   5.080   6.503   6.759
 6181SOL    HW119442   5.037   6.426   6.711
 6181SOL    HW219443   5.174   6.479   6.782
 6182SOL     OW19444   4.830   6.599   6.529
 6182SOL    HW119445   4.740   6.556   6.524
 6182SOL    HW219446   4.824   6.694   6.500
 6183SOL     OW19447   3.132   0.361   3.377
 6183SOL    HW119448   3.224   0.331   3.401
 6183SOL    HW219449   3.065   0.298   3.416
 6184SOL     OW19450   0.377   0.249   6.469
 6184SOL    HW119451   0.300   0.214   6.416
 6184SOL    HW219452   0.462   0.231   6.419
 6185SOL     OW19453   6.762   3.641   6.156
 6185SOL    HW119454   6.846   3.588   6.143
 6185SOL    HW219455   6.784   3.737   6.168
 6186SOL     OW19456   5.258   0.280   4.655
 6186SOL    HW119457   5.242   0.370   4.613
 6186SOL    HW219458   5.183   0.258   4.717
 6187SOL     OW19459   4.663   4.646   4.040
 6187SOL    HW119460   4.752   4.618   4.006
 6187SOL    HW219461   4.670   4.735   4.084
 6188SOL     OW19462   3.033   6.460   1.095
 6188SOL    HW119463   3.020   6.550   1.053
 6188SOL    HW219464   2.966   6.447   1.168
 6189SOL     OW19465   5.388   5.241   3.501
 6189SOL    HW119466   5.434   5.153   3.512
 6189SOL    HW219467   5.367   5.279   3.591
 6190SOL     OW19468   5.694   2.463   0.018
 6190SOL    HW119469   5.675   2.519   6.964
 6190SOL    HW219470   5.740   2.378   7.017
 6191SOL     OW19471   6.011   1.638   0.052
 6191SOL    HW119472   5.924   1.641   0.002
 6191SOL    HW219473   6.054   1.728   0.048
 6192SOL     OW19474   2.885   2.867   6.418
 6192SOL    HW119475   2.924   2.915   6.496
 6192SOL    HW219476   2.888   2.768   6.436
 6193SOL     OW19477   5.034   0.483   1.725
 6193SOL    HW119478   4.996   0.548   1.792
 6193SOL    HW219479   5.060   0.532   1.642
 6194SOL     OW19480   2.607   0.734   0.559
 6194SOL    HW119481   2.664   0.705   0.483
 6194SOL    HW219482   2.519   0.687   0.555
 6195SOL     OW19483   3.195   0.373   6.507
 6195SOL    HW119484   3.193   0.330   6.417
 6195SOL    HW219485   3.133   0.451   6.509
 6196SOL     OW19486   0.807   1.616   6.165
 6196SOL    HW119487   0.898   1.644   6.135
 6196SOL    HW219488   0.810   1.520   6.194
 6197SOL     OW19489   2.269   3.478   0.470
 6197SOL    HW119490   2.254   3.458   0.567
 6197SOL    HW219491   2.346   3.542   0.461
 6198SOL     OW19492   3.891   4.871   2.355
 6198SOL    HW119493   3.839   4.904   2.276
 6198SOL    HW219494   3.955   4.942   2.384
 6199SOL     OW19495   1.491   6.586   7.017
 6199SOL    HW119496   1.404   6.608   6.972
 6199SOL    HW219497   1.484   6.608   0.087
 6200SOL     OW19498   4.153   1.046   6.595
 6200SOL    HW119499   4.075   0.995   6.559
 6200SOL    HW219500   4.237   1.010   6.555
 6201SOL     OW19501   1.978   3.647   5.517
 6201SOL    HW119502   1.911   3.652   5.591
 6201SOL    HW219503   2.049   3.716   5.531
 6202SOL     OW19504   3.701   1.870   0.913
 6202SOL    HW119505   3.770   1.942   0.908
 6202SOL    HW219506   3.627   1.889   0.848
 6203SOL     OW19507   5.085   1.222   3.977
 6203SOL    HW119508   5.082   1.237   4.076
 6203SOL    HW219509   5.048   1.131   3.956
 6204SOL     OW19510   2.229   6.319   5.272
 6204SOL    HW119511   2.301   6.266   5.318
 6204SOL    HW219512   2.140   6.292   5.308
 6205SOL     OW19513   5.047   6.093   0.124
 6205SOL    HW119514   4.977   6.051   0.181
 6205SOL    HW219515   5.007   6.167   0.071
 6206SOL     OW19516   5.498   0.051   2.754
 6206SOL    HW119517   5.522   0.026   2.848
 6206SOL    HW219518   5.577   0.091   2.709
 6207SOL     OW19519   1.429   4.199   4.996
 6207SOL    HW119520   1.518   4.231   5.029
 6207SOL    HW219521   1.442   4.138   4.918
 6208SOL     OW19522   5.642   6.452   6.356
 6208SOL    HW119523   5.643   6.355   6.332
 6208SOL    HW219524   5.671   6.506   6.277
 6209SOL     OW19525   4.226   6.460   0.438
 6209SOL    HW119526   4.309   6.516   0.427
 6209SOL    HW219527   4.245   6.386   0.501
 6210SOL     OW19528   5.427   4.274   3.728
 6210SOL    HW119529   5.388   4.195   3.682
 6210SOL    HW219530   5.462   4.338   3.660
 6211SOL     OW19531   2.799   0.018   4.537
 6211SOL    HW119532   2.765   7.018   4.627
 6211SOL    HW219533   2.730   7.025   4.468
 6212SOL     OW19534   6.786   6.541   3.814
 6212SOL    HW119535   6.786   6.512   3.910
 6212SOL    HW219536   6.732   6.478   3.760
 6213SOL     OW19537   6.327   0.416   6.734
 6213SOL    HW119538   6.343   0.421   6.636
 6213SOL    HW219539   6.373   0.491   6.780
 6214SOL     OW19540   6.565   4.325   2.908
 6214SOL    HW119541   6.595   4.260   2.839
 6214SOL    HW219542   6.470   4.306   2.933
 6215SOL     OW19543   2.989   2.972   0.888
 6215SOL    HW119544   2.970   3.070   0.900
 6215SOL    HW219545   2.918   2.918   0.932
 6216SOL     OW19546   5.427   1.776   2.256
 6216SOL    HW119547   5.487   1.829   2.197
 6216SOL    HW219548   5.358   1.729   2.200
 6217SOL     OW19549   5.028   2.533   1.191
 6217SOL    HW119550   4.938   2.491   1.203
 6217SOL    HW219551   5.031   2.620   1.240
 6218SOL     OW19552   2.628   5.125   4.535
 6218SOL    HW119553   2.699   5.056   4.524
 6218SOL    HW219554   2.671   5.214   4.554
 6219SOL     OW19555   1.009   2.277   5.238
 6219SOL    HW119556   0.998   2.375   5.221
 6219SOL    HW219557   0.947   2.248   5.310
 6220SOL     OW19558   2.029   4.704   5.205
 6220SOL    HW119559   2.034   4.614   5.160
 6220SOL    HW219560   1.944   4.710   5.257
 6221SOL     OW19561   3.867   4.941   4.192
 6221SOL    HW119562   3.845   4.931   4.289
 6221SOL    HW219563   3.790   4.908   4.137
 6222SOL     OW19564   6.522   6.920   1.753
 6222SOL    HW119565   6.466   6.964   1.824
 6222SOL    HW219566   6.474   6.839   1.719
 6223SOL     OW19567   5.522   2.759   4.693
 6223SOL    HW119568   5.567   2.792   4.776
 6223SOL    HW219569   5.493   2.664   4.706
 6224SOL     OW19570   2.721   1.697   5.443
 6224SOL    HW119571   2.635   1.748   5.456
 6224SOL    HW219572   2.768   1.733   5.362
 6225SOL     OW19573   3.537   3.054   0.496
 6225SOL    HW119574   3.589   2.977   0.459
 6225SOL    HW219575   3.580   3.085   0.581
 6226SOL     OW19576   5.746   0.820   4.524
 6226SOL    HW119577   5.685   0.881   4.573
 6226SOL    HW219578   5.693   0.749   4.478
 6227SOL     OW19579   3.624   4.763   6.059
 6227SOL    HW119580   3.667   4.814   6.133
 6227SOL    HW219581   3.662   4.670   6.056
 6228SOL     OW19582   0.296   1.182   3.325
 6228SOL    HW119583   0.293   1.210   3.229
 6228SOL    HW219584   0.204   1.155   3.355
 6229SOL     OW19585   2.465   2.585   2.640
 6229SOL    HW119586   2.397   2.515   2.619
 6229SOL    HW219587   2.442   2.628   2.728
 6230SOL     OW19588   2.202   2.276   3.976
 6230SOL    HW119589   2.291   2.255   3.934
 6230SOL    HW219590   2.193   2.224   4.061
 6231SOL     OW19591   0.034   5.734   1.414
 6231SOL    HW119592   0.079   5.645   1.417
 6231SOL    HW219593   6.984   5.735   1.477
 6232SOL     OW19594   0.237   0.621   0.526
 6232SOL    HW119595   0.282   0.661   0.446
 6232SOL    HW219596   0.220   0.691   0.595
 6233SOL     OW19597   4.592   2.239   6.799
 6233SOL    HW119598   4.652   2.313   6.832
 6233SOL    HW219599   4.614   2.155   6.847
 6234SOL     OW19600   1.893   1.684   4.139
 6234SOL    HW119601   1.992   1.683   4.125
 6234SOL    HW219602   1.873   1.664   4.235
 6235SOL     OW19603   2.306   0.485   2.604
 6235SOL    HW119604   2.304   0.571   2.654
 6235SOL    HW219605   2.365   0.494   2.523
 6236SOL     OW19606   0.026   3.976   0.782
 6236SOL    HW119607   0.028   4.039   0.859
 6236SOL    HW219608   0.038   4.027   0.697
 6237SOL     OW19609   4.286   6.963   1.147
 6237SOL    HW119610   4.367   7.018   1.125
 6237SOL    HW219611   4.212   7.024   1.176
 6238SOL     OW19612   4.813   5.557   1.199
 6238SOL    HW119613   4.748   5.582   1.271
 6238SOL    HW219614   4.896   5.519   1.240
 6239SOL     OW19615   2.276   6.739   2.737
 6239SOL    HW119616   2.356   6.679   2.742
 6239SOL    HW219617   2.243   6.744   2.643
 6240SOL     OW19618   1.838   3.235   0.321
 6240SOL    HW119619   1.775   3.300   0.362
 6240SOL    HW219620   1.907   3.208   0.388
 6241SOL     OW19621   3.176   7.009   1.432
 6241SOL    HW119622   3.087   6.993   1.474
 6241SOL    HW219623   3.168   7.007   1.333
 6242SOL     OW19624   4.945   2.395   4.090
 6242SOL    HW119625   4.865   2.405   4.031
 6242SOL    HW219626   4.996   2.313   4.062
 6243SOL     OW19627   5.517   6.298   4.297
 6243SOL    HW119628   5.499   6.382   4.348
 6243SOL    HW219629   5.430   6.254   4.273
 6244SOL     OW19630   2.815   1.830   1.740
 6244SOL    HW119631   2.774   1.895   1.804
 6244SOL    HW219632   2.902   1.867   1.706
 6245SOL     OW19633   3.015   4.980   1.226
 6245SOL    HW119634   3.041   5.076   1.219
 6245SOL    HW219635   2.987   4.959   1.320
 6246SOL     OW19636   2.818   2.431   5.503
 6246SOL    HW119637   2.825   2.333   5.521
 6246SOL    HW219638   2.881   2.456   5.429
 6247SOL     OW19639   0.196   6.498   3.221
 6247SOL    HW119640   0.188   6.400   3.238
 6247SOL    HW219641   0.289   6.528   3.244
 6248SOL     OW19642   0.613   4.906   1.152
 6248SOL    HW119643   0.523   4.946   1.136
 6248SOL    HW219644   0.637   4.915   1.249
 6249SOL     OW19645   0.089   4.107   0.025
 6249SOL    HW119646   0.098   4.008   0.029
 6249SOL    HW219647   7.021   4.132   0.005
 6250SOL     OW19648   6.187   6.396   0.081
 6250SOL    HW119649   6.244   6.385   0.162
 6250SOL    HW219650   6.241   6.375   7.026
 6251SOL     OW19651   4.444   1.743   0.449
 6251SOL    HW119652   4.351   1.735   0.483
 6251SOL    HW219653   4.442   1.767   0.352
 6252SOL     OW19654   3.096   6.299   5.002
 6252SOL    HW119655   3.110   6.209   5.043
 6252SOL    HW219656   3.017   6.297   4.942
 6253SOL     OW19657   2.346   3.944   1.828
 6253SOL    HW119658   2.293   4.029   1.821
 6253SOL    HW219659   2.419   3.955   1.895
 6254SOL     OW19660   5.473   0.085   0.304
 6254SOL    HW119661   5.396   0.116   0.249
 6254SOL    HW219662   5.519   0.164   0.345
 6255SOL     OW19663   0.368   1.380   2.285
 6255SOL    HW119664   0.269   1.366   2.284
 6255SOL    HW219665   0.397   1.419   2.198
 6256SOL     OW19666   3.974   4.782   2.636
 6256SOL    HW119667   3.875   4.787   2.650
 6256SOL    HW219668   3.995   4.790   2.539
 6257SOL     OW19669   5.294   2.635   0.332
 6257SOL    HW119670   5.332   2.592   0.414
 6257SOL    HW219671   5.230   2.573   0.287
 6258SOL     OW19672   4.475   1.934   2.047
 6258SOL    HW119673   4.428   2.019   2.068
 6258SOL    HW219674   4.553   1.923   2.108
 6259SOL     OW19675   3.164   2.226   1.832
 6259SOL    HW119676   3.170   2.172   1.915
 6259SOL    HW219677   3.088   2.291   1.840
 6260SOL     OW19678   3.615   4.234   6.942
 6260SOL    HW119679   3.702   4.278   6.921
 6260SOL    HW219680   3.593   4.167   6.872
 6261SOL     OW19681   3.900   1.491   0.530
 6261SOL    HW119682   3.862   1.570   0.579
 6261SOL    HW219683   3.958   1.523   0.455
 6262SOL     OW19684   1.219   4.624   6.668
 6262SOL    HW119685   1.236   4.590   6.760
 6262SOL    HW219686   1.301   4.669   6.633
 6263SOL     OW19687   6.794   6.705   0.651
 6263SOL    HW119688   6.813   6.802   0.638
 6263SOL    HW219689   6.780   6.686   0.749
 6264SOL     OW19690   2.570   1.812   0.245
 6264SOL    HW119691   2.562   1.806   0.344
 6264SOL    HW219692   2.650   1.760   0.214
 6265SOL     OW19693   3.885   3.528   1.470
 6265SOL    HW119694   3.980   3.506   1.447
 6265SOL    HW219695   3.883   3.615   1.521
 6266SOL     OW19696   3.251   0.577   2.880
 6266SOL    HW119697   3.170   0.618   2.839
 6266SOL    HW219698   3.333   0.624   2.847
 6267SOL     OW19699   3.385   0.172   6.479
 6267SOL    HW119700   3.319   0.235   6.519
 6267SOL    HW219701   3.463   0.161   6.541
 6268SOL     OW19702   3.777   5.193   2.802
 6268SOL    HW119703   3.724   5.211   2.885
 6268SOL    HW219704   3.803   5.280   2.760
 6269SOL     OW19705   5.905   5.354   1.343
 6269SOL    HW119706   5.997   5.328   1.372
 6269SOL    HW219707   5.888   5.449   1.369
 6270SOL     OW19708   0.924   0.557   4.627
 6270SOL    HW119709   0.871   0.569   4.543
 6270SOL    HW219710   0.883   0.611   4.700
 6271SOL     OW19711   7.004   1.486   0.529
 6271SOL    HW119712   0.017   1.508   0.618
 6271SOL    HW219713   0.024   1.538   0.458
 6272SOL     OW19714   2.270   2.438   3.656
 6272SOL    HW119715   2.340   2.384   3.702
 6272SOL    HW219716   2.223   2.381   3.588
 6273SOL     OW19717   3.234   1.562   1.530
 6273SOL    HW119718   3.137   1.557   1.505
 6273SOL    HW219719   3.289   1.575   1.448
 6274SOL     OW19720   3.331   6.562   5.916
 6274SOL    HW119721   3.340   6.463   5.907
 6274SOL    HW219722   3.257   6.583   5.980
 6275SOL     OW19723   1.822   0.244   4.952
 6275SOL    HW119724   1.755   0.260   5.024
 6275SOL    HW219725   1.791   0.169   4.893
 6276SOL     OW19726   1.509   5.529   3.846
 6276SOL    HW119727   1.501   5.432   3.822
 6276SOL    HW219728   1.538   5.538   3.941
 6277SOL     OW19729   5.075   2.965   2.823
 6277SOL    HW119730   4.982   2.990   2.850
 6277SOL    HW219731   5.078   2.869   2.798
 6278SOL     OW19732   5.151   0.185   4.179
 6278SOL    HW119733   5.098   0.201   4.263
 6278SOL    HW219734   5.241   0.147   4.203
 6279SOL     OW19735   4.213   1.967   0.599
 6279SOL    HW119736   4.245   1.965   0.504
 6279SOL    HW219737   4.287   2.000   0.658
 6280SOL     OW19738   0.240   4.693   5.571
 6280SOL    HW119739   0.337   4.689   5.597
 6280SOL    HW219740   0.230   4.666   5.476
 6281SOL     OW19741   2.246   0.504   5.149
 6281SOL    HW119742   2.219   0.423   5.201
 6281SOL    HW219743   2.180   0.522   5.076
 6282SOL     OW19744   2.622   6.739   3.940
 6282SOL    HW119745   2.579   6.675   3.877
 6282SOL    HW219746   2.713   6.707   3.963
 6283SOL     OW19747   6.853   2.544   5.219
 6283SOL    HW119748   6.806   2.630   5.240
 6283SOL    HW219749   6.862   2.534   5.120
 6284SOL     OW19750   1.281   4.447   5.412
 6284SOL    HW119751   1.379   4.435   5.429
 6284SOL    HW219752   1.238   4.488   5.493
 6285SOL     OW19753   1.447   3.545   3.095
 6285SOL    HW119754   1.381   3.497   3.153
 6285SOL    HW219755   1.540   3.526   3.128
 6286SOL     OW19756   5.252   0.771   3.465
 6286SOL    HW119757   5.217   0.721   3.544
 6286SOL    HW219758   5.244   0.869   3.481
 6287SOL     OW19759   4.830   4.201   1.914
 6287SOL    HW119760   4.894   4.135   1.954
 6287SOL    HW219761   4.757   4.219   1.979
 6288SOL     OW19762   5.560   3.569   0.341
 6288SOL    HW119763   5.556   3.469   0.345
 6288SOL    HW219764   5.592   3.604   0.429
 6289SOL     OW19765   1.595   1.634   3.902
 6289SOL    HW119766   1.636   1.546   3.928
 6289SOL    HW219767   1.663   1.707   3.913
 6290SOL     OW19768   4.852   3.851   3.360
 6290SOL    HW119769   4.808   3.920   3.416
 6290SOL    HW219770   4.925   3.893   3.305
 6291SOL     OW19771   3.498   4.138   3.618
 6291SOL    HW119772   3.488   4.089   3.705
 6291SOL    HW219773   3.593   4.132   3.587
 6292SOL     OW19774   1.526   1.331   2.248
 6292SOL    HW119775   1.499   1.316   2.343
 6292SOL    HW219776   1.587   1.257   2.219
 6293SOL     OW19777   4.576   6.854   0.375
 6293SOL    HW119778   4.653   6.897   0.422
 6293SOL    HW219779   4.491   6.900   0.400
 6294SOL     OW19780   4.465   5.068   2.791
 6294SOL    HW119781   4.521   4.996   2.831
 6294SOL    HW219782   4.452   5.141   2.859
 6295SOL     OW19783   6.112   6.042   6.305
 6295SOL    HW119784   6.105   6.000   6.215
 6295SOL    HW219785   6.025   6.085   6.329
 6296SOL     OW19786   6.090   1.033   2.759
 6296SOL    HW119787   6.029   1.018   2.837
 6296SOL    HW219788   6.121   0.944   2.724
 6297SOL     OW19789   6.056   6.201   5.952
 6297SOL    HW119790   6.004   6.197   6.037
 6297SOL    HW219791   6.098   6.112   5.934
 6298SOL     OW19792   0.488   3.122   5.316
 6298SOL    HW119793   0.425   3.181   5.265
 6298SOL    HW219794   0.514   3.044   5.260
 6299SOL     OW19795   6.415   2.905   6.891
 6299SOL    HW119796   6.351   2.960   6.945
 6299SOL    HW219797   6.430   2.947   6.802
 6300SOL     OW19798   4.914   0.790   3.612
 6300SOL    HW119799   4.842   0.722   3.597
 6300SOL    HW219800   4.997   0.745   3.644
 6301SOL     OW19801   3.302   6.765   0.631
 6301SOL    HW119802   3.319   6.669   0.654
 6301SOL    HW219803   3.354   6.823   0.693
 6302SOL     OW19804   1.489   1.235   3.268
 6302SOL    HW119805   1.522   1.170   3.199
 6302SOL    HW219806   1.390   1.231   3.273
 6303SOL     OW19807   1.573   6.178   4.919
 6303SOL    HW119808   1.578   6.278   4.916
 6303SOL    HW219809   1.618   6.140   4.839
 6304SOL     OW19810   3.071   1.254   6.807
 6304SOL    HW119811   3.042   1.305   6.888
 6304SOL    HW219812   3.097   1.161   6.833
 6305SOL     OW19813   6.654   0.070   1.474
 6305SOL    HW119814   6.592   0.123   1.415
 6305SOL    HW219815   6.633   7.000   1.465
 6306SOL     OW19816   6.537   2.939   3.825
 6306SOL    HW119817   6.476   2.876   3.874
 6306SOL    HW219818   6.632   2.912   3.840
 6307SOL     OW19819   1.919   4.933   0.191
 6307SOL    HW119820   1.952   4.881   0.112
 6307SOL    HW219821   1.824   4.910   0.209
 6308SOL     OW19822   3.140   2.029   5.122
 6308SOL    HW119823   3.233   2.040   5.157
 6308SOL    HW219824   3.101   2.118   5.101
 6309SOL     OW19825   5.753   2.096   4.105
 6309SOL    HW119826   5.810   2.178   4.111
 6309SOL    HW219827   5.668   2.118   4.058
 6310SOL     OW19828   1.438   4.805   4.582
 6310SOL    HW119829   1.366   4.817   4.514
 6310SOL    HW219830   1.514   4.753   4.542
 6311SOL     OW19831   6.000   0.562   4.897
 6311SOL    HW119832   5.931   0.624   4.858
 6311SOL    HW219833   5.971   0.467   4.882
 6312SOL     OW19834   4.210   5.084   5.523
 6312SOL    HW119835   4.148   5.104   5.447
 6312SOL    HW219836   4.189   4.993   5.560
 6313SOL     OW19837   2.463   5.862   3.254
 6313SOL    HW119838   2.407   5.798   3.307
 6313SOL    HW219839   2.527   5.812   3.196
 6314SOL     OW19840   2.696   6.198   2.636
 6314SOL    HW119841   2.608   6.208   2.683
 6314SOL    HW219842   2.710   6.276   2.575
 6315SOL     OW19843   3.173   3.832   0.114
 6315SOL    HW119844   3.121   3.916   0.130
 6315SOL    HW219845   3.117   3.768   0.061
 6316SOL     OW19846   4.632   2.586   5.545
 6316SOL    HW119847   4.700   2.659   5.556
 6316SOL    HW219848   4.651   2.535   5.461
 6317SOL     OW19849   5.067   6.732   3.927
 6317SOL    HW119850   5.106   6.646   3.960
 6317SOL    HW219851   5.116   6.809   3.967
 6318SOL     OW19852   2.358   2.370   5.115
 6318SOL    HW119853   2.368   2.462   5.078
 6318SOL    HW219854   2.271   2.331   5.085
 6319SOL     OW19855   0.712   1.853   3.648
 6319SOL    HW119856   0.712   1.913   3.568
 6319SOL    HW219857   0.733   1.907   3.730
 6320SOL     OW19858   5.680   3.708   2.948
 6320SOL    HW119859   5.640   3.796   2.922
 6320SOL    HW219860   5.764   3.693   2.896
 6321SOL     OW19861   2.527   4.544   0.533
 6321SOL    HW119862   2.434   4.524   0.561
 6321SOL    HW219863   2.580   4.459   0.530
 6322SOL     OW19864   0.728   1.205   6.475
 6322SOL    HW119865   0.644   1.244   6.511
 6322SOL    HW219866   0.773   1.151   6.546
 6323SOL     OW19867   3.472   2.690   0.434
 6323SOL    HW119868   3.525   2.765   0.393
 6323SOL    HW219869   3.535   2.623   0.474
 6324SOL     OW19870   4.217   1.274   6.156
 6324SOL    HW119871   4.298   1.250   6.210
 6324SOL    HW219872   4.135   1.238   6.201
 6325SOL     OW19873   0.900   2.455   2.429
 6325SOL    HW119874   0.885   2.356   2.429
 6325SOL    HW219875   0.916   2.486   2.522
 6326SOL     OW19876   5.154   5.659   1.555
 6326SOL    HW119877   5.155   5.759   1.563
 6326SOL    HW219878   5.061   5.629   1.533
 6327SOL     OW19879   5.958   5.539   5.713
 6327SOL    HW119880   5.951   5.619   5.773
 6327SOL    HW219881   5.881   5.539   5.649
 6328SOL     OW19882   2.838   4.008   6.693
 6328SOL    HW119883   2.897   4.079   6.654
 6328SOL    HW219884   2.884   3.920   6.688
 6329SOL     OW19885   0.911   1.595   3.205
 6329SOL    HW119886   0.976   1.564   3.136
 6329SOL    HW219887   0.881   1.688   3.183
 6330SOL     OW19888   3.905   1.416   7.023
 6330SOL    HW119889   3.961   1.334   7.015
 6330SOL    HW219890   3.862   1.437   6.936
 6331SOL     OW19891   6.448   2.538   1.620
 6331SOL    HW119892   6.537   2.526   1.662
 6331SOL    HW219893   6.455   2.522   1.521
 6332SOL     OW19894   6.260   5.401   1.501
 6332SOL    HW119895   6.183   5.423   1.560
 6332SOL    HW219896   6.283   5.481   1.444
 6333SOL     OW19897   3.770   4.927   3.088
 6333SOL    HW119898   3.783   4.894   3.182
 6333SOL    HW219899   3.853   4.910   3.034
 6334SOL     OW19900   2.026   1.099   2.208
 6334SOL    HW119901   2.109   1.133   2.163
 6334SOL    HW219902   2.010   1.004   2.181
 6335SOL     OW19903   6.630   1.314   6.410
 6335SOL    HW119904   6.632   1.307   6.310
 6335SOL    HW219905   6.723   1.327   6.444
 6336SOL     OW19906   6.767   2.539   4.555
 6336SOL    HW119907   6.696   2.544   4.625
 6336SOL    HW219908   6.790   2.443   4.537
 6337SOL     OW19909   6.024   4.491   5.676
 6337SOL    HW119910   6.027   4.478   5.577
 6337SOL    HW219911   5.929   4.504   5.705
 6338SOL     OW19912   3.555   1.082   3.089
 6338SOL    HW119913   3.549   0.984   3.069
 6338SOL    HW219914   3.553   1.133   3.003
 6339SOL     OW19915   0.204   1.918   3.837
 6339SOL    HW119916   0.203   1.818   3.834
 6339SOL    HW219917   0.288   1.952   3.794
 6340SOL     OW19918   2.311   5.369   4.116
 6340SOL    HW119919   2.313   5.442   4.048
 6340SOL    HW219920   2.237   5.305   4.095
 6341SOL     OW19921   0.330   4.263   3.609
 6341SOL    HW119922   0.398   4.285   3.678
 6341SOL    HW219923   0.361   4.297   3.520
 6342SOL     OW19924   1.196   2.412   1.287
 6342SOL    HW119925   1.141   2.458   1.356
 6342SOL    HW219926   1.163   2.319   1.274
 6343SOL     OW19927   3.787   1.536   6.782
 6343SOL    HW119928   3.773   1.463   6.716
 6343SOL    HW219929   3.703   1.552   6.833
 6344SOL     OW19930   0.882   4.436   4.439
 6344SOL    HW119931   0.927   4.424   4.527
 6344SOL    HW219932   0.786   4.460   4.453
 6345SOL     OW19933   3.695   1.200   2.211
 6345SOL    HW119934   3.787   1.238   2.225
 6345SOL    HW219935   3.650   1.249   2.137
 6346SOL     OW19936   0.666   4.026   3.715
 6346SOL    HW119937   0.659   3.931   3.686
 6346SOL    HW219938   0.574   4.062   3.733
 6347SOL     OW19939   3.063   0.034   0.912
 6347SOL    HW119940   3.063   7.010   0.826
 6347SOL    HW219941   2.969   0.056   0.938
 6348SOL     OW19942   0.710   3.239   4.217
 6348SOL    HW119943   0.701   3.195   4.306
 6348SOL    HW219944   0.669   3.330   4.220
 6349SOL     OW19945   2.989   0.700   0.572
 6349SOL    HW119946   2.980   0.696   0.473
 6349SOL    HW219947   2.935   0.626   0.614
 6350SOL     OW19948   1.507   6.098   2.269
 6350SOL    HW119949   1.598   6.071   2.239
 6350SOL    HW219950   1.506   6.112   2.368
 6351SOL     OW19951   0.082   1.415   2.604
 6351SOL    HW119952   0.120   1.490   2.550
 6351SOL    HW219953   7.024   1.445   2.646
 6352SOL     OW19954   0.450   5.473   2.410
 6352SOL    HW119955   0.456   5.468   2.310
 6352SOL    HW219956   0.356   5.497   2.436
 6353SOL     OW19957   0.530   0.086   1.014
 6353SOL    HW119958   0.503   0.005   1.066
 6353SOL    HW219959   0.452   0.119   0.961
 6354SOL     OW19960   0.588   6.618   3.071
 6354SOL    HW119961   0.575   6.716   3.085
 6354SOL    HW219962   0.547   6.591   2.984
 6355SOL     OW19963   1.682   2.817   3.196
 6355SOL    HW119964   1.731   2.890   3.148
 6355SOL    HW219965   1.686   2.733   3.141
 6356SOL     OW19966   3.612   3.806   1.311
 6356SOL    HW119967   3.622   3.735   1.380
 6356SOL    HW219968   3.583   3.765   1.224
 6357SOL     OW19969   4.157   2.162   0.257
 6357SOL    HW119970   4.090   2.132   0.324
 6357SOL    HW219971   4.115   2.162   0.166
 6358SOL     OW19972   0.256   2.238   3.279
 6358SOL    HW119973   0.305   2.293   3.346
 6358SOL    HW219974   0.322   2.189   3.221
 6359SOL     OW19975   6.853   0.576   6.514
 6359SOL    HW119976   6.822   0.542   6.603
 6359SOL    HW219977   6.786   0.642   6.478
 6360SOL     OW19978   3.066   5.546   3.882
 6360SOL    HW119979   3.157   5.517   3.852
 6360SOL    HW219980   3.035   5.487   3.957
 6361SOL     OW19981   4.347   5.883   6.000
 6361SOL    HW119982   4.339   5.867   5.902
 6361SOL    HW219983   4.276   5.947   6.030
 6362SOL     OW19984   6.123   5.256   6.026
 6362SOL    HW119985   6.167   5.176   5.986
 6362SOL    HW219986   6.163   5.275   6.116
 6363SOL     OW19987   1.661   6.057   4.415
 6363SOL    HW119988   1.627   5.997   4.342
 6363SOL    HW219989   1.640   6.152   4.393
 6364SOL     OW19990   2.437   2.759   5.564
 6364SOL    HW119991   2.518   2.713   5.528
 6364SOL    HW219992   2.379   2.790   5.489
 6365SOL     OW19993   4.723   6.589   3.005
 6365SOL    HW119994   4.653   6.637   2.952
 6365SOL    HW219995   4.813   6.630   2.986
 6366SOL     OW19996   0.483   5.870   5.350
 6366SOL    HW119997   0.517   5.923   5.428
 6366SOL    HW219998   0.383   5.880   5.345
 6367SOL     OW19999   5.202   6.650   4.320
 6367SOL    HW120000   5.156   6.629   4.407
 6367SOL    HW220001   5.174   6.741   4.289
 6368SOL     OW20002   2.985   6.856   4.673
 6368SOL    HW120003   2.967   6.887   4.580
 6368SOL    HW220004   2.982   6.935   4.735
 6369SOL     OW20005   2.315   4.932   4.305
 6369SOL    HW120006   2.359   5.022   4.307
 6369SOL    HW220007   2.372   4.867   4.355
 6370SOL     OW20008   6.028   2.401   1.454
 6370SOL    HW120009   6.065   2.451   1.376
 6370SOL    HW220010   5.982   2.318   1.423
 6371SOL     OW20011   4.545   2.269   2.235
 6371SOL    HW120012   4.510   2.355   2.272
 6371SOL    HW220013   4.612   2.230   2.299
 6372SOL     OW20014   3.276   5.969   2.077
 6372SOL    HW120015   3.181   5.997   2.063
 6372SOL    HW220016   3.337   6.040   2.041
 6373SOL     OW20017   4.483   4.081   6.510
 6373SOL    HW120018   4.404   4.021   6.496
 6373SOL    HW220019   4.453   4.177   6.503
 6374SOL     OW20020   2.927   3.302   2.681
 6374SOL    HW120021   2.950   3.207   2.660
 6374SOL    HW220022   2.946   3.320   2.777
 6375SOL     OW20023   1.312   6.283   2.527
 6375SOL    HW120024   1.213   6.279   2.513
 6375SOL    HW220025   1.342   6.379   2.526
 6376SOL     OW20026   6.770   2.263   5.286
 6376SOL    HW120027   6.700   2.294   5.351
 6376SOL    HW220028   6.765   2.318   5.202
 6377SOL     OW20029   0.601   1.328   4.773
 6377SOL    HW120030   0.694   1.348   4.806
 6377SOL    HW220031   0.603   1.311   4.675
 6378SOL     OW20032   4.739   4.203   4.051
 6378SOL    HW120033   4.699   4.240   4.135
 6378SOL    HW220034   4.754   4.277   3.986
 6379SOL     OW20035   2.362   4.231   3.664
 6379SOL    HW120036   2.364   4.133   3.683
 6379SOL    HW220037   2.367   4.245   3.565
 6380SOL     OW20038   0.216   0.857   6.051
 6380SOL    HW120039   0.302   0.907   6.039
 6380SOL    HW220040   0.177   0.881   6.139
 6381SOL     OW20041   2.984   3.911   2.845
 6381SOL    HW120042   2.987   3.935   2.748
 6381SOL    HW220043   3.049   3.968   2.895
 6382SOL     OW20044   1.144   3.533   5.754
 6382SOL    HW120045   1.220   3.525   5.819
 6382SOL    HW220046   1.167   3.485   5.670
 6383SOL     OW20047   2.650   1.438   4.295
 6383SOL    HW120048   2.736   1.391   4.277
 6383SOL    HW220049   2.574   1.375   4.281
 6384SOL     OW20050   6.910   4.437   2.892
 6384SOL    HW120051   6.940   4.397   2.805
 6384SOL    HW220052   6.915   4.367   2.963
 6385SOL     OW20053   0.765   5.140   4.870
 6385SOL    HW120054   0.673   5.178   4.856
 6385SOL    HW220055   0.833   5.206   4.838
 6386SOL     OW20056   2.791   4.939   1.461
 6386SOL    HW120057   2.738   4.987   1.391
 6386SOL    HW220058   2.740   4.860   1.494
 6387SOL     OW20059   6.525   0.793   5.223
 6387SOL    HW120060   6.563   0.878   5.189
 6387SOL    HW220061   6.530   0.792   5.323
 6388SOL     OW20062   3.364   4.913   2.323
 6388SOL    HW120063   3.448   4.882   2.368
 6388SOL    HW220064   3.356   4.871   2.233
 6389SOL     OW20065   1.454   5.310   3.401
 6389SOL    HW120066   1.456   5.252   3.319
 6389SOL    HW220067   1.517   5.386   3.390
 6390SOL     OW20068   0.907   3.055   4.116
 6390SOL    HW120069   0.835   3.084   4.179
 6390SOL    HW220070   0.987   3.026   4.169
 6391SOL     OW20071   2.877   1.679   0.224
 6391SOL    HW120072   2.964   1.630   0.235
 6391SOL    HW220073   2.801   1.615   0.237
 6392SOL     OW20074   1.865   6.613   4.030
 6392SOL    HW120075   1.791   6.549   4.010
 6392SOL    HW220076   1.935   6.605   3.960
 6393SOL     OW20077   6.253   5.959   0.037
 6393SOL    HW120078   6.346   5.929   0.061
 6393SOL    HW220079   6.211   6.003   0.117
 6394SOL     OW20080   2.333   4.886   0.179
 6394SOL    HW120081   2.357   4.938   0.098
 6394SOL    HW220082   2.377   4.796   0.176
 6395SOL     OW20083   6.368   1.584   0.876
 6395SOL    HW120084   6.407   1.632   0.954
 6395SOL    HW220085   6.269   1.576   0.888
 6396SOL     OW20086   5.155   4.225   5.589
 6396SOL    HW120087   5.239   4.248   5.539
 6396SOL    HW220088   5.179   4.181   5.675
 6397SOL     OW20089   6.748   1.302   0.726
 6397SOL    HW120090   6.819   1.232   0.742
 6397SOL    HW220091   6.658   1.258   0.728
 6398SOL     OW20092   3.371   1.421   1.088
 6398SOL    HW120093   3.363   1.511   1.129
 6398SOL    HW220094   3.432   1.364   1.144
 6399SOL     OW20095   2.305   5.508   6.850
 6399SOL    HW120096   2.353   5.505   6.762
 6399SOL    HW220097   2.237   5.581   6.848
 6400SOL     OW20098   2.524   5.635   3.566
 6400SOL    HW120099   2.486   5.719   3.604
 6400SOL    HW220100   2.493   5.557   3.620
 6401SOL     OW20101   0.596   4.636   3.935
 6401SOL    HW120102   0.544   4.602   4.014
 6401SOL    HW220103   0.624   4.730   3.952
 6402SOL     OW20104   2.565   1.027   2.962
 6402SOL    HW120105   2.554   1.047   2.865
 6402SOL    HW220106   2.487   1.065   3.013
 6403SOL     OW20107   1.098   5.081   6.812
 6403SOL    HW120108   1.115   5.054   6.717
 6403SOL    HW220109   1.075   5.000   6.866
 6404SOL     OW20110   5.521   1.351   3.372
 6404SOL    HW120111   5.430   1.320   3.347
 6404SOL    HW220112   5.535   1.444   3.336
 6405SOL     OW20113   2.684   1.658   2.610
 6405SOL    HW120114   2.714   1.753   2.599
 6405SOL    HW220115   2.764   1.598   2.609
 6406SOL     OW20116   2.388   1.571   4.025
 6406SOL    HW120117   2.307   1.516   4.046
 6406SOL    HW220118   2.417   1.621   4.106
 6407SOL     OW20119   3.598   5.592   5.886
 6407SOL    HW120120   3.595   5.496   5.915
 6407SOL    HW220121   3.519   5.612   5.829
 6408SOL     OW20122   5.592   1.332   6.611
 6408SOL    HW120123   5.507   1.356   6.564
 6408SOL    HW220124   5.666   1.325   6.543
 6409SOL     OW20125   0.430   4.028   2.191
 6409SOL    HW120126   0.521   3.988   2.202
 6409SOL    HW220127   0.421   4.068   2.100
 6410SOL     OW20128   1.411   1.229   0.623
 6410SOL    HW120129   1.407   1.129   0.630
 6410SOL    HW220130   1.446   1.255   0.533
 6411SOL     OW20131   0.736   1.067   3.388
 6411SOL    HW120132   0.767   1.070   3.483
 6411SOL    HW220133   0.807   1.107   3.329
 6412SOL     OW20134   0.416   2.616   5.379
 6412SOL    HW120135   0.356   2.687   5.415
 6412SOL    HW220136   0.433   2.632   5.282
 6413SOL     OW20137   6.737   4.671   0.653
 6413SOL    HW120138   6.758   4.647   0.748
 6413SOL    HW220139   6.783   4.607   0.592
 6414SOL     OW20140   5.873   6.680   2.560
 6414SOL    HW120141   5.799   6.659   2.497
 6414SOL    HW220142   5.837   6.730   2.639
 6415SOL     OW20143   1.814   1.368   1.591
 6415SOL    HW120144   1.760   1.363   1.675
 6415SOL    HW220145   1.775   1.307   1.522
 6416SOL     OW20146   1.226   0.352   6.546
 6416SOL    HW120147   1.165   0.313   6.477
 6416SOL    HW220148   1.181   0.430   6.590
 6417SOL     OW20149   0.766   6.791   3.305
 6417SOL    HW120150   0.701   6.740   3.361
 6417SOL    HW220151   0.777   6.884   3.342
 6418SOL     OW20152   6.720   6.088   2.278
 6418SOL    HW120153   6.809   6.102   2.321
 6418SOL    HW220154   6.677   6.177   2.261
 6419SOL     OW20155   3.562   4.873   1.525
 6419SOL    HW120156   3.508   4.957   1.522
 6419SOL    HW220157   3.518   4.807   1.586
 6420SOL     OW20158   2.116   4.418   6.491
 6420SOL    HW120159   2.109   4.351   6.565
 6420SOL    HW220160   2.029   4.424   6.443
 6421SOL     OW20161   5.879   1.372   1.364
 6421SOL    HW120162   5.798   1.333   1.320
 6421SOL    HW220163   5.947   1.300   1.379
 6422SOL     OW20164   6.042   1.341   3.549
 6422SOL    HW120165   6.028   1.250   3.589
 6422SOL    HW220166   6.090   1.332   3.462
 6423SOL     OW20167   4.961   3.600   0.562
 6423SOL    HW120168   4.903   3.671   0.522
 6423SOL    HW220169   4.960   3.607   0.661
 6424SOL     OW20170   6.654   4.197   5.774
 6424SOL    HW120171   6.672   4.294   5.755
 6424SOL    HW220172   6.641   4.184   5.872
 6425SOL     OW20173   0.624   5.006   2.220
 6425SOL    HW120174   0.569   5.088   2.236
 6425SOL    HW220175   0.638   4.957   2.306
 6426SOL     OW20176   0.927   2.560   3.501
 6426SOL    HW120177   0.992   2.636   3.511
 6426SOL    HW220178   0.866   2.558   3.581
 6427SOL     OW20179   1.558   3.586   5.527
 6427SOL    HW120180   1.527   3.655   5.462
 6427SOL    HW220181   1.534   3.614   5.620
 6428SOL     OW20182   6.880   3.310   2.124
 6428SOL    HW120183   6.844   3.222   2.094
 6428SOL    HW220184   6.976   3.299   2.152
 6429SOL     OW20185   1.366   0.225   3.763
 6429SOL    HW120186   1.284   0.227   3.705
 6429SOL    HW220187   1.402   0.132   3.766
 6430SOL     OW20188   5.706   2.392   1.070
 6430SOL    HW120189   5.613   2.364   1.044
 6430SOL    HW220190   5.769   2.315   1.057
 6431SOL     OW20191   5.311   6.886   2.696
 6431SOL    HW120192   5.338   6.978   2.725
 6431SOL    HW220193   5.380   6.850   2.633
 6432SOL     OW20194   5.009   3.303   0.863
 6432SOL    HW120195   5.038   3.394   0.834
 6432SOL    HW220196   5.039   3.236   0.795
 6433SOL     OW20197   2.828   4.069   1.644
 6433SOL    HW120198   2.743   4.108   1.608
 6433SOL    HW220199   2.860   3.996   1.584
 6434SOL     OW20200   1.220   3.950   0.758
 6434SOL    HW120201   1.294   4.010   0.786
 6434SOL    HW220202   1.254   3.884   0.691
 6435SOL     OW20203   4.416   4.200   6.783
 6435SOL    HW120204   4.402   4.227   6.878
 6435SOL    HW220205   4.511   4.172   6.770
 6436SOL     OW20206   1.777   2.799   3.658
 6436SOL    HW120207   1.779   2.702   3.684
 6436SOL    HW220208   1.716   2.811   3.580
 6437SOL     OW20209   1.376   0.092   6.562
 6437SOL    HW120210   1.471   0.076   6.536
 6437SOL    HW220211   1.333   0.156   6.499
 6438SOL     OW20212   0.834   4.044   3.944
 6438SOL    HW120213   0.764   4.073   3.878
 6438SOL    HW220214   0.866   3.953   3.919
 6439SOL     OW20215   1.474   6.993   1.134
 6439SOL    HW120216   1.490   6.894   1.135
 6439SOL    HW220217   1.401   7.016   1.199
 6440SOL     OW20218   1.258   1.701   2.668
 6440SOL    HW120219   1.187   1.769   2.650
 6440SOL    HW220220   1.346   1.736   2.637
 6441SOL     OW20221   1.979   0.975   3.634
 6441SOL    HW120222   1.989   0.999   3.538
 6441SOL    HW220223   1.882   0.965   3.657
 6442SOL     OW20224   2.488   1.904   4.139
 6442SOL    HW120225   2.450   1.823   4.183
 6442SOL    HW220226   2.586   1.893   4.127
 6443SOL     OW20227   2.631   2.086   0.489
 6443SOL    HW120228   2.570   2.032   0.548
 6443SOL    HW220229   2.695   2.024   0.443
 6444SOL     OW20230   0.570   1.196   3.067
 6444SOL    HW120231   0.627   1.271   3.035
 6444SOL    HW220232   0.564   1.126   2.996
 6445SOL     OW20233   3.956   2.979   5.338
 6445SOL    HW120234   4.026   3.027   5.391
 6445SOL    HW220235   3.869   2.984   5.387
 6446SOL     OW20236   6.068   1.181   0.074
 6446SOL    HW120237   6.009   1.108   0.039
 6446SOL    HW220238   6.026   1.220   0.157
 6447SOL     OW20239   1.549   0.354   2.397
 6447SOL    HW120240   1.576   0.387   2.487
 6447SOL    HW220241   1.541   0.432   2.334
 6448SOL     OW20242   5.568   2.471   3.209
 6448SOL    HW120243   5.479   2.517   3.207
 6448SOL    HW220244   5.591   2.440   3.117
 6449SOL     OW20245   3.165   3.543   0.792
 6449SOL    HW120246   3.090   3.485   0.758
 6449SOL    HW220247   3.223   3.489   0.853
 6450SOL     OW20248   5.857   3.702   0.790
 6450SOL    HW120249   5.845   3.666   0.882
 6450SOL    HW220250   5.945   3.748   0.782
 6451SOL     OW20251   2.907   5.816   5.015
 6451SOL    HW120252   2.827   5.764   4.984
 6451SOL    HW220253   2.975   5.820   4.942
 6452SOL     OW20254   3.696   6.350   3.983
 6452SOL    HW120255   3.736   6.274   4.035
 6452SOL    HW220256   3.597   6.340   3.980
 6453SOL     OW20257   1.787   5.887   6.315
 6453SOL    HW120258   1.707   5.935   6.349
 6453SOL    HW220259   1.786   5.793   6.347
 6454SOL     OW20260   3.385   1.527   4.271
 6454SOL    HW120261   3.406   1.479   4.356
 6454SOL    HW220262   3.331   1.609   4.291
 6455SOL     OW20263   5.900   2.933   5.035
 6455SOL    HW120264   5.866   3.027   5.035
 6455SOL    HW220265   5.977   2.926   4.972
 6456SOL     OW20266   0.313   0.450   3.389
 6456SOL    HW120267   0.286   0.461   3.294
 6456SOL    HW220268   0.411   0.465   3.398
 6457SOL     OW20269   6.664   2.258   0.834
 6457SOL    HW120270   6.673   2.347   0.788
 6457SOL    HW220271   6.684   2.269   0.931
 6458SOL     OW20272   1.776   5.795   3.347
 6458SOL    HW120273   1.824   5.782   3.433
 6458SOL    HW220274   1.821   5.866   3.293
 6459SOL     OW20275   5.409   4.497   6.741
 6459SOL    HW120276   5.359   4.583   6.735
 6459SOL    HW220277   5.407   4.463   6.835
 6460SOL     OW20278   3.391   4.879   6.378
 6460SOL    HW120279   3.345   4.958   6.417
 6460SOL    HW220280   3.381   4.880   6.278
 6461SOL     OW20281   3.858   5.174   4.768
 6461SOL    HW120282   3.906   5.214   4.846
 6461SOL    HW220283   3.898   5.086   4.745
 6462SOL     OW20284   2.062   3.810   4.752
 6462SOL    HW120285   2.134   3.878   4.756
 6462SOL    HW220286   2.024   3.795   4.844
 6463SOL     OW20287   1.808   4.183   6.166
 6463SOL    HW120288   1.746   4.114   6.204
 6463SOL    HW220289   1.901   4.165   6.198
 6464SOL     OW20290   0.445   5.241   3.010
 6464SOL    HW120291   0.514   5.201   2.949
 6464SOL    HW220292   0.384   5.300   2.957
 6465SOL     OW20293   6.534   1.768   3.424
 6465SOL    HW120294   6.458   1.825   3.391
 6465SOL    HW220295   6.559   1.797   3.517
 6466SOL     OW20296   0.267   2.397   5.456
 6466SOL    HW120297   0.269   2.313   5.402
 6466SOL    HW220298   0.336   2.460   5.422
 6467SOL     OW20299   2.433   0.894   6.410
 6467SOL    HW120300   2.409   0.986   6.440
 6467SOL    HW220301   2.441   0.892   6.311
 6468SOL     OW20302   5.104   5.757   1.209
 6468SOL    HW120303   5.073   5.664   1.188
 6468SOL    HW220304   5.044   5.796   1.279
 6469SOL     OW20305   6.816   1.147   5.754
 6469SOL    HW120306   6.850   1.157   5.660
 6469SOL    HW220307   6.892   1.124   5.815
 6470SOL     OW20308   6.188   0.047   5.716
 6470SOL    HW120309   6.125   0.023   5.790
 6470SOL    HW220310   6.252   0.117   5.749
 6471SOL     OW20311   6.226   4.861   6.230
 6471SOL    HW120312   6.221   4.807   6.146
 6471SOL    HW220313   6.135   4.864   6.273
 6472SOL     OW20314   0.781   6.061   1.809
 6472SOL    HW120315   0.755   6.026   1.899
 6472SOL    HW220316   0.700   6.064   1.750
 6473SOL     OW20317   2.101   1.825   6.425
 6473SOL    HW120318   2.080   1.727   6.421
 6473SOL    HW220319   2.079   1.860   6.516
 6474SOL     OW20320   1.782   3.078   5.080
 6474SOL    HW120321   1.770   3.146   5.008
 6474SOL    HW220322   1.801   3.125   5.167
 6475SOL     OW20323   4.214   6.383   4.020
 6475SOL    HW120324   4.258   6.436   3.948
 6475SOL    HW220325   4.132   6.340   3.983
 6476SOL     OW20326   4.628   4.804   2.471
 6476SOL    HW120327   4.681   4.888   2.458
 6476SOL    HW220328   4.671   4.730   2.418
 6477SOL     OW20329   6.534   5.762   0.561
 6477SOL    HW120330   6.519   5.664   0.573
 6477SOL    HW220331   6.624   5.786   0.598
 6478SOL     OW20332   5.448   6.722   1.622
 6478SOL    HW120333   5.372   6.659   1.606
 6478SOL    HW220334   5.472   6.768   1.537
 6479SOL     OW20335   4.101   5.226   2.125
 6479SOL    HW120336   4.058   5.293   2.186
 6479SOL    HW220337   4.041   5.147   2.115
 6480SOL     OW20338   3.037   2.208   0.091
 6480SOL    HW120339   3.120   2.173   0.048
 6480SOL    HW220340   3.055   2.296   0.134
 6481SOL     OW20341   4.240   0.945   1.549
 6481SOL    HW120342   4.219   0.926   1.453
 6481SOL    HW220343   4.320   1.005   1.555
 6482SOL     OW20344   6.998   0.185   6.666
 6482SOL    HW120345   0.009   0.099   6.633
 6482SOL    HW220346   0.034   0.260   6.646
 6483SOL     OW20347   1.384   6.554   2.529
 6483SOL    HW120348   1.417   6.609   2.452
 6483SOL    HW220349   1.424   6.589   2.614
 6484SOL     OW20350   4.566   6.711   3.475
 6484SOL    HW120351   4.638   6.700   3.407
 6484SOL    HW220352   4.575   6.799   3.521
 6485SOL     OW20353   1.892   2.483   3.110
 6485SOL    HW120354   1.937   2.564   3.071
 6485SOL    HW220355   1.950   2.403   3.095
 6486SOL     OW20356   1.656   3.475   3.575
 6486SOL    HW120357   1.662   3.464   3.674
 6486SOL    HW220358   1.681   3.390   3.529
 6487SOL     OW20359   6.117   6.678   4.407
 6487SOL    HW120360   6.171   6.621   4.469
 6487SOL    HW220361   6.026   6.638   4.394
 6488SOL     OW20362   3.284   5.287   5.597
 6488SOL    HW120363   3.199   5.332   5.567
 6488SOL    HW220364   3.267   5.237   5.682
 6489SOL     OW20365   2.250   1.810   5.413
 6489SOL    HW120366   2.212   1.732   5.462
 6489SOL    HW220367   2.193   1.891   5.427
 6490SOL     OW20368   3.611   1.512   0.425
 6490SOL    HW120369   3.653   1.602   0.433
 6490SOL    HW220370   3.652   1.449   0.491
 6491SOL     OW20371   4.312   2.170   6.452
 6491SOL    HW120372   4.305   2.084   6.402
 6491SOL    HW220373   4.240   2.176   6.521
 6492SOL     OW20374   5.971   6.220   0.134
 6492SOL    HW120375   6.032   6.150   0.172
 6492SOL    HW220376   6.023   6.304   0.116
 6493SOL     OW20377   1.434   6.340   5.768
 6493SOL    HW120378   1.411   6.404   5.842
 6493SOL    HW220379   1.355   6.328   5.709
 6494SOL     OW20380   0.900   0.570   3.305
 6494SOL    HW120381   0.812   0.613   3.283
 6494SOL    HW220382   0.958   0.635   3.353
 6495SOL     OW20383   5.486   4.885   2.991
 6495SOL    HW120384   5.471   4.982   2.972
 6495SOL    HW220385   5.425   4.830   2.933
 6496SOL     OW20386   0.564   0.066   2.733
 6496SOL    HW120387   0.525   7.007   2.768
 6496SOL    HW220388   0.663   0.057   2.728
 6497SOL     OW20389   1.570   4.025   0.246
 6497SOL    HW120390   1.508   3.951   0.219
 6497SOL    HW220391   1.516   4.105   0.273
 6498SOL     OW20392   2.261   4.414   4.013
 6498SOL    HW120393   2.242   4.427   3.916
 6498SOL    HW220394   2.272   4.316   4.033
 6499SOL     OW20395   5.618   1.301   3.671
 6499SOL    HW120396   5.555   1.308   3.594
 6499SOL    HW220397   5.686   1.374   3.665
 6500SOL     OW20398   4.826   4.787   3.744
 6500SOL    HW120399   4.868   4.726   3.811
 6500SOL    HW220400   4.865   4.770   3.654
 6501SOL     OW20401   6.596   4.164   1.300
 6501SOL    HW120402   6.645   4.091   1.254
 6501SOL    HW220403   6.648   4.192   1.381
 6502SOL     OW20404   0.946   5.038   2.966
 6502SOL    HW120405   1.020   5.098   2.994
 6502SOL    HW220406   0.981   4.968   2.905
 6503SOL     OW20407   4.565   6.764   4.583
 6503SOL    HW120408   4.467   6.763   4.604
 6503SOL    HW220409   4.617   6.746   4.666
 6504SOL     OW20410   3.540   0.575   0.557
 6504SOL    HW120411   3.526   0.660   0.609
 6504SOL    HW220412   3.454   0.525   0.552
 6505SOL     OW20413   6.103   4.951   1.229
 6505SOL    HW120414   6.181   4.890   1.239
 6505SOL    HW220415   6.027   4.918   1.285
 6506SOL     OW20416   2.157   3.089   1.108
 6506SOL    HW120417   2.088   3.123   1.172
 6506SOL    HW220418   2.180   2.994   1.131
 6507SOL     OW20419   2.281   0.011   1.721
 6507SOL    HW120420   2.352   0.035   1.787
 6507SOL    HW220421   2.246   0.095   1.679
 6508SOL     OW20422   2.493   1.813   3.483
 6508SOL    HW120423   2.427   1.764   3.426
 6508SOL    HW220424   2.449   1.892   3.525
 6509SOL     OW20425   0.890   2.732   4.618
 6509SOL    HW120426   0.910   2.714   4.521
 6509SOL    HW220427   0.968   2.705   4.674
 6510SOL     OW20428   6.023   4.865   6.403
 6510SOL    HW120429   6.084   4.940   6.430
 6510SOL    HW220430   6.017   4.798   6.477
 6511SOL     OW20431   6.544   6.314   6.454
 6511SOL    HW120432   6.524   6.233   6.399
 6511SOL    HW220433   6.616   6.293   6.519
 6512SOL     OW20434   5.084   6.663   3.674
 6512SOL    HW120435   4.994   6.651   3.632
 6512SOL    HW220436   5.074   6.696   3.768
 6513SOL     OW20437   4.028   6.350   2.365
 6513SOL    HW120438   4.123   6.383   2.369
 6513SOL    HW220439   3.993   6.341   2.458
 6514SOL     OW20440   4.046   0.181   4.190
 6514SOL    HW120441   3.953   0.143   4.193
 6514SOL    HW220442   4.043   0.274   4.155
 6515SOL     OW20443   0.822   0.125   4.943
 6515SOL    HW120444   0.890   0.198   4.936
 6515SOL    HW220445   0.755   0.134   4.869
 6516SOL     OW20446   0.767   1.680   5.245
 6516SOL    HW120447   0.850   1.734   5.228
 6516SOL    HW220448   0.761   1.658   5.342
 6517SOL     OW20449   0.614   1.416   0.210
 6517SOL    HW120450   0.657   1.401   0.121
 6517SOL    HW220451   0.519   1.443   0.197
 6518SOL     OW20452   6.799   6.636   1.534
 6518SOL    HW120453   6.833   6.599   1.620
 6518SOL    HW220454   6.753   6.564   1.483
 6519SOL     OW20455   1.912   2.108   4.165
 6519SOL    HW120456   1.820   2.103   4.205
 6519SOL    HW220457   1.915   2.184   4.100
 6520SOL     OW20458   5.919   5.652   1.710
 6520SOL    HW120459   5.869   5.655   1.624
 6520SOL    HW220460   5.859   5.678   1.786
 6521SOL     OW20461   0.033   1.745   4.923
 6521SOL    HW120462   0.028   1.797   5.008
 6521SOL    HW220463   6.995   1.783   4.857
 6522SOL     OW20464   2.481   5.509   5.947
 6522SOL    HW120465   2.448   5.603   5.952
 6522SOL    HW220466   2.559   5.503   5.885
 6523SOL     OW20467   1.898   2.184   6.070
 6523SOL    HW120468   1.910   2.136   6.157
 6523SOL    HW220469   1.987   2.196   6.026
 6524SOL     OW20470   4.119   3.259   3.648
 6524SOL    HW120471   4.185   3.203   3.599
 6524SOL    HW220472   4.027   3.221   3.635
 6525SOL     OW20473   0.491   2.856   3.672
 6525SOL    HW120474   0.478   2.861   3.573
 6525SOL    HW220475   0.585   2.881   3.695
 6526SOL     OW20476   1.271   6.502   5.070
 6526SOL    HW120477   1.341   6.517   4.999
 6526SOL    HW220478   1.191   6.458   5.029
 6527SOL     OW20479   1.557   0.036   4.919
 6527SOL    HW120480   1.647   0.009   4.886
 6527SOL    HW220481   1.530   0.122   4.876
 6528SOL     OW20482   0.113   1.551   4.493
 6528SOL    HW120483   0.015   1.568   4.501
 6528SOL    HW220484   0.130   1.495   4.411
 6529SOL     OW20485   6.904   1.449   1.786
 6529SOL    HW120486   6.936   1.397   1.866
 6529SOL    HW220487   6.979   1.503   1.750
 6530SOL     OW20488   0.038   1.610   0.217
 6530SOL    HW120489   7.026   1.563   0.138
 6530SOL    HW220490   0.118   1.560   0.249
 6531SOL     OW20491   5.024   2.991   4.031
 6531SOL    HW120492   5.030   2.898   4.068
 6531SOL    HW220493   4.928   3.014   4.015
 6532SOL     OW20494   6.637   1.584   6.139
 6532SOL    HW120495   6.701   1.514   6.170
 6532SOL    HW220496   6.686   1.654   6.087
 6533SOL     OW20497   4.590   0.087   1.342
 6533SOL    HW120498   4.636   0.079   1.254
 6533SOL    HW220499   4.649   0.134   1.407
 6534SOL     OW20500   1.976   3.897   1.072
 6534SOL    HW120501   1.945   3.992   1.075
 6534SOL    HW220502   2.019   3.879   0.983
 6535SOL     OW20503   0.265   3.580   5.269
 6535SOL    HW120504   0.298   3.536   5.352
 6535SOL    HW220505   0.181   3.630   5.288
 6536SOL     OW20506   6.266   2.141   7.020
 6536SOL    HW120507   6.256   2.081   0.072
 6536SOL    HW220508   6.362   2.170   7.013
 6537SOL     OW20509   0.569   6.878   0.021
 6537SOL    HW120510   0.510   6.950   0.058
 6537SOL    HW220511   0.540   6.789   0.057
 6538SOL     OW20512   2.760   3.247   0.337
 6538SOL    HW120513   2.761   3.234   0.238
 6538SOL    HW220514   2.687   3.191   0.377
 6539SOL     OW20515   2.715   1.785   6.740
 6539SOL    HW120516   2.686   1.845   6.815
 6539SOL    HW220517   2.755   1.701   6.778
 6540SOL     OW20518   2.847   1.573   5.040
 6540SOL    HW120519   2.889   1.553   4.952
 6540SOL    HW220520   2.912   1.550   5.113
 6541SOL     OW20521   2.187   2.519   6.240
 6541SOL    HW120522   2.113   2.572   6.197
 6541SOL    HW220523   2.269   2.576   6.246
 6542SOL     OW20524   5.873   4.172   3.953
 6542SOL    HW120525   5.877   4.123   3.866
 6542SOL    HW220526   5.800   4.240   3.950
 6543SOL     OW20527   6.648   5.943   6.612
 6543SOL    HW120528   6.696   6.001   6.546
 6543SOL    HW220529   6.714   5.884   6.658
 6544SOL     OW20530   6.260   6.515   4.140
 6544SOL    HW120531   6.337   6.536   4.200
 6544SOL    HW220532   6.205   6.598   4.126
 6545SOL     OW20533   5.041   1.648   5.558
 6545SOL    HW120534   5.058   1.554   5.528
 6545SOL    HW220535   5.127   1.700   5.554
 6546SOL     OW20536   3.268   4.865   5.667
 6546SOL    HW120537   3.326   4.933   5.712
 6546SOL    HW220538   3.280   4.873   5.568
 6547SOL     OW20539   4.933   2.180   6.618
 6547SOL    HW120540   4.966   2.260   6.568
 6547SOL    HW220541   4.946   2.193   6.716
 6548SOL     OW20542   6.711   4.470   5.787
 6548SOL    HW120543   6.807   4.474   5.813
 6548SOL    HW220544   6.659   4.538   5.839
 6549SOL     OW20545   3.364   2.112   0.734
 6549SOL    HW120546   3.435   2.149   0.794
 6549SOL    HW220547   3.287   2.176   0.730
 6550SOL     OW20548   0.902   5.734   3.273
 6550SOL    HW120549   0.986   5.680   3.267
 6550SOL    HW220550   0.891   5.788   3.189
 6551SOL     OW20551   1.956   4.863   1.641
 6551SOL    HW120552   1.978   4.920   1.562
 6551SOL    HW220553   2.035   4.860   1.702
 6552SOL     OW20554   3.423   5.143   5.387
 6552SOL    HW120555   3.406   5.208   5.313
 6552SOL    HW220556   3.357   5.156   5.460
 6553SOL     OW20557   1.089   3.172   2.715
 6553SOL    HW120558   0.995   3.139   2.707
 6553SOL    HW220559   1.107   3.200   2.809
 6554SOL     OW20560   6.597   2.390   5.483
 6554SOL    HW120561   6.634   2.477   5.514
 6554SOL    HW220562   6.499   2.400   5.465
 6555SOL     OW20563   0.853   0.928   1.967
 6555SOL    HW120564   0.924   0.866   1.932
 6555SOL    HW220565   0.895   0.998   2.024
 6556SOL     OW20566   3.635   6.034   4.572
 6556SOL    HW120567   3.681   6.101   4.513
 6556SOL    HW220568   3.570   6.081   4.631
 6557SOL     OW20569   6.640   5.009   1.064
 6557SOL    HW120570   6.633   5.060   1.150
 6557SOL    HW220571   6.616   5.069   0.988
 6558SOL     OW20572   6.508   5.671   6.601
 6558SOL    HW120573   6.552   5.743   6.546
 6558SOL    HW220574   6.472   5.711   6.685
 6559SOL     OW20575   4.002   3.752   0.771
 6559SOL    HW120576   3.916   3.714   0.737
 6559SOL    HW220577   3.986   3.801   0.856
 6560SOL     OW20578   3.857   2.202   0.241
 6560SOL    HW120579   3.902   2.128   0.291
 6560SOL    HW220580   3.917   2.282   0.238
 6561SOL     OW20581   4.031   3.168   3.317
 6561SOL    HW120582   4.035   3.118   3.230
 6561SOL    HW220583   3.989   3.110   3.387
 6562SOL     OW20584   6.471   3.997   6.294
 6562SOL    HW120585   6.436   4.063   6.361
 6562SOL    HW220586   6.395   3.942   6.259
 6563SOL     OW20587   1.055   5.375   1.802
 6563SOL    HW120588   1.143   5.393   1.845
 6563SOL    HW220589   0.984   5.367   1.873
 6564SOL     OW20590   1.147   4.784   2.026
 6564SOL    HW120591   1.227   4.814   1.974
 6564SOL    HW220592   1.124   4.852   2.095
 6565SOL     OW20593   6.481   2.691   5.692
 6565SOL    HW120594   6.451   2.605   5.735
 6565SOL    HW220595   6.580   2.698   5.698
 6566SOL     OW20596   3.559   6.702   1.063
 6566SOL    HW120597   3.476   6.652   1.084
 6566SOL    HW220598   3.592   6.749   1.145
 6567SOL     OW20599   5.350   2.779   1.469
 6567SOL    HW120600   5.416   2.725   1.520
 6567SOL    HW220601   5.374   2.780   1.372
 6568SOL     OW20602   4.107   4.227   1.528
 6568SOL    HW120603   4.154   4.139   1.520
 6568SOL    HW220604   4.087   4.264   1.437
 6569SOL     OW20605   0.988   4.347   6.940
 6569SOL    HW120606   0.906   4.329   6.995
 6569SOL    HW220607   1.009   4.266   6.885
 6570SOL     OW20608   5.990   2.178   1.731
 6570SOL    HW120609   5.901   2.156   1.692
 6570SOL    HW220610   6.013   2.273   1.710
 6571SOL     OW20611   2.733   5.735   3.428
 6571SOL    HW120612   2.659   5.684   3.472
 6571SOL    HW220613   2.722   5.732   3.329
 6572SOL     OW20614   0.488   4.365   5.886
 6572SOL    HW120615   0.466   4.281   5.837
 6572SOL    HW220616   0.409   4.425   5.886
 6573SOL     OW20617   2.516   1.427   2.418
 6573SOL    HW120618   2.452   1.434   2.341
 6573SOL    HW220619   2.593   1.490   2.403
 6574SOL     OW20620   3.156   4.882   2.834
 6574SOL    HW120621   3.163   4.862   2.736
 6574SOL    HW220622   3.178   4.979   2.850
 6575SOL     OW20623   1.066   1.851   2.337
 6575SOL    HW120624   1.005   1.827   2.413
 6575SOL    HW220625   1.011   1.862   2.254
 6576SOL     OW20626   1.506   6.299   6.167
 6576SOL    HW120627   1.414   6.339   6.177
 6576SOL    HW220628   1.503   6.224   6.101
 6577SOL     OW20629   6.969   2.272   3.585
 6577SOL    HW120630   6.906   2.198   3.562
 6577SOL    HW220631   6.951   2.303   3.679
 6578SOL     OW20632   6.226   4.940   3.767
 6578SOL    HW120633   6.149   4.907   3.821
 6578SOL    HW220634   6.311   4.904   3.806
 6579SOL     OW20635   6.745   3.929   3.257
 6579SOL    HW120636   6.686   4.003   3.289
 6579SOL    HW220637   6.696   3.872   3.191
 6580SOL     OW20638   5.999   1.983   2.043
 6580SOL    HW120639   6.073   2.016   1.984
 6580SOL    HW220640   5.992   1.883   2.034
 6581SOL     OW20641   3.008   1.904   6.619
 6581SOL    HW120642   3.081   1.948   6.565
 6581SOL    HW220643   2.962   1.835   6.563
 6582SOL     OW20644   6.179   0.606   2.839
 6582SOL    HW120645   6.266   0.621   2.792
 6582SOL    HW220646   6.189   0.531   2.904
 6583SOL     OW20647   5.400   1.865   6.071
 6583SOL    HW120648   5.465   1.860   6.146
 6583SOL    HW220649   5.318   1.913   6.101
 6584SOL     OW20650   6.000   1.827   6.457
 6584SOL    HW120651   5.913   1.827   6.506
 6584SOL    HW220652   6.030   1.733   6.441
 6585SOL     OW20653   0.850   1.491   6.855
 6585SOL    HW120654   0.832   1.507   6.758
 6585SOL    HW220655   0.777   1.532   6.910
 6586SOL     OW20656   6.429   2.463   5.983
 6586SOL    HW120657   6.365   2.536   5.961
 6586SOL    HW220658   6.397   2.413   6.064
 6587SOL     OW20659   2.232   6.354   3.225
 6587SOL    HW120660   2.292   6.429   3.197
 6587SOL    HW220661   2.166   6.334   3.153
 6588SOL     OW20662   1.487   2.947   0.339
 6588SOL    HW120663   1.395   2.979   0.315
 6588SOL    HW220664   1.552   2.982   0.272
 6589SOL     OW20665   4.556   1.705   5.825
 6589SOL    HW120666   4.458   1.728   5.822
 6589SOL    HW220667   4.566   1.607   5.844
 6590SOL     OW20668   0.288   1.426   5.469
 6590SOL    HW120669   0.190   1.440   5.485
 6590SOL    HW220670   0.311   1.458   5.377
 6591SOL     OW20671   5.914   0.990   2.942
 6591SOL    HW120672   5.848   0.941   2.885
 6591SOL    HW220673   5.912   0.952   3.035
 6592SOL     OW20674   4.697   5.390   4.832
 6592SOL    HW120675   4.796   5.378   4.836
 6592SOL    HW220676   4.670   5.410   4.738
 6593SOL     OW20677   3.598   1.712   2.460
 6593SOL    HW120678   3.537   1.726   2.537
 6593SOL    HW220679   3.692   1.696   2.493
 6594SOL     OW20680   5.324   0.129   6.651
 6594SOL    HW120681   5.383   0.061   6.608
 6594SOL    HW220682   5.315   0.108   6.749
 6595SOL     OW20683   1.662   3.476   1.260
 6595SOL    HW120684   1.562   3.466   1.265
 6595SOL    HW220685   1.685   3.573   1.250
 6596SOL     OW20686   4.393   6.715   5.256
 6596SOL    HW120687   4.339   6.689   5.176
 6596SOL    HW220688   4.454   6.790   5.232
 6597SOL     OW20689   0.388   5.379   5.268
 6597SOL    HW120690   0.341   5.306   5.218
 6597SOL    HW220691   0.355   5.468   5.237
 6598SOL     OW20692   1.843   5.602   5.252
 6598SOL    HW120693   1.907   5.541   5.206
 6598SOL    HW220694   1.788   5.550   5.318
 6599SOL     OW20695   4.130   4.527   5.751
 6599SOL    HW120696   4.063   4.596   5.776
 6599SOL    HW220697   4.222   4.562   5.771
 6600SOL     OW20698   4.546   5.914   3.906
 6600SOL    HW120699   4.516   6.004   3.875
 6600SOL    HW220700   4.640   5.920   3.940
 6601SOL     OW20701   0.416   0.093   0.044
 6601SOL    HW120702   0.325   0.098   0.003
 6601SOL    HW220703   0.408   0.098   0.143
 6602SOL     OW20704   6.757   1.354   1.463
 6602SOL    HW120705   6.819   1.305   1.523
 6602SOL    HW220706   6.679   1.388   1.515
 6603SOL     OW20707   2.114   3.652   3.208
 6603SOL    HW120708   2.144   3.722   3.274
 6603SOL    HW220709   2.074   3.697   3.128
 6604SOL     OW20710   3.377   5.757   2.493
 6604SOL    HW120711   3.376   5.758   2.593
 6604SOL    HW220712   3.398   5.664   2.461
 6605SOL     OW20713   5.906   5.886   0.036
 6605SOL    HW120714   5.970   5.962   0.026
 6605SOL    HW220715   5.813   5.921   0.026
 6606SOL     OW20716   5.383   1.193   2.605
 6606SOL    HW120717   5.360   1.112   2.552
 6606SOL    HW220718   5.301   1.229   2.649
 6607SOL     OW20719   1.671   1.832   1.995
 6607SOL    HW120720   1.678   1.905   1.927
 6607SOL    HW220721   1.582   1.838   2.041
 6608SOL     OW20722   5.827   3.595   3.863
 6608SOL    HW120723   5.886   3.583   3.943
 6608SOL    HW220724   5.758   3.664   3.882
 6609SOL     OW20725   5.688   1.244   6.052
 6609SOL    HW120726   5.674   1.189   6.134
 6609SOL    HW220727   5.606   1.299   6.034
 6610SOL     OW20728   2.249   0.611   6.870
 6610SOL    HW120729   2.177   0.672   6.837
 6610SOL    HW220730   2.260   0.625   6.969
 6611SOL     OW20731   5.683   2.468   2.624
 6611SOL    HW120732   5.641   2.535   2.686
 6611SOL    HW220733   5.616   2.437   2.557
 6612SOL     OW20734   1.834   6.565   6.941
 6612SOL    HW120735   1.757   6.598   6.995
 6612SOL    HW220736   1.805   6.548   6.847
 6613SOL     OW20737   5.057   5.201   1.706
 6613SOL    HW120738   5.046   5.202   1.805
 6613SOL    HW220739   5.149   5.232   1.683
 6614SOL     OW20740   4.890   5.642   6.063
 6614SOL    HW120741   4.832   5.635   6.143
 6614SOL    HW220742   4.937   5.730   6.063
 6615SOL     OW20743   0.945   4.029   5.239
 6615SOL    HW120744   0.998   4.019   5.155
 6615SOL    HW220745   0.996   4.084   5.305
 6616SOL     OW20746   4.855   0.665   4.582
 6616SOL    HW120747   4.923   0.696   4.516
 6616SOL    HW220748   4.888   0.681   4.675
 6617SOL     OW20749   3.955   0.013   5.524
 6617SOL    HW120750   4.030   0.006   5.458
 6617SOL    HW220751   3.883   0.071   5.486
 6618SOL     OW20752   0.933   4.506   1.676
 6618SOL    HW120753   0.865   4.571   1.710
 6618SOL    HW220754   0.945   4.519   1.578
 6619SOL     OW20755   5.140   5.727   2.519
 6619SOL    HW120756   5.087   5.671   2.583
 6619SOL    HW220757   5.089   5.810   2.498
 6620SOL     OW20758   1.562   2.649   5.703
 6620SOL    HW120759   1.507   2.688   5.777
 6620SOL    HW220760   1.558   2.709   5.623
 6621SOL     OW20761   2.768   4.350   0.263
 6621SOL    HW120762   2.836   4.419   0.238
 6621SOL    HW220763   2.805   4.259   0.246
 6622SOL     OW20764   6.904   6.048   0.476
 6622SOL    HW120765   7.001   6.035   0.457
 6622SOL    HW220766   6.874   6.135   0.437
 6623SOL     OW20767   3.238   3.488   2.318
 6623SOL    HW120768   3.138   3.488   2.324
 6623SOL    HW220769   3.273   3.578   2.347
 6624SOL     OW20770   4.163   4.791   4.361
 6624SOL    HW120771   4.125   4.835   4.442
 6624SOL    HW220772   4.259   4.815   4.352
 6625SOL     OW20773   5.984   0.713   0.003
 6625SOL    HW120774   5.894   0.713   0.046
 6625SOL    HW220775   6.055   0.710   0.074
 6626SOL     OW20776   3.945   5.255   3.341
 6626SOL    HW120777   3.967   5.348   3.313
 6626SOL    HW220778   3.846   5.240   3.332
 6627SOL     OW20779   2.164   0.130   0.636
 6627SOL    HW120780   2.166   0.033   0.662
 6627SOL    HW220781   2.201   0.185   0.711
 6628SOL     OW20782   4.222   5.679   3.193
 6628SOL    HW120783   4.300   5.625   3.225
 6628SOL    HW220784   4.256   5.762   3.148
 6629SOL     OW20785   3.020   5.035   0.822
 6629SOL    HW120786   2.945   5.090   0.783
 6629SOL    HW220787   3.087   5.096   0.864
 6630SOL     OW20788   3.402   1.775   0.149
 6630SOL    HW120789   3.469   1.710   0.183
 6630SOL    HW220790   3.426   1.867   0.179
 6631SOL     OW20791   5.120   0.731   2.413
 6631SOL    HW120792   5.041   0.761   2.466
 6631SOL    HW220793   5.088   0.692   2.326
 6632SOL     OW20794   6.771   1.005   1.236
 6632SOL    HW120795   6.738   1.100   1.229
 6632SOL    HW220796   6.764   0.961   1.146
 6633SOL     OW20797   1.802   6.722   0.898
 6633SOL    HW120798   1.749   6.729   0.983
 6633SOL    HW220799   1.781   6.635   0.854
 6634SOL     OW20800   6.957   2.735   6.157
 6634SOL    HW120801   0.006   2.676   6.128
 6634SOL    HW220802   6.884   2.679   6.195
 6635SOL     OW20803   4.612   4.472   3.248
 6635SOL    HW120804   4.546   4.480   3.174
 6635SOL    HW220805   4.703   4.499   3.214
 6636SOL     OW20806   2.362   2.416   4.262
 6636SOL    HW120807   2.442   2.456   4.307
 6636SOL    HW220808   2.365   2.317   4.270
 6637SOL     OW20809   0.032   0.136   0.977
 6637SOL    HW120810   0.013   0.067   1.047
 6637SOL    HW220811   0.131   0.144   0.964
 6638SOL     OW20812   2.443   5.979   5.555
 6638SOL    HW120813   2.385   5.962   5.635
 6638SOL    HW220814   2.460   5.892   5.508
 6639SOL     OW20815   5.584   5.540   6.918
 6639SOL    HW120816   5.623   5.514   7.006
 6639SOL    HW220817   5.655   5.581   6.860
 6640SOL     OW20818   6.331   2.524   3.238
 6640SOL    HW120819   6.300   2.431   3.259
 6640SOL    HW220820   6.354   2.572   3.323
 6641SOL     OW20821   2.333   4.288   6.109
 6641SOL    HW120822   2.353   4.363   6.046
 6641SOL    HW220823   2.396   4.293   6.187
 6642SOL     OW20824   0.417   5.937   6.901
 6642SOL    HW120825   0.328   5.976   6.875
 6642SOL    HW220826   0.490   5.987   6.856
 6643SOL     OW20827   5.153   4.836   6.663
 6643SOL    HW120828   5.100   4.766   6.711
 6643SOL    HW220829   5.135   4.925   6.705
 6644SOL     OW20830   3.050   4.814   2.119
 6644SOL    HW120831   3.149   4.798   2.119
 6644SOL    HW220832   3.005   4.745   2.062
 6645SOL     OW20833   0.329   5.196   5.703
 6645SOL    HW120834   0.402   5.133   5.675
 6645SOL    HW220835   0.241   5.163   5.670
 6646SOL     OW20836   2.262   5.553   3.907
 6646SOL    HW120837   2.292   5.500   3.828
 6646SOL    HW220838   2.233   5.644   3.878
 6647SOL     OW20839   3.416   1.822   1.782
 6647SOL    HW120840   3.459   1.910   1.803
 6647SOL    HW220841   3.378   1.825   1.689
 6648SOL     OW20842   5.258   5.714   2.239
 6648SOL    HW120843   5.229   5.736   2.332
 6648SOL    HW220844   5.215   5.628   2.210
 6649SOL     OW20845   4.067   2.145   6.635
 6649SOL    HW120846   3.976   2.133   6.594
 6649SOL    HW220847   4.080   2.241   6.659
 6650SOL     OW20848   4.149   2.018   3.269
 6650SOL    HW120849   4.100   2.068   3.340
 6650SOL    HW220850   4.091   1.944   3.234
 6651SOL     OW20851   0.436   2.988   6.819
 6651SOL    HW120852   0.514   3.050   6.804
 6651SOL    HW220853   0.466   2.894   6.806
 6652SOL     OW20854   6.869   5.731   2.429
 6652SOL    HW120855   6.807   5.662   2.392
 6652SOL    HW220856   6.891   5.709   2.524
 6653SOL     OW20857   3.501   3.833   4.111
 6653SOL    HW120858   3.480   3.931   4.108
 6653SOL    HW220859   3.432   3.786   4.167
 6654SOL     OW20860   2.339   3.325   1.689
 6654SOL    HW120861   2.327   3.397   1.758
 6654SOL    HW220862   2.434   3.294   1.690
 6655SOL     OW20863   2.825   6.451   1.982
 6655SOL    HW120864   2.768   6.499   1.916
 6655SOL    HW220865   2.795   6.356   1.990
 6656SOL     OW20866   6.435   2.481   1.357
 6656SOL    HW120867   6.470   2.542   1.286
 6656SOL    HW220868   6.389   2.403   1.314
 6657SOL     OW20869   3.051   6.365   6.471
 6657SOL    HW120870   3.016   6.363   6.377
 6657SOL    HW220871   3.016   6.287   6.522
 6658SOL     OW20872   5.382   1.244   5.178
 6658SOL    HW120873   5.387   1.180   5.255
 6658SOL    HW220874   5.311   1.214   5.115
 6659SOL     OW20875   2.070   2.936   0.151
 6659SOL    HW120876   2.162   2.900   0.140
 6659SOL    HW220877   2.062   2.979   0.242
 6660SOL     OW20878   6.891   6.965   2.857
 6660SOL    HW120879   6.951   6.986   2.935
 6660SOL    HW220880   6.822   0.009   2.849
 6661SOL     OW20881   0.481   5.993   3.407
 6661SOL    HW120882   0.555   5.932   3.377
 6661SOL    HW220883   0.401   5.980   3.349
 6662SOL     OW20884   1.549   2.071   6.915
 6662SOL    HW120885   1.517   2.059   7.009
 6662SOL    HW220886   1.479   2.037   6.852
 6663SOL     OW20887   6.994   5.901   2.696
 6663SOL    HW120888   6.935   5.928   2.620
 6663SOL    HW220889   0.020   5.981   2.727
 6664SOL     OW20890   1.429   0.904   2.662
 6664SOL    HW120891   1.424   0.825   2.600
 6664SOL    HW220892   1.497   0.885   2.733
 6665SOL     OW20893   2.113   6.510   2.932
 6665SOL    HW120894   2.105   6.552   2.842
 6665SOL    HW220895   2.175   6.564   2.988
 6666SOL     OW20896   5.883   0.482   6.431
 6666SOL    HW120897   5.865   0.388   6.460
 6666SOL    HW220898   5.806   0.516   6.378
 6667SOL     OW20899   6.775   4.429   5.064
 6667SOL    HW120900   6.802   4.445   4.969
 6667SOL    HW220901   6.815   4.344   5.097
 6668SOL     OW20902   1.066   4.809   1.718
 6668SOL    HW120903   1.083   4.907   1.714
 6668SOL    HW220904   1.122   4.768   1.790
 6669SOL     OW20905   1.788   5.741   2.910
 6669SOL    HW120906   1.866   5.719   2.969
 6669SOL    HW220907   1.705   5.701   2.949
 6670SOL     OW20908   3.626   4.992   0.446
 6670SOL    HW120909   3.555   5.009   0.515
 6670SOL    HW220910   3.709   5.041   0.472
 6671SOL     OW20911   6.706   3.323   4.903
 6671SOL    HW120912   6.611   3.292   4.910
 6671SOL    HW220913   6.720   3.400   4.966
 6672SOL     OW20914   1.144   1.134   5.815
 6672SOL    HW120915   1.190   1.134   5.904
 6672SOL    HW220916   1.211   1.153   5.743
 6673SOL     OW20917   4.676   4.650   1.650
 6673SOL    HW120918   4.776   4.646   1.654
 6673SOL    HW220919   4.637   4.573   1.700
 6674SOL     OW20920   0.820   6.412   4.373
 6674SOL    HW120921   0.759   6.454   4.306
 6674SOL    HW220922   0.772   6.335   4.416
 6675SOL     OW20923   6.021   4.782   0.308
 6675SOL    HW120924   6.052   4.759   0.400
 6675SOL    HW220925   5.923   4.764   0.300
 6676SOL     OW20926   0.677   2.424   6.179
 6676SOL    HW120927   0.617   2.481   6.234
 6676SOL    HW220928   0.704   2.474   6.096
 6677SOL     OW20929   0.919   3.178   0.547
 6677SOL    HW120930   0.860   3.233   0.605
 6677SOL    HW220931   0.949   3.233   0.468
 6678SOL     OW20932   0.539   2.839   5.905
 6678SOL    HW120933   0.564   2.903   5.833
 6678SOL    HW220934   0.576   2.748   5.882
 6679SOL     OW20935   2.092   2.221   4.833
 6679SOL    HW120936   2.168   2.265   4.785
 6679SOL    HW220937   2.061   2.141   4.782
 6680SOL     OW20938   3.218   6.805   6.445
 6680SOL    HW120939   3.235   6.714   6.407
 6680SOL    HW220940   3.304   6.855   6.451
 6681SOL     OW20941   5.368   5.212   0.637
 6681SOL    HW120942   5.345   5.309   0.639
 6681SOL    HW220943   5.467   5.201   0.629
 6682SOL     OW20944   0.545   5.376   2.131
 6682SOL    HW120945   0.617   5.335   2.187
 6682SOL    HW220946   0.564   5.358   2.034
 6683SOL     OW20947   5.168   1.812   4.455
 6683SOL    HW120948   5.098   1.762   4.507
 6683SOL    HW220949   5.174   1.773   4.363
 6684SOL     OW20950   2.026   6.660   2.434
 6684SOL    HW120951   2.092   6.729   2.462
 6684SOL    HW220952   2.055   6.570   2.466
 6685SOL     OW20953   4.795   3.282   6.524
 6685SOL    HW120954   4.748   3.194   6.520
 6685SOL    HW220955   4.760   3.335   6.602
 6686SOL     OW20956   6.415   4.007   2.888
 6686SOL    HW120957   6.367   3.991   2.802
 6686SOL    HW220958   6.380   4.091   2.931
 6687SOL     OW20959   0.963   1.967   0.623
 6687SOL    HW120960   0.929   1.945   0.531
 6687SOL    HW220961   0.979   1.882   0.674
 6688SOL     OW20962   0.649   4.625   2.425
 6688SOL    HW120963   0.741   4.589   2.439
 6688SOL    HW220964   0.604   4.576   2.351
 6689SOL     OW20965   4.720   5.016   0.164
 6689SOL    HW120966   4.779   4.940   0.190
 6689SOL    HW220967   4.625   4.987   0.165
 6690SOL     OW20968   2.027   2.428   0.827
 6690SOL    HW120969   2.119   2.424   0.866
 6690SOL    HW220970   1.964   2.468   0.893
 6691SOL     OW20971   2.705   4.557   1.248
 6691SOL    HW120972   2.761   4.475   1.259
 6691SOL    HW220973   2.694   4.602   1.337
 6692SOL     OW20974   3.403   4.059   5.522
 6692SOL    HW120975   3.318   4.101   5.554
 6692SOL    HW220976   3.481   4.108   5.561
 6693SOL     OW20977   4.244   3.329   5.206
 6693SOL    HW120978   4.172   3.369   5.149
 6693SOL    HW220979   4.317   3.395   5.220
 6694SOL     OW20980   3.807   5.617   1.069
 6694SOL    HW120981   3.802   5.587   1.164
 6694SOL    HW220982   3.883   5.569   1.023
 6695SOL     OW20983   1.525   1.692   6.833
 6695SOL    HW120984   1.617   1.705   6.869
 6695SOL    HW220985   1.481   1.615   6.880
 6696SOL     OW20986   1.893   2.998   2.085
 6696SOL    HW120987   1.973   2.974   2.030
 6696SOL    HW220988   1.874   3.096   2.076
 6697SOL     OW20989   4.720   1.298   3.216
 6697SOL    HW120990   4.714   1.302   3.116
 6697SOL    HW220991   4.739   1.204   3.244
 6698SOL     OW20992   3.506   3.309   0.058
 6698SOL    HW120993   3.483   3.357   0.143
 6698SOL    HW220994   3.536   3.374   7.016
 6699SOL     OW20995   2.005   4.423   6.897
 6699SOL    HW120996   2.057   4.506   6.916
 6699SOL    HW220997   1.928   4.416   6.961
 6700SOL     OW20998   0.218   5.519   0.817
 6700SOL    HW120999   0.188   5.562   0.732
 6700SOL    HW221000   0.143   5.520   0.884
 6701SOL     OW21001   0.267   2.007   0.797
 6701SOL    HW121002   0.201   1.994   0.870
 6701SOL    HW221003   0.314   2.094   0.809
 6702SOL     OW21004   2.842   1.821   1.401
 6702SOL    HW121005   2.870   1.814   1.305
 6702SOL    HW221006   2.746   1.849   1.406
 6703SOL     OW21007   6.973   1.570   6.580
 6703SOL    HW121008   6.991   1.661   6.619
 6703SOL    HW221009   6.883   1.570   6.536
 6704SOL     OW21010   5.129   1.845   2.277
 6704SOL    HW121011   5.073   1.763   2.286
 6704SOL    HW221012   5.225   1.821   2.291
 6705SOL     OW21013   5.509   1.811   0.143
 6705SOL    HW121014   5.604   1.838   0.130
 6705SOL    HW221015   5.478   1.761   0.063
 6706SOL     OW21016   0.292   4.378   6.269
 6706SOL    HW121017   0.242   4.292   6.284
 6706SOL    HW221018   0.275   4.440   6.345
 6707SOL     OW21019   1.138   5.857   2.563
 6707SOL    HW121020   1.127   5.882   2.467
 6707SOL    HW221021   1.213   5.792   2.572
 6708SOL     OW21022   1.816   6.285   1.458
 6708SOL    HW121023   1.822   6.205   1.518
 6708SOL    HW221024   1.760   6.355   1.501
 6709SOL     OW21025   4.742   1.368   2.496
 6709SOL    HW121026   4.781   1.280   2.470
 6709SOL    HW221027   4.649   1.376   2.460
 6710SOL     OW21028   3.106   2.439   0.245
 6710SOL    HW121029   3.042   2.509   0.214
 6710SOL    HW221030   3.196   2.456   0.205
 6711SOL     OW21031   3.999   4.440   0.478
 6711SOL    HW121032   3.932   4.414   0.409
 6711SOL    HW221033   4.091   4.422   0.444
 6712SOL     OW21034   3.809   6.091   0.111
 6712SOL    HW121035   3.840   6.097   0.206
 6712SOL    HW221036   3.781   5.997   0.091
 6713SOL     OW21037   2.021   2.087   1.549
 6713SOL    HW121038   2.119   2.109   1.546
 6713SOL    HW221039   2.010   1.991   1.576
 6714SOL     OW21040   6.337   0.580   4.370
 6714SOL    HW121041   6.239   0.569   4.356
 6714SOL    HW221042   6.385   0.499   4.337
 6715SOL     OW21043   0.557   1.144   0.888
 6715SOL    HW121044   0.568   1.147   0.789
 6715SOL    HW221045   0.642   1.172   0.932
 6716SOL     OW21046   1.802   6.416   0.894
 6716SOL    HW121047   1.826   6.330   0.941
 6716SOL    HW221048   1.811   6.403   0.796
 6717SOL     OW21049   4.134   1.707   6.553
 6717SOL    HW121050   4.131   1.725   6.652
 6717SOL    HW221051   4.203   1.765   6.511
 6718SOL     OW21052   3.093   0.284   0.566
 6718SOL    HW121053   3.025   0.277   0.639
 6718SOL    HW221054   3.109   0.194   0.526
 6719SOL     OW21055   6.717   0.035   5.080
 6719SOL    HW121056   6.760   0.047   5.169
 6719SOL    HW221057   6.780   0.066   5.009
 6720SOL     OW21058   2.208   4.512   1.623
 6720SOL    HW121059   2.242   4.601   1.653
 6720SOL    HW221060   2.138   4.524   1.554
 6721SOL     OW21061   5.264   6.240   3.867
 6721SOL    HW121062   5.206   6.299   3.811
 6721SOL    HW221063   5.322   6.184   3.807
 6722SOL     OW21064   4.300   3.245   6.586
 6722SOL    HW121065   4.357   3.321   6.553
 6722SOL    HW221066   4.282   3.182   6.510
 6723SOL     OW21067   4.672   6.438   2.678
 6723SOL    HW121068   4.623   6.415   2.762
 6723SOL    HW221069   4.635   6.522   2.640
 6724SOL     OW21070   3.217   5.091   4.838
 6724SOL    HW121071   3.159   5.010   4.850
 6724SOL    HW221072   3.294   5.068   4.778
 6725SOL     OW21073   0.223   4.475   2.532
 6725SOL    HW121074   0.267   4.543   2.590
 6725SOL    HW221075   0.145   4.517   2.485
 6726SOL     OW21076   2.500   2.311   3.400
 6726SOL    HW121077   2.437   2.305   3.322
 6726SOL    HW221078   2.501   2.405   3.435
 6727SOL     OW21079   3.610   3.675   0.026
 6727SOL    HW121080   3.616   3.713   0.118
 6727SOL    HW221081   3.536   3.721   7.004
 6728SOL     OW21082   4.225   1.361   3.798
 6728SOL    HW121083   4.162   1.419   3.849
 6728SOL    HW221084   4.194   1.353   3.703
 6729SOL     OW21085   5.848   0.706   2.057
 6729SOL    HW121086   5.863   0.636   1.987
 6729SOL    HW221087   5.931   0.718   2.111
 6730SOL     OW21088   2.545   0.881   0.789
 6730SOL    HW121089   2.568   0.834   0.703
 6730SOL    HW221090   2.592   0.970   0.792
 6731SOL     OW21091   2.768   4.806   1.848
 6731SOL    HW121092   2.829   4.736   1.884
 6731SOL    HW221093   2.694   4.763   1.796
 6732SOL     OW21094   2.306   5.084   1.164
 6732SOL    HW121095   2.290   5.148   1.239
 6732SOL    HW221096   2.245   5.106   1.088
 6733SOL     OW21097   5.256   5.937   5.362
 6733SOL    HW121098   5.191   5.974   5.429
 6733SOL    HW221099   5.328   6.004   5.345
 6734SOL     OW21100   2.469   3.639   5.560
 6734SOL    HW121101   2.486   3.593   5.473
 6734SOL    HW221102   2.465   3.571   5.634
 6735SOL     OW21103   0.257   5.300   6.084
 6735SOL    HW121104   0.185   5.344   6.138
 6735SOL    HW221105   0.258   5.202   6.104
 6736SOL     OW21106   2.140   3.640   2.292
 6736SOL    HW121107   2.158   3.606   2.199
 6736SOL    HW221108   2.079   3.719   2.287
 6737SOL     OW21109   2.694   0.894   1.248
 6737SOL    HW121110   2.779   0.917   1.201
 6737SOL    HW221111   2.649   0.978   1.279
 6738SOL     OW21112   3.249   1.390   2.600
 6738SOL    HW121113   3.301   1.406   2.684
 6738SOL    HW221114   3.159   1.353   2.623
 6739SOL     OW21115   3.679   6.473   4.900
 6739SOL    HW121116   3.714   6.379   4.895
 6739SOL    HW221117   3.584   6.471   4.929
 6740SOL     OW21118   0.179   2.187   4.447
 6740SOL    HW121119   0.239   2.238   4.509
 6740SOL    HW221120   0.221   2.099   4.425
 6741SOL     OW21121   6.174   0.103   6.169
 6741SOL    HW121122   6.093   0.162   6.164
 6741SOL    HW221123   6.150   0.017   6.214
 6742SOL     OW21124   6.512   6.188   6.045
 6742SOL    HW121125   6.482   6.283   6.049
 6742SOL    HW221126   6.487   6.148   5.957
 6743SOL     OW21127   4.697   3.162   0.820
 6743SOL    HW121128   4.757   3.221   0.767
 6743SOL    HW221129   4.729   3.158   0.915
 6744SOL     OW21130   4.935   4.394   5.686
 6744SOL    HW121131   4.866   4.417   5.617
 6744SOL    HW221132   5.011   4.347   5.643
 6745SOL     OW21133   0.112   4.435   3.697
 6745SOL    HW121134   0.145   4.529   3.685
 6745SOL    HW221135   0.180   4.371   3.660
 6746SOL     OW21136   0.302   1.205   0.800
 6746SOL    HW121137   0.392   1.201   0.843
 6746SOL    HW221138   0.232   1.182   0.867
 6747SOL     OW21139   5.379   6.299   5.747
 6747SOL    HW121140   5.381   6.300   5.647
 6747SOL    HW221141   5.301   6.352   5.780
 6748SOL     OW21142   0.288   0.206   2.121
 6748SOL    HW121143   0.248   0.297   2.136
 6748SOL    HW221144   0.302   0.161   2.209
 6749SOL     OW21145   3.498   6.160   1.046
 6749SOL    HW121146   3.467   6.107   1.125
 6749SOL    HW221147   3.593   6.138   1.026
 6750SOL     OW21148   2.620   3.240   5.361
 6750SOL    HW121149   2.695   3.218   5.424
 6750SOL    HW221150   2.577   3.156   5.329
 6751SOL     OW21151   3.390   1.989   5.537
 6751SOL    HW121152   3.461   1.973   5.468
 6751SOL    HW221153   3.312   2.036   5.495
 6752SOL     OW21154   6.402   1.526   0.215
 6752SOL    HW121155   6.420   1.428   0.207
 6752SOL    HW221156   6.465   1.577   0.156
 6753SOL     OW21157   5.133   1.972   6.653
 6753SOL    HW121158   5.094   2.063   6.638
 6753SOL    HW221159   5.233   1.980   6.659
 6754SOL     OW21160   5.764   0.722   0.153
 6754SOL    HW121161   5.776   0.719   0.253
 6754SOL    HW221162   5.709   0.802   0.129
 6755SOL     OW21163   4.638   2.158   3.458
 6755SOL    HW121164   4.562   2.223   3.455
 6755SOL    HW221165   4.606   2.070   3.492
 6756SOL     OW21166   5.133   4.652   4.616
 6756SOL    HW121167   5.165   4.595   4.540
 6756SOL    HW221168   5.133   4.748   4.588
 6757SOL     OW21169   5.790   5.251   1.743
 6757SOL    HW121170   5.746   5.262   1.654
 6757SOL    HW221171   5.720   5.258   1.815
 6758SOL     OW21172   5.343   2.768   2.703
 6758SOL    HW121173   5.286   2.797   2.626
 6758SOL    HW221174   5.284   2.727   2.773
 6759SOL     OW21175   0.158   4.712   3.694
 6759SOL    HW121176   0.074   4.743   3.740
 6759SOL    HW221177   0.144   4.713   3.595
 6760SOL     OW21178   0.026   4.051   4.829
 6760SOL    HW121179   7.007   4.115   4.767
 6760SOL    HW221180   6.991   4.028   4.905
 6761SOL     OW21181   5.105   3.462   6.635
 6761SOL    HW121182   5.121   3.547   6.684
 6761SOL    HW221183   5.080   3.390   6.700
 6762SOL     OW21184   5.847   5.032   4.282
 6762SOL    HW121185   5.894   5.005   4.198
 6762SOL    HW221186   5.752   5.055   4.261
 6763SOL     OW21187   5.382   6.674   5.872
 6763SOL    HW121188   5.305   6.616   5.848
 6763SOL    HW221189   5.459   6.617   5.902
 6764SOL     OW21190   2.274   4.039   6.812
 6764SOL    HW121191   2.356   4.013   6.762
 6764SOL    HW221192   2.270   3.990   6.899
 6765SOL     OW21193   5.634   5.305   2.735
 6765SOL    HW121194   5.636   5.360   2.819
 6765SOL    HW221195   5.696   5.346   2.667
 6766SOL     OW21196   1.583   1.437   5.380
 6766SOL    HW121197   1.664   1.429   5.439
 6766SOL    HW221198   1.593   1.378   5.300
 6767SOL     OW21199   0.194   2.273   6.160
 6767SOL    HW121200   0.134   2.202   6.197
 6767SOL    HW221201   0.289   2.241   6.163
 6768SOL     OW21202   0.231   0.243   5.505
 6768SOL    HW121203   0.183   0.168   5.550
 6768SOL    HW221204   0.321   0.254   5.547
 6769SOL     OW21205   2.239   3.366   6.189
 6769SOL    HW121206   2.256   3.276   6.229
 6769SOL    HW221207   2.174   3.358   6.114
 6770SOL     OW21208   0.152   1.823   3.299
 6770SOL    HW121209   0.087   1.747   3.306
 6770SOL    HW221210   0.167   1.862   3.389
 6771SOL     OW21211   4.078   1.104   2.826
 6771SOL    HW121212   4.013   1.086   2.751
 6771SOL    HW221213   4.087   1.022   2.882
 6772SOL     OW21214   1.091   0.878   2.334
 6772SOL    HW121215   1.058   0.971   2.321
 6772SOL    HW221216   1.026   0.813   2.295
 6773SOL     OW21217   1.179   6.845   0.926
 6773SOL    HW121218   1.113   6.849   1.000
 6773SOL    HW221219   1.174   6.756   0.881
 6774SOL     OW21220   2.648   2.258   6.207
 6774SOL    HW121221   2.695   2.235   6.121
 6774SOL    HW221222   2.679   2.196   6.279
 6775SOL     OW21223   0.509   2.324   4.880
 6775SOL    HW121224   0.463   2.246   4.838
 6775SOL    HW221225   0.602   2.331   4.844
 6776SOL     OW21226   3.772   3.677   3.138
 6776SOL    HW121227   3.731   3.695   3.227
 6776SOL    HW221228   3.795   3.580   3.131
 6777SOL     OW21229   0.114   6.292   6.501
 6777SOL    HW121230   0.029   6.294   6.449
 6777SOL    HW221231   0.167   6.212   6.474
 6778SOL     OW21232   5.809   6.282   1.767
 6778SOL    HW121233   5.894   6.295   1.715
 6778SOL    HW221234   5.797   6.358   1.831
 6779SOL     OW21235   5.029   4.116   6.576
 6779SOL    HW121236   4.960   4.163   6.520
 6779SOL    HW221237   5.117   4.163   6.566
 6780SOL     OW21238   3.729   1.983   2.667
 6780SOL    HW121239   3.720   2.010   2.572
 6780SOL    HW221240   3.802   2.036   2.710
 6781SOL     OW21241   6.379   1.946   3.272
 6781SOL    HW121242   6.423   2.019   3.324
 6781SOL    HW221243   6.280   1.958   3.273
 6782SOL     OW21244   0.074   2.093   2.936
 6782SOL    HW121245   0.160   2.057   2.901
 6782SOL    HW221246   0.059   2.059   3.029
 6783SOL     OW21247   0.369   5.678   6.339
 6783SOL    HW121248   0.387   5.580   6.331
 6783SOL    HW221249   0.449   5.724   6.377
 6784SOL     OW21250   1.750   4.114   1.309
 6784SOL    HW121251   1.699   4.116   1.223
 6784SOL    HW221252   1.692   4.148   1.383
 6785SOL     OW21253   5.665   5.388   4.359
 6785SOL    HW121254   5.764   5.392   4.354
 6785SOL    HW221255   5.634   5.295   4.338
 6786SOL     OW21256   5.613   1.901   5.923
 6786SOL    HW121257   5.528   1.891   5.974
 6786SOL    HW221258   5.593   1.931   5.830
 6787SOL     OW21259   3.078   2.061   0.357
 6787SOL    HW121260   3.019   1.982   0.373
 6787SOL    HW221261   3.042   2.115   0.281
 6788SOL     OW21262   0.554   4.591   1.660
 6788SOL    HW121263   0.584   4.645   1.582
 6788SOL    HW221264   0.621   4.597   1.734
 6789SOL     OW21265   5.302   4.745   3.243
 6789SOL    HW121266   5.216   4.704   3.212
 6789SOL    HW221267   5.356   4.771   3.163
 6790SOL     OW21268   0.938   4.854   6.677
 6790SOL    HW121269   0.945   4.770   6.623
 6790SOL    HW221270   0.965   4.835   6.771
 6791SOL     OW21271   2.904   6.727   2.764
 6791SOL    HW121272   2.939   6.656   2.703
 6791SOL    HW221273   2.804   6.731   2.758
 6792SOL     OW21274   4.325   6.884   5.969
 6792SOL    HW121275   4.247   6.904   5.910
 6792SOL    HW221276   4.410   6.901   5.920
 6793SOL     OW21277   2.249   3.592   5.853
 6793SOL    HW121278   2.280   3.601   5.948
 6793SOL    HW221279   2.327   3.564   5.796
 6794SOL     OW21280   5.988   2.438   5.417
 6794SOL    HW121281   6.013   2.480   5.330
 6794SOL    HW221282   5.915   2.492   5.460
 6795SOL     OW21283   1.282   1.001   1.482
 6795SOL    HW121284   1.352   1.072   1.472
 6795SOL    HW221285   1.197   1.031   1.439
 6796SOL     OW21286   0.061   1.706   2.613
 6796SOL    HW121287   0.127   1.709   2.688
 6796SOL    HW221288   7.007   1.758   2.639
 6797SOL     OW21289   1.281   3.304   1.020
 6797SOL    HW121290   1.188   3.305   0.985
 6797SOL    HW221291   1.343   3.268   0.950
 6798SOL     OW21292   5.116   0.887   1.844
 6798SOL    HW121293   5.172   0.837   1.911
 6798SOL    HW221294   5.158   0.976   1.827
 6799SOL     OW21295   5.906   6.556   3.377
 6799SOL    HW121296   5.818   6.582   3.337
 6799SOL    HW221297   5.936   6.628   3.440
 6800SOL     OW21298   6.490   3.458   1.294
 6800SOL    HW121299   6.452   3.469   1.202
 6800SOL    HW221300   6.439   3.516   1.357
 6801SOL     OW21301   0.773   6.442   6.555
 6801SOL    HW121302   0.782   6.388   6.471
 6801SOL    HW221303   0.796   6.385   6.634
 6802SOL     OW21304   3.122   4.745   1.795
 6802SOL    HW121305   3.068   4.706   1.869
 6802SOL    HW221306   3.139   4.842   1.814
 6803SOL     OW21307   5.281   5.585   6.096
 6803SOL    HW121308   5.229   5.670   6.082
 6803SOL    HW221309   5.377   5.608   6.111
 6804SOL     OW21310   3.596   5.568   2.686
 6804SOL    HW121311   3.563   5.550   2.593
 6804SOL    HW221312   3.689   5.531   2.696
 6805SOL     OW21313   0.230   4.282   4.310
 6805SOL    HW121314   0.309   4.247   4.260
 6805SOL    HW221315   0.200   4.369   4.270
 6806SOL     OW21316   6.227   3.206   1.561
 6806SOL    HW121317   6.139   3.158   1.556
 6806SOL    HW221318   6.274   3.199   1.474
 6807SOL     OW21319   3.184   4.091   2.264
 6807SOL    HW121320   3.138   4.004   2.247
 6807SOL    HW221321   3.191   4.142   2.178
 6808SOL     OW21322   3.481   0.894   3.941
 6808SOL    HW121323   3.475   0.886   3.841
 6808SOL    HW221324   3.470   0.989   3.968
 6809SOL     OW21325   5.843   2.899   6.633
 6809SOL    HW121326   5.942   2.884   6.630
 6809SOL    HW221327   5.821   2.964   6.705
 6810SOL     OW21328   2.966   0.774   4.519
 6810SOL    HW121329   3.020   0.753   4.601
 6810SOL    HW221330   2.955   0.691   4.465
 6811SOL     OW21331   6.237   0.735   0.649
 6811SOL    HW121332   6.285   0.712   0.734
 6811SOL    HW221333   6.259   0.829   0.623
 6812SOL     OW21334   3.629   4.471   5.377
 6812SOL    HW121335   3.553   4.537   5.382
 6812SOL    HW221336   3.716   4.521   5.384
 6813SOL     OW21337   0.138   3.689   2.735
 6813SOL    HW121338   0.044   3.708   2.764
 6813SOL    HW221339   0.153   3.726   2.643
 6814SOL     OW21340   5.836   0.689   0.474
 6814SOL    HW121341   5.762   0.730   0.528
 6814SOL    HW221342   5.848   0.594   0.502
 6815SOL     OW21343   1.142   5.684   6.536
 6815SOL    HW121344   1.126   5.697   6.438
 6815SOL    HW221345   1.139   5.586   6.557
 6816SOL     OW21346   6.770   0.412   4.027
 6816SOL    HW121347   6.842   0.406   4.096
 6816SOL    HW221348   6.690   0.361   4.058
 6817SOL     OW21349   4.128   1.896   1.235
 6817SOL    HW121350   4.226   1.877   1.227
 6817SOL    HW221351   4.107   1.920   1.330
 6818SOL     OW21352   1.270   6.956   4.979
 6818SOL    HW121353   1.277   6.914   5.070
 6818SOL    HW221354   1.360   6.994   4.954
 6819SOL     OW21355   4.495   4.459   1.731
 6819SOL    HW121356   4.522   4.448   1.636
 6819SOL    HW221357   4.477   4.369   1.771
 6820SOL     OW21358   2.673   5.166   2.145
 6820SOL    HW121359   2.592   5.112   2.171
 6820SOL    HW221360   2.735   5.109   2.092
 6821SOL     OW21361   3.646   2.725   5.247
 6821SOL    HW121362   3.684   2.767   5.165
 6821SOL    HW221363   3.718   2.674   5.294
 6822SOL     OW21364   5.763   3.303   5.290
 6822SOL    HW121365   5.665   3.300   5.268
 6822SOL    HW221366   5.797   3.396   5.275
 6823SOL     OW21367   0.203   2.813   5.431
 6823SOL    HW121368   0.109   2.821   5.466
 6823SOL    HW221369   0.258   2.888   5.467
 6824SOL     OW21370   0.661   6.916   5.322
 6824SOL    HW121371   0.707   6.848   5.379
 6824SOL    HW221372   0.718   6.935   5.242
 6825SOL     OW21373   4.123   4.121   1.028
 6825SOL    HW121374   4.038   4.079   0.997
 6825SOL    HW221375   4.197   4.053   1.025
 6826SOL     OW21376   6.255   6.974   3.785
 6826SOL    HW121377   6.243   0.037   3.745
 6826SOL    HW221378   6.165   6.930   3.795
 6827SOL     OW21379   4.594   5.733   5.294
 6827SOL    HW121380   4.510   5.736   5.350
 6827SOL    HW221381   4.572   5.758   5.200
 6828SOL     OW21382   3.421   2.082   2.525
 6828SOL    HW121383   3.327   2.073   2.493
 6828SOL    HW221384   3.445   2.003   2.582
 6829SOL     OW21385   3.906   6.960   3.076
 6829SOL    HW121386   3.879   6.935   3.169
 6829SOL    HW221387   3.876   0.026   3.057
 6830SOL     OW21388   4.405   4.941   2.357
 6830SOL    HW121389   4.376   4.983   2.443
 6830SOL    HW221390   4.480   4.877   2.375
 6831SOL     OW21391   1.382   1.714   6.168
 6831SOL    HW121392   1.476   1.736   6.142
 6831SOL    HW221393   1.365   1.745   6.261
 6832SOL     OW21394   2.687   2.428   6.593
 6832SOL    HW121395   2.662   2.418   6.689
 6832SOL    HW221396   2.669   2.343   6.544
 6833SOL     OW21397   3.729   5.404   6.135
 6833SOL    HW121398   3.660   5.427   6.203
 6833SOL    HW221399   3.686   5.392   6.045
 6834SOL     OW21400   6.387   6.780   6.776
 6834SOL    HW121401   6.298   6.777   6.821
 6834SOL    HW221402   6.379   6.741   6.684
 6835SOL     OW21403   2.436   1.248   4.189
 6835SOL    HW121404   2.392   1.160   4.171
 6835SOL    HW221405   2.408   1.314   4.119
 6836SOL     OW21406   1.640   4.846   6.770
 6836SOL    HW121407   1.729   4.889   6.756
 6836SOL    HW221408   1.579   4.910   6.817
 6837SOL     OW21409   6.382   0.694   2.291
 6837SOL    HW121410   6.464   0.708   2.346
 6837SOL    HW221411   6.327   0.621   2.332
 6838SOL     OW21412   2.730   4.228   5.464
 6838SOL    HW121413   2.800   4.276   5.411
 6838SOL    HW221414   2.705   4.283   5.544
 6839SOL     OW21415   6.158   3.170   4.522
 6839SOL    HW121416   6.092   3.174   4.597
 6839SOL    HW221417   6.202   3.080   4.521
 6840SOL     OW21418   3.014   6.401   4.421
 6840SOL    HW121419   3.095   6.456   4.439
 6840SOL    HW221420   3.041   6.309   4.394
 6841SOL     OW21421   5.266   6.786   1.106
 6841SOL    HW121422   5.173   6.816   1.089
 6841SOL    HW221423   5.283   6.700   1.058
 6842SOL     OW21424   0.270   3.396   4.934
 6842SOL    HW121425   0.218   3.313   4.912
 6842SOL    HW221426   0.352   3.371   4.985
 6843SOL     OW21427   4.067   2.011   1.474
 6843SOL    HW121428   4.097   1.987   1.566
 6843SOL    HW221429   4.009   2.093   1.478
 6844SOL     OW21430   3.624   5.536   4.292
 6844SOL    HW121431   3.587   5.594   4.219
 6844SOL    HW221432   3.551   5.481   4.331
 6845SOL     OW21433   3.787   4.335   1.169
 6845SOL    HW121434   3.694   4.323   1.134
 6845SOL    HW221435   3.843   4.379   1.099
 6846SOL     OW21436   3.191   2.930   2.365
 6846SOL    HW121437   3.281   2.896   2.339
 6846SOL    HW221438   3.157   2.992   2.294
 6847SOL     OW21439   6.332   3.876   1.877
 6847SOL    HW121440   6.254   3.827   1.839
 6847SOL    HW221441   6.392   3.811   1.925
 6848SOL     OW21442   6.530   6.740   3.575
 6848SOL    HW121443   6.476   6.660   3.601
 6848SOL    HW221444   6.625   6.713   3.562
 6849SOL     OW21445   3.477   6.728   4.226
 6849SOL    HW121446   3.485   6.629   4.219
 6849SOL    HW221447   3.381   6.752   4.239
 6850SOL     OW21448   5.459   3.221   1.159
 6850SOL    HW121449   5.369   3.230   1.116
 6850SOL    HW221450   5.516   3.299   1.133
 6851SOL     OW21451   1.602   5.921   5.171
 6851SOL    HW121452   1.549   5.997   5.132
 6851SOL    HW221453   1.656   5.878   5.099
 6852SOL     OW21454   0.429   4.836   1.787
 6852SOL    HW121455   0.434   4.761   1.722
 6852SOL    HW221456   0.438   4.801   1.880
 6853SOL     OW21457   6.718   3.636   5.715
 6853SOL    HW121458   6.791   3.695   5.751
 6853SOL    HW221459   6.658   3.608   5.790
 6854SOL     OW21460   0.278   1.923   6.589
 6854SOL    HW121461   0.305   1.827   6.579
 6854SOL    HW221462   0.206   1.930   6.658
 6855SOL     OW21463   3.319   6.077   1.637
 6855SOL    HW121464   3.290   6.097   1.543
 6855SOL    HW221465   3.334   6.163   1.686
 6856SOL     OW21466   0.040   4.363   5.279
 6856SOL    HW121467   0.096   4.440   5.309
 6856SOL    HW221468   6.992   4.350   5.344
 6857SOL     OW21469   4.604   1.392   5.708
 6857SOL    HW121470   4.530   1.431   5.761
 6857SOL    HW221471   4.657   1.465   5.665
 6858SOL     OW21472   3.680   3.124   5.173
 6858SOL    HW121473   3.634   3.212   5.185
 6858SOL    HW221474   3.675   3.072   5.258
 6859SOL     OW21475   3.453   0.057   0.082
 6859SOL    HW121476   3.518   7.018   0.044
 6859SOL    HW221477   3.501   0.142   0.105
 6860SOL     OW21478   4.900   4.810   0.195
 6860SOL    HW121479   4.910   4.784   0.292
 6860SOL    HW221480   4.976   4.771   0.143
 6861SOL     OW21481   5.791   4.392   0.928
 6861SOL    HW121482   5.753   4.313   0.879
 6861SOL    HW221483   5.780   4.378   1.026
 6862SOL     OW21484   3.789   5.779   3.533
 6862SOL    HW121485   3.845   5.861   3.540
 6862SOL    HW221486   3.804   5.721   3.613
 6863SOL     OW21487   0.030   2.803   4.278
 6863SOL    HW121488   0.102   2.736   4.296
 6863SOL    HW221489   7.006   2.821   4.362
 6864SOL     OW21490   4.378   5.792   5.462
 6864SOL    HW121491   4.330   5.705   5.460
 6864SOL    HW221492   4.317   5.865   5.431
 6865SOL     OW21493   5.838   3.390   4.486
 6865SOL    HW121494   5.786   3.352   4.410
 6865SOL    HW221495   5.935   3.373   4.472
 6866SOL     OW21496   0.444   3.508   2.234
 6866SOL    HW121497   0.406   3.478   2.146
 6866SOL    HW221498   0.511   3.581   2.219
 6867SOL     OW21499   2.436   4.488   2.203
 6867SOL    HW121500   2.415   4.569   2.148
 6867SOL    HW221501   2.497   4.512   2.277
 6868SOL     OW21502   2.007   5.405   5.169
 6868SOL    HW121503   1.929   5.343   5.166
 6868SOL    HW221504   2.087   5.355   5.203
 6869SOL     OW21505   6.130   3.883   5.218
 6869SOL    HW121506   6.173   3.804   5.175
 6869SOL    HW221507   6.183   3.965   5.198
 6870SOL     OW21508   5.089   4.126   2.721
 6870SOL    HW121509   5.067   4.087   2.631
 6870SOL    HW221510   5.115   4.222   2.710
 6871SOL     OW21511   5.150   0.273   1.835
 6871SOL    HW121512   5.110   0.355   1.794
 6871SOL    HW221513   5.082   0.228   1.894
 6872SOL     OW21514   2.893   3.449   6.825
 6872SOL    HW121515   2.829   3.483   6.756
 6872SOL    HW221516   2.850   3.375   6.877
 6873SOL     OW21517   5.146   4.243   5.984
 6873SOL    HW121518   5.154   4.160   5.929
 6873SOL    HW221519   5.050   4.262   6.002
 6874SOL     OW21520   0.807   2.852   5.496
 6874SOL    HW121521   0.713   2.865   5.525
 6874SOL    HW221522   0.863   2.824   5.574
 6875SOL     OW21523   2.641   2.177   4.120
 6875SOL    HW121524   2.651   2.215   4.028
 6875SOL    HW221525   2.644   2.250   4.187
 6876SOL     OW21526   3.280   6.049   6.065
 6876SOL    HW121527   3.186   6.083   6.072
 6876SOL    HW221528   3.335   6.089   6.139
 6877SOL     OW21529   2.768   4.421   6.927
 6877SOL    HW121530   2.791   4.394   6.834
 6877SOL    HW221531   2.669   4.434   6.935
 6878SOL     OW21532   1.711   1.690   4.799
 6878SOL    HW121533   1.632   1.693   4.738
 6878SOL    HW221534   1.689   1.738   4.884
 6879SOL     OW21535   1.019   1.371   5.882
 6879SOL    HW121536   1.057   1.280   5.868
 6879SOL    HW221537   1.025   1.394   5.979
 6880SOL     OW21538   1.891   4.549   4.894
 6880SOL    HW121539   1.904   4.453   4.869
 6880SOL    HW221540   1.925   4.565   4.986
 6881SOL     OW21541   6.803   4.565   1.309
 6881SOL    HW121542   6.859   4.631   1.259
 6881SOL    HW221543   6.743   4.517   1.245
 6882SOL     OW21544   2.085   0.013   5.100
 6882SOL    HW121545   2.098   7.020   5.003
 6882SOL    HW221546   2.163   7.005   5.152
 6883SOL     OW21547   3.248   5.548   1.509
 6883SOL    HW121548   3.188   5.488   1.563
 6883SOL    HW221549   3.256   5.637   1.554
 6884SOL     OW21550   2.925   4.834   2.976
 6884SOL    HW121551   3.019   4.829   2.943
 6884SOL    HW221552   2.925   4.834   3.076
 6885SOL     OW21553   3.514   5.317   5.094
 6885SOL    HW121554   3.423   5.278   5.112
 6885SOL    HW221555   3.524   5.332   4.995
 6886SOL     OW21556   5.561   2.180   2.868
 6886SOL    HW121557   5.652   2.181   2.909
 6886SOL    HW221558   5.569   2.171   2.768
 6887SOL     OW21559   5.556   0.717   4.842
 6887SOL    HW121560   5.500   0.796   4.817
 6887SOL    HW221561   5.650   0.732   4.813
 6888SOL     OW21562   5.610   6.070   4.635
 6888SOL    HW121563   5.648   6.106   4.720
 6888SOL    HW221564   5.667   6.099   4.558
 6889SOL     OW21565   1.691   3.966   5.636
 6889SOL    HW121566   1.632   3.940   5.559
 6889SOL    HW221567   1.767   3.901   5.643
 6890SOL     OW21568   2.282   0.633   0.100
 6890SOL    HW121569   2.363   0.647   0.157
 6890SOL    HW221570   2.224   0.562   0.142
 6891SOL     OW21571   3.541   4.976   4.434
 6891SOL    HW121572   3.641   4.975   4.445
 6891SOL    HW221573   3.518   4.956   4.339
 6892SOL     OW21574   3.779   0.658   4.159
 6892SOL    HW121575   3.702   0.718   4.181
 6892SOL    HW221576   3.766   0.570   4.205
 6893SOL     OW21577   5.632   6.716   2.055
 6893SOL    HW121578   5.590   6.768   1.981
 6893SOL    HW221579   5.562   6.688   2.121
 6894SOL     OW21580   6.148   4.392   6.407
 6894SOL    HW121581   6.057   4.433   6.408
 6894SOL    HW221582   6.166   4.353   6.317
 6895SOL     OW21583   4.049   5.314   6.297
 6895SOL    HW121584   3.991   5.396   6.300
 6895SOL    HW221585   4.122   5.327   6.230
 6896SOL     OW21586   4.419   6.846   3.067
 6896SOL    HW121587   4.419   6.772   3.134
 6896SOL    HW221588   4.454   6.929   3.108
 6897SOL     OW21589   3.631   1.920   0.584
 6897SOL    HW121590   3.693   1.855   0.627
 6897SOL    HW221591   3.553   1.871   0.545
 6898SOL     OW21592   4.135   1.471   2.637
 6898SOL    HW121593   4.103   1.507   2.725
 6898SOL    HW221594   4.196   1.393   2.653
 6899SOL     OW21595   5.074   6.574   0.124
 6899SOL    HW121596   5.059   6.631   0.205
 6899SOL    HW221597   5.171   6.574   0.100
 6900SOL     OW21598   3.935   1.612   5.585
 6900SOL    HW121599   3.955   1.689   5.524
 6900SOL    HW221600   3.859   1.636   5.645
 6901SOL     OW21601   1.188   0.559   6.915
 6901SOL    HW121602   1.153   0.646   6.949
 6901SOL    HW221603   1.128   0.525   6.842
 6902SOL     OW21604   6.582   5.237   0.925
 6902SOL    HW121605   6.561   5.226   0.828
 6902SOL    HW221606   6.512   5.294   0.968
 6903SOL     OW21607   4.397   3.448   1.228
 6903SOL    HW121608   4.349   3.469   1.143
 6903SOL    HW221609   4.376   3.518   1.296
 6904SOL     OW21610   0.551   1.819   2.904
 6904SOL    HW121611   0.543   1.735   2.850
 6904SOL    HW221612   0.491   1.814   2.984
 6905SOL     OW21613   4.186   5.091   1.357
 6905SOL    HW121614   4.114   5.047   1.410
 6905SOL    HW221615   4.253   5.022   1.329
 6906SOL     OW21616   4.515   6.225   3.194
 6906SOL    HW121617   4.481   6.155   3.257
 6906SOL    HW221618   4.610   6.246   3.217
 6907SOL     OW21619   3.648   1.512   1.515
 6907SOL    HW121620   3.728   1.497   1.457
 6907SOL    HW221621   3.659   1.597   1.566
 6908SOL     OW21622   0.631   6.747   6.231
 6908SOL    HW121623   0.727   6.723   6.244
 6908SOL    HW221624   0.587   6.760   6.320
 6909SOL     OW21625   4.740   3.349   6.832
 6909SOL    HW121626   4.812   3.418   6.843
 6909SOL    HW221627   4.651   3.395   6.826
 6910SOL     OW21628   6.809   1.496   2.332
 6910SOL    HW121629   6.857   1.409   2.344
 6910SOL    HW221630   6.746   1.488   2.255
 6911SOL     OW21631   3.867   0.911   4.995
 6911SOL    HW121632   3.947   0.939   5.048
 6911SOL    HW221633   3.787   0.964   5.024
 6912SOL     OW21634   4.864   5.417   0.738
 6912SOL    HW121635   4.882   5.394   0.834
 6912SOL    HW221636   4.885   5.338   0.680
 6913SOL     OW21637   5.340   5.315   5.321
 6913SOL    HW121638   5.371   5.279   5.409
 6913SOL    HW221639   5.419   5.349   5.270
 6914SOL     OW21640   6.210   4.976   0.793
 6914SOL    HW121641   6.130   5.006   0.741
 6914SOL    HW221642   6.292   4.982   0.735
 6915SOL     OW21643   0.930   5.727   1.002
 6915SOL    HW121644   0.857   5.795   1.006
 6915SOL    HW221645   0.983   5.741   0.918
 6916SOL     OW21646   6.820   1.258   6.705
 6916SOL    HW121647   6.741   1.200   6.723
 6916SOL    HW221648   6.810   1.344   6.755
 6917SOL     OW21649   4.479   6.912   6.613
 6917SOL    HW121650   4.428   6.947   6.692
 6917SOL    HW221651   4.446   6.820   6.590
 6918SOL     OW21652   2.050   3.020   3.413
 6918SOL    HW121653   2.097   2.988   3.495
 6918SOL    HW221654   2.117   3.038   3.341
 6919SOL     OW21655   1.785   6.441   3.277
 6919SOL    HW121656   1.771   6.396   3.365
 6919SOL    HW221657   1.803   6.372   3.207
 6920SOL     OW21658   4.952   6.199   5.098
 6920SOL    HW121659   5.001   6.158   5.021
 6920SOL    HW221660   4.933   6.295   5.078
 6921SOL     OW21661   6.961   0.180   3.002
 6921SOL    HW121662   6.937   0.150   3.095
 6921SOL    HW221663   0.024   0.145   2.978
 6922SOL     OW21664   1.751   5.745   0.363
 6922SOL    HW121665   1.695   5.694   0.298
 6922SOL    HW221666   1.693   5.786   0.433
 6923SOL     OW21667   4.650   6.683   4.349
 6923SOL    HW121668   4.668   6.764   4.293
 6923SOL    HW221669   4.625   6.711   4.441
 6924SOL     OW21670   0.133   5.925   1.217
 6924SOL    HW121671   0.120   5.846   1.277
 6924SOL    HW221672   0.208   5.907   1.154
 6925SOL     OW21673   5.929   5.938   2.582
 6925SOL    HW121674   5.949   6.019   2.527
 6925SOL    HW221675   5.858   5.959   2.649
 6926SOL     OW21676   2.970   3.576   4.990
 6926SOL    HW121677   2.967   3.529   4.901
 6926SOL    HW221678   2.939   3.513   5.061
 6927SOL     OW21679   4.498   3.831   5.916
 6927SOL    HW121680   4.587   3.877   5.912
 6927SOL    HW221681   4.500   3.762   5.988
 6928SOL     OW21682   5.711   6.977   6.326
 6928SOL    HW121683   5.725   6.910   6.399
 6928SOL    HW221684   5.758   0.034   6.349
 6929SOL     OW21685   3.177   5.346   6.975
 6929SOL    HW121686   3.190   5.290   6.894
 6929SOL    HW221687   3.191   5.290   0.030
 6930SOL     OW21688   1.039   6.115   3.500
 6930SOL    HW121689   1.136   6.093   3.493
 6930SOL    HW221690   1.028   6.211   3.526
 6931SOL     OW21691   1.711   1.341   1.325
 6931SOL    HW121692   1.800   1.372   1.293
 6931SOL    HW221693   1.648   1.419   1.331
 6932SOL     OW21694   2.575   2.746   0.990
 6932SOL    HW121695   2.575   2.689   0.908
 6932SOL    HW221696   2.526   2.831   0.972
 6933SOL     OW21697   3.623   6.704   6.534
 6933SOL    HW121698   3.554   6.644   6.573
 6933SOL    HW221699   3.661   6.762   6.606
 6934SOL     OW21700   5.956   3.552   6.215
 6934SOL    HW121701   5.967   3.490   6.293
 6934SOL    HW221702   5.976   3.646   6.244
 6935SOL     OW21703   4.420   5.463   3.209
 6935SOL    HW121704   4.421   5.396   3.135
 6935SOL    HW221705   4.368   5.427   3.286
 6936SOL     OW21706   1.869   4.600   1.597
 6936SOL    HW121707   1.917   4.683   1.624
 6936SOL    HW221708   1.922   4.552   1.527
 6937SOL     OW21709   4.593   6.514   5.563
 6937SOL    HW121710   4.655   6.561   5.625
 6937SOL    HW221711   4.550   6.437   5.610
 6938SOL     OW21712   4.933   2.126   4.804
 6938SOL    HW121713   4.954   2.201   4.742
 6938SOL    HW221714   4.924   2.160   4.898
 6939SOL     OW21715   1.114   4.362   2.516
 6939SOL    HW121716   1.065   4.329   2.598
 6939SOL    HW221717   1.098   4.299   2.441
 6940SOL     OW21718   4.479   0.693   5.275
 6940SOL    HW121719   4.434   0.611   5.241
 6940SOL    HW221720   4.493   0.685   5.374
 6941SOL     OW21721   3.854   3.011   3.128
 6941SOL    HW121722   3.755   2.998   3.139
 6941SOL    HW221723   3.900   2.982   3.212
 6942SOL     OW21724   6.564   1.718   0.016
 6942SOL    HW121725   6.649   1.751   0.057
 6942SOL    HW221726   6.521   1.793   6.992
 6943SOL     OW21727   4.889   6.162   6.240
 6943SOL    HW121728   4.965   6.186   6.179
 6943SOL    HW221729   4.807   6.148   6.185
 6944SOL     OW21730   1.728   6.600   5.875
 6944SOL    HW121731   1.714   6.573   5.970
 6944SOL    HW221732   1.726   6.518   5.817
 6945SOL     OW21733   5.057   2.582   6.297
 6945SOL    HW121734   5.035   2.675   6.325
 6945SOL    HW221735   5.156   2.568   6.300
 6946SOL     OW21736   6.154   4.294   3.602
 6946SOL    HW121737   6.108   4.317   3.516
 6946SOL    HW221738   6.127   4.201   3.630
 6947SOL     OW21739   3.499   6.895   2.858
 6947SOL    HW121740   3.586   6.848   2.873
 6947SOL    HW221741   3.433   6.866   2.927
 6948SOL     OW21742   3.925   1.844   5.307
 6948SOL    HW121743   3.928   1.944   5.312
 6948SOL    HW221744   4.001   1.811   5.251
 6949SOL     OW21745   5.282   0.745   2.645
 6949SOL    HW121746   5.219   0.730   2.569
 6949SOL    HW221747   5.350   0.673   2.646
 6950SOL     OW21748   1.634   0.969   3.383
 6950SOL    HW121749   1.666   0.978   3.477
 6950SOL    HW221750   1.633   0.873   3.357
 6951SOL     OW21751   6.115   5.095   5.774
 6951SOL    HW121752   6.128   5.021   5.839
 6951SOL    HW221753   6.026   5.137   5.789
 6952SOL     OW21754   0.661   4.846   4.790
 6952SOL    HW121755   0.721   4.926   4.795
 6952SOL    HW221756   0.641   4.825   4.695
 6953SOL     OW21757   5.244   1.672   4.839
 6953SOL    HW121758   5.258   1.770   4.825
 6953SOL    HW221759   5.243   1.625   4.750
 6954SOL     OW21760   1.084   4.026   3.011
 6954SOL    HW121761   1.181   4.047   3.022
 6954SOL    HW221762   1.033   4.112   3.002
 6955SOL     OW21763   6.541   5.501   2.367
 6955SOL    HW121764   6.457   5.530   2.322
 6955SOL    HW221765   6.565   5.409   2.338
 6956SOL     OW21766   3.376   4.678   1.671
 6956SOL    HW121767   3.449   4.684   1.739
 6956SOL    HW221768   3.289   4.702   1.715
 6957SOL     OW21769   0.847   4.221   0.479
 6957SOL    HW121770   0.921   4.231   0.412
 6957SOL    HW221771   0.759   4.218   0.432
 6958SOL     OW21772   2.581   3.764   6.312
 6958SOL    HW121773   2.506   3.817   6.352
 6958SOL    HW221774   2.619   3.813   6.234
 6959SOL     OW21775   3.144   1.048   4.391
 6959SOL    HW121776   3.061   1.103   4.390
 6959SOL    HW221777   3.157   1.008   4.482
 6960SOL     OW21778   0.216   4.918   6.983
 6960SOL    HW121779   0.168   4.886   0.038
 6960SOL    HW221780   0.169   4.999   6.947
 6961SOL     OW21781   6.907   1.408   2.883
 6961SOL    HW121782   6.966   1.329   2.896
 6961SOL    HW221783   6.863   1.403   2.793
 6962SOL     OW21784   4.411   3.805   0.324
 6962SOL    HW121785   4.355   3.773   0.401
 6962SOL    HW221786   4.429   3.730   0.261
 6963SOL     OW21787   6.457   5.733   2.005
 6963SOL    HW121788   6.505   5.772   2.083
 6963SOL    HW221789   6.392   5.799   1.968
 6964SOL     OW21790   3.986   6.466   5.369
 6964SOL    HW121791   4.020   6.553   5.404
 6964SOL    HW221792   4.043   6.437   5.292
 6965SOL     OW21793   6.516   2.796   6.023
 6965SOL    HW121794   6.503   2.751   6.112
 6965SOL    HW221795   6.611   2.783   5.993
 6966SOL     OW21796   4.664   2.554   4.088
 6966SOL    HW121797   4.596   2.491   4.126
 6966SOL    HW221798   4.650   2.562   3.989
 6967SOL     OW21799   2.068   0.822   6.166
 6967SOL    HW121800   2.115   0.748   6.119
 6967SOL    HW221801   2.087   0.909   6.119
 6968SOL     OW21802   5.025   6.886   2.241
 6968SOL    HW121803   4.950   6.828   2.208
 6968SOL    HW221804   5.005   6.916   2.334
 6969SOL     OW21805   3.416   1.626   1.308
 6969SOL    HW121806   3.514   1.637   1.288
 6969SOL    HW221807   3.387   1.698   1.372
 6970SOL     OW21808   4.865   3.888   0.611
 6970SOL    HW121809   4.776   3.863   0.572
 6970SOL    HW221810   4.872   3.987   0.616
 6971SOL     OW21811   5.290   0.769   2.024
 6971SOL    HW121812   5.363   0.701   2.035
 6971SOL    HW221813   5.317   0.853   2.071
 6972SOL     OW21814   5.638   4.936   4.573
 6972SOL    HW121815   5.682   4.991   4.643
 6972SOL    HW221816   5.577   4.993   4.518
 6973SOL     OW21817   2.049   4.806   3.740
 6973SOL    HW121818   2.119   4.765   3.798
 6973SOL    HW221819   2.024   4.896   3.775
 6974SOL     OW21820   3.676   3.809   4.801
 6974SOL    HW121821   3.722   3.793   4.714
 6974SOL    HW221822   3.577   3.813   4.787
 6975SOL     OW21823   3.725   1.656   5.767
 6975SOL    HW121824   3.651   1.603   5.808
 6975SOL    HW221825   3.793   1.679   5.837
 6976SOL     OW21826   2.252   5.123   6.419
 6976SOL    HW121827   2.256   5.173   6.333
 6976SOL    HW221828   2.345   5.104   6.451
 6977SOL     OW21829   3.794   1.983   2.974
 6977SOL    HW121830   3.790   2.068   2.923
 6977SOL    HW221831   3.802   2.002   3.072
 6978SOL     OW21832   6.331   0.462   3.253
 6978SOL    HW121833   6.362   0.399   3.324
 6978SOL    HW221834   6.237   0.490   3.271
 6979SOL     OW21835   0.607   4.560   2.700
 6979SOL    HW121836   0.644   4.583   2.610
 6979SOL    HW221837   0.644   4.623   2.768
 6980SOL     OW21838   3.349   0.923   4.699
 6980SOL    HW121839   3.387   0.856   4.635
 6980SOL    HW221840   3.356   1.014   4.660
 6981SOL     OW21841   2.957   4.914   6.492
 6981SOL    HW121842   3.023   4.842   6.472
 6981SOL    HW221843   2.872   4.895   6.443
 6982SOL     OW21844   0.291   0.049   4.703
 6982SOL    HW121845   0.233   0.013   4.631
 6982SOL    HW221846   0.380   0.003   4.700
 6983SOL     OW21847   6.203   0.552   3.827
 6983SOL    HW121848   6.110   0.566   3.860
 6983SOL    HW221849   6.256   0.501   3.896
 6984SOL     OW21850   1.791   1.157   6.252
 6984SOL    HW121851   1.722   1.229   6.249
 6984SOL    HW221852   1.798   1.114   6.162
 6985SOL     OW21853   5.392   5.813   1.519
 6985SOL    HW121854   5.325   5.885   1.501
 6985SOL    HW221855   5.419   5.817   1.616
 6986SOL     OW21856   2.083   6.979   4.777
 6986SOL    HW121857   2.093   6.913   4.703
 6986SOL    HW221858   2.067   0.043   4.739
 6987SOL     OW21859   0.421   3.438   6.539
 6987SOL    HW121860   0.484   3.445   6.462
 6987SOL    HW221861   0.333   3.403   6.508
 6988SOL     OW21862   5.151   0.655   4.204
 6988SOL    HW121863   5.183   0.736   4.154
 6988SOL    HW221864   5.137   0.679   4.300
 6989SOL     OW21865   1.788   2.545   4.024
 6989SOL    HW121866   1.718   2.617   4.019
 6989SOL    HW221867   1.876   2.587   4.047
 6990SOL     OW21868   4.021   3.144   0.248
 6990SOL    HW121869   3.928   3.159   0.216
 6990SOL    HW221870   4.023   3.148   0.348
 6991SOL     OW21871   3.946   4.411   5.416
 6991SOL    HW121872   3.963   4.313   5.403
 6991SOL    HW221873   3.901   4.425   5.504
 6992SOL     OW21874   5.213   6.721   5.036
 6992SOL    HW121875   5.139   6.726   5.103
 6992SOL    HW221876   5.183   6.761   4.950
 6993SOL     OW21877   0.264   0.386   3.105
 6993SOL    HW121878   0.213   0.367   3.021
 6993SOL    HW221879   0.332   0.314   3.120
 6994SOL     OW21880   1.574   2.527   0.096
 6994SOL    HW121881   1.611   2.613   0.130
 6994SOL    HW221882   1.650   2.469   0.064
 6995SOL     OW21883   0.486   5.737   3.001
 6995SOL    HW121884   0.419   5.671   3.037
 6995SOL    HW221885   0.566   5.688   2.966
 6996SOL     OW21886   2.220   6.849   5.979
 6996SOL    HW121887   2.154   6.774   5.983
 6996SOL    HW221888   2.173   6.934   5.957
 6997SOL     OW21889   4.654   0.383   4.751
 6997SOL    HW121890   4.590   0.459   4.761
 6997SOL    HW221891   4.662   0.334   4.837
 6998SOL     OW21892   1.169   2.744   3.257
 6998SOL    HW121893   1.222   2.715   3.177
 6998SOL    HW221894   1.227   2.742   3.338
 6999SOL     OW21895   3.524   1.961   6.349
 6999SOL    HW121896   3.541   1.898   6.424
 6999SOL    HW221897   3.460   2.032   6.378
 7000SOL     OW21898   0.248   6.509   1.596
 7000SOL    HW121899   0.155   6.476   1.582
 7000SOL    HW221900   0.246   6.597   1.644
 7001SOL     OW21901   2.562   2.595   5.929
 7001SOL    HW121902   2.662   2.590   5.933
 7001SOL    HW221903   2.534   2.691   5.922
 7002SOL     OW21904   1.575   4.664   3.294
 7002SOL    HW121905   1.500   4.663   3.359
 7002SOL    HW221906   1.562   4.591   3.226
 7003SOL     OW21907   2.786   6.048   0.699
 7003SOL    HW121908   2.773   5.953   0.729
 7003SOL    HW221909   2.841   6.096   0.766
 7004SOL     OW21910   1.261   4.437   1.343
 7004SOL    HW121911   1.220   4.498   1.410
 7004SOL    HW221912   1.330   4.486   1.290
 7005SOL     OW21913   5.064   6.962   5.535
 7005SOL    HW121914   5.085   0.001   5.606
 7005SOL    HW221915   5.127   6.884   5.541
 7006SOL     OW21916   4.421   4.721   4.850
 7006SOL    HW121917   4.432   4.650   4.921
 7006SOL    HW221918   4.462   4.689   4.765
 7007SOL     OW21919   4.955   5.005   2.836
 7007SOL    HW121920   4.945   4.972   2.930
 7007SOL    HW221921   4.900   5.087   2.824
 7008SOL     OW21922   0.634   4.896   4.411
 7008SOL    HW121923   0.694   4.966   4.450
 7008SOL    HW221924   0.680   4.808   4.412
 7009SOL     OW21925   0.373   5.043   2.405
 7009SOL    HW121926   0.347   5.100   2.483
 7009SOL    HW221927   0.332   5.080   2.322
 7010SOL     OW21928   4.135   4.937   6.365
 7010SOL    HW121929   4.197   4.991   6.422
 7010SOL    HW221930   4.041   4.963   6.385
 7011SOL     OW21931   2.607   1.343   5.163
 7011SOL    HW121932   2.604   1.362   5.261
 7011SOL    HW221933   2.701   1.317   5.137
 7012SOL     OW21934   1.338   1.016   2.194
 7012SOL    HW121935   1.266   0.963   2.239
 7012SOL    HW221936   1.419   1.020   2.253
 7013SOL     OW21937   1.154   0.520   2.076
 7013SOL    HW121938   1.088   0.581   2.120
 7013SOL    HW221939   1.133   0.514   1.978
 7014SOL     OW21940   2.693   4.684   1.490
 7014SOL    HW121941   2.781   4.646   1.520
 7014SOL    HW221942   2.639   4.709   1.570
 7015SOL     OW21943   4.943   2.770   2.334
 7015SOL    HW121944   4.919   2.776   2.430
 7015SOL    HW221945   4.901   2.847   2.285
 7016SOL     OW21946   3.337   5.358   1.313
 7016SOL    HW121947   3.281   5.423   1.365
 7016SOL    HW221948   3.423   5.342   1.361
 7017SOL     OW21949   3.770   0.963   3.951
 7017SOL    HW121950   3.715   0.975   4.033
 7017SOL    HW221951   3.736   0.883   3.900
 7018SOL     OW21952   0.628   5.436   4.166
 7018SOL    HW121953   0.610   5.393   4.077
 7018SOL    HW221954   0.572   5.392   4.236
 7019SOL     OW21955   2.319   5.982   0.068
 7019SOL    HW121956   2.307   6.009   0.164
 7019SOL    HW221957   2.335   5.883   0.063
 7020SOL     OW21958   6.145   6.497   6.247
 7020SOL    HW121959   6.089   6.421   6.279
 7020SOL    HW221960   6.105   6.583   6.277
 7021SOL     OW21961   2.791   1.459   5.810
 7021SOL    HW121962   2.741   1.390   5.757
 7021SOL    HW221963   2.823   1.532   5.748
 7022SOL     OW21964   5.101   5.004   6.982
 7022SOL    HW121965   5.070   5.033   6.892
 7022SOL    HW221966   5.053   5.056   0.026
 7023SOL     OW21967   6.037   4.114   2.890
 7023SOL    HW121968   6.043   4.054   2.969
 7023SOL    HW221969   5.966   4.183   2.906
 7024SOL     OW21970   0.121   6.037   0.342
 7024SOL    HW121971   0.186   6.107   0.314
 7024SOL    HW221972   0.170   5.956   0.373
 7025SOL     OW21973   2.281   0.943   5.728
 7025SOL    HW121974   2.195   0.971   5.685
 7025SOL    HW221975   2.358   0.982   5.679
 7026SOL     OW21976   3.908   2.558   0.879
 7026SOL    HW121977   3.891   2.519   0.969
 7026SOL    HW221978   3.968   2.638   0.888
 7027SOL     OW21979   4.328   6.887   4.617
 7027SOL    HW121980   4.371   6.970   4.654
 7027SOL    HW221981   4.236   6.909   4.585
 7028SOL     OW21982   3.840   0.334   4.628
 7028SOL    HW121983   3.864   0.377   4.541
 7028SOL    HW221984   3.756   0.280   4.617
 7029SOL     OW21985   3.223   0.949   5.643
 7029SOL    HW121986   3.254   0.900   5.724
 7029SOL    HW221987   3.135   0.912   5.613
 7030SOL     OW21988   1.777   4.188   4.840
 7030SOL    HW121989   1.872   4.163   4.859
 7030SOL    HW221990   1.720   4.107   4.843
 7031SOL     OW21991   2.294   6.129   4.271
 7031SOL    HW121992   2.351   6.047   4.276
 7031SOL    HW221993   2.323   6.186   4.194
 7032SOL     OW21994   6.235   1.438   2.371
 7032SOL    HW121995   6.135   1.439   2.378
 7032SOL    HW221996   6.275   1.456   2.461
 7033SOL     OW21997   6.530   0.704   3.894
 7033SOL    HW121998   6.582   0.626   3.856
 7033SOL    HW221999   6.544   0.783   3.835
 7034SOL     OW22000   6.343   6.130   3.214
 7034SOL    HW122001   6.264   6.110   3.156
 7034SOL    HW222002   6.316   6.127   3.310
 7035SOL     OW22003   6.527   5.402   1.536
 7035SOL    HW122004   6.544   5.501   1.533
 7035SOL    HW222005   6.429   5.385   1.524
 7036SOL     OW22006   6.489   4.440   1.623
 7036SOL    HW122007   6.405   4.446   1.571
 7036SOL    HW222008   6.468   4.422   1.719
 7037SOL     OW22009   1.484   6.859   6.221
 7037SOL    HW122010   1.397   6.900   6.193
 7037SOL    HW222011   1.544   6.850   6.141
 7038SOL     OW22012   1.391   4.322   3.918
 7038SOL    HW122013   1.325   4.389   3.953
 7038SOL    HW222014   1.422   4.264   3.993
 7039SOL     OW22015   4.030   1.155   6.949
 7039SOL    HW122016   4.045   1.179   6.853
 7039SOL    HW222017   4.117   1.127   6.991
 7040SOL     OW22018   4.504   2.662   6.206
 7040SOL    HW122019   4.515   2.564   6.188
 7040SOL    HW222020   4.530   2.682   6.300
 7041SOL     OW22021   2.606   2.120   2.162
 7041SOL    HW122022   2.659   2.162   2.236
 7041SOL    HW222023   2.668   2.087   2.091
 7042SOL     OW22024   2.338   0.297   6.549
 7042SOL    HW122025   2.433   0.311   6.522
 7042SOL    HW222026   2.325   0.328   6.643
 7043SOL     OW22027   1.823   2.032   2.872
 7043SOL    HW122028   1.790   1.996   2.785
 7043SOL    HW222029   1.808   1.963   2.944
 7044SOL     OW22030   4.987   5.944   2.485
 7044SOL    HW122031   4.957   6.030   2.527
 7044SOL    HW222032   5.044   5.964   2.406
 7045SOL     OW22033   5.319   5.553   1.041
 7045SOL    HW122034   5.339   5.486   1.113
 7045SOL    HW222035   5.270   5.631   1.080
 7046SOL     OW22036   2.869   0.736   4.865
 7046SOL    HW122037   2.797   0.806   4.868
 7046SOL    HW222038   2.928   0.746   4.945
 7047SOL     OW22039   1.606   1.167   4.270
 7047SOL    HW122040   1.656   1.100   4.326
 7047SOL    HW222041   1.509   1.163   4.292
 7048SOL     OW22042   6.605   6.585   0.458
 7048SOL    HW122043   6.528   6.623   0.407
 7048SOL    HW222044   6.612   6.632   0.547
 7049SOL     OW22045   2.616   1.155   0.922
 7049SOL    HW122046   2.593   1.128   1.015
 7049SOL    HW222047   2.709   1.124   0.900
 7050SOL     OW22048   3.794   4.105   4.883
 7050SOL    HW122049   3.710   4.150   4.912
 7050SOL    HW222050   3.775   4.011   4.857
 7051SOL     OW22051   6.442   6.784   2.403
 7051SOL    HW122052   6.364   6.787   2.465
 7051SOL    HW222053   6.520   6.740   2.449
 7052SOL     OW22054   6.552   2.404   3.543
 7052SOL    HW122055   6.637   2.407   3.595
 7052SOL    HW222056   6.551   2.479   3.477
 7053SOL     OW22057   0.269   4.892   6.703
 7053SOL    HW122058   0.172   4.882   6.682
 7053SOL    HW222059   0.282   4.885   6.802
 7054SOL     OW22060   6.819   6.938   1.814
 7054SOL    HW122061   6.725   6.916   1.789
 7054SOL    HW222062   6.825   0.007   1.841
 7055SOL     OW22063   3.768   0.024   4.902
 7055SOL    HW122064   3.718   0.103   4.936
 7055SOL    HW222065   3.859   0.052   4.872
 7056SOL     OW22066   5.087   5.061   3.600
 7056SOL    HW122067   5.033   5.137   3.564
 7056SOL    HW222068   5.150   5.029   3.530
 7057SOL     OW22069   0.820   6.170   3.286
 7057SOL    HW122070   0.821   6.186   3.187
 7057SOL    HW222071   0.770   6.086   3.306
 7058SOL     OW22072   0.770   5.399   5.449
 7058SOL    HW122073   0.791   5.322   5.389
 7058SOL    HW222074   0.756   5.482   5.394
 7059SOL     OW22075   1.635   0.505   2.629
 7059SOL    HW122076   1.719   0.559   2.620
 7059SOL    HW222077   1.624   0.476   2.724
 7060SOL     OW22078   3.069   6.564   1.400
 7060SOL    HW122079   3.092   6.510   1.481
 7060SOL    HW222080   3.151   6.608   1.364
 7061SOL     OW22081   0.342   1.088   2.414
 7061SOL    HW122082   0.416   1.022   2.430
 7061SOL    HW222083   0.333   1.148   2.493
 7062SOL     OW22084   5.816   2.031   4.789
 7062SOL    HW122085   5.739   2.029   4.725
 7062SOL    HW222086   5.797   2.097   4.862
 7063SOL     OW22087   3.477   6.456   1.203
 7063SOL    HW122088   3.569   6.418   1.215
 7063SOL    HW222089   3.410   6.381   1.204
 7064SOL     OW22090   3.965   2.457   0.257
 7064SOL    HW122091   3.901   2.484   0.329
 7064SOL    HW222092   4.055   2.496   0.277
 7065SOL     OW22093   4.366   3.642   1.420
 7065SOL    HW122094   4.427   3.689   1.485
 7065SOL    HW222095   4.282   3.616   1.467
 7066SOL     OW22096   3.590   6.294   0.474
 7066SOL    HW122097   3.581   6.209   0.422
 7066SOL    HW222098   3.540   6.286   0.560
 7067SOL     OW22099   0.175   3.939   5.199
 7067SOL    HW122100   0.084   3.939   5.240
 7067SOL    HW222101   0.206   4.034   5.188
 7068SOL     OW22102   1.269   0.570   3.453
 7068SOL    HW122103   1.324   0.564   3.536
 7068SOL    HW222104   1.315   0.524   3.378
 7069SOL     OW22105   1.357   4.503   5.147
 7069SOL    HW122106   1.433   4.535   5.203
 7069SOL    HW222107   1.300   4.440   5.200
 7070SOL     OW22108   6.174   5.102   4.567
 7070SOL    HW122109   6.129   5.180   4.610
 7070SOL    HW222110   6.107   5.031   4.547
 7071SOL     OW22111   1.239   6.321   5.549
 7071SOL    HW122112   1.218   6.359   5.459
 7071SOL    HW222113   1.278   6.230   5.539
 7072SOL     OW22114   0.037   6.573   6.086
 7072SOL    HW122115   0.090   6.657   6.099
 7072SOL    HW222116   6.980   6.593   6.036
 7073SOL     OW22117   0.772   0.827   5.585
 7073SOL    HW122118   0.809   0.793   5.499
 7073SOL    HW222119   0.679   0.793   5.598
 7074SOL     OW22120   3.591   2.426   1.426
 7074SOL    HW122121   3.529   2.503   1.440
 7074SOL    HW222122   3.585   2.364   1.505
 7075SOL     OW22123   1.570   5.639   3.040
 7075SOL    HW122124   1.491   5.654   2.980
 7075SOL    HW222125   1.590   5.541   3.043
 7076SOL     OW22126   2.632   2.365   6.884
 7076SOL    HW122127   2.614   2.287   6.944
 7076SOL    HW222128   2.712   2.415   6.918
 7077SOL     OW22129   2.142   5.615   5.550
 7077SOL    HW122130   2.107   5.674   5.477
 7077SOL    HW222131   2.213   5.555   5.512
 7078SOL     OW22132   5.677   0.929   3.560
 7078SOL    HW122133   5.676   0.929   3.460
 7078SOL    HW222134   5.609   0.864   3.594
 7079SOL     OW22135   6.053   6.184   5.605
 7079SOL    HW122136   6.025   6.218   5.515
 7079SOL    HW222137   6.083   6.261   5.661
 7080SOL     OW22138   4.656   0.366   3.734
 7080SOL    HW122139   4.719   0.364   3.811
 7080SOL    HW222140   4.701   0.329   3.653
 7081SOL     OW22141   3.725   1.047   4.507
 7081SOL    HW122142   3.774   0.992   4.575
 7081SOL    HW222143   3.651   1.097   4.553
 7082SOL     OW22144   5.105   0.257   6.043
 7082SOL    HW122145   5.033   0.325   6.031
 7082SOL    HW222146   5.171   0.289   6.111
 7083SOL     OW22147   3.433   0.118   6.225
 7083SOL    HW122148   3.354   0.095   6.169
 7083SOL    HW222149   3.402   0.162   6.309
 7084SOL     OW22150   6.670   6.468   6.038
 7084SOL    HW122151   6.715   6.379   6.048
 7084SOL    HW222152   6.650   6.506   6.128
 7085SOL     OW22153   2.567   2.155   1.405
 7085SOL    HW122154   2.600   2.159   1.311
 7085SOL    HW222155   2.642   2.128   1.466
 7086SOL     OW22156   6.007   0.541   6.124
 7086SOL    HW122157   5.992   0.640   6.133
 7086SOL    HW222158   6.032   0.503   6.213
 7087SOL     OW22159   1.229   3.314   4.175
 7087SOL    HW122160   1.272   3.240   4.122
 7087SOL    HW222161   1.300   3.376   4.209
 7088SOL     OW22162   6.156   2.551   5.723
 7088SOL    HW122163   6.211   2.595   5.793
 7088SOL    HW222164   6.166   2.600   5.636
 7089SOL     OW22165   2.656   1.529   0.266
 7089SOL    HW122166   2.630   1.488   0.178
 7089SOL    HW222167   2.692   1.458   0.326
 7090SOL     OW22168   2.505   1.985   4.771
 7090SOL    HW122169   2.422   1.989   4.715
 7090SOL    HW222170   2.487   2.027   4.860
 7091SOL     OW22171   6.981   6.130   6.709
 7091SOL    HW122172   6.928   6.121   6.793
 7091SOL    HW222173   6.999   6.226   6.691
 7092SOL     OW22174   3.515   3.739   0.798
 7092SOL    HW122175   3.433   3.768   0.749
 7092SOL    HW222176   3.555   3.659   0.753
 7093SOL     OW22177   3.190   3.479   4.615
 7093SOL    HW122178   3.256   3.417   4.656
 7093SOL    HW222179   3.233   3.568   4.597
 7094SOL     OW22180   0.540   0.537   5.709
 7094SOL    HW122181   0.453   0.582   5.688
 7094SOL    HW222182   0.611   0.575   5.649
 7095SOL     OW22183   0.660   3.137   6.774
 7095SOL    HW122184   0.717   3.135   6.692
 7095SOL    HW222185   0.631   3.231   6.793
 7096SOL     OW22186   4.617   1.654   3.066
 7096SOL    HW122187   4.707   1.615   3.083
 7096SOL    HW222188   4.576   1.683   3.152
 7097SOL     OW22189   0.758   0.486   1.760
 7097SOL    HW122190   0.659   0.487   1.775
 7097SOL    HW222191   0.786   0.398   1.723
 7098SOL     OW22192   1.410   6.582   6.002
 7098SOL    HW122193   1.496   6.627   5.978
 7098SOL    HW222194   1.415   6.549   6.096
 7099SOL     OW22195   0.575   0.754   6.298
 7099SOL    HW122196   0.630   0.746   6.215
 7099SOL    HW222197   0.518   0.836   6.293
 7100SOL     OW22198   5.798   3.052   1.298
 7100SOL    HW122199   5.749   3.056   1.211
 7100SOL    HW222200   5.737   3.083   1.372
 7101SOL     OW22201   2.567   0.186   5.166
 7101SOL    HW122202   2.583   0.094   5.203
 7101SOL    HW222203   2.603   0.191   5.073
 7102SOL     OW22204   4.551   2.239   0.891
 7102SOL    HW122205   4.548   2.332   0.927
 7102SOL    HW222206   4.599   2.240   0.803
 7103SOL     OW22207   3.738   6.917   6.673
 7103SOL    HW122208   3.797   6.981   6.624
 7103SOL    HW222209   3.789   6.834   6.694
 7104SOL     OW22210   1.138   2.500   2.925
 7104SOL    HW122211   1.173   2.556   2.850
 7104SOL    HW222212   1.090   2.559   2.990
 7105SOL     OW22213   3.384   3.758   4.827
 7105SOL    HW122214   3.342   3.847   4.807
 7105SOL    HW222215   3.390   3.704   4.743
 7106SOL     OW22216   3.205   2.906   5.324
 7106SOL    HW122217   3.202   2.987   5.266
 7106SOL    HW222218   3.279   2.846   5.294
 7107SOL     OW22219   2.868   1.892   0.402
 7107SOL    HW122220   2.868   1.838   0.486
 7107SOL    HW222221   2.855   1.832   0.323
 7108SOL     OW22222   4.720   0.234   1.497
 7108SOL    HW122223   4.717   0.323   1.452
 7108SOL    HW222224   4.732   0.246   1.595
 7109SOL     OW22225   3.714   6.632   6.291
 7109SOL    HW122226   3.669   6.654   6.378
 7109SOL    HW222227   3.813   6.640   6.302
 7110SOL     OW22228   4.349   5.137   3.378
 7110SOL    HW122229   4.310   5.219   3.418
 7110SOL    HW222230   4.280   5.065   3.373
 7111SOL     OW22231   2.118   3.303   4.496
 7111SOL    HW122232   2.065   3.299   4.412
 7111SOL    HW222233   2.141   3.398   4.517
 7112SOL     OW22234   1.028   6.369   3.497
 7112SOL    HW122235   1.036   6.443   3.564
 7112SOL    HW222236   0.961   6.395   3.428
 7113SOL     OW22237   4.137   3.445   4.472
 7113SOL    HW122238   4.095   3.529   4.507
 7113SOL    HW222239   4.133   3.445   4.373
 7114SOL     OW22240   3.951   1.021   1.080
 7114SOL    HW122241   3.941   1.110   1.037
 7114SOL    HW222242   4.048   0.998   1.086
 7115SOL     OW22243   4.572   1.471   0.931
 7115SOL    HW122244   4.552   1.567   0.946
 7115SOL    HW222245   4.611   1.431   1.014
 7116SOL     OW22246   5.466   4.350   2.971
 7116SOL    HW122247   5.457   4.420   2.900
 7116SOL    HW222248   5.486   4.394   3.059
 7117SOL     OW22249   5.791   6.465   1.524
 7117SOL    HW122250   5.760   6.492   1.433
 7117SOL    HW222251   5.831   6.373   1.520
 7118SOL     OW22252   6.557   3.088   0.895
 7118SOL    HW122253   6.549   3.097   0.994
 7118SOL    HW222254   6.644   3.128   0.865
 7119SOL     OW22255   6.779   2.051   3.505
 7119SOL    HW122256   6.702   2.056   3.442
 7119SOL    HW222257   6.746   2.024   3.596
 7120SOL     OW22258   5.094   0.799   3.237
 7120SOL    HW122259   5.138   0.782   3.326
 7120SOL    HW222260   5.124   0.888   3.202
 7121SOL     OW22261   3.283   6.339   2.717
 7121SOL    HW122262   3.300   6.254   2.668
 7121SOL    HW222263   3.270   6.414   2.651
 7122SOL     OW22264   5.711   0.761   6.798
 7122SOL    HW122265   5.778   0.713   6.741
 7122SOL    HW222266   5.645   0.808   6.739
 7123SOL     OW22267   2.566   5.345   1.385
 7123SOL    HW122268   2.562   5.267   1.322
 7123SOL    HW222269   2.603   5.425   1.338
 7124SOL     OW22270   0.480   4.893   0.558
 7124SOL    HW122271   0.561   4.844   0.590
 7124SOL    HW222272   0.505   4.951   0.481
 7125SOL     OW22273   6.279   6.492   2.935
 7125SOL    HW122274   6.254   6.508   3.031
 7125SOL    HW222275   6.250   6.400   2.907
 7126SOL     OW22276   1.354   4.229   0.206
 7126SOL    HW122277   1.260   4.197   0.219
 7126SOL    HW222278   1.373   4.303   0.271
 7127SOL     OW22279   3.628   6.671   4.671
 7127SOL    HW122280   3.660   6.594   4.726
 7127SOL    HW222281   3.566   6.728   4.726
 7128SOL     OW22282   3.020   3.964   1.067
 7128SOL    HW122283   3.063   3.903   1.000
 7128SOL    HW222284   2.979   4.042   1.020
 7129SOL     OW22285   2.617   0.196   1.536
 7129SOL    HW122286   2.630   0.098   1.516
 7129SOL    HW222287   2.521   0.212   1.558
 7130SOL     OW22288   2.221   4.616   3.260
 7130SOL    HW122289   2.123   4.612   3.244
 7130SOL    HW222290   2.270   4.614   3.173
 7131SOL     OW22291   2.752   0.884   3.061
 7131SOL    HW122292   2.836   0.906   3.012
 7131SOL    HW222293   2.678   0.944   3.031
 7132SOL     OW22294   3.235   4.100   3.267
 7132SOL    HW122295   3.171   4.039   3.313
 7132SOL    HW222296   3.311   4.121   3.329
 7133SOL     OW22297   5.389   5.120   2.908
 7133SOL    HW122298   5.315   5.124   2.975
 7133SOL    HW222299   5.355   5.150   2.818
 7134SOL     OW22300   5.451   4.179   4.516
 7134SOL    HW122301   5.352   4.177   4.503
 7134SOL    HW222302   5.496   4.200   4.429
 7135SOL     OW22303   0.908   2.301   4.757
 7135SOL    HW122304   0.834   2.355   4.717
 7135SOL    HW222305   0.996   2.334   4.722
 7136SOL     OW22306   2.084   1.682   0.117
 7136SOL    HW122307   2.030   1.599   0.106
 7136SOL    HW222308   2.181   1.658   0.123
 7137SOL     OW22309   4.218   0.659   4.392
 7137SOL    HW122310   4.161   0.683   4.471
 7137SOL    HW222311   4.162   0.660   4.309
 7138SOL     OW22312   2.191   4.193   0.839
 7138SOL    HW122313   2.185   4.288   0.868
 7138SOL    HW222314   2.209   4.189   0.740
 7139SOL     OW22315   3.646   2.329   1.121
 7139SOL    HW122316   3.616   2.337   1.216
 7139SOL    HW222317   3.746   2.328   1.118
 7140SOL     OW22318   6.299   3.744   5.027
 7140SOL    HW122319   6.356   3.721   5.107
 7140SOL    HW222320   6.330   3.831   4.988
 7141SOL     OW22321   2.824   6.560   0.349
 7141SOL    HW122322   2.893   6.598   0.288
 7141SOL    HW222323   2.762   6.632   0.380
 7142SOL     OW22324   3.987   5.720   4.152
 7142SOL    HW122325   4.021   5.807   4.188
 7142SOL    HW222326   3.943   5.736   4.064
 7143SOL     OW22327   1.966   3.752   5.003
 7143SOL    HW122328   1.951   3.659   5.036
 7143SOL    HW222329   2.050   3.789   5.045
 7144SOL     OW22330   0.786   2.560   3.733
 7144SOL    HW122331   0.745   2.602   3.814
 7144SOL    HW222332   0.720   2.564   3.658
 7145SOL     OW22333   4.437   0.027   0.063
 7145SOL    HW122334   4.378   0.096   0.105
 7145SOL    HW222335   4.397   6.963   0.076
 7146SOL     OW22336   3.143   5.235   0.371
 7146SOL    HW122337   3.043   5.241   0.366
 7146SOL    HW222338   3.179   5.208   0.282
 7147SOL     OW22339   0.204   0.685   3.487
 7147SOL    HW122340   0.234   0.590   3.479
 7147SOL    HW222341   0.245   0.726   3.569
 7148SOL     OW22342   1.177   0.770   1.566
 7148SOL    HW122343   1.213   0.860   1.539
 7148SOL    HW222344   1.154   0.771   1.663
 7149SOL     OW22345   6.370   1.544   3.339
 7149SOL    HW122346   6.391   1.547   3.241
 7149SOL    HW222347   6.392   1.633   3.380
 7150SOL     OW22348   6.486   3.120   0.285
 7150SOL    HW122349   6.519   3.027   0.267
 7150SOL    HW222350   6.554   3.168   0.341
 7151SOL     OW22351   2.639   6.085   1.809
 7151SOL    HW122352   2.703   6.029   1.756
 7151SOL    HW222353   2.574   6.129   1.746
 7152SOL     OW22354   1.478   2.662   3.832
 7152SOL    HW122355   1.439   2.575   3.804
 7152SOL    HW222356   1.422   2.702   3.904
 7153SOL     OW22357   3.636   1.301   3.929
 7153SOL    HW122358   3.712   1.290   3.993
 7153SOL    HW222359   3.639   1.228   3.860
 7154SOL     OW22360   4.898   5.766   4.178
 7154SOL    HW122361   4.977   5.767   4.240
 7154SOL    HW222362   4.838   5.691   4.202
 7155SOL     OW22363   2.812   7.019   1.069
 7155SOL    HW122364   2.824   0.056   1.145
 7155SOL    HW222365   2.715   7.000   1.057
 7156SOL     OW22366   0.146   5.987   5.008
 7156SOL    HW122367   0.050   5.991   4.980
 7156SOL    HW222368   0.200   6.050   4.951
 7157SOL     OW22369   4.669   4.655   1.378
 7157SOL    HW122370   4.574   4.661   1.347
 7157SOL    HW222371   4.673   4.672   1.476
 7158SOL     OW22372   6.442   6.533   3.917
 7158SOL    HW122373   6.411   6.457   3.860
 7158SOL    HW222374   6.380   6.546   3.994
 7159SOL     OW22375   0.940   5.303   0.333
 7159SOL    HW122376   0.978   5.223   0.287
 7159SOL    HW222377   1.012   5.370   0.349
 7160SOL     OW22378   5.434   0.307   1.903
 7160SOL    HW122379   5.465   0.220   1.866
 7160SOL    HW222380   5.335   0.314   1.894
 7161SOL     OW22381   3.486   3.225   3.904
 7161SOL    HW122382   3.514   3.300   3.964
 7161SOL    HW222383   3.493   3.254   3.809
 7162SOL     OW22384   3.315   4.977   3.331
 7162SOL    HW122385   3.370   4.925   3.396
 7162SOL    HW222386   3.368   4.995   3.248
 7163SOL     OW22387   2.565   0.595   2.945
 7163SOL    HW122388   2.604   0.622   2.857
 7163SOL    HW222389   2.638   0.562   3.005
 7164SOL     OW22390   2.353   1.124   3.351
 7164SOL    HW122391   2.348   1.146   3.253
 7164SOL    HW222392   2.286   1.054   3.373
 7165SOL     OW22393   5.191   1.194   1.198
 7165SOL    HW122394   5.144   1.282   1.194
 7165SOL    HW222395   5.140   1.126   1.145
 7166SOL     OW22396   4.878   4.801   1.269
 7166SOL    HW122397   4.793   4.748   1.270
 7166SOL    HW222398   4.892   4.843   1.359
 7167SOL     OW22399   4.922   3.056   4.930
 7167SOL    HW122400   4.964   3.139   4.895
 7167SOL    HW222401   4.948   3.043   5.026
 7168SOL     OW22402   0.923   0.494   3.722
 7168SOL    HW122403   0.922   0.499   3.622
 7168SOL    HW222404   0.901   0.583   3.760
 7169SOL     OW22405   1.743   2.266   5.418
 7169SOL    HW122406   1.720   2.330   5.490
 7169SOL    HW222407   1.708   2.175   5.441
 7170SOL     OW22408   6.561   4.769   4.073
 7170SOL    HW122409   6.490   4.734   4.135
 7170SOL    HW222410   6.642   4.712   4.079
 7171SOL     OW22411   4.130   3.181   5.401
 7171SOL    HW122412   4.066   3.236   5.454
 7171SOL    HW222413   4.182   3.240   5.340
 7172SOL     OW22414   1.346   0.333   0.373
 7172SOL    HW122415   1.352   0.403   0.444
 7172SOL    HW222416   1.301   0.370   0.292
 7173SOL     OW22417   6.896   6.005   5.979
 7173SOL    HW122418   6.918   6.058   5.897
 7173SOL    HW222419   6.819   5.945   5.960
 7174SOL     OW22420   1.567   5.311   0.581
 7174SOL    HW122421   1.541   5.403   0.612
 7174SOL    HW222422   1.509   5.243   0.625
 7175SOL     OW22423   6.546   4.171   6.037
 7175SOL    HW122424   6.593   4.258   6.052
 7175SOL    HW222425   6.577   4.105   6.105
 7176SOL     OW22426   5.921   3.901   1.434
 7176SOL    HW122427   5.834   3.874   1.476
 7176SOL    HW222428   5.945   3.993   1.464
 7177SOL     OW22429   0.449   6.252   2.291
 7177SOL    HW122430   0.500   6.285   2.212
 7177SOL    HW222431   0.498   6.175   2.332
 7178SOL     OW22432   0.930   2.435   6.344
 7178SOL    HW122433   0.881   2.519   6.323
 7178SOL    HW222434   0.968   2.397   6.260
 7179SOL     OW22435   2.911   3.488   6.111
 7179SOL    HW122436   2.937   3.445   6.198
 7179SOL    HW222437   2.846   3.429   6.063
 7180SOL     OW22438   0.135   6.215   2.004
 7180SOL    HW122439   0.224   6.209   1.958
 7180SOL    HW222440   0.148   6.242   2.099
 7181SOL     OW22441   5.039   0.754   1.455
 7181SOL    HW122442   5.008   0.695   1.381
 7181SOL    HW222443   5.074   0.840   1.417
 7182SOL     OW22444   2.964   4.229   5.821
 7182SOL    HW122445   2.934   4.197   5.911
 7182SOL    HW222446   2.915   4.178   5.750
 7183SOL     OW22447   1.121   5.409   2.510
 7183SOL    HW122448   1.071   5.446   2.588
 7183SOL    HW222449   1.077   5.439   2.425
 7184SOL     OW22450   2.405   6.622   3.497
 7184SOL    HW122451   2.456   6.693   3.545
 7184SOL    HW222452   2.468   6.550   3.468
 7185SOL     OW22453   4.761   2.555   6.806
 7185SOL    HW122454   4.661   2.563   6.802
 7185SOL    HW222455   4.800   2.591   6.721
 7186SOL     OW22456   0.804   6.877   4.681
 7186SOL    HW122457   0.734   6.878   4.752
 7186SOL    HW222458   0.874   6.810   4.704
 7187SOL     OW22459   2.058   4.519   1.401
 7187SOL    HW122460   1.984   4.455   1.379
 7187SOL    HW222461   2.096   4.556   1.316
 7188SOL     OW22462   5.525   1.363   1.501
 7188SOL    HW122463   5.510   1.460   1.518
 7188SOL    HW222464   5.573   1.322   1.579
 7189SOL     OW22465   6.165   1.127   5.070
 7189SOL    HW122466   6.231   1.201   5.055
 7189SOL    HW222467   6.076   1.156   5.035
 7190SOL     OW22468   4.597   4.778   3.490
 7190SOL    HW122469   4.669   4.712   3.509
 7190SOL    HW222470   4.514   4.730   3.463
 7191SOL     OW22471   1.888   3.277   2.006
 7191SOL    HW122472   1.936   3.340   1.945
 7191SOL    HW222473   1.809   3.324   2.047
 7192SOL     OW22474   3.107   4.658   5.803
 7192SOL    HW122475   3.066   4.639   5.714
 7192SOL    HW222476   3.120   4.756   5.814
 7193SOL     OW22477   4.086   2.255   3.766
 7193SOL    HW122478   4.072   2.205   3.680
 7193SOL    HW222479   4.007   2.244   3.825
 7194SOL     OW22480   2.547   1.705   2.255
 7194SOL    HW122481   2.499   1.688   2.341
 7194SOL    HW222482   2.487   1.757   2.193
 7195SOL     OW22483   0.927   5.551   1.270
 7195SOL    HW122484   0.999   5.520   1.208
 7195SOL    HW222485   0.839   5.550   1.222
 7196SOL     OW22486   3.380   3.295   2.181
 7196SOL    HW122487   3.451   3.276   2.249
 7196SOL    HW222488   3.336   3.383   2.201
 7197SOL     OW22489   7.008   1.811   5.837
 7197SOL    HW122490   6.942   1.811   5.913
 7197SOL    HW222491   0.016   1.904   5.824
 7198SOL     OW22492   1.199   6.380   6.982
 7198SOL    HW122493   1.270   6.429   0.005
 7198SOL    HW222494   1.236   6.292   6.951
 7199SOL     OW22495   6.870   6.580   3.123
 7199SOL    HW122496   6.883   6.511   3.194
 7199SOL    HW222497   6.782   6.565   3.079
 7200SOL     OW22498   1.983   1.325   1.221
 7200SOL    HW122499   1.947   1.293   1.133
 7200SOL    HW222500   2.080   1.347   1.211
 7201SOL     OW22501   2.200   4.441   3.747
 7201SOL    HW122502   2.149   4.478   3.670
 7201SOL    HW222503   2.268   4.375   3.714
 7202SOL     OW22504   3.904   0.950   6.546
 7202SOL    HW122505   3.867   0.857   6.546
 7202SOL    HW222506   3.842   1.011   6.596
 7203SOL     OW22507   5.360   0.935   7.003
 7203SOL    HW122508   5.330   1.001   0.045
 7203SOL    HW222509   5.357   0.978   6.912
 7204SOL     OW22510   6.383   1.578   3.058
 7204SOL    HW122511   6.379   1.672   3.024
 7204SOL    HW222512   6.476   1.543   3.047
 7205SOL     OW22513   2.023   4.730   2.333
 7205SOL    HW122514   2.034   4.636   2.365
 7205SOL    HW222515   1.930   4.742   2.299
 7206SOL     OW22516   6.290   0.971   1.572
 7206SOL    HW122517   6.230   0.967   1.493
 7206SOL    HW222518   6.320   1.065   1.587
 7207SOL     OW22519   3.668   6.900   1.943
 7207SOL    HW122520   3.608   6.972   1.908
 7207SOL    HW222521   3.724   6.937   2.018
 7208SOL     OW22522   3.285   0.567   5.683
 7208SOL    HW122523   3.325   0.477   5.697
 7208SOL    HW222524   3.186   0.562   5.692
 7209SOL     OW22525   4.069   3.281   4.899
 7209SOL    HW122526   4.148   3.333   4.932
 7209SOL    HW222527   4.027   3.231   4.975
 7210SOL     OW22528   4.338   0.886   4.044
 7210SOL    HW122529   4.400   0.961   4.067
 7210SOL    HW222530   4.386   0.799   4.054
 7211SOL     OW22531   1.668   5.402   3.134
 7211SOL    HW122532   1.652   5.473   3.202
 7211SOL    HW222533   1.696   5.317   3.180
 7212SOL     OW22534   5.891   6.281   4.189
 7212SOL    HW122535   5.857   6.210   4.127
 7212SOL    HW222536   5.856   6.370   4.161
 7213SOL     OW22537   5.541   1.124   5.573
 7213SOL    HW122538   5.569   1.219   5.565
 7213SOL    HW222539   5.464   1.107   5.511
 7214SOL     OW22540   1.716   5.022   4.758
 7214SOL    HW122541   1.723   4.922   4.751
 7214SOL    HW222542   1.653   5.056   4.688
 7215SOL     OW22543   1.302   3.596   3.683
 7215SOL    HW122544   1.307   3.497   3.689
 7215SOL    HW222545   1.327   3.636   3.771
 7216SOL     OW22546   2.150   0.918   1.521
 7216SOL    HW122547   2.131   0.824   1.492
 7216SOL    HW222548   2.176   0.973   1.442
 7217SOL     OW22549   0.864   3.027   2.280
 7217SOL    HW122550   0.827   2.941   2.244
 7217SOL    HW222551   0.791   3.080   2.323
 7218SOL     OW22552   5.217   2.734   5.670
 7218SOL    HW122553   5.299   2.787   5.692
 7218SOL    HW222554   5.175   2.701   5.754
 7219SOL     OW22555   3.556   0.870   2.335
 7219SOL    HW122556   3.653   0.884   2.313
 7219SOL    HW222557   3.521   0.949   2.385
 7220SOL     OW22558   6.851   1.007   3.080
 7220SOL    HW122559   6.810   1.032   3.168
 7220SOL    HW222560   6.780   1.005   3.009
 7221SOL     OW22561   5.778   5.770   6.129
 7221SOL    HW122562   5.775   5.760   6.229
 7221SOL    HW222563   5.786   5.867   6.105
 7222SOL     OW22564   0.235   5.908   1.962
 7222SOL    HW122565   0.235   5.840   1.889
 7222SOL    HW222566   0.142   5.917   1.999
 7223SOL     OW22567   3.393   1.164   5.513
 7223SOL    HW122568   3.333   1.243   5.520
 7223SOL    HW222569   3.356   1.088   5.567
 7224SOL     OW22570   4.708   7.007   4.593
 7224SOL    HW122571   4.797   6.976   4.560
 7224SOL    HW222572   4.640   6.936   4.576
 7225SOL     OW22573   2.612   6.040   0.260
 7225SOL    HW122574   2.655   6.072   0.344
 7225SOL    HW222575   2.513   6.037   0.272
 7226SOL     OW22576   6.468   7.012   1.094
 7226SOL    HW122577   6.409   7.009   1.013
 7226SOL    HW222578   6.547   6.952   1.080
 7227SOL     OW22579   6.523   2.223   7.012
 7227SOL    HW122580   6.579   2.193   0.063
 7227SOL    HW222581   6.575   2.289   6.959
 7228SOL     OW22582   1.476   0.675   3.079
 7228SOL    HW122583   1.429   0.755   3.118
 7228SOL    HW222584   1.422   0.638   3.004
 7229SOL     OW22585   0.539   0.486   3.726
 7229SOL    HW122586   0.566   0.393   3.703
 7229SOL    HW222587   0.555   0.546   3.647
 7230SOL     OW22588   5.418   4.066   3.071
 7230SOL    HW122589   5.472   4.022   3.142
 7230SOL    HW222590   5.425   4.165   3.080
 7231SOL     OW22591   5.107   1.004   6.485
 7231SOL    HW122592   5.120   0.935   6.414
 7231SOL    HW222593   5.174   1.077   6.474
 7232SOL     OW22594   3.658   4.409   1.396
 7232SOL    HW122595   3.687   4.435   1.488
 7232SOL    HW222596   3.731   4.359   1.350
 7233SOL     OW22597   6.347   1.998   6.289
 7233SOL    HW122598   6.278   2.003   6.361
 7233SOL    HW222599   6.306   1.960   6.206
 7234SOL     OW22600   5.917   2.075   2.282
 7234SOL    HW122601   5.953   2.050   2.192
 7234SOL    HW222602   5.887   1.993   2.330
 7235SOL     OW22603   5.869   3.884   5.310
 7235SOL    HW122604   5.949   3.859   5.256
 7235SOL    HW222605   5.892   3.883   5.407
 7236SOL     OW22606   3.248   0.567   3.187
 7236SOL    HW122607   3.195   0.510   3.250
 7236SOL    HW222608   3.215   0.552   3.093
 7237SOL     OW22609   6.064   5.920   6.080
 7237SOL    HW122610   6.074   5.823   6.061
 7237SOL    HW222611   5.968   5.942   6.093
 7238SOL     OW22612   1.533   1.452   1.031
 7238SOL    HW122613   1.512   1.506   1.113
 7238SOL    HW222614   1.506   1.503   0.950
 7239SOL     OW22615   3.833   1.366   1.837
 7239SOL    HW122616   3.772   1.288   1.824
 7239SOL    HW222617   3.802   1.442   1.780
 7240SOL     OW22618   2.736   4.752   0.451
 7240SOL    HW122619   2.651   4.701   0.459
 7240SOL    HW222620   2.777   4.734   0.361
 7241SOL     OW22621   3.614   0.549   5.082
 7241SOL    HW122622   3.608   0.589   5.173
 7241SOL    HW222623   3.523   0.522   5.051
 7242SOL     OW22624   4.810   4.656   6.896
 7242SOL    HW122625   4.774   4.697   6.979
 7242SOL    HW222626   4.745   4.671   6.821
 7243SOL     OW22627   0.581   5.329   0.177
 7243SOL    HW122628   0.578   5.422   0.139
 7243SOL    HW222629   0.622   5.332   0.269
 7244SOL     OW22630   5.945   0.837   1.162
 7244SOL    HW122631   5.862   0.888   1.182
 7244SOL    HW222632   5.950   0.818   1.064
 7245SOL     OW22633   0.399   2.043   3.539
 7245SOL    HW122634   0.377   1.971   3.605
 7245SOL    HW222635   0.337   2.121   3.553
 7246SOL     OW22636   0.581   6.173   6.003
 7246SOL    HW122637   0.516   6.103   6.031
 7246SOL    HW222638   0.651   6.184   6.074
 7247SOL     OW22639   3.427   5.747   2.777
 7247SOL    HW122640   3.453   5.797   2.859
 7247SOL    HW222641   3.487   5.668   2.765
 7248SOL     OW22642   3.124   0.462   4.723
 7248SOL    HW122643   3.124   0.465   4.823
 7248SOL    HW222644   3.215   0.438   4.690
 7249SOL     OW22645   6.061   5.695   6.732
 7249SOL    HW122646   6.111   5.767   6.683
 7249SOL    HW222647   6.099   5.684   6.824
 7250SOL     OW22648   2.976   4.228   6.609
 7250SOL    HW122649   3.045   4.186   6.550
 7250SOL    HW222650   2.923   4.294   6.557
 7251SOL     OW22651   5.692   0.388   4.966
 7251SOL    HW122652   5.715   0.445   4.887
 7251SOL    HW222653   5.768   0.390   5.031
 7252SOL     OW22654   3.742   3.781   5.078
 7252SOL    HW122655   3.707   3.819   4.992
 7252SOL    HW222656   3.794   3.852   5.127
 7253SOL     OW22657   5.250   6.003   1.215
 7253SOL    HW122658   5.201   6.057   1.283
 7253SOL    HW222659   5.212   5.911   1.211
 7254SOL     OW22660   4.752   5.969   5.502
 7254SOL    HW122661   4.753   5.984   5.404
 7254SOL    HW222662   4.755   5.871   5.521
 7255SOL     OW22663   3.683   3.699   2.115
 7255SOL    HW122664   3.631   3.673   2.196
 7255SOL    HW222665   3.670   3.631   2.043
 7256SOL     OW22666   4.995   4.777   4.336
 7256SOL    HW122667   5.022   4.687   4.302
 7256SOL    HW222668   4.966   4.835   4.260
 7257SOL     OW22669   5.662   4.365   3.321
 7257SOL    HW122670   5.579   4.389   3.271
 7257SOL    HW222671   5.729   4.327   3.257
 7258SOL     OW22672   3.531   6.998   4.791
 7258SOL    HW122673   3.614   0.020   4.817
 7258SOL    HW222674   3.527   6.910   4.838
 7259SOL     OW22675   2.157   5.733   5.800
 7259SOL    HW122676   2.164   5.678   5.717
 7259SOL    HW222677   2.197   5.823   5.784
 7260SOL     OW22678   3.761   1.942   1.861
 7260SOL    HW122679   3.768   2.042   1.853
 7260SOL    HW222680   3.709   1.919   1.943
 7261SOL     OW22681   1.495   4.034   2.086
 7261SOL    HW122682   1.509   4.114   2.027
 7261SOL    HW222683   1.553   3.959   2.054
 7262SOL     OW22684   6.084   2.233   5.139
 7262SOL    HW122685   6.091   2.293   5.060
 7262SOL    HW222686   6.172   2.231   5.187
 7263SOL     OW22687   4.476   6.407   2.098
 7263SOL    HW122688   4.467   6.307   2.094
 7263SOL    HW222689   4.534   6.437   2.023
 7264SOL     OW22690   1.098   6.619   5.577
 7264SOL    HW122691   1.112   6.544   5.513
 7264SOL    HW222692   1.113   6.586   5.670
 7265SOL     OW22693   4.071   4.250   5.755
 7265SOL    HW122694   3.985   4.222   5.799
 7265SOL    HW222695   4.069   4.349   5.739
 7266SOL     OW22696   5.751   1.692   1.934
 7266SOL    HW122697   5.709   1.762   1.991
 7266SOL    HW222698   5.752   1.605   1.984
 7267SOL     OW22699   0.119   3.476   4.287
 7267SOL    HW122700   0.095   3.387   4.326
 7267SOL    HW222701   0.075   3.549   4.340
 7268SOL     OW22702   3.102   6.811   1.177
 7268SOL    HW122703   3.123   6.908   1.165
 7268SOL    HW222704   3.174   6.767   1.230
 7269SOL     OW22705   1.725   6.950   1.642
 7269SOL    HW122706   1.650   6.885   1.637
 7269SOL    HW222707   1.766   6.948   1.733
 7270SOL     OW22708   3.095   1.457   2.387
 7270SOL    HW122709   3.154   1.445   2.467
 7270SOL    HW222710   3.100   1.551   2.355
 7271SOL     OW22711   6.143   4.023   3.974
 7271SOL    HW122712   6.199   3.941   3.965
 7271SOL    HW222713   6.105   4.027   4.067
 7272SOL     OW22714   5.609   2.348   1.389
 7272SOL    HW122715   5.647   2.385   1.304
 7272SOL    HW222716   5.597   2.422   1.455
 7273SOL     OW22717   5.736   5.728   6.407
 7273SOL    HW122718   5.642   5.700   6.424
 7273SOL    HW222719   5.797   5.684   6.472
 7274SOL     OW22720   6.794   4.616   5.268
 7274SOL    HW122721   6.787   4.562   5.184
 7274SOL    HW222722   6.816   4.556   5.345
 7275SOL     OW22723   5.975   0.082   1.111
 7275SOL    HW122724   5.948   0.175   1.137
 7275SOL    HW222725   6.046   0.050   1.174
 7276SOL     OW22726   2.633   2.097   3.759
 7276SOL    HW122727   2.658   2.003   3.781
 7276SOL    HW222728   2.715   2.154   3.758
 7277SOL     OW22729   5.686   1.685   4.293
 7277SOL    HW122730   5.683   1.585   4.287
 7277SOL    HW222731   5.640   1.724   4.213
 7278SOL     OW22732   2.637   1.589   3.222
 7278SOL    HW122733   2.721   1.604   3.169
 7278SOL    HW222734   2.562   1.643   3.182
 7279SOL     OW22735   4.397   4.536   0.858
 7279SOL    HW122736   4.443   4.471   0.797
 7279SOL    HW222737   4.304   4.551   0.826
 7280SOL     OW22738   6.163   2.110   5.490
 7280SOL    HW122739   6.254   2.104   5.531
 7280SOL    HW222740   6.148   2.031   5.429
 7281SOL     OW22741   4.043   5.457   1.664
 7281SOL    HW122742   4.128   5.452   1.716
 7281SOL    HW222743   3.975   5.397   1.706
 7282SOL     OW22744   6.370   3.802   2.311
 7282SOL    HW122745   6.328   3.721   2.351
 7282SOL    HW222746   6.301   3.854   2.261
 7283SOL     OW22747   4.563   4.806   2.864
 7283SOL    HW122748   4.647   4.807   2.809
 7283SOL    HW222749   4.555   4.718   2.910
 7284SOL     OW22750   0.274   1.788   2.407
 7284SOL    HW122751   0.278   1.766   2.309
 7284SOL    HW222752   0.182   1.769   2.442
 7285SOL     OW22753   4.771   3.186   1.741
 7285SOL    HW122754   4.733   3.268   1.699
 7285SOL    HW222755   4.698   3.123   1.764
 7286SOL     OW22756   7.004   1.584   3.256
 7286SOL    HW122757   6.931   1.610   3.319
 7286SOL    HW222758   6.999   1.485   3.239
 7287SOL     OW22759   2.477   2.044   3.262
 7287SOL    HW122760   2.527   2.117   3.216
 7287SOL    HW222761   2.473   2.064   3.360
 7288SOL     OW22762   2.395   1.729   2.528
 7288SOL    HW122763   2.480   1.695   2.568
 7288SOL    HW222764   2.318   1.706   2.588
 7289SOL     OW22765   6.982   1.731   1.452
 7289SOL    HW122766   7.008   1.642   1.489
 7289SOL    HW222767   6.928   1.781   1.520
 7290SOL     OW22768   3.969   1.225   4.742
 7290SOL    HW122769   4.026   1.292   4.694
 7290SOL    HW222770   3.933   1.267   4.825
 7291SOL     OW22771   2.912   1.119   0.838
 7291SOL    HW122772   2.946   1.051   0.773
 7291SOL    HW222773   2.941   1.210   0.809
 7292SOL     OW22774   2.489   0.529   2.365
 7292SOL    HW122775   2.457   0.601   2.303
 7292SOL    HW222776   2.572   0.488   2.328
 7293SOL     OW22777   0.089   1.654   3.875
 7293SOL    HW122778   0.005   1.708   3.868
 7293SOL    HW222779   0.114   1.618   3.786
 7294SOL     OW22780   3.500   6.131   1.990
 7294SOL    HW122781   3.549   6.141   2.076
 7294SOL    HW222782   3.559   6.158   1.914
 7295SOL     OW22783   6.081   4.392   1.194
 7295SOL    HW122784   5.992   4.347   1.196
 7295SOL    HW222785   6.079   4.472   1.255
 7296SOL     OW22786   4.893   5.161   1.950
 7296SOL    HW122787   4.856   5.074   1.918
 7296SOL    HW222788   4.837   5.236   1.915
 7297SOL     OW22789   4.116   0.120   1.248
 7297SOL    HW122790   4.179   0.187   1.207
 7297SOL    HW222791   4.075   0.159   1.330
 7298SOL     OW22792   3.966   4.934   0.369
 7298SOL    HW122793   4.031   4.987   0.315
 7298SOL    HW222794   3.912   4.877   0.308
 7299SOL     OW22795   1.249   2.690   6.500
 7299SOL    HW122796   1.275   2.613   6.441
 7299SOL    HW222797   1.168   2.665   6.553
 7300SOL     OW22798   0.245   5.072   2.136
 7300SOL    HW122799   0.288   5.073   2.046
 7300SOL    HW222800   0.198   4.985   2.150
 7301SOL     OW22801   4.399   1.684   6.198
 7301SOL    HW122802   4.458   1.757   6.163
 7301SOL    HW222803   4.314   1.682   6.146
 7302SOL     OW22804   5.695   2.104   6.097
 7302SOL    HW122805   5.654   2.031   6.044
 7302SOL    HW222806   5.793   2.086   6.109
 7303SOL     OW22807   2.475   1.833   1.998
 7303SOL    HW122808   2.564   1.879   2.009
 7303SOL    HW222809   2.438   1.854   1.908
 7304SOL     OW22810   2.497   5.695   0.790
 7304SOL    HW122811   2.507   5.596   0.782
 7304SOL    HW222812   2.585   5.736   0.815
 7305SOL     OW22813   6.469   1.266   0.199
 7305SOL    HW122814   6.439   1.214   0.119
 7305SOL    HW222815   6.483   1.204   0.276
 7306SOL     OW22816   0.818   2.828   1.677
 7306SOL    HW122817   0.744   2.892   1.700
 7306SOL    HW222818   0.897   2.845   1.736
 7307SOL     OW22819   2.142   0.387   0.511
 7307SOL    HW122820   2.087   0.452   0.564
 7307SOL    HW222821   2.138   0.297   0.554
 7308SOL     OW22822   4.481   1.298   2.728
 7308SOL    HW122823   4.532   1.316   2.644
 7308SOL    HW222824   4.391   1.263   2.704
 7309SOL     OW22825   2.629   4.913   3.620
 7309SOL    HW122826   2.560   4.912   3.548
 7309SOL    HW222827   2.589   4.955   3.702
 7310SOL     OW22828   2.488   3.085   5.997
 7310SOL    HW122829   2.411   3.022   6.002
 7310SOL    HW222830   2.552   3.066   6.072
 7311SOL     OW22831   0.510   6.274   6.510
 7311SOL    HW122832   0.567   6.195   6.488
 7311SOL    HW222833   0.431   6.276   6.449
 7312SOL     OW22834   6.869   2.268   3.832
 7312SOL    HW122835   6.802   2.222   3.890
 7312SOL    HW222836   6.902   2.350   3.878
 7313SOL     OW22837   2.625   0.840   2.545
 7313SOL    HW122838   2.578   0.927   2.537
 7313SOL    HW222839   2.701   0.837   2.480
 7314SOL     OW22840   0.557   4.839   5.952
 7314SOL    HW122841   0.570   4.774   6.026
 7314SOL    HW222842   0.514   4.922   5.987
 7315SOL     OW22843   2.091   4.878   2.582
 7315SOL    HW122844   2.020   4.879   2.653
 7315SOL    HW222845   2.049   4.880   2.492
 7316SOL     OW22846   3.500   2.001   1.235
 7316SOL    HW122847   3.584   2.055   1.238
 7316SOL    HW222848   3.519   1.912   1.194
 7317SOL     OW22849   3.992   2.019   0.428
 7317SOL    HW122850   4.051   1.990   0.503
 7317SOL    HW222851   3.987   1.948   0.359
 7318SOL     OW22852   5.675   6.129   0.524
 7318SOL    HW122853   5.582   6.145   0.492
 7318SOL    HW222854   5.722   6.216   0.536
 7319SOL     OW22855   5.698   6.006   6.349
 7319SOL    HW122856   5.624   6.038   6.409
 7319SOL    HW222857   5.712   5.908   6.365
 7320SOL     OW22858   0.536   2.298   1.295
 7320SOL    HW122859   0.532   2.390   1.256
 7320SOL    HW222860   0.485   2.235   1.236
 7321SOL     OW22861   1.134   1.348   6.577
 7321SOL    HW122862   1.077   1.423   6.544
 7321SOL    HW222863   1.079   1.288   6.635
 7322SOL     OW22864   1.111   3.416   3.384
 7322SOL    HW122865   1.082   3.505   3.418
 7322SOL    HW222866   1.207   3.421   3.356
 7323SOL     OW22867   0.874   2.785   0.812
 7323SOL    HW122868   0.958   2.787   0.759
 7323SOL    HW222869   0.894   2.762   0.907
 7324SOL     OW22870   5.524   4.220   3.988
 7324SOL    HW122871   5.541   4.122   3.998
 7324SOL    HW222872   5.477   4.237   3.901
 7325SOL     OW22873   4.240   1.243   5.898
 7325SOL    HW122874   4.219   1.252   5.996
 7325SOL    HW222875   4.158   1.211   5.849
 7326SOL     OW22876   3.842   0.852   0.648
 7326SOL    HW122877   3.850   0.877   0.744
 7326SOL    HW222878   3.749   0.822   0.628
 7327SOL     OW22879   1.527   4.447   3.138
 7327SOL    HW122880   1.521   4.478   3.043
 7327SOL    HW222881   1.567   4.356   3.140
 7328SOL     OW22882   4.603   5.043   4.571
 7328SOL    HW122883   4.695   5.010   4.550
 7328SOL    HW222884   4.598   5.072   4.667
 7329SOL     OW22885   3.022   3.435   1.113
 7329SOL    HW122886   3.093   3.449   1.181
 7329SOL    HW222887   2.955   3.509   1.118
 7330SOL     OW22888   2.594   3.266   1.672
 7330SOL    HW122889   2.572   3.169   1.680
 7330SOL    HW222890   2.623   3.286   1.578
 7331SOL     OW22891   5.441   2.870   2.311
 7331SOL    HW122892   5.418   2.964   2.284
 7331SOL    HW222893   5.513   2.872   2.380
 7332SOL     OW22894   2.994   6.341   6.206
 7332SOL    HW122895   2.984   6.255   6.158
 7332SOL    HW222896   2.931   6.409   6.167
 7333SOL     OW22897   0.741   1.183   1.144
 7333SOL    HW122898   0.825   1.136   1.170
 7333SOL    HW222899   0.687   1.204   1.225
 7334SOL     OW22900   3.000   6.173   4.118
 7334SOL    HW122901   2.941   6.093   4.131
 7334SOL    HW222902   2.945   6.256   4.122
 7335SOL     OW22903   6.908   3.583   2.195
 7335SOL    HW122904   6.998   3.623   2.215
 7335SOL    HW222905   6.920   3.497   2.146
 7336SOL     OW22906   2.285   6.469   2.209
 7336SOL    HW122907   2.365   6.455   2.150
 7336SOL    HW222908   2.216   6.523   2.159
 7337SOL     OW22909   2.355   1.432   3.325
 7337SOL    HW122910   2.432   1.485   3.290
 7337SOL    HW222911   2.382   1.336   3.332
 7338SOL     OW22912   5.187   3.645   1.189
 7338SOL    HW122913   5.104   3.700   1.190
 7338SOL    HW222914   5.231   3.653   1.099
 7339SOL     OW22915   0.204   6.152   4.803
 7339SOL    HW122916   0.179   6.111   4.715
 7339SOL    HW222917   0.172   6.247   4.805
 7340SOL     OW22918   2.835   6.986   0.542
 7340SOL    HW122919   2.778   7.020   0.616
 7340SOL    HW222920   2.921   6.952   0.580
 7341SOL     OW22921   6.598   5.354   4.486
 7341SOL    HW122922   6.537   5.282   4.518
 7341SOL    HW222923   6.565   5.390   4.398
 7342SOL     OW22924   1.260   5.052   1.034
 7342SOL    HW122925   1.167   5.025   1.057
 7342SOL    HW222926   1.325   4.993   1.083
 7343SOL     OW22927   5.199   2.805   2.454
 7343SOL    HW122928   5.124   2.783   2.392
 7343SOL    HW222929   5.284   2.812   2.403
 7344SOL     OW22930   2.744   1.275   6.932
 7344SOL    HW122931   2.706   1.237   7.016
 7344SOL    HW222932   2.698   1.235   6.853
 7345SOL     OW22933   3.649   5.404   0.840
 7345SOL    HW122934   3.673   5.385   0.745
 7345SOL    HW222935   3.587   5.482   0.844
 7346SOL     OW22936   3.848   4.766   1.790
 7346SOL    HW122937   3.755   4.739   1.815
 7346SOL    HW222938   3.897   4.796   1.872
 7347SOL     OW22939   6.622   2.774   2.588
 7347SOL    HW122940   6.700   2.825   2.624
 7347SOL    HW222941   6.564   2.744   2.664
 7348SOL     OW22942   1.024   2.159   4.956
 7348SOL    HW122943   0.980   2.215   4.885
 7348SOL    HW222944   1.012   2.203   5.045
 7349SOL     OW22945   3.930   1.239   0.897
 7349SOL    HW122946   3.842   1.285   0.898
 7349SOL    HW222947   3.941   1.190   0.810
 7350SOL     OW22948   2.339   1.212   3.085
 7350SOL    HW122949   2.239   1.213   3.081
 7350SOL    HW222950   2.374   1.296   3.044
 7351SOL     OW22951   4.404   4.541   6.805
 7351SOL    HW122952   4.335   4.476   6.835
 7351SOL    HW222953   4.437   4.594   6.883
 7352SOL     OW22954   6.616   1.345   3.631
 7352SOL    HW122955   6.519   1.365   3.619
 7352SOL    HW222956   6.657   1.321   3.543
 7353SOL     OW22957   4.755   2.356   4.872
 7353SOL    HW122958   4.803   2.412   4.806
 7353SOL    HW222959   4.666   2.328   4.834
 7354SOL     OW22960   6.224   4.371   5.208
 7354SOL    HW122961   6.324   4.367   5.197
 7354SOL    HW222962   6.184   4.423   5.133
 7355SOL     OW22963   1.313   4.317   2.135
 7355SOL    HW122964   1.261   4.402   2.143
 7355SOL    HW222965   1.403   4.336   2.095
 7356SOL     OW22966   6.208   1.361   5.343
 7356SOL    HW122967   6.112   1.389   5.338
 7356SOL    HW222968   6.217   1.267   5.313
 7357SOL     OW22969   6.733   1.602   0.579
 7357SOL    HW122970   6.641   1.607   0.540
 7357SOL    HW222971   6.792   1.551   0.516
 7358SOL     OW22972   2.922   0.806   3.806
 7358SOL    HW122973   2.885   0.887   3.760
 7358SOL    HW222974   2.949   0.738   3.737
 7359SOL     OW22975   3.531   3.181   3.087
 7359SOL    HW122976   3.441   3.139   3.103
 7359SOL    HW222977   3.581   3.126   3.020
 7360SOL     OW22978   0.275   2.858   5.966
 7360SOL    HW122979   0.321   2.875   6.054
 7360SOL    HW222980   0.344   2.842   5.895
 7361SOL     OW22981   5.358   6.823   2.225
 7361SOL    HW122982   5.367   6.893   2.295
 7361SOL    HW222983   5.339   6.867   2.137
 7362SOL     OW22984   2.105   6.736   5.687
 7362SOL    HW122985   2.095   6.824   5.640
 7362SOL    HW222986   2.053   6.737   5.772
 7363SOL     OW22987   4.919   2.676   6.604
 7363SOL    HW122988   4.956   2.584   6.590
 7363SOL    HW222989   4.904   2.720   6.515
 7364SOL     OW22990   5.456   0.973   1.808
 7364SOL    HW122991   5.495   1.005   1.895
 7364SOL    HW222992   5.505   0.891   1.778
 7365SOL     OW22993   3.369   0.696   2.415
 7365SOL    HW122994   3.328   0.629   2.352
 7365SOL    HW222995   3.432   0.755   2.364
 7366SOL     OW22996   1.000   5.321   6.925
 7366SOL    HW122997   1.041   5.268   6.850
 7366SOL    HW222998   0.948   5.260   6.984
 7367SOL     OW22999   4.884   3.566   6.842
 7367SOL    HW123000   4.927   3.597   6.927
 7367SOL    HW223001   4.884   3.640   6.775
 7368SOL     OW23002   3.414   3.703   3.548
 7368SOL    HW123003   3.318   3.718   3.521
 7368SOL    HW223004   3.419   3.697   3.647
 7369SOL     OW23005   4.556   2.560   0.332
 7369SOL    HW123006   4.515   2.584   0.245
 7369SOL    HW223007   4.655   2.550   0.321
 7370SOL     OW23008   1.679   6.566   1.088
 7370SOL    HW123009   1.721   6.544   1.000
 7370SOL    HW223010   1.630   6.486   1.122
 7371SOL     OW23011   2.386   5.010   4.640
 7371SOL    HW123012   2.474   5.017   4.593
 7371SOL    HW223013   2.378   4.920   4.682
 7372SOL     OW23014   3.172   6.855   6.175
 7372SOL    HW123015   3.162   6.765   6.133
 7372SOL    HW223016   3.162   6.848   6.274
 7373SOL     OW23017   3.967   0.682   1.873
 7373SOL    HW123018   4.060   0.702   1.845
 7373SOL    HW223019   3.908   0.760   1.853
 7374SOL     OW23020   1.844   3.545   6.010
 7374SOL    HW123021   1.798   3.464   6.046
 7374SOL    HW223022   1.920   3.518   5.951
 7375SOL     OW23023   0.967   6.920   2.950
 7375SOL    HW123024   1.016   7.006   2.962
 7375SOL    HW223025   0.939   6.885   3.040
 7376SOL     OW23026   2.931   4.048   5.621
 7376SOL    HW123027   2.941   3.949   5.608
 7376SOL    HW223028   2.879   4.086   5.545
 7377SOL     OW23029   4.587   4.847   1.096
 7377SOL    HW123030   4.641   4.774   1.055
 7377SOL    HW223031   4.595   4.930   1.039
 7378SOL     OW23032   6.830   2.292   5.586
 7378SOL    HW123033   6.902   2.354   5.555
 7378SOL    HW223034   6.741   2.326   5.556
 7379SOL     OW23035   3.551   1.278   1.583
 7379SOL    HW123036   3.608   1.224   1.520
 7379SOL    HW223037   3.563   1.375   1.564
 7380SOL     OW23038   6.878   2.840   5.247
 7380SOL    HW123039   6.944   2.769   5.223
 7380SOL    HW223040   6.926   2.921   5.279
 7381SOL     OW23041   5.723   2.293   0.467
 7381SOL    HW123042   5.753   2.357   0.537
 7381SOL    HW223043   5.792   2.288   0.394
 7382SOL     OW23044   6.893   6.226   3.668
 7382SOL    HW123045   6.934   6.317   3.658
 7382SOL    HW223046   6.896   6.198   3.764
 7383SOL     OW23047   6.635   6.318   3.694
 7383SOL    HW123048   6.724   6.281   3.669
 7383SOL    HW223049   6.610   6.285   3.785
 7384SOL     OW23050   5.974   1.393   2.353
 7384SOL    HW123051   5.962   1.311   2.409
 7384SOL    HW223052   5.897   1.455   2.368
 7385SOL     OW23053   4.650   0.367   1.946
 7385SOL    HW123054   4.623   0.272   1.961
 7385SOL    HW223055   4.700   0.374   1.860
 7386SOL     OW23056   0.119   2.598   5.775
 7386SOL    HW123057   0.105   2.693   5.801
 7386SOL    HW223058   0.031   2.556   5.753
 7387SOL     OW23059   3.999   5.512   3.239
 7387SOL    HW123060   3.913   5.563   3.241
 7387SOL    HW223061   4.076   5.576   3.244
 7388SOL     OW23062   6.636   4.957   4.629
 7388SOL    HW123063   6.628   4.956   4.729
 7388SOL    HW223064   6.569   4.895   4.590
 7389SOL     OW23065   0.865   3.860   5.771
 7389SOL    HW123066   0.870   3.882   5.673
 7389SOL    HW223067   0.798   3.920   5.814
 7390SOL     OW23068   2.299   6.578   5.229
 7390SOL    HW123069   2.272   6.485   5.255
 7390SOL    HW223070   2.275   6.594   5.133
 7391SOL     OW23071   6.891   3.041   0.719
 7391SOL    HW123072   6.801   3.027   0.677
 7391SOL    HW223073   6.941   2.955   0.718
 7392SOL     OW23074   2.601   4.612   3.160
 7392SOL    HW123075   2.650   4.610   3.248
 7392SOL    HW223076   2.535   4.536   3.158
 7393SOL     OW23077   0.719   3.518   1.487
 7393SOL    HW123078   0.664   3.532   1.570
 7393SOL    HW223079   0.809   3.561   1.500
 7394SOL     OW23080   2.811   3.602   6.332
 7394SOL    HW123081   2.724   3.651   6.331
 7394SOL    HW223082   2.835   3.577   6.238
 7395SOL     OW23083   1.186   6.342   0.307
 7395SOL    HW123084   1.186   6.284   0.226
 7395SOL    HW223085   1.188   6.285   0.390
 7396SOL     OW23086   0.877   0.050   0.367
 7396SOL    HW123087   0.828   7.005   0.416
 7396SOL    HW223088   0.846   0.140   0.400
 7397SOL     OW23089   6.753   5.329   4.719
 7397SOL    HW123090   6.693   5.384   4.777
 7397SOL    HW223091   6.705   5.305   4.634
 7398SOL     OW23092   4.007   5.926   3.331
 7398SOL    HW123093   3.909   5.939   3.345
 7398SOL    HW223094   4.038   5.983   3.256
 7399SOL     OW23095   4.854   3.963   5.040
 7399SOL    HW123096   4.852   4.041   4.978
 7399SOL    HW223097   4.839   3.879   4.988
 7400SOL     OW23098   2.155   5.247   6.843
 7400SOL    HW123099   2.236   5.271   6.897
 7400SOL    HW223100   2.164   5.285   6.751
 7401SOL     OW23101   6.282   1.783   4.295
 7401SOL    HW123102   6.357   1.801   4.231
 7401SOL    HW223103   6.261   1.685   4.294
 7402SOL     OW23104   2.159   6.814   3.334
 7402SOL    HW123105   2.146   6.738   3.398
 7402SOL    HW223106   2.231   6.874   3.368
 7403SOL     OW23107   1.794   3.604   1.552
 7403SOL    HW123108   1.766   3.531   1.613
 7403SOL    HW223109   1.768   3.582   1.458
 7404SOL     OW23110   1.383   1.331   2.504
 7404SOL    HW123111   1.289   1.360   2.484
 7404SOL    HW223112   1.382   1.239   2.542
 7405SOL     OW23113   2.871   4.800   6.135
 7405SOL    HW123114   2.814   4.825   6.057
 7405SOL    HW223115   2.866   4.701   6.149
 7406SOL     OW23116   0.561   5.493   1.652
 7406SOL    HW123117   0.603   5.529   1.569
 7406SOL    HW223118   0.487   5.554   1.680
 7407SOL     OW23119   1.885   0.326   6.438
 7407SOL    HW123120   1.805   0.377   6.407
 7407SOL    HW223121   1.862   0.273   6.520
 7408SOL     OW23122   0.756   3.658   5.531
 7408SOL    HW123123   0.665   3.697   5.544
 7408SOL    HW223124   0.823   3.732   5.527
 7409SOL     OW23125   2.975   5.853   5.968
 7409SOL    HW123126   2.993   5.812   5.879
 7409SOL    HW223127   2.877   5.846   5.989
 7410SOL     OW23128   5.744   5.517   0.656
 7410SOL    HW123129   5.655   5.554   0.681
 7410SOL    HW223130   5.800   5.589   0.615
 7411SOL     OW23131   4.754   5.713   5.591
 7411SOL    HW123132   4.755   5.622   5.551
 7411SOL    HW223133   4.704   5.711   5.678
 7412SOL     OW23134   1.373   2.367   0.200
 7412SOL    HW123135   1.310   2.388   0.125
 7412SOL    HW223136   1.457   2.419   0.189
 7413SOL     OW23137   0.093   3.275   4.526
 7413SOL    HW123138   0.045   3.195   4.491
 7413SOL    HW223139   0.192   3.261   4.519
 7414SOL     OW23140   7.007   5.398   3.145
 7414SOL    HW123141   0.048   5.398   3.218
 7414SOL    HW223142   0.008   5.335   3.073
 7415SOL     OW23143   2.332   1.945   2.947
 7415SOL    HW123144   2.378   2.032   2.933
 7415SOL    HW223145   2.290   1.916   2.861
 7416SOL     OW23146   4.873   6.365   4.023
 7416SOL    HW123147   4.954   6.421   4.006
 7416SOL    HW223148   4.863   6.351   4.122
 7417SOL     OW23149   0.586   6.096   0.343
 7417SOL    HW123150   0.488   6.076   0.348
 7417SOL    HW223151   0.600   6.184   0.298
 7418SOL     OW23152   1.588   3.707   0.414
 7418SOL    HW123153   1.557   3.631   0.471
 7418SOL    HW223154   1.607   3.674   0.321
 7419SOL     OW23155   6.140   1.277   4.698
 7419SOL    HW123156   6.138   1.350   4.629
 7419SOL    HW223157   6.233   1.267   4.733
 7420SOL     OW23158   7.004   5.351   2.010
 7420SOL    HW123159   7.016   5.254   2.031
 7420SOL    HW223160   7.015   5.366   1.912
 7421SOL     OW23161   4.188   2.912   1.273
 7421SOL    HW123162   4.236   2.971   1.338
 7421SOL    HW223163   4.208   2.816   1.295
 7422SOL     OW23164   0.892   2.786   1.097
 7422SOL    HW123165   0.831   2.861   1.124
 7422SOL    HW223166   0.877   2.708   1.158
 7423SOL     OW23167   2.029   6.034   7.023
 7423SOL    HW123168   1.995   6.126   7.007
 7423SOL    HW223169   2.128   6.032   7.011
 7424SOL     OW23170   6.053   1.303   4.244
 7424SOL    HW123171   6.020   1.282   4.152
 7424SOL    HW223172   6.131   1.243   4.265
 7425SOL     OW23173   3.895   6.180   5.999
 7425SOL    HW123174   3.825   6.155   6.066
 7425SOL    HW223175   3.879   6.273   5.968
 7426SOL     OW23176   0.860   0.967   6.862
 7426SOL    HW123177   0.917   1.005   6.934
 7426SOL    HW223178   0.903   0.884   6.825
 7427SOL     OW23179   4.351   5.803   4.080
 7427SOL    HW123180   4.415   5.839   4.012
 7427SOL    HW223181   4.393   5.724   4.126
 7428SOL     OW23182   2.990   1.962   6.230
 7428SOL    HW123183   2.990   2.006   6.141
 7428SOL    HW223184   2.896   1.940   6.256
 7429SOL     OW23185   6.018   6.771   3.516
 7429SOL    HW123186   6.063   6.729   3.594
 7429SOL    HW223187   6.081   6.773   3.438
 7430SOL     OW23188   0.278   4.186   4.867
 7430SOL    HW123189   0.269   4.203   4.965
 7430SOL    HW223190   0.205   4.126   4.837
 7431SOL     OW23191   0.819   4.315   2.193
 7431SOL    HW123192   0.830   4.216   2.199
 7431SOL    HW223193   0.854   4.347   2.104
 7432SOL     OW23194   0.749   6.341   5.043
 7432SOL    HW123195   0.785   6.270   5.104
 7432SOL    HW223196   0.655   6.317   5.018
 7433SOL     OW23197   6.411   5.790   0.925
 7433SOL    HW123198   6.364   5.705   0.904
 7433SOL    HW223199   6.479   5.774   0.997
 7434SOL     OW23200   4.904   0.760   6.370
 7434SOL    HW123201   4.900   0.853   6.333
 7434SOL    HW223202   4.967   0.705   6.316
 7435SOL     OW23203   1.683   5.998   0.592
 7435SOL    HW123204   1.758   6.010   0.527
 7435SOL    HW223205   1.716   5.949   0.673
 7436SOL     OW23206   5.332   2.866   6.972
 7436SOL    HW123207   5.269   2.813   6.916
 7436SOL    HW223208   5.302   2.962   6.974
 7437SOL     OW23209   0.395   5.809   5.727
 7437SOL    HW123210   0.456   5.869   5.674
 7437SOL    HW223211   0.325   5.865   5.771
 7438SOL     OW23212   6.287   4.225   2.310
 7438SOL    HW123213   6.250   4.314   2.337
 7438SOL    HW223214   6.371   4.207   2.361
 7439SOL     OW23215   1.453   6.566   3.852
 7439SOL    HW123216   1.514   6.589   3.777
 7439SOL    HW223217   1.376   6.513   3.817
 7440SOL     OW23218   0.820   1.920   4.341
 7440SOL    HW123219   0.830   1.987   4.267
 7440SOL    HW223220   0.815   1.968   4.429
 7441SOL     OW23221   5.119   6.893   4.232
 7441SOL    HW123222   5.152   6.972   4.283
 7441SOL    HW223223   5.116   6.916   4.134
 7442SOL     OW23224   1.799   1.379   6.797
 7442SOL    HW123225   1.733   1.350   6.728
 7442SOL    HW223226   1.775   1.339   6.885
 7443SOL     OW23227   6.752   0.869   0.998
 7443SOL    HW123228   6.741   0.770   1.006
 7443SOL    HW223229   6.707   0.901   0.915
 7444SOL     OW23230   0.118   2.421   6.385
 7444SOL    HW123231   0.129   2.409   6.286
 7444SOL    HW223232   0.088   2.335   6.426
 7445SOL     OW23233   5.448   2.621   2.210
 7445SOL    HW123234   5.425   2.634   2.114
 7445SOL    HW223235   5.424   2.703   2.261
 7446SOL     OW23236   0.137   3.421   1.280
 7446SOL    HW123237   0.167   3.328   1.304
 7446SOL    HW223238   0.215   3.473   1.244
 7447SOL     OW23239   0.832   4.282   5.828
 7447SOL    HW123240   0.736   4.275   5.852
 7447SOL    HW223241   0.885   4.310   5.908
 7448SOL     OW23242   6.846   6.668   5.946
 7448SOL    HW123243   6.805   6.591   5.995
 7448SOL    HW223244   6.778   6.711   5.887
 7449SOL     OW23245   4.710   2.088   2.419
 7449SOL    HW123246   4.632   2.089   2.482
 7449SOL    HW223247   4.791   2.123   2.466
 7450SOL     OW23248   2.966   0.665   2.796
 7450SOL    HW123249   2.978   0.754   2.839
 7450SOL    HW223250   2.869   0.649   2.779
 7451SOL     OW23251   1.706   0.961   3.647
 7451SOL    HW123252   1.690   0.864   3.666
 7451SOL    HW223253   1.643   1.017   3.701
 7452SOL     OW23254   1.591   0.042   5.247
 7452SOL    HW123255   1.585   0.026   5.149
 7452SOL    HW223256   1.524   0.112   5.274
 7453SOL     OW23257   5.798   6.067   5.133
 7453SOL    HW123258   5.796   5.980   5.182
 7453SOL    HW223259   5.733   6.130   5.176
 7454SOL     OW23260   0.491   3.290   0.605
 7454SOL    HW123261   0.574   3.235   0.595
 7454SOL    HW223262   0.420   3.236   0.650
 7455SOL     OW23263   4.919   1.934   0.098
 7455SOL    HW123264   4.958   1.996   0.166
 7455SOL    HW223265   4.988   1.911   0.029
 7456SOL     OW23266   2.032   3.221   5.203
 7456SOL    HW123267   2.008   3.131   5.238
 7456SOL    HW223268   2.116   3.253   5.246
 7457SOL     OW23269   5.726   0.566   5.959
 7457SOL    HW123270   5.747   0.478   6.002
 7457SOL    HW223271   5.810   0.609   5.927
 7458SOL     OW23272   2.581   1.148   0.149
 7458SOL    HW123273   2.522   1.068   0.134
 7458SOL    HW223274   2.623   1.142   0.239
 7459SOL     OW23275   4.586   0.880   4.239
 7459SOL    HW123276   4.613   0.789   4.209
 7459SOL    HW223277   4.631   0.901   4.326
 7460SOL     OW23278   0.549   4.572   0.058
 7460SOL    HW123279   0.450   4.576   0.046
 7460SOL    HW223280   0.593   4.619   7.009
 7461SOL     OW23281   4.821   0.670   3.868
 7461SOL    HW123282   4.727   0.639   3.851
 7461SOL    HW223283   4.843   0.744   3.804
 7462SOL     OW23284   2.246   1.464   2.228
 7462SOL    HW123285   2.298   1.384   2.199
 7462SOL    HW223286   2.220   1.518   2.149
 7463SOL     OW23287   3.724   3.689   2.860
 7463SOL    HW123288   3.698   3.716   2.953
 7463SOL    HW223289   3.823   3.682   2.854
 7464SOL     OW23290   5.592   5.702   0.160
 7464SOL    HW123291   5.592   5.727   0.256
 7464SOL    HW223292   5.511   5.739   0.115
 7465SOL     OW23293   3.181   0.580   1.779
 7465SOL    HW123294   3.138   0.604   1.867
 7465SOL    HW223295   3.117   0.525   1.726
 7466SOL     OW23296   1.075   0.259   6.356
 7466SOL    HW123297   1.021   0.176   6.371
 7466SOL    HW223298   1.016   0.331   6.318
 7467SOL     OW23299   6.819   1.511   1.237
 7467SOL    HW123300   6.790   1.432   1.291
 7467SOL    HW223301   6.890   1.560   1.287
 7468SOL     OW23302   6.456   3.478   3.167
 7468SOL    HW123303   6.483   3.385   3.189
 7468SOL    HW223304   6.471   3.537   3.246
 7469SOL     OW23305   0.499   1.104   1.911
 7469SOL    HW123306   0.579   1.117   1.852
 7469SOL    HW223307   0.521   1.038   1.982
 7470SOL     OW23308   0.020   2.610   2.185
 7470SOL    HW123309   0.104   2.661   2.201
 7470SOL    HW223310   6.974   2.647   2.243
 7471SOL     OW23311   6.446   6.081   5.806
 7471SOL    HW123312   6.430   6.178   5.786
 7471SOL    HW223313   6.384   6.025   5.751
 7472SOL     OW23314   3.282   6.073   2.858
 7472SOL    HW123315   3.347   6.141   2.893
 7472SOL    HW223316   3.330   6.008   2.800
 7473SOL     OW23317   0.037   3.563   5.022
 7473SOL    HW123318   0.049   3.469   5.055
 7473SOL    HW223319   0.076   3.571   4.931
 7474SOL     OW23320   3.820   0.818   3.024
 7474SOL    HW123321   3.853   0.818   3.118
 7474SOL    HW223322   3.893   0.848   2.963
 7475SOL     OW23323   4.043   1.846   0.216
 7475SOL    HW123324   3.975   1.862   0.144
 7475SOL    HW223325   4.135   1.847   0.177
 7476SOL     OW23326   3.451   6.748   4.882
 7476SOL    HW123327   3.419   6.655   4.863
 7476SOL    HW223328   3.394   6.787   4.955
 7477SOL     OW23329   4.799   2.330   3.861
 7477SOL    HW123330   4.875   2.291   3.811
 7477SOL    HW223331   4.770   2.416   3.818
 7478SOL     OW23332   1.535   5.318   1.326
 7478SOL    HW123333   1.546   5.218   1.320
 7478SOL    HW223334   1.574   5.351   1.412
 7479SOL     OW23335   4.606   0.241   6.736
 7479SOL    HW123336   4.628   0.338   6.740
 7479SOL    HW223337   4.529   0.222   6.797
 7480SOL     OW23338   0.016   4.950   0.787
 7480SOL    HW123339   6.982   4.876   0.759
 7480SOL    HW223340   0.084   4.965   0.716
 7481SOL     OW23341   6.193   5.383   1.106
 7481SOL    HW123342   6.211   5.289   1.077
 7481SOL    HW223343   6.095   5.403   1.095
 7482SOL     OW23344   4.954   0.540   4.074
 7482SOL    HW123345   4.908   0.597   4.006
 7482SOL    HW223346   5.037   0.586   4.106
 7483SOL     OW23347   3.154   0.853   6.331
 7483SOL    HW123348   3.126   0.855   6.427
 7483SOL    HW223349   3.253   0.845   6.326
 7484SOL     OW23350   2.155   6.868   1.895
 7484SOL    HW123351   2.173   6.919   1.979
 7484SOL    HW223352   2.216   6.901   1.822
 7485SOL     OW23353   1.734   6.560   6.697
 7485SOL    HW123354   1.748   6.523   6.605
 7485SOL    HW223355   1.649   6.613   6.699
 7486SOL     OW23356   2.321   6.962   5.213
 7486SOL    HW123357   2.362   7.004   5.294
 7486SOL    HW223358   2.394   6.922   5.157
 7487SOL     OW23359   4.208   5.774   3.519
 7487SOL    HW123360   4.126   5.781   3.463
 7487SOL    HW223361   4.237   5.678   3.524
 7488SOL     OW23362   3.534   1.238   6.090
 7488SOL    HW123363   3.468   1.307   6.122
 7488SOL    HW223364   3.626   1.277   6.090
 7489SOL     OW23365   5.634   3.423   2.993
 7489SOL    HW123366   5.692   3.369   3.055
 7489SOL    HW223367   5.654   3.520   3.005
 7490SOL     OW23368   5.870   1.785   1.708
 7490SOL    HW123369   5.810   1.776   1.787
 7490SOL    HW223370   5.952   1.837   1.733
 7491SOL     OW23371   6.549   5.420   6.275
 7491SOL    HW123372   6.529   5.413   6.373
 7491SOL    HW223373   6.496   5.495   6.235
 7492SOL     OW23374   2.335   2.639   4.568
 7492SOL    HW123375   2.368   2.602   4.655
 7492SOL    HW223376   2.278   2.570   4.522
 7493SOL     OW23377   5.226   3.444   0.266
 7493SOL    HW123378   5.193   3.532   0.300
 7493SOL    HW223379   5.326   3.444   0.264
 7494SOL     OW23380   5.668   1.772   1.497
 7494SOL    HW123381   5.720   1.781   1.582
 7494SOL    HW223382   5.728   1.742   1.423
 7495SOL     OW23383   0.645   2.025   2.020
 7495SOL    HW123384   0.686   2.050   1.932
 7495SOL    HW223385   0.614   2.108   2.067
 7496SOL     OW23386   0.961   4.914   5.712
 7496SOL    HW123387   0.900   4.918   5.792
 7496SOL    HW223388   0.950   4.997   5.658
 7497SOL     OW23389   2.493   4.774   1.676
 7497SOL    HW123390   2.460   4.802   1.586
 7497SOL    HW223391   2.460   4.839   1.745
 7498SOL     OW23392   4.110   1.840   4.342
 7498SOL    HW123393   4.206   1.852   4.318
 7498SOL    HW223394   4.071   1.765   4.289
 7499SOL     OW23395   5.138   5.704   4.361
 7499SOL    HW123396   5.133   5.636   4.289
 7499SOL    HW223397   5.231   5.740   4.367
 7500SOL     OW23398   4.711   4.377   1.204
 7500SOL    HW123399   4.739   4.472   1.190
 7500SOL    HW223400   4.780   4.330   1.260
 7501SOL     OW23401   0.136   4.467   4.119
 7501SOL    HW123402   0.060   4.429   4.066
 7501SOL    HW223403   0.151   4.562   4.092
 7502SOL     OW23404   2.092   1.378   4.424
 7502SOL    HW123405   2.014   1.320   4.400
 7502SOL    HW223406   2.174   1.321   4.431
 7503SOL     OW23407   2.366   2.285   6.049
 7503SOL    HW123408   2.457   2.323   6.066
 7503SOL    HW223409   2.297   2.340   6.096
 7504SOL     OW23410   4.234   5.983   3.672
 7504SOL    HW123411   4.243   5.897   3.621
 7504SOL    HW223412   4.220   5.964   3.769
 7505SOL     OW23413   1.630   1.875   4.468
 7505SOL    HW123414   1.585   1.822   4.540
 7505SOL    HW223415   1.714   1.828   4.440
 7506SOL     OW23416   3.456   1.823   3.002
 7506SOL    HW123417   3.537   1.815   3.059
 7506SOL    HW223418   3.374   1.803   3.056
 7507SOL     OW23419   1.444   6.130   5.959
 7507SOL    HW123420   1.432   6.214   5.906
 7507SOL    HW223421   1.356   6.087   5.975
 7508SOL     OW23422   5.492   0.358   3.550
 7508SOL    HW123423   5.553   0.397   3.480
 7508SOL    HW223424   5.489   0.419   3.629
 7509SOL     OW23425   4.745   3.959   5.900
 7509SOL    HW123426   4.844   3.967   5.909
 7509SOL    HW223427   4.719   3.965   5.804
 7510SOL     OW23428   3.504   4.099   5.157
 7510SOL    HW123429   3.497   4.102   5.058
 7510SOL    HW223430   3.429   4.045   5.195
 7511SOL     OW23431   1.454   0.698   2.511
 7511SOL    HW123432   1.475   0.691   2.413
 7511SOL    HW223433   1.511   0.634   2.562
 7512SOL     OW23434   1.716   2.613   1.737
 7512SOL    HW123435   1.638   2.563   1.775
 7512SOL    HW223436   1.691   2.709   1.726
 7513SOL     OW23437   1.041   2.593   6.719
 7513SOL    HW123438   1.015   2.499   6.694
 7513SOL    HW223439   0.960   2.651   6.719
 7514SOL     OW23440   2.669   5.704   3.164
 7514SOL    HW123441   2.751   5.674   3.116
 7514SOL    HW223442   2.636   5.631   3.224
 7515SOL     OW23443   6.150   5.618   2.829
 7515SOL    HW123444   6.089   5.543   2.803
 7515SOL    HW223445   6.177   5.667   2.746
 7516SOL     OW23446   0.215   0.917   2.764
 7516SOL    HW123447   0.233   1.006   2.724
 7516SOL    HW223448   0.142   0.924   2.832
 7517SOL     OW23449   0.467   4.092   1.596
 7517SOL    HW123450   0.380   4.130   1.628
 7517SOL    HW223451   0.498   4.142   1.515
 7518SOL     OW23452   4.853   5.341   3.748
 7518SOL    HW123453   4.887   5.268   3.807
 7518SOL    HW223454   4.765   5.314   3.709
 7519SOL     OW23455   2.430   5.845   3.729
 7519SOL    HW123456   2.461   5.842   3.825
 7519SOL    HW223457   2.402   5.938   3.706
 7520SOL     OW23458   1.790   6.836   4.199
 7520SOL    HW123459   1.809   6.767   4.129
 7520SOL    HW223460   1.870   6.895   4.210
 7521SOL     OW23461   4.730   4.312   5.855
 7521SOL    HW123462   4.799   4.339   5.789
 7521SOL    HW223463   4.650   4.275   5.806
 7522SOL     OW23464   1.724   0.768   1.484
 7522SOL    HW123465   1.703   0.693   1.546
 7522SOL    HW223466   1.780   0.837   1.531
 7523SOL     OW23467   5.966   6.880   6.599
 7523SOL    HW123468   5.899   6.884   6.673
 7523SOL    HW223469   6.016   6.966   6.595
 7524SOL     OW23470   0.223   1.465   4.759
 7524SOL    HW123471   0.184   1.511   4.679
 7524SOL    HW223472   0.188   1.507   4.842
 7525SOL     OW23473   1.868   0.196   0.780
 7525SOL    HW123474   1.852   0.108   0.825
 7525SOL    HW223475   1.806   0.206   0.702
 7526SOL     OW23476   3.720   2.879   5.044
 7526SOL    HW123477   3.771   2.889   4.958
 7526SOL    HW223478   3.725   2.965   5.095
 7527SOL     OW23479   5.172   5.123   3.075
 7527SOL    HW123480   5.109   5.065   3.127
 7527SOL    HW223481   5.132   5.214   3.063
 7528SOL     OW23482   6.786   3.547   6.566
 7528SOL    HW123483   6.777   3.504   6.656
 7528SOL    HW223484   6.818   3.641   6.577
 7529SOL     OW23485   3.256   1.425   5.911
 7529SOL    HW123486   3.265   1.330   5.882
 7529SOL    HW223487   3.165   1.441   5.948
 7530SOL     OW23488   0.542   3.689   2.654
 7530SOL    HW123489   0.479   3.765   2.638
 7530SOL    HW223490   0.490   3.608   2.681
 7531SOL     OW23491   3.849   2.116   3.604
 7531SOL    HW123492   3.764   2.112   3.551
 7531SOL    HW223493   3.828   2.129   3.701
 7532SOL     OW23494   5.256   5.168   2.669
 7532SOL    HW123495   5.174   5.216   2.638
 7532SOL    HW223496   5.240   5.069   2.664
 7533SOL     OW23497   3.640   0.576   4.650
 7533SOL    HW123498   3.674   0.620   4.734
 7533SOL    HW223499   3.716   0.563   4.587
 7534SOL     OW23500   4.867   6.895   4.861
 7534SOL    HW123501   4.801   6.824   4.835
 7534SOL    HW223502   4.958   6.869   4.828
 7535SOL     OW23503   3.313   3.724   6.114
 7535SOL    HW123504   3.232   3.725   6.173
 7535SOL    HW223505   3.343   3.630   6.101
 7536SOL     OW23506   3.555   6.451   4.221
 7536SOL    HW123507   3.617   6.418   4.149
 7536SOL    HW223508   3.479   6.387   4.231
 7537SOL     OW23509   2.170   4.946   5.985
 7537SOL    HW123510   2.253   4.941   5.929
 7537SOL    HW223511   2.163   4.865   6.042
 7538SOL     OW23512   2.968   3.482   2.297
 7538SOL    HW123513   2.931   3.502   2.206
 7538SOL    HW223514   2.935   3.392   2.328
 7539SOL     OW23515   1.929   2.821   4.709
 7539SOL    HW123516   1.954   2.730   4.676
 7539SOL    HW223517   1.958   2.890   4.642
 7540SOL     OW23518   2.370   1.631   0.141
 7540SOL    HW123519   2.421   1.546   0.153
 7540SOL    HW223520   2.412   1.703   0.196
 7541SOL     OW23521   6.410   2.254   5.779
 7541SOL    HW123522   6.492   2.201   5.757
 7541SOL    HW223523   6.433   2.328   5.841
 7542SOL     OW23524   1.482   6.698   6.675
 7542SOL    HW123525   1.536   6.775   6.640
 7542SOL    HW223526   1.426   6.660   6.602
 7543SOL     OW23527   3.484   3.031   0.192
 7543SOL    HW123528   3.561   2.998   0.247
 7543SOL    HW223529   3.487   3.131   0.188
 7544SOL     OW23530   2.374   2.026   2.337
 7544SOL    HW123531   2.310   1.949   2.324
 7544SOL    HW223532   2.437   2.031   2.260
 7545SOL     OW23533   5.267   6.455   4.562
 7545SOL    HW123534   5.282   6.358   4.583
 7545SOL    HW223535   5.349   6.493   4.519
 7546SOL     OW23536   4.954   0.617   6.889
 7546SOL    HW123537   5.000   0.672   6.819
 7546SOL    HW223538   5.020   0.552   6.928
 7547SOL     OW23539   3.188   0.123   0.123
 7547SOL    HW123540   3.144   0.130   0.034
 7547SOL    HW223541   3.282   0.091   0.111
 7548SOL     OW23542   1.596   2.384   1.572
 7548SOL    HW123543   1.575   2.347   1.481
 7548SOL    HW223544   1.671   2.332   1.612
 7549SOL     OW23545   5.902   2.270   2.500
 7549SOL    HW123546   5.909   2.203   2.426
 7549SOL    HW223547   5.811   2.266   2.541
 7550SOL     OW23548   2.185   5.672   1.263
 7550SOL    HW123549   2.244   5.676   1.183
 7550SOL    HW223550   2.095   5.639   1.237
 7551SOL     OW23551   4.898   3.604   6.490
 7551SOL    HW123552   4.949   3.687   6.468
 7551SOL    HW223553   4.957   3.540   6.538
 7552SOL     OW23554   3.619   5.187   3.737
 7552SOL    HW123555   3.529   5.196   3.693
 7552SOL    HW223556   3.685   5.247   3.690
 7553SOL     OW23557   4.290   5.002   5.800
 7553SOL    HW123558   4.379   4.966   5.826
 7553SOL    HW223559   4.302   5.090   5.752
 7554SOL     OW23560   6.421   0.973   1.225
 7554SOL    HW123561   6.459   1.038   1.291
 7554SOL    HW223562   6.419   0.882   1.265
 7555SOL     OW23563   1.098   5.813   5.166
 7555SOL    HW123564   1.129   5.867   5.244
 7555SOL    HW223565   1.031   5.745   5.197
 7556SOL     OW23566   0.400   2.748   5.091
 7556SOL    HW123567   0.473   2.816   5.098
 7556SOL    HW223568   0.436   2.663   5.055
 7557SOL     OW23569   4.736   3.824   6.950
 7557SOL    HW123570   4.729   3.840   6.852
 7557SOL    HW223571   4.832   3.832   6.979
 7558SOL     OW23572   1.371   3.387   3.327
 7558SOL    HW123573   1.464   3.396   3.291
 7558SOL    HW223574   1.356   3.292   3.357
 7559SOL     OW23575   0.813   4.265   1.304
 7559SOL    HW123576   0.749   4.240   1.231
 7559SOL    HW223577   0.907   4.252   1.272
 7560SOL     OW23578   4.390   6.650   6.838
 7560SOL    HW123579   4.419   6.740   6.871
 7560SOL    HW223580   4.421   6.580   6.902
 7561SOL     OW23581   0.490   2.629   0.960
 7561SOL    HW123582   0.560   2.564   0.989
 7561SOL    HW223583   0.427   2.584   0.896
 7562SOL     OW23584   5.684   5.547   5.240
 7562SOL    HW123585   5.688   5.637   5.196
 7562SOL    HW223586   5.623   5.488   5.188
 7563SOL     OW23587   1.941   0.803   2.082
 7563SOL    HW123588   2.037   0.808   2.112
 7563SOL    HW223589   1.885   0.771   2.158
 7564SOL     OW23590   4.783   6.030   4.005
 7564SOL    HW123591   4.822   6.115   4.040
 7564SOL    HW223592   4.831   5.952   4.045
 7565SOL     OW23593   4.818   4.362   0.833
 7565SOL    HW123594   4.908   4.341   0.873
 7565SOL    HW223595   4.793   4.290   0.768
 7566SOL     OW23596   1.343   6.163   4.469
 7566SOL    HW123597   1.418   6.226   4.491
 7566SOL    HW223598   1.263   6.216   4.439
 7567SOL     OW23599   2.915   4.112   0.253
 7567SOL    HW123600   2.857   4.046   0.205
 7567SOL    HW223601   2.964   4.066   0.327
 7568SOL     OW23602   4.775   4.567   2.894
 7568SOL    HW123603   4.692   4.525   2.858
 7568SOL    HW223604   4.855   4.529   2.847
 7569SOL     OW23605   4.415   0.087   0.760
 7569SOL    HW123606   4.329   0.112   0.804
 7569SOL    HW223607   4.409   7.022   0.723
 7570SOL     OW23608   6.523   5.049   4.117
 7570SOL    HW123609   6.506   4.963   4.069
 7570SOL    HW223610   6.448   5.068   4.180
 7571SOL     OW23611   5.220   4.476   2.144
 7571SOL    HW123612   5.230   4.483   2.045
 7571SOL    HW223613   5.310   4.473   2.187
 7572SOL     OW23614   2.499   1.576   4.712
 7572SOL    HW123615   2.402   1.551   4.717
 7572SOL    HW223616   2.538   1.576   4.804
 7573SOL     OW23617   2.488   5.469   4.286
 7573SOL    HW123618   2.415   5.429   4.231
 7573SOL    HW223619   2.449   5.522   4.361
 7574SOL     OW23620   5.353   6.639   2.839
 7574SOL    HW123621   5.340   6.715   2.775
 7574SOL    HW223622   5.264   6.610   2.875
 7575SOL     OW23623   3.573   2.113   4.927
 7575SOL    HW123624   3.596   2.194   4.872
 7575SOL    HW223625   3.584   2.031   4.871
 7576SOL     OW23626   6.034   3.079   0.899
 7576SOL    HW123627   6.039   3.102   0.996
 7576SOL    HW223628   5.943   3.041   0.879
 7577SOL     OW23629   4.817   0.599   5.084
 7577SOL    HW123630   4.850   0.632   5.172
 7577SOL    HW223631   4.721   0.571   5.093
 7578SOL     OW23632   2.517   4.730   4.436
 7578SOL    HW123633   2.473   4.641   4.422
 7578SOL    HW223634   2.541   4.740   4.533
 7579SOL     OW23635   3.939   1.387   3.112
 7579SOL    HW123636   3.880   1.327   3.059
 7579SOL    HW223637   4.014   1.420   3.055
 7580SOL     OW23638   1.626   3.920   3.059
 7580SOL    HW123639   1.532   3.891   3.040
 7580SOL    HW223640   1.687   3.841   3.054
 7581SOL     OW23641   6.146   0.580   1.107
 7581SOL    HW123642   6.047   0.570   1.096
 7581SOL    HW223643   6.165   0.638   1.187
 7582SOL     OW23644   3.143   0.874   1.080
 7582SOL    HW123645   3.050   0.909   1.083
 7582SOL    HW223646   3.205   0.940   1.123
 7583SOL     OW23647   6.833   3.364   2.421
 7583SOL    HW123648   6.829   3.404   2.329
 7583SOL    HW223649   6.892   3.284   2.420
 7584SOL     OW23650   2.597   0.476   1.023
 7584SOL    HW123651   2.560   0.389   0.991
 7584SOL    HW223652   2.522   0.533   1.059
 7585SOL     OW23653   1.843   5.123   6.166
 7585SOL    HW123654   1.862   5.125   6.068
 7585SOL    HW223655   1.857   5.030   6.200
 7586SOL     OW23656   2.448   0.836   2.272
 7586SOL    HW123657   2.507   0.886   2.336
 7586SOL    HW223658   2.495   0.825   2.184
 7587SOL     OW23659   1.617   1.134   5.734
 7587SOL    HW123660   1.666   1.052   5.764
 7587SOL    HW223661   1.672   1.215   5.755
 7588SOL     OW23662   0.180   4.232   1.601
 7588SOL    HW123663   0.238   4.310   1.623
 7588SOL    HW223664   0.105   4.261   1.542
 7589SOL     OW23665   5.712   5.886   0.631
 7589SOL    HW123666   5.679   5.860   0.721
 7589SOL    HW223667   5.688   5.982   0.612
 7590SOL     OW23668   1.488   0.678   5.960
 7590SOL    HW123669   1.455   0.726   6.042
 7590SOL    HW223670   1.587   0.684   5.955
 7591SOL     OW23671   6.914   4.885   0.391
 7591SOL    HW123672   6.963   4.971   0.403
 7591SOL    HW223673   6.980   4.810   0.380
 7592SOL     OW23674   5.599   5.702   0.444
 7592SOL    HW123675   5.519   5.762   0.447
 7592SOL    HW223676   5.647   5.706   0.531
 7593SOL     OW23677   6.174   2.130   6.765
 7593SOL    HW123678   6.210   2.107   6.855
 7593SOL    HW223679   6.121   2.215   6.770
 7594SOL     OW23680   1.307   6.093   3.792
 7594SOL    HW123681   1.401   6.068   3.811
 7594SOL    HW223682   1.250   6.076   3.872
 7595SOL     OW23683   6.213   2.894   0.269
 7595SOL    HW123684   6.269   2.813   0.252
 7595SOL    HW223685   6.123   2.883   0.226
 7596SOL     OW23686   5.545   4.472   1.989
 7596SOL    HW123687   5.488   4.496   2.068
 7596SOL    HW223688   5.626   4.424   2.021
 7597SOL     OW23689   3.408   5.125   1.597
 7597SOL    HW123690   3.456   5.183   1.531
 7597SOL    HW223691   3.439   5.146   1.689
 7598SOL     OW23692   6.696   1.267   3.392
 7598SOL    HW123693   6.676   1.171   3.372
 7598SOL    HW223694   6.755   1.305   3.321
 7599SOL     OW23695   6.121   2.448   2.458
 7599SOL    HW123696   6.035   2.406   2.487
 7599SOL    HW223697   6.196   2.408   2.511
 7600SOL     OW23698   2.176   1.624   1.397
 7600SOL    HW123699   2.243   1.578   1.339
 7600SOL    HW223700   2.149   1.711   1.355
 7601SOL     OW23701   1.861   6.728   4.496
 7601SOL    HW123702   1.944   6.757   4.542
 7601SOL    HW223703   1.883   6.696   4.403
 7602SOL     OW23704   0.786   3.793   5.096
 7602SOL    HW123705   0.858   3.801   5.165
 7602SOL    HW223706   0.797   3.865   5.028
 7603SOL     OW23707   0.978   6.819   1.136
 7603SOL    HW123708   0.924   6.736   1.152
 7603SOL    HW223709   0.928   6.898   1.170
 7604SOL     OW23710   5.176   6.499   5.848
 7604SOL    HW123711   5.169   6.510   5.947
 7604SOL    HW223712   5.084   6.503   5.807
 7605SOL     OW23713   6.017   4.714   6.641
 7605SOL    HW123714   6.026   4.618   6.665
 7605SOL    HW223715   6.070   4.770   6.705
 7606SOL     OW23716   6.095   1.928   2.774
 7606SOL    HW123717   6.059   2.019   2.756
 7606SOL    HW223718   6.144   1.928   2.861
 7607SOL     OW23719   4.689   7.021   6.772
 7607SOL    HW123720   4.678   0.093   6.769
 7607SOL    HW223721   4.625   6.979   6.708
 7608SOL     OW23722   3.451   3.302   3.611
 7608SOL    HW123723   3.367   3.350   3.635
 7608SOL    HW223724   3.511   3.364   3.560
 7609SOL     OW23725   1.243   3.367   4.619
 7609SOL    HW123726   1.283   3.291   4.568
 7609SOL    HW223727   1.277   3.453   4.581
 7610SOL     OW23728   5.384   0.301   1.198
 7610SOL    HW123729   5.338   0.334   1.281
 7610SOL    HW223730   5.399   0.202   1.205
 7611SOL     OW23731   1.770   1.721   0.508
 7611SOL    HW123732   1.792   1.739   0.412
 7611SOL    HW223733   1.789   1.803   0.562
 7612SOL     OW23734   4.175   1.833   2.902
 7612SOL    HW123735   4.258   1.870   2.942
 7612SOL    HW223736   4.189   1.818   2.804
 7613SOL     OW23737   4.654   1.126   2.168
 7613SOL    HW123738   4.715   1.132   2.247
 7613SOL    HW223739   4.701   1.158   2.086
 7614SOL     OW23740   4.084   2.347   0.499
 7614SOL    HW123741   4.116   2.435   0.535
 7614SOL    HW223742   4.122   2.332   0.407
 7615SOL     OW23743   3.619   4.954   5.742
 7615SOL    HW123744   3.700   4.970   5.798
 7615SOL    HW223745   3.640   4.974   5.646
 7616SOL     OW23746   6.084   4.066   3.711
 7616SOL    HW123747   6.104   4.062   3.809
 7616SOL    HW223748   6.004   4.010   3.691
 7617SOL     OW23749   2.748   5.903   2.393
 7617SOL    HW123750   2.696   5.862   2.467
 7617SOL    HW223751   2.841   5.923   2.424
 7618SOL     OW23752   1.866   2.487   0.429
 7618SOL    HW123753   1.901   2.420   0.495
 7618SOL    HW223754   1.825   2.440   0.352
 7619SOL     OW23755   5.109   3.516   6.011
 7619SOL    HW123756   5.197   3.469   6.024
 7619SOL    HW223757   5.048   3.493   6.087
 7620SOL     OW23758   3.245   6.854   1.749
 7620SOL    HW123759   3.238   6.836   1.847
 7620SOL    HW223760   3.279   6.772   1.703
 7621SOL     OW23761   2.375   1.232   1.874
 7621SOL    HW123762   2.314   1.290   1.821
 7621SOL    HW223763   2.414   1.161   1.816
 7622SOL     OW23764   4.265   2.524   0.300
 7622SOL    HW123765   4.336   2.479   0.354
 7622SOL    HW223766   4.276   2.623   0.306
 7623SOL     OW23767   4.518   0.609   5.806
 7623SOL    HW123768   4.472   0.520   5.803
 7623SOL    HW223769   4.477   0.670   5.738
 7624SOL     OW23770   0.616   0.732   3.512
 7624SOL    HW123771   0.557   0.812   3.506
 7624SOL    HW223772   0.674   0.739   3.594
 7625SOL     OW23773   4.354   0.220   1.444
 7625SOL    HW123774   4.415   0.182   1.374
 7625SOL    HW223775   4.349   0.156   1.520
 7626SOL     OW23776   1.786   5.556   4.792
 7626SOL    HW123777   1.807   5.470   4.745
 7626SOL    HW223778   1.862   5.580   4.852
 7627SOL     OW23779   0.102   2.431   0.629
 7627SOL    HW123780   0.178   2.477   0.676
 7627SOL    HW223781   0.135   2.348   0.584
 7628SOL     OW23782   3.397   1.863   0.777
 7628SOL    HW123783   3.304   1.825   0.779
 7628SOL    HW223784   3.392   1.963   0.773
 7629SOL     OW23785   6.858   5.544   3.404
 7629SOL    HW123786   6.830   5.480   3.333
 7629SOL    HW223787   6.815   5.633   3.387
 7630SOL     OW23788   6.283   0.810   2.551
 7630SOL    HW123789   6.340   0.729   2.561
 7630SOL    HW223790   6.308   0.859   2.468
 7631SOL     OW23791   0.608   2.558   3.517
 7631SOL    HW123792   0.548   2.630   3.483
 7631SOL    HW223793   0.603   2.479   3.455
 7632SOL     OW23794   4.675   1.314   0.150
 7632SOL    HW123795   4.615   1.298   0.228
 7632SOL    HW223796   4.621   1.348   0.073
 7633SOL     OW23797   5.545   3.916   7.025
 7633SOL    HW123798   5.548   3.976   0.078
 7633SOL    HW223799   5.540   3.821   0.027
 7634SOL     OW23800   1.318   1.559   1.950
 7634SOL    HW123801   1.385   1.501   1.903
 7634SOL    HW223802   1.302   1.524   2.042
 7635SOL     OW23803   2.981   4.633   5.542
 7635SOL    HW123804   3.025   4.575   5.473
 7635SOL    HW223805   2.883   4.613   5.544
 7636SOL     OW23806   0.988   0.733   3.887
 7636SOL    HW123807   1.085   0.738   3.864
 7636SOL    HW223808   0.978   0.714   3.985
 7637SOL     OW23809   2.006   5.888   4.203
 7637SOL    HW123810   2.098   5.855   4.224
 7637SOL    HW223811   2.013   5.976   4.156
 7638SOL     OW23812   5.324   5.112   2.314
 7638SOL    HW123813   5.256   5.143   2.247
 7638SOL    HW223814   5.281   5.050   2.378
 7639SOL     OW23815   0.793   2.003   5.066
 7639SOL    HW123816   0.856   2.052   5.126
 7639SOL    HW223817   0.836   1.918   5.035
 7640SOL     OW23818   2.596   1.630   6.531
 7640SOL    HW123819   2.617   1.668   6.621
 7640SOL    HW223820   2.525   1.685   6.487
 7641SOL     OW23821   5.839   3.970   2.184
 7641SOL    HW123822   5.911   3.925   2.131
 7641SOL    HW223823   5.878   4.048   2.233
 7642SOL     OW23824   2.455   2.081   2.606
 7642SOL    HW123825   2.473   2.076   2.508
 7642SOL    HW223826   2.379   2.020   2.629
 7643SOL     OW23827   4.785   2.961   3.192
 7643SOL    HW123828   4.793   3.051   3.234
 7643SOL    HW223829   4.696   2.921   3.216
 7644SOL     OW23830   7.013   3.433   3.081
 7644SOL    HW123831   6.976   3.522   3.107
 7644SOL    HW223832   0.055   3.446   3.010
 7645SOL     OW23833   4.434   3.700   6.656
 7645SOL    HW123834   4.377   3.619   6.646
 7645SOL    HW223835   4.505   3.700   6.585
 7646SOL     OW23836   1.945   1.811   1.665
 7646SOL    HW123837   2.012   1.747   1.701
 7646SOL    HW223838   1.919   1.876   1.736
 7647SOL     OW23839   2.419   3.966   1.532
 7647SOL    HW123840   2.466   4.050   1.558
 7647SOL    HW223841   2.376   3.925   1.613
 7648SOL     OW23842   4.216   0.780   3.511
 7648SOL    HW123843   4.185   0.768   3.606
 7648SOL    HW223844   4.240   0.876   3.497
 7649SOL     OW23845   3.126   1.002   1.962
 7649SOL    HW123846   3.132   1.092   2.007
 7649SOL    HW223847   3.193   0.998   1.888
 7650SOL     OW23848   6.356   4.416   2.506
 7650SOL    HW123849   6.331   4.435   2.601
 7650SOL    HW223850   6.421   4.340   2.503
 7651SOL     OW23851   3.889   1.403   6.337
 7651SOL    HW123852   3.790   1.403   6.324
 7651SOL    HW223853   3.924   1.496   6.323
 7652SOL     OW23854   0.832   3.458   2.243
 7652SOL    HW123855   0.831   3.503   2.332
 7652SOL    HW223856   0.895   3.507   2.182
 7653SOL     OW23857   2.945   2.131   1.327
 7653SOL    HW123858   2.935   2.088   1.238
 7653SOL    HW223859   3.043   2.139   1.349
 7654SOL     OW23860   4.974   3.925   3.636
 7654SOL    HW123861   5.040   3.950   3.565
 7654SOL    HW223862   4.961   3.826   3.636
 7655SOL     OW23863   4.087   6.328   5.129
 7655SOL    HW123864   4.044   6.260   5.069
 7655SOL    HW223865   4.170   6.289   5.169
 7656SOL     OW23866   0.972   6.501   5.148
 7656SOL    HW123867   0.925   6.458   5.072
 7656SOL    HW223868   0.998   6.595   5.123
 7657SOL     OW23869   3.713   1.109   3.720
 7657SOL    HW123870   3.674   1.025   3.680
 7657SOL    HW223871   3.770   1.085   3.798
 7658SOL     OW23872   4.038   1.024   6.037
 7658SOL    HW123873   4.127   0.991   6.068
 7658SOL    HW223874   4.043   1.042   5.938
 7659SOL     OW23875   5.936   0.255   0.808
 7659SOL    HW123876   5.847   0.250   0.854
 7659SOL    HW223877   5.998   0.187   0.848
 7660SOL     OW23878   6.154   4.910   4.122
 7660SOL    HW123879   6.192   4.962   4.197
 7660SOL    HW223880   6.091   4.968   4.069
 7661SOL     OW23881   6.442   2.665   3.468
 7661SOL    HW123882   6.386   2.718   3.533
 7661SOL    HW223883   6.507   2.726   3.424
 7662SOL     OW23884   6.688   4.857   1.863
 7662SOL    HW123885   6.614   4.901   1.914
 7662SOL    HW223886   6.686   4.888   1.768
 7663SOL     OW23887   0.167   5.523   6.956
 7663SOL    HW123888   0.240   5.579   6.916
 7663SOL    HW223889   0.141   5.561   0.018
 7664SOL     OW23890   2.542   4.939   3.913
 7664SOL    HW123891   2.470   5.008   3.916
 7664SOL    HW223892   2.585   4.931   4.002
 7665SOL     OW23893   3.212   6.895   5.110
 7665SOL    HW123894   3.202   6.959   5.186
 7665SOL    HW223895   3.193   6.942   5.024
 7666SOL     OW23896   1.121   0.800   1.122
 7666SOL    HW123897   1.217   0.814   1.149
 7666SOL    HW223898   1.101   0.702   1.123
 7667SOL     OW23899   4.223   5.949   6.349
 7667SOL    HW123900   4.276   5.980   6.429
 7667SOL    HW223901   4.259   5.861   6.318
 7668SOL     OW23902   3.291   3.812   1.280
 7668SOL    HW123903   3.350   3.782   1.355
 7668SOL    HW223904   3.243   3.895   1.307
 7669SOL     OW23905   4.850   6.500   4.386
 7669SOL    HW123906   4.775   6.566   4.378
 7669SOL    HW223907   4.925   6.541   4.439
 7670SOL     OW23908   1.721   5.025   1.045
 7670SOL    HW123909   1.754   4.940   1.086
 7670SOL    HW223910   1.654   5.067   1.106
 7671SOL     OW23911   5.941   2.745   4.769
 7671SOL    HW123912   5.863   2.803   4.744
 7671SOL    HW223913   5.911   2.651   4.781
 7672SOL     OW23914   5.632   0.915   2.558
 7672SOL    HW123915   5.553   0.968   2.527
 7672SOL    HW223916   5.712   0.939   2.502
 7673SOL     OW23917   1.220   4.346   0.913
 7673SOL    HW123918   1.249   4.252   0.931
 7673SOL    HW223919   1.125   4.347   0.881
 7674SOL     OW23920   5.839   1.509   4.682
 7674SOL    HW123921   5.902   1.553   4.747
 7674SOL    HW223922   5.759   1.566   4.669
 7675SOL     OW23923   4.327   6.420   3.118
 7675SOL    HW123924   4.383   6.341   3.143
 7675SOL    HW223925   4.369   6.503   3.153
 7676SOL     OW23926   1.956   0.490   0.723
 7676SOL    HW123927   1.912   0.404   0.749
 7676SOL    HW223928   1.886   0.558   0.702
 7677SOL     OW23929   2.073   2.899   2.762
 7677SOL    HW123930   2.086   2.996   2.743
 7677SOL    HW223931   2.095   2.846   2.680
 7678SOL     OW23932   6.311   6.609   0.539
 7678SOL    HW123933   6.279   6.518   0.513
 7678SOL    HW223934   6.270   6.636   0.626
 7679SOL     OW23935   0.942   5.131   5.447
 7679SOL    HW123936   1.033   5.168   5.427
 7679SOL    HW223937   0.915   5.160   5.539
 7680SOL     OW23938   4.065   2.944   0.040
 7680SOL    HW123939   4.066   2.990   0.129
 7680SOL    HW223940   3.990   2.979   7.012
 7681SOL     OW23941   3.005   1.457   7.008
 7681SOL    HW123942   3.101   1.453   0.009
 7681SOL    HW223943   2.947   1.424   0.055
 7682SOL     OW23944   2.890   0.173   1.539
 7682SOL    HW123945   2.793   0.167   1.562
 7682SOL    HW223946   2.942   0.110   1.598
 7683SOL     OW23947   5.739   1.851   3.426
 7683SOL    HW123948   5.642   1.878   3.430
 7683SOL    HW223949   5.750   1.776   3.361
 7684SOL     OW23950   4.289   1.798   5.911
 7684SOL    HW123951   4.314   1.870   5.846
 7684SOL    HW223952   4.205   1.823   5.958
 7685SOL     OW23953   3.199   2.820   1.027
 7685SOL    HW123954   3.124   2.824   0.962
 7685SOL    HW223955   3.283   2.793   0.979
 7686SOL     OW23956   3.811   0.194   3.918
 7686SOL    HW123957   3.773   0.150   4.000
 7686SOL    HW223958   3.902   0.231   3.939
 7687SOL     OW23959   5.008   4.920   5.740
 7687SOL    HW123960   4.986   4.929   5.837
 7687SOL    HW223961   4.964   4.838   5.703
 7688SOL     OW23962   0.044   6.551   4.465
 7688SOL    HW123963   7.014   6.469   4.475
 7688SOL    HW223964   0.115   6.549   4.535
 7689SOL     OW23965   3.969   6.290   4.597
 7689SOL    HW123966   4.052   6.253   4.554
 7689SOL    HW223967   3.993   6.327   4.687
 7690SOL     OW23968   0.688   5.429   3.404
 7690SOL    HW123969   0.610   5.473   3.359
 7690SOL    HW223970   0.731   5.365   3.341
 7691SOL     OW23971   4.920   3.309   4.545
 7691SOL    HW123972   4.967   3.272   4.626
 7691SOL    HW223973   4.956   3.265   4.463
 7692SOL     OW23974   1.839   6.333   1.942
 7692SOL    HW123975   1.852   6.235   1.928
 7692SOL    HW223976   1.883   6.362   2.026
 7693SOL     OW23977   5.218   1.630   6.284
 7693SOL    HW123978   5.317   1.643   6.276
 7693SOL    HW223979   5.199   1.563   6.356
 7694SOL     OW23980   0.431   5.275   4.264
 7694SOL    HW123981   0.332   5.279   4.281
 7694SOL    HW223982   0.448   5.230   4.176
 7695SOL     OW23983   3.768   0.024   0.785
 7695SOL    HW123984   3.713   0.086   0.842
 7695SOL    HW223985   3.841   7.011   0.841
 7696SOL     OW23986   0.262   3.137   5.953
 7696SOL    HW123987   0.285   3.040   5.961
 7696SOL    HW223988   0.216   3.153   5.865
 7697SOL     OW23989   3.897   1.820   2.256
 7697SOL    HW123990   3.876   1.906   2.209
 7697SOL    HW223991   3.829   1.751   2.233
 7698SOL     OW23992   6.466   3.181   5.919
 7698SOL    HW123993   6.431   3.103   5.867
 7698SOL    HW223994   6.448   3.168   6.016
 7699SOL     OW23995   2.522   5.093   6.538
 7699SOL    HW123996   2.568   5.115   6.624
 7699SOL    HW223997   2.464   5.013   6.551
 7700SOL     OW23998   4.949   6.464   4.720
 7700SOL    HW123999   4.926   6.367   4.711
 7700SOL    HW224000   4.940   6.492   4.816
 7701SOL     OW24001   6.366   2.109   4.623
 7701SOL    HW124002   6.363   2.039   4.695
 7701SOL    HW224003   6.275   2.150   4.613
 7702SOL     OW24004   2.743   6.760   5.749
 7702SOL    HW124005   2.753   6.746   5.651
 7702SOL    HW224006   2.683   6.690   5.787
 7703SOL     OW24007   0.397   1.311   6.008
 7703SOL    HW124008   0.457   1.306   5.928
 7703SOL    HW224009   0.387   1.406   6.037
 7704SOL     OW24010   4.349   4.296   7.017
 7704SOL    HW124011   4.280   4.344   0.045
 7704SOL    HW224012   4.412   4.248   0.051
 7705SOL     OW24013   3.635   5.039   4.826
 7705SOL    HW124014   3.595   4.999   4.743
 7705SOL    HW224015   3.701   5.110   4.800
 7706SOL     OW24016   6.890   1.048   4.900
 7706SOL    HW124017   6.822   1.121   4.903
 7706SOL    HW224018   6.875   0.986   4.977
 7707SOL     OW24019   0.199   5.024   6.168
 7707SOL    HW124020   0.192   5.038   6.267
 7707SOL    HW224021   0.117   5.059   6.124
 7708SOL     OW24022   4.541   6.416   4.616
 7708SOL    HW124023   4.503   6.475   4.545
 7708SOL    HW224024   4.638   6.401   4.598
 7709SOL     OW24025   4.301   2.160   2.120
 7709SOL    HW124026   4.277   2.080   2.175
 7709SOL    HW224027   4.345   2.229   2.179
 7710SOL     OW24028   2.101   1.388   6.783
 7710SOL    HW124029   2.028   1.345   6.837
 7710SOL    HW224030   2.108   1.341   6.695
 7711SOL     OW24031   5.345   6.573   5.448
 7711SOL    HW124032   5.375   6.495   5.502
 7711SOL    HW224033   5.382   6.567   5.356
 7712SOL     OW24034   5.429   5.306   1.099
 7712SOL    HW124035   5.501   5.348   1.043
 7712SOL    HW224036   5.378   5.241   1.043
 7713SOL     OW24037   1.084   4.251   6.237
 7713SOL    HW124038   1.114   4.225   6.328
 7713SOL    HW224039   1.122   4.340   6.213
 7714SOL     OW24040   5.568   4.301   4.254
 7714SOL    HW124041   5.568   4.279   4.157
 7714SOL    HW224042   5.651   4.266   4.297
 7715SOL     OW24043   5.050   0.963   1.118
 7715SOL    HW124044   5.031   0.864   1.118
 7715SOL    HW224045   4.967   1.013   1.144
 7716SOL     OW24046   4.469   2.160   3.141
 7716SOL    HW124047   4.428   2.251   3.147
 7716SOL    HW224048   4.423   2.107   3.070
 7717SOL     OW24049   3.350   1.735   5.655
 7717SOL    HW124050   3.400   1.814   5.621
 7717SOL    HW224051   3.381   1.653   5.606
 7718SOL     OW24052   3.208   6.138   3.938
 7718SOL    HW124053   3.156   6.128   3.853
 7718SOL    HW224054   3.145   6.160   4.013
 7719SOL     OW24055   6.652   2.158   4.901
 7719SOL    HW124056   6.749   2.152   4.928
 7719SOL    HW224057   6.645   2.170   4.802
 7720SOL     OW24058   5.938   5.584   2.025
 7720SOL    HW124059   5.974   5.654   2.086
 7720SOL    HW224060   5.957   5.493   2.063
 7721SOL     OW24061   1.996   4.289   2.259
 7721SOL    HW124062   2.014   4.327   2.349
 7721SOL    HW224063   2.082   4.284   2.207
 7722SOL     OW24064   6.873   5.502   3.835
 7722SOL    HW124065   6.884   5.560   3.755
 7722SOL    HW224066   6.949   5.437   3.840
 7723SOL     OW24067   6.656   3.033   0.557
 7723SOL    HW124068   6.562   3.047   0.589
 7723SOL    HW224069   6.657   2.958   0.491
 7724SOL     OW24070   1.400   4.669   1.258
 7724SOL    HW124071   1.373   4.703   1.168
 7724SOL    HW224072   1.499   4.660   1.262
 7725SOL     OW24073   5.286   3.193   4.509
 7725SOL    HW124074   5.332   3.172   4.423
 7725SOL    HW224075   5.250   3.109   4.549
 7726SOL     OW24076   0.623   4.264   3.126
 7726SOL    HW124077   0.647   4.288   3.032
 7726SOL    HW224078   0.703   4.280   3.185
 7727SOL     OW24079   6.317   2.758   1.893
 7727SOL    HW124080   6.370   2.831   1.849
 7727SOL    HW224081   6.346   2.669   1.858
 7728SOL     OW24082   2.399   2.298   3.131
 7728SOL    HW124083   2.456   2.362   3.080
 7728SOL    HW224084   2.372   2.223   3.070
 7729SOL     OW24085   4.954   2.391   0.776
 7729SOL    HW124086   4.983   2.375   0.681
 7729SOL    HW224087   4.863   2.432   0.776
 7730SOL     OW24088   6.123   0.782   2.068
 7730SOL    HW124089   6.192   0.770   2.139
 7730SOL    HW224090   6.152   0.736   1.984
 7731SOL     OW24091   5.515   1.026   6.560
 7731SOL    HW124092   5.535   0.971   6.478
 7731SOL    HW224093   5.523   1.123   6.537
 7732SOL     OW24094   4.472   5.645   0.679
 7732SOL    HW124095   4.424   5.641   0.766
 7732SOL    HW224096   4.508   5.554   0.656
 7733SOL     OW24097   3.406   0.248   2.277
 7733SOL    HW124098   3.496   0.205   2.284
 7733SOL    HW224099   3.358   0.212   2.197
 7734SOL     OW24100   2.071   2.282   3.083
 7734SOL    HW124101   2.032   2.250   2.997
 7734SOL    HW224102   2.083   2.204   3.145
 7735SOL     OW24103   4.565   4.657   0.086
 7735SOL    HW124104   4.504   4.725   0.046
 7735SOL    HW224105   4.512   4.581   0.122
 7736SOL     OW24106   6.392   4.759   6.715
 7736SOL    HW124107   6.305   4.796   6.748
 7736SOL    HW224108   6.374   4.694   6.641
 7737SOL     OW24109   4.985   1.314   0.665
 7737SOL    HW124110   5.011   1.347   0.755
 7737SOL    HW224111   4.947   1.221   0.673
 7738SOL     OW24112   2.842   5.152   6.550
 7738SOL    HW124113   2.831   5.157   6.650
 7738SOL    HW224114   2.902   5.077   6.527
 7739SOL     OW24115   6.049   3.122   1.175
 7739SOL    HW124116   6.128   3.170   1.213
 7739SOL    HW224117   5.992   3.088   1.249
 7740SOL     OW24118   0.582   6.887   3.108
 7740SOL    HW124119   0.520   6.951   3.154
 7740SOL    HW224120   0.656   6.862   3.170
 7741SOL     OW24121   2.335   5.368   4.679
 7741SOL    HW124122   2.262   5.308   4.645
 7741SOL    HW224123   2.381   5.324   4.757
 7742SOL     OW24124   6.336   1.577   3.948
 7742SOL    HW124125   6.297   1.607   3.861
 7742SOL    HW224126   6.295   1.490   3.976
 7743SOL     OW24127   4.398   2.367   3.728
 7743SOL    HW124128   4.428   2.280   3.767
 7743SOL    HW224129   4.298   2.371   3.727
 7744SOL     OW24130   6.663   0.509   4.349
 7744SOL    HW124131   6.657   0.520   4.448
 7744SOL    HW224132   6.615   0.585   4.304
 7745SOL     OW24133   4.414   3.761   6.206
 7745SOL    HW124134   4.509   3.786   6.225
 7745SOL    HW224135   4.353   3.809   6.269
 7746SOL     OW24136   1.337   0.538   0.589
 7746SOL    HW124137   1.327   0.585   0.501
 7746SOL    HW224138   1.253   0.549   0.643
 7747SOL     OW24139   5.213   6.110   0.900
 7747SOL    HW124140   5.179   6.194   0.943
 7747SOL    HW224141   5.301   6.086   0.940
 7748SOL     OW24142   3.165   4.102   6.799
 7748SOL    HW124143   3.070   4.096   6.768
 7748SOL    HW224144   3.168   4.086   6.898
 7749SOL     OW24145   5.659   3.171   5.527
 7749SOL    HW124146   5.682   3.218   5.442
 7749SOL    HW224147   5.576   3.211   5.565
 7750SOL     OW24148   6.225   4.988   2.431
 7750SOL    HW124149   6.208   5.086   2.430
 7750SOL    HW224150   6.195   4.949   2.518
 7751SOL     OW24151   0.807   2.720   2.284
 7751SOL    HW124152   0.712   2.701   2.310
 7751SOL    HW224153   0.862   2.638   2.298
 7752SOL     OW24154   4.573   2.142   3.768
 7752SOL    HW124155   4.645   2.208   3.746
 7752SOL    HW224156   4.583   2.061   3.711
 7753SOL     OW24157   3.091   1.870   4.534
 7753SOL    HW124158   3.123   1.794   4.590
 7753SOL    HW224159   3.005   1.846   4.490
 7754SOL     OW24160   5.161   6.505   2.038
 7754SOL    HW124161   5.208   6.516   2.126
 7754SOL    HW224162   5.229   6.501   1.964
 7755SOL     OW24163   0.204   4.602   5.306
 7755SOL    HW124164   0.202   4.672   5.236
 7755SOL    HW224165   0.284   4.544   5.295
 7756SOL     OW24166   2.473   5.006   2.228
 7756SOL    HW124167   2.376   4.992   2.247
 7756SOL    HW224168   2.525   5.000   2.314
 7757SOL     OW24169   7.006   4.024   1.998
 7757SOL    HW124170   6.988   4.122   1.984
 7757SOL    HW224171   0.026   3.987   1.918
 7758SOL     OW24172   1.485   1.693   4.615
 7758SOL    HW124173   1.403   1.725   4.663
 7758SOL    HW224174   1.470   1.600   4.582
 7759SOL     OW24175   2.400   2.228   0.679
 7759SOL    HW124176   2.492   2.245   0.642
 7759SOL    HW224177   2.344   2.184   0.609
 7760SOL     OW24178   4.471   2.715   0.070
 7760SOL    HW124179   4.376   2.731   0.095
 7760SOL    HW224180   4.518   2.803   0.060
 7761SOL     OW24181   5.041   5.489   4.233
 7761SOL    HW124182   4.942   5.505   4.238
 7761SOL    HW224183   5.064   5.452   4.143
 7762SOL     OW24184   6.299   1.912   2.483
 7762SOL    HW124185   6.201   1.932   2.490
 7762SOL    HW224186   6.327   1.856   2.561
 7763SOL     OW24187   2.329   6.865   4.195
 7763SOL    HW124188   2.428   6.856   4.185
 7763SOL    HW224189   2.285   6.777   4.174
 7764SOL     OW24190   2.414   4.131   5.706
 7764SOL    HW124191   2.479   4.063   5.671
 7764SOL    HW224192   2.465   4.204   5.751
 7765SOL     OW24193   5.984   2.855   5.426
 7765SOL    HW124194   5.968   2.863   5.524
 7765SOL    HW224195   5.969   2.944   5.383
 7766SOL     OW24196   5.708   3.880   6.521
 7766SOL    HW124197   5.799   3.856   6.489
 7766SOL    HW224198   5.639   3.836   6.463
 7767SOL     OW24199   3.553   0.407   3.969
 7767SOL    HW124200   3.479   0.347   4.000
 7767SOL    HW224201   3.517   0.498   3.952
 7768SOL     OW24202   4.516   5.021   3.580
 7768SOL    HW124203   4.555   4.933   3.554
 7768SOL    HW224204   4.475   5.064   3.499
 7769SOL     OW24205   3.469   3.076   5.524
 7769SOL    HW124206   3.382   3.080   5.573
 7769SOL    HW224207   3.465   3.135   5.444
 7770SOL     OW24208   1.886   3.120   4.588
 7770SOL    HW124209   1.982   3.109   4.614
 7770SOL    HW224210   1.862   3.051   4.519
 7771SOL     OW24211   2.183   2.907   6.364
 7771SOL    HW124212   2.098   2.941   6.325
 7771SOL    HW224213   2.169   2.815   6.401
 7772SOL     OW24214   5.304   0.194   1.637
 7772SOL    HW124215   5.396   0.209   1.673
 7772SOL    HW224216   5.236   0.207   1.709
 7773SOL     OW24217   3.145   6.082   6.812
 7773SOL    HW124218   3.204   6.162   6.804
 7773SOL    HW224219   3.191   6.012   6.867
 7774SOL     OW24220   5.094   1.317   2.714
 7774SOL    HW124221   5.027   1.323   2.789
 7774SOL    HW224222   5.079   1.392   2.650
 7775SOL     OW24223   2.425   1.997   1.024
 7775SOL    HW124224   2.451   1.920   1.082
 7775SOL    HW224225   2.493   2.070   1.033
 7776SOL     OW24226   1.320   1.434   4.549
 7776SOL    HW124227   1.388   1.474   4.488
 7776SOL    HW224228   1.322   1.334   4.540
 7777SOL     OW24229   5.949   5.425   4.382
 7777SOL    HW124230   5.935   5.334   4.420
 7777SOL    HW224231   5.962   5.491   4.455
 7778SOL     OW24232   6.962   4.740   2.904
 7778SOL    HW124233   6.977   4.642   2.915
 7778SOL    HW224234   7.010   4.772   2.822
 7779SOL     OW24235   4.864   6.147   1.899
 7779SOL    HW124236   4.821   6.094   1.972
 7779SOL    HW224237   4.794   6.191   1.843
 7780SOL     OW24238   6.358   6.529   4.904
 7780SOL    HW124239   6.380   6.481   4.989
 7780SOL    HW224240   6.273   6.493   4.866
 7781SOL     OW24241   1.563   2.820   0.981
 7781SOL    HW124242   1.632   2.880   1.020
 7781SOL    HW224243   1.602   2.770   0.904
 7782SOL     OW24244   5.737   2.700   4.235
 7782SOL    HW124245   5.685   2.719   4.152
 7782SOL    HW224246   5.695   2.748   4.312
 7783SOL     OW24247   1.598   6.459   4.886
 7783SOL    HW124248   1.606   6.517   4.966
 7783SOL    HW224249   1.688   6.451   4.842
 7784SOL     OW24250   1.622   1.776   1.353
 7784SOL    HW124251   1.683   1.784   1.275
 7784SOL    HW224252   1.676   1.768   1.437
 7785SOL     OW24253   0.393   6.997   3.283
 7785SOL    HW124254   0.413   6.918   3.341
 7785SOL    HW224255   0.294   7.011   3.278
 7786SOL     OW24256   3.946   1.151   5.232
 7786SOL    HW124257   3.852   1.121   5.214
 7786SOL    HW224258   4.009   1.093   5.181
 7787SOL     OW24259   2.530   2.499   1.773
 7787SOL    HW124260   2.515   2.495   1.872
 7787SOL    HW224261   2.589   2.424   1.745
 7788SOL     OW24262   0.084   4.869   1.706
 7788SOL    HW124263   0.014   4.848   1.638
 7788SOL    HW224264   0.062   4.824   1.792
 7789SOL     OW24265   3.076   1.807   5.882
 7789SOL    HW124266   3.014   1.734   5.853
 7789SOL    HW224267   3.162   1.767   5.914
 7790SOL     OW24268   4.211   4.404   1.712
 7790SOL    HW124269   4.154   4.332   1.671
 7790SOL    HW224270   4.295   4.364   1.747
 7791SOL     OW24271   2.626   5.229   2.825
 7791SOL    HW124272   2.647   5.264   2.733
 7791SOL    HW224273   2.630   5.130   2.824
 7792SOL     OW24274   0.913   1.518   2.845
 7792SOL    HW124275   0.923   1.615   2.867
 7792SOL    HW224276   0.923   1.505   2.746
 7793SOL     OW24277   5.076   0.438   0.031
 7793SOL    HW124278   5.006   0.367   0.027
 7793SOL    HW224279   5.061   0.495   0.112
 7794SOL     OW24280   0.978   6.686   3.151
 7794SOL    HW124281   1.069   6.725   3.166
 7794SOL    HW224282   0.913   6.726   3.216
 7795SOL     OW24283   2.686   5.409   0.249
 7795SOL    HW124284   2.772   5.385   0.295
 7795SOL    HW224285   2.635   5.474   0.305
 7796SOL     OW24286   3.324   3.578   0.246
 7796SOL    HW124287   3.307   3.635   0.166
 7796SOL    HW224288   3.245   3.580   0.306
 7797SOL     OW24289   0.741   6.193   3.538
 7797SOL    HW124290   0.789   6.207   3.452
 7797SOL    HW224291   0.698   6.102   3.539
 7798SOL     OW24292   1.170   3.258   0.684
 7798SOL    HW124293   1.121   3.189   0.632
 7798SOL    HW224294   1.112   3.292   0.758
 7799SOL     OW24295   2.608   6.326   3.428
 7799SOL    HW124296   2.567   6.308   3.518
 7799SOL    HW224297   2.648   6.241   3.393
 7800SOL     OW24298   0.253   6.615   2.260
 7800SOL    HW124299   0.338   6.612   2.207
 7800SOL    HW224300   0.272   6.650   2.352
 7801SOL     OW24301   1.486   1.401   1.800
 7801SOL    HW124302   1.486   1.318   1.855
 7801SOL    HW224303   1.567   1.456   1.822
 7802SOL     OW24304   0.033   3.696   4.424
 7802SOL    HW124305   7.008   3.763   4.371
 7802SOL    HW224306   0.077   3.742   4.501
 7803SOL     OW24307   3.024   2.613   5.567
 7803SOL    HW124308   2.997   2.643   5.475
 7803SOL    HW224309   3.043   2.515   5.565
 7804SOL     OW24310   3.413   1.859   5.157
 7804SOL    HW124311   3.383   1.856   5.062
 7804SOL    HW224312   3.413   1.953   5.190
 7805SOL     OW24313   4.833   3.354   0.535
 7805SOL    HW124314   4.897   3.430   0.520
 7805SOL    HW224315   4.873   3.270   0.500
 7806SOL     OW24316   6.757   1.409   5.827
 7806SOL    HW124317   6.740   1.311   5.818
 7806SOL    HW224318   6.711   1.459   5.753
 7807SOL     OW24319   1.671   4.650   5.964
 7807SOL    HW124320   1.740   4.721   5.952
 7807SOL    HW224321   1.641   4.649   6.059
 7808SOL     OW24322   6.283   3.666   3.099
 7808SOL    HW124323   6.349   3.737   3.123
 7808SOL    HW224324   6.328   3.577   3.097
 7809SOL     OW24325   4.986   5.225   2.588
 7809SOL    HW124326   4.911   5.245   2.651
 7809SOL    HW224327   4.968   5.140   2.539
 7810SOL     OW24328   3.146   6.611   6.092
 7810SOL    HW124329   3.057   6.569   6.077
 7810SOL    HW224330   3.174   6.597   6.188
 7811SOL     OW24331   1.501   5.887   3.087
 7811SOL    HW124332   1.548   5.954   3.031
 7811SOL    HW224333   1.532   5.795   3.063
 7812SOL     OW24334   3.124   1.697   6.286
 7812SOL    HW124335   3.063   1.690   6.365
 7812SOL    HW224336   3.100   1.777   6.232
 7813SOL     OW24337   5.516   0.439   0.249
 7813SOL    HW124338   5.484   0.465   0.157
 7813SOL    HW224339   5.449   0.468   0.317
 7814SOL     OW24340   6.767   3.101   1.988
 7814SOL    HW124341   6.709   3.046   2.049
 7814SOL    HW224342   6.710   3.146   1.919
 7815SOL     OW24343   5.898   4.182   5.506
 7815SOL    HW124344   5.981   4.166   5.453
 7815SOL    HW224345   5.837   4.244   5.456
 7816SOL     OW24346   0.817   1.506   5.805
 7816SOL    HW124347   0.897   1.476   5.858
 7816SOL    HW224348   0.748   1.434   5.805
 7817SOL     OW24349   3.715   2.688   6.672
 7817SOL    HW124350   3.639   2.677   6.736
 7817SOL    HW224351   3.795   2.639   6.707
 7818SOL     OW24352   5.419   0.150   4.221
 7818SOL    HW124353   5.486   0.078   4.239
 7818SOL    HW224354   5.428   0.222   4.290
 7819SOL     OW24355   0.992   3.276   4.626
 7819SOL    HW124356   0.985   3.236   4.534
 7819SOL    HW224357   1.079   3.324   4.636
 7820SOL     OW24358   1.230   6.855   5.478
 7820SOL    HW124359   1.152   6.909   5.447
 7820SOL    HW224360   1.198   6.776   5.530
 7821SOL     OW24361   4.479   6.732   0.101
 7821SOL    HW124362   4.520   6.737   0.192
 7821SOL    HW224363   4.493   6.640   0.064
 7822SOL     OW24364   0.478   1.377   4.997
 7822SOL    HW124365   0.403   1.311   5.002
 7822SOL    HW224366   0.523   1.369   4.908
 7823SOL     OW24367   2.500   3.486   5.328
 7823SOL    HW124368   2.445   3.489   5.244
 7823SOL    HW224369   2.541   3.395   5.338
 7824SOL     OW24370   5.338   3.022   2.849
 7824SOL    HW124371   5.242   2.997   2.834
 7824SOL    HW224372   5.397   2.960   2.797
 7825SOL     OW24373   3.559   3.658   2.358
 7825SOL    HW124374   3.584   3.709   2.440
 7825SOL    HW224375   3.460   3.661   2.345
 7826SOL     OW24376   6.320   0.102   1.634
 7826SOL    HW124377   6.238   0.045   1.625
 7826SOL    HW224378   6.400   0.043   1.647
 7827SOL     OW24379   4.625   3.799   0.514
 7827SOL    HW124380   4.563   3.788   0.437
 7827SOL    HW224381   4.628   3.713   0.566
 7828SOL     OW24382   0.779   5.874   0.513
 7828SOL    HW124383   0.828   5.795   0.476
 7828SOL    HW224384   0.788   5.951   0.450
 7829SOL     OW24385   4.060   3.316   2.641
 7829SOL    HW124386   4.006   3.377   2.583
 7829SOL    HW224387   4.156   3.343   2.636
 7830SOL     OW24388   5.959   2.838   0.150
 7830SOL    HW124389   5.875   2.790   0.176
 7830SOL    HW224390   6.014   2.779   0.090
 7831SOL     OW24391   1.891   2.593   0.063
 7831SOL    HW124392   1.880   2.573   6.992
 7831SOL    HW224393   1.972   2.547   0.097
 7832SOL     OW24394   2.659   2.641   5.407
 7832SOL    HW124395   2.626   2.593   5.325
 7832SOL    HW224396   2.715   2.579   5.462
 7833SOL     OW24397   1.736   0.243   0.498
 7833SOL    HW124398   1.826   0.258   0.456
 7833SOL    HW224399   1.680   0.325   0.487
 7834SOL     OW24400   0.471   0.438   1.836
 7834SOL    HW124401   0.409   0.458   1.760
 7834SOL    HW224402   0.473   0.340   1.852
 7835SOL     OW24403   2.428   2.270   4.512
 7835SOL    HW124404   2.410   2.206   4.438
 7835SOL    HW224405   2.526   2.273   4.532
 7836SOL     OW24406   1.771   0.525   6.721
 7836SOL    HW124407   1.867   0.514   6.695
 7836SOL    HW224408   1.759   0.612   6.769
 7837SOL     OW24409   5.523   6.407   3.403
 7837SOL    HW124410   5.436   6.453   3.386
 7837SOL    HW224411   5.597   6.473   3.402
 7838SOL     OW24412   3.586   6.916   4.044
 7838SOL    HW124413   3.538   6.856   4.109
 7838SOL    HW224414   3.520   6.955   3.980
 7839SOL     OW24415   0.433   5.003   4.658
 7839SOL    HW124416   0.505   4.994   4.589
 7839SOL    HW224417   0.439   5.093   4.700
 7840SOL     OW24418   5.292   3.297   6.102
 7840SOL    HW124419   5.248   3.220   6.056
 7840SOL    HW224420   5.254   3.308   6.193
 7841SOL     OW24421   1.017   1.941   6.353
 7841SOL    HW124422   1.037   2.018   6.294
 7841SOL    HW224423   1.057   1.858   6.315
 7842SOL     OW24424   2.813   1.389   2.552
 7842SOL    HW124425   2.884   1.354   2.490
 7842SOL    HW224426   2.725   1.346   2.529
 7843SOL     OW24427   6.440   3.774   1.213
 7843SOL    HW124428   6.415   3.862   1.252
 7843SOL    HW224429   6.515   3.734   1.267
 7844SOL     OW24430   3.934   1.214   4.408
 7844SOL    HW124431   3.941   1.116   4.424
 7844SOL    HW224432   3.851   1.249   4.451
 7845SOL     OW24433   0.605   0.993   4.077
 7845SOL    HW124434   0.514   1.033   4.089
 7845SOL    HW224435   0.616   0.962   3.983
 7846SOL     OW24436   3.826   6.984   2.154
 7846SOL    HW124437   3.784   6.916   2.215
 7846SOL    HW224438   3.923   6.964   2.144
 7847SOL     OW24439   0.029   0.408   0.402
 7847SOL    HW124440   0.087   0.489   0.407
 7847SOL    HW224441   0.066   0.336   0.460
 7848SOL     OW24442   4.464   4.328   0.684
 7848SOL    HW124443   4.493   4.233   0.668
 7848SOL    HW224444   4.506   4.388   0.616
 7849SOL     OW24445   5.890   4.151   5.080
 7849SOL    HW124446   5.977   4.121   5.117
 7849SOL    HW224447   5.905   4.205   4.997
 7850SOL     OW24448   0.827   1.153   4.203
 7850SOL    HW124449   0.742   1.104   4.183
 7850SOL    HW224450   0.828   1.179   4.299
 7851SOL     OW24451   4.692   6.486   6.802
 7851SOL    HW124452   4.649   6.555   6.860
 7851SOL    HW224453   4.628   6.410   6.787
 7852SOL     OW24454   2.488   6.514   6.691
 7852SOL    HW124455   2.516   6.427   6.731
 7852SOL    HW224456   2.430   6.563   6.756
 7853SOL     OW24457   2.387   2.562   0.545
 7853SOL    HW124458   2.313   2.613   0.590
 7853SOL    HW224459   2.474   2.609   0.561
 7854SOL     OW24460   3.560   4.118   2.708
 7854SOL    HW124461   3.466   4.119   2.671
 7854SOL    HW224462   3.556   4.111   2.808
 7855SOL     OW24463   3.546   0.249   5.856
 7855SOL    HW124464   3.564   0.347   5.848
 7855SOL    HW224465   3.459   0.234   5.902
 7856SOL     OW24466   4.344   3.311   5.921
 7856SOL    HW124467   4.291   3.374   5.977
 7856SOL    HW224468   4.423   3.278   5.974
 7857SOL     OW24469   0.565   2.040   4.946
 7857SOL    HW124470   0.573   2.010   4.851
 7857SOL    HW224471   0.656   2.044   4.987
 7858SOL     OW24472   6.081   4.632   3.478
 7858SOL    HW124473   6.091   4.731   3.491
 7858SOL    HW224474   6.070   4.588   3.567
 7859SOL     OW24475   0.960   5.914   6.521
 7859SOL    HW124476   1.013   5.839   6.560
 7859SOL    HW224477   0.994   5.935   6.430
 7860SOL     OW24478   3.228   0.171   1.771
 7860SOL    HW124479   3.156   0.113   1.734
 7860SOL    HW224480   3.268   0.227   1.698
 7861SOL     OW24481   5.706   4.012   0.385
 7861SOL    HW124482   5.651   4.076   0.331
 7861SOL    HW224483   5.654   3.982   0.465
 7862SOL     OW24484   3.219   4.267   1.547
 7862SOL    HW124485   3.171   4.323   1.480
 7862SOL    HW224486   3.158   4.249   1.624
 7863SOL     OW24487   6.545   5.872   2.260
 7863SOL    HW124488   6.598   5.950   2.229
 7863SOL    HW224489   6.571   5.848   2.354
 7864SOL     OW24490   1.182   5.188   4.165
 7864SOL    HW124491   1.179   5.089   4.173
 7864SOL    HW224492   1.176   5.214   4.069
 7865SOL     OW24493   2.979   0.555   2.000
 7865SOL    HW124494   2.912   0.601   1.941
 7865SOL    HW224495   2.950   0.562   2.095
 7866SOL     OW24496   2.421   2.638   4.110
 7866SOL    HW124497   2.412   2.559   4.172
 7866SOL    HW224498   2.481   2.614   4.034
 7867SOL     OW24499   5.697   4.730   2.715
 7867SOL    HW124500   5.687   4.827   2.692
 7867SOL    HW224501   5.716   4.721   2.813
 7868SOL     OW24502   5.214   0.186   0.713
 7868SOL    HW124503   5.219   0.148   0.805
 7868SOL    HW224504   5.299   0.169   0.664
 7869SOL     OW24505   0.168   2.900   2.858
 7869SOL    HW124506   0.075   2.871   2.883
 7869SOL    HW224507   0.202   2.962   2.929
 7870SOL     OW24508   6.958   6.436   3.333
 7870SOL    HW124509   0.029   6.458   3.336
 7870SOL    HW224510   6.945   6.338   3.349
 7871SOL     OW24511   5.124   3.316   3.613
 7871SOL    HW124512   5.163   3.258   3.542
 7871SOL    HW224513   5.113   3.409   3.578
 7872SOL     OW24514   6.598   3.180   3.888
 7872SOL    HW124515   6.664   3.200   3.816
 7872SOL    HW224516   6.571   3.084   3.883
 7873SOL     OW24517   6.840   5.183   4.963
 7873SOL    HW124518   6.823   5.245   5.039
 7873SOL    HW224519   6.808   5.224   4.878
 7874SOL     OW24520   6.152   0.491   0.533
 7874SOL    HW124521   6.199   0.428   0.594
 7874SOL    HW224522   6.182   0.585   0.553
 7875SOL     OW24523   4.483   3.478   6.853
 7875SOL    HW124524   4.402   3.433   6.890
 7875SOL    HW224525   4.461   3.573   6.830
 7876SOL     OW24526   6.877   0.346   4.261
 7876SOL    HW124527   6.824   0.425   4.294
 7876SOL    HW224528   6.974   0.362   4.277
 7877SOL     OW24529   6.702   2.379   2.029
 7877SOL    HW124530   6.606   2.410   2.027
 7877SOL    HW224531   6.706   2.285   1.996
 7878SOL     OW24532   4.629   4.075   1.729
 7878SOL    HW124533   4.569   4.143   1.772
 7878SOL    HW224534   4.722   4.085   1.766
 7879SOL     OW24535   5.061   0.925   5.037
 7879SOL    HW124536   5.102   0.861   5.102
 7879SOL    HW224537   5.007   0.875   4.969
 7880SOL     OW24538   1.156   6.584   5.837
 7880SOL    HW124539   1.108   6.668   5.860
 7880SOL    HW224540   1.251   6.590   5.867
 7881SOL     OW24541   0.839   5.281   3.971
 7881SOL    HW124542   0.937   5.301   3.961
 7881SOL    HW224543   0.813   5.208   3.908
 7882SOL     OW24544   0.236   3.885   2.051
 7882SOL    HW124545   0.207   3.955   1.986
 7882SOL    HW224546   0.297   3.925   2.119
 7883SOL     OW24547   3.297   1.590   4.004
 7883SOL    HW124548   3.335   1.558   4.091
 7883SOL    HW224549   3.200   1.568   4.000
 7884SOL     OW24550   0.673   3.631   4.494
 7884SOL    HW124551   0.584   3.612   4.452
 7884SOL    HW224552   0.699   3.726   4.475
 7885SOL     OW24553   6.087   5.397   3.873
 7885SOL    HW124554   6.144   5.315   3.879
 7885SOL    HW224555   6.108   5.446   3.789
 7886SOL     OW24556   4.838   3.618   3.610
 7886SOL    HW124557   4.763   3.585   3.667
 7886SOL    HW224558   4.811   3.613   3.513
 7887SOL     OW24559   2.004   2.850   0.739
 7887SOL    HW124560   1.909   2.857   0.710
 7887SOL    HW224561   2.033   2.937   0.780
 7888SOL     OW24562   6.066   2.091   4.687
 7888SOL    HW124563   5.974   2.064   4.716
 7888SOL    HW224564   6.134   2.038   4.737
 7889SOL     OW24565   5.705   4.768   0.314
 7889SOL    HW124566   5.732   4.845   0.256
 7889SOL    HW224567   5.706   4.684   0.260
 7890SOL     OW24568   1.865   3.392   4.344
 7890SOL    HW124569   1.856   3.492   4.349
 7890SOL    HW224570   1.809   3.350   4.416
 7891SOL     OW24571   6.887   1.933   4.061
 7891SOL    HW124572   6.866   1.837   4.078
 7891SOL    HW224573   6.963   1.961   4.121
 7892SOL     OW24574   0.377   1.739   5.536
 7892SOL    HW124575   0.432   1.821   5.517
 7892SOL    HW224576   0.438   1.663   5.557
 7893SOL     OW24577   5.790   6.838   0.398
 7893SOL    HW124578   5.718   6.814   0.332
 7893SOL    HW224579   5.774   6.789   0.484
 7894SOL     OW24580   3.792   1.849   6.309
 7894SOL    HW124581   3.795   1.907   6.391
 7894SOL    HW224582   3.698   1.818   6.293
 7895SOL     OW24583   5.241   6.461   3.183
 7895SOL    HW124584   5.192   6.397   3.242
 7895SOL    HW224585   5.196   6.551   3.186
 7896SOL     OW24586   2.748   3.002   1.141
 7896SOL    HW124587   2.665   2.994   1.085
 7896SOL    HW224588   2.788   2.912   1.153
 7897SOL     OW24589   3.287   3.209   0.472
 7897SOL    HW124590   3.203   3.191   0.420
 7897SOL    HW224591   3.355   3.139   0.452
 7898SOL     OW24592   5.636   6.286   3.604
 7898SOL    HW124593   5.619   6.190   3.629
 7898SOL    HW224594   5.597   6.305   3.514
 7899SOL     OW24595   6.295   4.972   3.275
 7899SOL    HW124596   6.267   4.972   3.179
 7899SOL    HW224597   6.339   5.059   3.297
 7900SOL     OW24598   0.871   4.097   1.551
 7900SOL    HW124599   0.821   4.137   1.474
 7900SOL    HW224600   0.952   4.153   1.570
 7901SOL     OW24601   0.037   0.854   6.899
 7901SOL    HW124602   0.088   0.887   6.979
 7901SOL    HW224603   0.063   0.759   6.880
 7902SOL     OW24604   0.973   6.699   2.519
 7902SOL    HW124605   0.959   6.789   2.559
 7902SOL    HW224606   1.050   6.654   2.563
 7903SOL     OW24607   2.997   2.202   4.692
 7903SOL    HW124608   3.013   2.248   4.780
 7903SOL    HW224609   3.080   2.154   4.664
 7904SOL     OW24610   5.180   1.021   2.238
 7904SOL    HW124611   5.096   0.972   2.215
 7904SOL    HW224612   5.238   1.029   2.157
 7905SOL     OW24613   5.641   1.273   1.273
 7905SOL    HW124614   5.601   1.322   1.351
 7905SOL    HW224615   5.567   1.229   1.221
 7906SOL     OW24616   1.570   5.513   0.782
 7906SOL    HW124617   1.491   5.493   0.839
 7906SOL    HW224618   1.652   5.473   0.823
 7907SOL     OW24619   6.264   0.101   3.094
 7907SOL    HW124620   6.177   0.143   3.069
 7907SOL    HW224621   6.257   0.064   3.187
 7908SOL     OW24622   0.724   0.516   6.153
 7908SOL    HW124623   0.675   0.589   6.105
 7908SOL    HW224624   0.700   0.427   6.112
 7909SOL     OW24625   6.026   4.400   1.789
 7909SOL    HW124626   5.938   4.378   1.749
 7909SOL    HW224627   6.028   4.370   1.884
 7910SOL     OW24628   1.105   3.646   6.999
 7910SOL    HW124629   1.073   3.580   6.931
 7910SOL    HW224630   1.165   3.712   6.955
 7911SOL     OW24631   0.656   4.064   6.807
 7911SOL    HW124632   0.568   4.092   6.845
 7911SOL    HW224633   0.702   4.143   6.767
 7912SOL     OW24634   6.010   4.990   0.588
 7912SOL    HW124635   6.018   5.035   0.499
 7912SOL    HW224636   5.917   5.004   0.623
 7913SOL     OW24637   1.159   4.454   1.842
 7913SOL    HW124638   1.237   4.504   1.804
 7913SOL    HW224639   1.092   4.437   1.770
 7914SOL     OW24640   6.564   6.307   4.817
 7914SOL    HW124641   6.630   6.275   4.749
 7914SOL    HW224642   6.594   6.395   4.854
 7915SOL     OW24643   3.955   5.924   2.440
 7915SOL    HW124644   3.859   5.941   2.463
 7915SOL    HW224645   3.962   5.841   2.384
 7916SOL     OW24646   1.463   0.223   4.645
 7916SOL    HW124647   1.484   0.306   4.695
 7916SOL    HW224648   1.366   0.201   4.656
 7917SOL     OW24649   4.075   3.465   0.873
 7917SOL    HW124650   4.124   3.552   0.879
 7917SOL    HW224651   4.056   3.431   0.964
 7918SOL     OW24652   1.786   1.824   3.892
 7918SOL    HW124653   1.848   1.891   3.852
 7918SOL    HW224654   1.813   1.805   3.987
 7919SOL     OW24655   2.413   6.330   4.061
 7919SOL    HW124656   2.497   6.277   4.076
 7919SOL    HW224657   2.414   6.411   4.121
 7920SOL     OW24658   5.072   0.366   1.079
 7920SOL    HW124659   4.991   0.382   1.022
 7920SOL    HW224660   5.102   0.453   1.119
 7921SOL     OW24661   5.566   1.791   0.876
 7921SOL    HW124662   5.623   1.845   0.815
 7921SOL    HW224663   5.494   1.746   0.824
 7922SOL     OW24664   1.378   5.733   0.908
 7922SOL    HW124665   1.332   5.644   0.913
 7922SOL    HW224666   1.466   5.727   0.955
 7923SOL     OW24667   5.223   1.141   0.144
 7923SOL    HW124668   5.157   1.174   0.211
 7923SOL    HW224669   5.178   1.125   0.056
 7924SOL     OW24670   6.349   6.283   0.822
 7924SOL    HW124671   6.333   6.184   0.828
 7924SOL    HW224672   6.283   6.331   0.880
 7925SOL     OW24673   1.580   6.058   6.326
 7925SOL    HW124674   1.542   6.067   6.418
 7925SOL    HW224675   1.561   6.141   6.274
 7926SOL     OW24676   4.710   5.351   0.362
 7926SOL    HW124677   4.719   5.432   0.303
 7926SOL    HW224678   4.801   5.322   0.393
 7927SOL     OW24679   4.134   6.809   3.012
 7927SOL    HW124680   4.223   6.855   3.007
 7927SOL    HW224681   4.065   6.873   3.044
 7928SOL     OW24682   6.534   2.139   3.428
 7928SOL    HW124683   6.524   2.231   3.466
 7928SOL    HW224684   6.522   2.072   3.501
 7929SOL     OW24685   4.103   4.467   6.152
 7929SOL    HW124686   4.160   4.385   6.144
 7929SOL    HW224687   4.154   4.538   6.199
 7930SOL     OW24688   4.432   6.309   5.670
 7930SOL    HW124689   4.343   6.310   5.715
 7930SOL    HW224690   4.453   6.217   5.639
 7931SOL     OW24691   3.843   2.107   0.897
 7931SOL    HW124692   3.915   2.097   0.828
 7931SOL    HW224693   3.884   2.120   0.987
 7932SOL     OW24694   1.720   3.942   2.338
 7932SOL    HW124695   1.721   4.037   2.306
 7932SOL    HW224696   1.775   3.935   2.422
 7933SOL     OW24697   0.659   1.023   0.070
 7933SOL    HW124698   0.690   0.948   0.129
 7933SOL    HW224699   0.679   1.000   7.001
 7934SOL     OW24700   0.978   5.038   1.236
 7934SOL    HW124701   0.922   5.034   1.154
 7934SOL    HW224702   1.005   4.945   1.262
 7935SOL     OW24703   4.816   3.067   3.501
 7935SOL    HW124704   4.800   3.132   3.575
 7935SOL    HW224705   4.866   3.113   3.427
 7936SOL     OW24706   3.522   5.917   3.758
 7936SOL    HW124707   3.566   6.006   3.754
 7936SOL    HW224708   3.473   5.908   3.844
 7937SOL     OW24709   3.531   1.163   0.004
 7937SOL    HW124710   3.590   1.221   0.059
 7937SOL    HW224711   3.588   1.099   6.978
 7938SOL     OW24712   3.203   6.796   4.332
 7938SOL    HW124713   3.247   6.886   4.334
 7938SOL    HW224714   3.224   6.747   4.416
 7939SOL     OW24715   0.590   1.376   4.242
 7939SOL    HW124716   0.626   1.466   4.267
 7939SOL    HW224717   0.601   1.363   4.143
 7940SOL     OW24718   5.713   1.170   3.299
 7940SOL    HW124719   5.660   1.254   3.313
 7940SOL    HW224720   5.754   1.172   3.208
 7941SOL     OW24721   3.629   6.801   1.297
 7941SOL    HW124722   3.650   6.751   1.382
 7941SOL    HW224723   3.538   6.841   1.303
 7942SOL     OW24724   1.117   4.802   0.840
 7942SOL    HW124725   1.069   4.759   0.764
 7942SOL    HW224726   1.201   4.752   0.860
 7943SOL     OW24727   1.651   5.904   5.871
 7943SOL    HW124728   1.602   5.819   5.851
 7943SOL    HW224729   1.587   5.979   5.876
 7944SOL     OW24730   1.447   2.303   1.358
 7944SOL    HW124731   1.366   2.360   1.346
 7944SOL    HW224732   1.460   2.245   1.277
 7945SOL     OW24733   6.004   4.385   3.392
 7945SOL    HW124734   6.051   4.472   3.404
 7945SOL    HW224735   5.917   4.386   3.441
 7946SOL     OW24736   3.567   1.678   6.315
 7946SOL    HW124737   3.600   1.585   6.331
 7946SOL    HW224738   3.494   1.676   6.246
 7947SOL     OW24739   0.533   3.698   6.241
 7947SOL    HW124740   0.438   3.669   6.231
 7947SOL    HW224741   0.582   3.632   6.298
 7948SOL     OW24742   1.555   4.712   2.589
 7948SOL    HW124743   1.528   4.623   2.553
 7948SOL    HW224744   1.614   4.699   2.668
 7949SOL     OW24745   3.765   6.419   6.504
 7949SOL    HW124746   3.786   6.510   6.540
 7949SOL    HW224747   3.816   6.405   6.419
 7950SOL     OW24748   5.770   4.421   5.419
 7950SOL    HW124749   5.860   4.460   5.401
 7950SOL    HW224750   5.699   4.488   5.397
 7951SOL     OW24751   3.671   5.996   2.531
 7951SOL    HW124752   3.637   5.916   2.482
 7951SOL    HW224753   3.595   6.041   2.578
 7952SOL     OW24754   6.024   3.855   6.543
 7952SOL    HW124755   6.042   3.871   6.446
 7952SOL    HW224756   6.104   3.882   6.597
 7953SOL     OW24757   3.168   0.613   0.786
 7953SOL    HW124758   3.123   0.524   0.779
 7953SOL    HW224759   3.135   0.672   0.713
 7954SOL     OW24760   4.010   3.829   6.559
 7954SOL    HW124761   4.030   3.833   6.656
 7954SOL    HW224762   3.938   3.896   6.537
 7955SOL     OW24763   1.390   1.917   6.748
 7955SOL    HW124764   1.439   1.835   6.779
 7955SOL    HW224765   1.303   1.889   6.708
 7956SOL     OW24766   6.457   6.132   0.223
 7956SOL    HW124767   6.527   6.080   0.272
 7956SOL    HW224768   6.442   6.219   0.270
 7957SOL     OW24769   4.598   0.923   6.038
 7957SOL    HW124770   4.546   0.966   5.964
 7957SOL    HW224771   4.566   0.828   6.050
 7958SOL     OW24772   5.946   2.324   0.318
 7958SOL    HW124773   5.990   2.340   0.229
 7958SOL    HW224774   6.006   2.356   0.391
 7959SOL     OW24775   5.785   1.234   6.423
 7959SOL    HW124776   5.875   1.273   6.437
 7959SOL    HW224777   5.793   1.141   6.387
 7960SOL     OW24778   0.094   0.926   5.490
 7960SOL    HW124779   0.012   0.984   5.485
 7960SOL    HW224780   0.162   0.970   5.550
 7961SOL     OW24781   6.392   6.376   0.288
 7961SOL    HW124782   6.337   6.342   0.364
 7961SOL    HW224783   6.457   6.444   0.320
 7962SOL     OW24784   5.276   0.033   5.700
 7962SOL    HW124785   5.353   0.095   5.713
 7962SOL    HW224786   5.309   6.973   5.664
 7963SOL     OW24787   6.730   6.716   4.190
 7963SOL    HW124788   6.825   6.721   4.162
 7963SOL    HW224789   6.671   6.734   4.111
 7964SOL     OW24790   6.787   4.474   1.806
 7964SOL    HW124791   6.737   4.525   1.736
 7964SOL    HW224792   6.811   4.535   1.881
 7965SOL     OW24793   3.455   2.819   6.643
 7965SOL    HW124794   3.538   2.827   6.588
 7965SOL    HW224795   3.462   2.739   6.702
 7966SOL     OW24796   4.950   3.492   4.821
 7966SOL    HW124797   4.932   3.538   4.734
 7966SOL    HW224798   4.934   3.556   4.896
 7967SOL     OW24799   1.649   4.439   1.605
 7967SOL    HW124800   1.716   4.503   1.569
 7967SOL    HW224801   1.672   4.417   1.700
 7968SOL     OW24802   0.124   2.781   5.160
 7968SOL    HW124803   0.130   2.782   5.260
 7968SOL    HW224804   0.216   2.783   5.121
 7969SOL     OW24805   4.858   5.220   0.049
 7969SOL    HW124806   4.842   5.139   0.105
 7969SOL    HW224807   4.786   5.227   7.007
 7970SOL     OW24808   5.844   2.871   2.854
 7970SOL    HW124809   5.813   2.960   2.888
 7970SOL    HW224810   5.908   2.884   2.778
 7971SOL     OW24811   3.121   1.120   0.445
 7971SOL    HW124812   3.064   1.121   0.363
 7971SOL    HW224813   3.215   1.144   0.421
 7972SOL     OW24814   3.863   3.802   3.538
 7972SOL    HW124815   3.835   3.758   3.623
 7972SOL    HW224816   3.956   3.773   3.514
 7973SOL     OW24817   6.521   4.187   2.479
 7973SOL    HW124818   6.565   4.194   2.569
 7973SOL    HW224819   6.551   4.103   2.434
 7974SOL     OW24820   6.472   2.694   6.643
 7974SOL    HW124821   6.453   2.789   6.618
 7974SOL    HW224822   6.481   2.687   6.742
 7975SOL     OW24823   5.814   0.569   1.182
 7975SOL    HW124824   5.781   0.658   1.214
 7975SOL    HW224825   5.788   0.556   1.087
 7976SOL     OW24826   0.935   0.249   0.865
 7976SOL    HW124827   0.873   0.186   0.912
 7976SOL    HW224828   1.029   0.230   0.893
 7977SOL     OW24829   5.603   5.475   3.775
 7977SOL    HW124830   5.681   5.441   3.827
 7977SOL    HW224831   5.542   5.525   3.837
 7978SOL     OW24832   0.065   4.647   1.895
 7978SOL    HW124833   0.102   4.659   1.803
 7978SOL    HW224834   0.131   4.595   1.950
 7979SOL     OW24835   1.622   2.212   3.907
 7979SOL    HW124836   1.719   2.209   3.931
 7979SOL    HW224837   1.595   2.126   3.865
 7980SOL     OW24838   4.201   5.450   0.127
 7980SOL    HW124839   4.109   5.462   0.090
 7980SOL    HW224840   4.237   5.539   0.156
 7981SOL     OW24841   1.986   4.551   3.119
 7981SOL    HW124842   2.050   4.539   3.043
 7981SOL    HW224843   1.925   4.471   3.123
 7982SOL     OW24844   6.292   1.736   5.503
 7982SOL    HW124845   6.385   1.760   5.478
 7982SOL    HW224846   6.233   1.742   5.422
 7983SOL     OW24847   4.961   1.065   1.653
 7983SOL    HW124848   4.955   0.988   1.715
 7983SOL    HW224849   5.022   1.043   1.577
 7984SOL     OW24850   0.997   2.152   2.776
 7984SOL    HW124851   0.902   2.145   2.807
 7984SOL    HW224852   1.051   2.197   2.847
 7985SOL     OW24853   2.719   2.902   5.349
 7985SOL    HW124854   2.707   2.807   5.378
 7985SOL    HW224855   2.639   2.930   5.295
 7986SOL     OW24856   3.434   1.138   4.010
 7986SOL    HW124857   3.414   1.149   4.107
 7986SOL    HW224858   3.495   1.211   3.980
 7987SOL     OW24859   1.366   3.739   6.912
 7987SOL    HW124860   1.358   3.802   6.835
 7987SOL    HW224861   1.445   3.680   6.899
 7988SOL     OW24862   6.652   1.591   1.776
 7988SOL    HW124863   6.645   1.631   1.867
 7988SOL    HW224864   6.740   1.545   1.767
 7989SOL     OW24865   0.220   4.437   0.390
 7989SOL    HW124866   0.308   4.476   0.416
 7989SOL    HW224867   0.236   4.348   0.346
 7990SOL     OW24868   3.855   5.610   5.278
 7990SOL    HW124869   3.785   5.681   5.264
 7990SOL    HW224870   3.929   5.623   5.213
 7991SOL     OW24871   5.941   1.386   5.347
 7991SOL    HW124872   5.928   1.388   5.446
 7991SOL    HW224873   5.878   1.319   5.307
 7992SOL     OW24874   2.679   6.795   6.853
 7992SOL    HW124875   2.677   6.716   6.914
 7992SOL    HW224876   2.651   6.769   6.761
 7993SOL     OW24877   6.421   5.852   1.641
 7993SOL    HW124878   6.435   5.924   1.709
 7993SOL    HW224879   6.328   5.816   1.650
 7994SOL     OW24880   5.560   0.411   4.030
 7994SOL    HW124881   5.484   0.359   4.070
 7994SOL    HW224882   5.619   0.444   4.103
 7995SOL     OW24883   0.608   4.687   1.421
 7995SOL    HW124884   0.628   4.650   1.330
 7995SOL    HW224885   0.619   4.787   1.420
 7996SOL     OW24886   3.058   0.953   3.241
 7996SOL    HW124887   3.122   0.947   3.165
 7996SOL    HW224888   2.989   0.881   3.232
 7997SOL     OW24889   1.579   1.665   6.576
 7997SOL    HW124890   1.571   1.702   6.669
 7997SOL    HW224891   1.507   1.704   6.518
 7998SOL     OW24892   2.307   0.804   0.721
 7998SOL    HW124893   2.265   0.822   0.632
 7998SOL    HW224894   2.401   0.838   0.721
 7999SOL     OW24895   0.746   0.675   4.437
 7999SOL    HW124896   0.762   0.693   4.340
 7999SOL    HW224897   0.652   0.644   4.451
 8000SOL     OW24898   4.590   5.194   6.959
 8000SOL    HW124899   4.544   5.249   0.000
 8000SOL    HW224900   4.525   5.132   6.916
 8001SOL     OW24901   4.732   5.924   1.569
 8001SOL    HW124902   4.688   6.013   1.561
 8001SOL    HW224903   4.780   5.918   1.657
 8002SOL     OW24904   0.805   0.397   5.165
 8002SOL    HW124905   0.837   0.391   5.071
 8002SOL    HW224906   0.705   0.399   5.166
 8003SOL     OW24907   2.242   5.553   2.427
 8003SOL    HW124908   2.294   5.638   2.415
 8003SOL    HW224909   2.262   5.513   2.516
 8004SOL     OW24910   1.552   2.937   3.883
 8004SOL    HW124911   1.548   2.840   3.860
 8004SOL    HW224912   1.626   2.980   3.832
 8005SOL     OW24913   2.158   0.135   3.360
 8005SOL    HW124914   2.198   0.152   3.270
 8005SOL    HW224915   2.061   0.110   3.349
 8006SOL     OW24916   4.137   4.906   5.098
 8006SOL    HW124917   4.057   4.853   5.126
 8006SOL    HW224918   4.145   4.904   4.998
 8007SOL     OW24919   5.863   0.181   6.435
 8007SOL    HW124920   5.938   0.136   6.483
 8007SOL    HW224921   5.794   0.212   6.501
 8008SOL     OW24922   5.386   6.611   7.012
 8008SOL    HW124923   5.470   6.601   0.037
 8008SOL    HW224924   5.388   6.549   6.933
 8009SOL     OW24925   4.960   2.003   6.197
 8009SOL    HW124926   4.921   1.989   6.288
 8009SOL    HW224927   4.893   2.050   6.139
 8010SOL     OW24928   3.115   1.731   5.509
 8010SOL    HW124929   3.195   1.727   5.568
 8010SOL    HW224930   3.142   1.765   5.419
 8011SOL     OW24931   4.236   1.585   2.407
 8011SOL    HW124932   4.319   1.631   2.437
 8011SOL    HW224933   4.185   1.553   2.487
 8012SOL     OW24934   0.047   1.413   5.010
 8012SOL    HW124935   0.027   1.378   4.918
 8012SOL    HW224936   7.018   1.495   5.026
 8013SOL     OW24937   3.651   2.067   2.421
 8013SOL    HW124938   3.645   2.043   2.324
 8013SOL    HW224939   3.559   2.076   2.460
 8014SOL     OW24940   1.943   1.744   2.404
 8014SOL    HW124941   2.032   1.767   2.363
 8014SOL    HW224942   1.880   1.820   2.392
 8015SOL     OW24943   3.336   0.293   5.672
 8015SOL    HW124944   3.256   0.286   5.731
 8015SOL    HW224945   3.351   0.206   5.626
 8016SOL     OW24946   3.515   1.796   4.692
 8016SOL    HW124947   3.515   1.701   4.661
 8016SOL    HW224948   3.608   1.823   4.714
 8017SOL     OW24949   6.443   6.147   1.193
 8017SOL    HW124950   6.516   6.126   1.129
 8017SOL    HW224951   6.449   6.086   1.272
 8018SOL     OW24952   4.286   1.906   6.852
 8018SOL    HW124953   4.246   1.822   6.891
 8018SOL    HW224954   4.340   1.883   6.772
 8019SOL     OW24955   2.488   3.730   0.716
 8019SOL    HW124956   2.502   3.700   0.622
 8019SOL    HW224957   2.474   3.650   0.774
 8020SOL     OW24958   6.783   0.911   5.358
 8020SOL    HW124959   6.837   0.828   5.367
 8020SOL    HW224960   6.758   0.925   5.262
 8021SOL     OW24961   1.870   2.262   1.253
 8021SOL    HW124962   1.775   2.290   1.245
 8021SOL    HW224963   1.896   2.209   1.173
 8022SOL     OW24964   5.030   1.543   2.531
 8022SOL    HW124965   4.945   1.584   2.565
 8022SOL    HW224966   5.022   1.526   2.433
 8023SOL     OW24967   5.467   6.019   2.265
 8023SOL    HW124968   5.541   6.065   2.312
 8023SOL    HW224969   5.471   6.041   2.167
 8024SOL     OW24970   2.456   0.639   6.508
 8024SOL    HW124971   2.361   0.619   6.531
 8024SOL    HW224972   2.462   0.731   6.469
 8025SOL     OW24973   1.432   5.850   1.967
 8025SOL    HW124974   1.390   5.791   2.037
 8025SOL    HW224975   1.361   5.905   1.924
 8026SOL     OW24976   0.641   5.598   6.524
 8026SOL    HW124977   0.629   5.678   6.465
 8026SOL    HW224978   0.682   5.627   6.611
 8027SOL     OW24979   3.250   0.653   6.859
 8027SOL    HW124980   3.274   0.675   6.764
 8027SOL    HW224981   3.194   0.570   6.860
 8028SOL     OW24982   3.206   5.352   4.916
 8028SOL    HW124983   3.149   5.370   4.996
 8028SOL    HW224984   3.215   5.253   4.904
 8029SOL     OW24985   0.187   6.875   0.272
 8029SOL    HW124986   0.098   6.919   0.282
 8029SOL    HW224987   0.228   6.862   0.363
 8030SOL     OW24988   0.660   3.719   0.803
 8030SOL    HW124989   0.660   3.806   0.754
 8030SOL    HW224990   0.586   3.661   0.769
 8031SOL     OW24991   0.339   0.782   3.271
 8031SOL    HW124992   0.280   0.759   3.349
 8031SOL    HW224993   0.401   0.856   3.298
 8032SOL     OW24994   6.302   2.961   1.076
 8032SOL    HW124995   6.276   2.945   0.981
 8032SOL    HW224996   6.358   3.043   1.083
 8033SOL     OW24997   5.107   3.920   1.009
 8033SOL    HW124998   5.067   3.879   1.091
 8033SOL    HW224999   5.155   4.004   1.034
 8034SOL     OW25000   5.971   0.666   5.838
 8034SOL    HW125001   6.065   0.662   5.802
 8034SOL    HW225002   5.968   0.730   5.914
 8035SOL     OW25003   6.141   1.955   3.050
 8035SOL    HW125004   6.179   2.014   3.122
 8035SOL    HW225005   6.086   1.883   3.092
 8036SOL     OW25006   5.837   2.457   3.468
 8036SOL    HW125007   5.910   2.436   3.532
 8036SOL    HW225008   5.798   2.372   3.432
 8037SOL     OW25009   1.388   1.639   5.699
 8037SOL    HW125010   1.425   1.664   5.610
 8037SOL    HW225011   1.449   1.671   5.772
 8038SOL     OW25012   0.086   4.787   2.174
 8038SOL    HW125013   0.024   4.748   2.241
 8038SOL    HW225014   0.136   4.713   2.128
 8039SOL     OW25015   1.277   2.368   5.580
 8039SOL    HW125016   1.204   2.424   5.540
 8039SOL    HW225017   1.255   2.271   5.568
 8040SOL     OW25018   1.998   5.498   6.614
 8040SOL    HW125019   1.944   5.469   6.535
 8040SOL    HW225020   2.091   5.463   6.606
 8041SOL     OW25021   3.566   1.410   3.130
 8041SOL    HW125022   3.627   1.338   3.097
 8041SOL    HW225023   3.492   1.369   3.183
 8042SOL     OW25024   4.228   4.125   5.570
 8042SOL    HW125025   4.143   4.156   5.613
 8042SOL    HW225026   4.218   4.130   5.471
 8043SOL     OW25027   5.035   5.724   6.821
 8043SOL    HW125028   5.027   5.753   6.726
 8043SOL    HW225029   5.123   5.679   6.835
 8044SOL     OW25030   2.620   3.634   1.622
 8044SOL    HW125031   2.524   3.656   1.639
 8044SOL    HW225032   2.675   3.661   1.700
 8045SOL     OW25033   6.880   2.340   3.168
 8045SOL    HW125034   6.953   2.300   3.113
 8045SOL    HW225035   6.795   2.290   3.153
 8046SOL     OW25036   7.016   4.512   2.365
 8046SOL    HW125037   6.970   4.582   2.310
 8046SOL    HW225038   6.987   4.422   2.334
 8047SOL     OW25039   3.427   6.561   6.664
 8047SOL    HW125040   3.481   6.519   6.737
 8047SOL    HW225041   3.330   6.558   6.688
 8048SOL     OW25042   3.601   2.562   6.114
 8048SOL    HW125043   3.541   2.617   6.056
 8048SOL    HW225044   3.690   2.553   6.069
 8049SOL     OW25045   1.195   1.830   7.024
 8049SOL    HW125046   1.232   1.751   0.046
 8049SOL    HW225047   1.126   1.798   6.958
 8050SOL     OW25048   0.726   4.657   5.465
 8050SOL    HW125049   0.678   4.576   5.499
 8050SOL    HW225050   0.675   4.739   5.492
 8051SOL     OW25051   4.384   5.895   3.319
 8051SOL    HW125052   4.327   5.901   3.238
 8051SOL    HW225053   4.327   5.872   3.398
 8052SOL     OW25054   2.669   2.308   2.580
 8052SOL    HW125055   2.637   2.402   2.581
 8052SOL    HW225056   2.610   2.252   2.639
 8053SOL     OW25057   2.084   2.847   6.854
 8053SOL    HW125058   2.074   2.837   6.953
 8053SOL    HW225059   2.026   2.780   6.808
 8054SOL     OW25060   4.697   3.308   5.341
 8054SOL    HW125061   4.646   3.393   5.325
 8054SOL    HW225062   4.742   3.313   5.430
 8055SOL     OW25063   5.640   0.247   6.629
 8055SOL    HW125064   5.683   0.190   6.698
 8055SOL    HW225065   5.593   0.324   6.673
 8056SOL     OW25066   2.105   1.293   5.201
 8056SOL    HW125067   2.056   1.271   5.116
 8056SOL    HW225068   2.193   1.335   5.179
 8057SOL     OW25069   2.966   2.082   1.996
 8057SOL    HW125070   2.993   2.038   2.082
 8057SOL    HW225071   2.944   2.178   2.013
 8058SOL     OW25072   3.576   6.751   2.489
 8058SOL    HW125073   3.611   6.667   2.529
 8058SOL    HW225074   3.497   6.784   2.542
 8059SOL     OW25075   2.603   2.811   6.282
 8059SOL    HW125076   2.666   2.878   6.244
 8059SOL    HW225077   2.644   2.720   6.276
 8060SOL     OW25078   5.978   0.858   6.051
 8060SOL    HW125079   6.065   0.853   6.099
 8060SOL    HW225080   5.925   0.937   6.084
 8061SOL     OW25081   0.228   0.625   2.847
 8061SOL    HW125082   0.264   0.545   2.799
 8061SOL    HW225083   0.293   0.700   2.840
 8062SOL     OW25084   4.053   5.430   5.555
 8062SOL    HW125085   3.997   5.513   5.561
 8062SOL    HW225086   4.002   5.359   5.506
 8063SOL     OW25087   3.558   5.425   3.415
 8063SOL    HW125088   3.569   5.337   3.369
 8063SOL    HW225089   3.462   5.437   3.440
 8064SOL     OW25090   6.381   1.795   0.715
 8064SOL    HW125091   6.436   1.869   0.756
 8064SOL    HW225092   6.379   1.717   0.777
 8065SOL     OW25093   4.011   5.765   6.679
 8065SOL    HW125094   3.959   5.689   6.718
 8065SOL    HW225095   3.963   5.851   6.697
 8066SOL     OW25096   0.015   0.043   5.512
 8066SOL    HW125097   7.019   6.994   5.573
 8066SOL    HW225098   6.964   0.063   5.453
 8067SOL     OW25099   5.254   2.585   3.740
 8067SOL    HW125100   5.332   2.644   3.757
 8067SOL    HW225101   5.249   2.515   3.812
 8068SOL     OW25102   5.861   4.131   1.297
 8068SOL    HW125103   5.952   4.126   1.255
 8068SOL    HW225104   5.871   4.140   1.396
 8069SOL     OW25105   2.688   5.333   3.083
 8069SOL    HW125106   2.648   5.338   2.991
 8069SOL    HW225107   2.788   5.340   3.076
 8070SOL     OW25108   4.222   4.793   0.507
 8070SOL    HW125109   4.158   4.870   0.509
 8070SOL    HW225110   4.219   4.745   0.595
 8071SOL     OW25111   2.514   7.003   6.048
 8071SOL    HW125112   2.525   7.005   6.147
 8071SOL    HW225113   2.430   6.955   6.024
 8072SOL     OW25114   1.180   1.979   5.821
 8072SOL    HW125115   1.114   1.905   5.818
 8072SOL    HW225116   1.158   2.046   5.750
 8073SOL     OW25117   3.746   0.753   6.808
 8073SOL    HW125118   3.733   0.679   6.875
 8073SOL    HW225119   3.808   0.723   6.736
 8074SOL     OW25120   1.150   0.614   6.144
 8074SOL    HW125121   1.239   0.659   6.154
 8074SOL    HW225122   1.165   0.516   6.129
 8075SOL     OW25123   0.055   6.992   0.716
 8075SOL    HW125124   0.046   0.062   0.696
 8075SOL    HW225125   0.096   6.980   0.807
 8076SOL     OW25126   6.875   6.111   1.000
 8076SOL    HW125127   6.854   6.148   0.909
 8076SOL    HW225128   6.844   6.175   1.070
 8077SOL     OW25129   4.939   4.789   0.484
 8077SOL    HW125130   4.900   4.881   0.482
 8077SOL    HW225131   4.873   4.726   0.525
 8078SOL     OW25132   0.962   0.233   2.188
 8078SOL    HW125133   1.060   0.213   2.185
 8078SOL    HW225134   0.940   0.281   2.272
 8079SOL     OW25135   1.113   1.708   6.201
 8079SOL    HW125136   1.202   1.699   6.155
 8079SOL    HW225137   1.048   1.753   6.140
 8080SOL     OW25138   1.361   3.037   3.133
 8080SOL    HW125139   1.387   2.944   3.106
 8080SOL    HW225140   1.367   3.046   3.232
 8081SOL     OW25141   6.149   6.006   4.929
 8081SOL    HW125142   6.196   6.073   4.872
 8081SOL    HW225143   6.052   6.003   4.904
 8082SOL     OW25144   4.108   1.670   2.194
 8082SOL    HW125145   4.149   1.635   2.278
 8082SOL    HW225146   4.053   1.751   2.215
 8083SOL     OW25147   5.857   2.500   4.807
 8083SOL    HW125148   5.784   2.481   4.873
 8083SOL    HW225149   5.834   2.457   4.720
 8084SOL     OW25150   3.689   2.265   5.862
 8084SOL    HW125151   3.636   2.216   5.793
 8084SOL    HW225152   3.690   2.213   5.947
 8085SOL     OW25153   1.580   6.329   4.326
 8085SOL    HW125154   1.516   6.275   4.271
 8085SOL    HW225155   1.576   6.424   4.296
 8086SOL     OW25156   6.955   0.750   2.575
 8086SOL    HW125157   6.952   0.686   2.651
 8086SOL    HW225158   6.868   0.749   2.527
 8087SOL     OW25159   0.716   0.756   0.152
 8087SOL    HW125160   0.657   0.716   0.222
 8087SOL    HW225161   0.728   0.691   0.078
 8088SOL     OW25162   6.316   0.214   4.498
 8088SOL    HW125163   6.404   0.169   4.481
 8088SOL    HW225164   6.310   0.241   4.594
 8089SOL     OW25165   6.064   2.223   6.082
 8089SOL    HW125166   6.034   2.140   6.129
 8089SOL    HW225167   6.067   2.207   5.983
 8090SOL     OW25168   4.272   2.121   5.356
 8090SOL    HW125169   4.307   2.034   5.391
 8090SOL    HW225170   4.238   2.177   5.432
 8091SOL     OW25171   1.694   4.840   4.358
 8091SOL    HW125172   1.752   4.910   4.400
 8091SOL    HW225173   1.734   4.750   4.374
 8092SOL     OW25174   4.874   1.874   5.724
 8092SOL    HW125175   4.946   1.819   5.681
 8092SOL    HW225176   4.909   1.915   5.808
 8093SOL     OW25177   3.847   6.203   2.205
 8093SOL    HW125178   3.870   6.253   2.121
 8093SOL    HW225179   3.913   6.226   2.276
 8094SOL     OW25180   1.785   4.235   3.770
 8094SOL    HW125181   1.844   4.257   3.849
 8094SOL    HW225182   1.734   4.317   3.744
 8095SOL     OW25183   1.253   4.876   5.510
 8095SOL    HW125184   1.263   4.838   5.419
 8095SOL    HW225185   1.162   4.853   5.546
 8096SOL     OW25186   0.970   5.901   1.694
 8096SOL    HW125187   0.941   5.910   1.599
 8096SOL    HW225188   0.908   5.952   1.753
 8097SOL     OW25189   3.875   5.921   5.207
 8097SOL    HW125190   3.882   5.960   5.299
 8097SOL    HW225191   3.778   5.912   5.182
 8098SOL     OW25192   1.753   5.782   4.974
 8098SOL    HW125193   1.770   5.758   4.879
 8098SOL    HW225194   1.791   5.711   5.033
 8099SOL     OW25195   2.204   5.374   3.351
 8099SOL    HW125196   2.158   5.352   3.265
 8099SOL    HW225197   2.278   5.309   3.366
 8100SOL     OW25198   0.171   0.329   6.911
 8100SOL    HW125199   0.154   0.396   6.838
 8100SOL    HW225200   0.134   0.363   6.997
 8101SOL     OW25201   2.078   6.250   1.335
 8101SOL    HW125202   2.087   6.151   1.323
 8101SOL    HW225203   1.983   6.273   1.357
 8102SOL     OW25204   1.948   3.490   5.045
 8102SOL    HW125205   1.884   3.412   5.044
 8102SOL    HW225206   1.984   3.501   5.138
 8103SOL     OW25207   3.310   1.540   2.090
 8103SOL    HW125208   3.338   1.564   2.183
 8103SOL    HW225209   3.372   1.471   2.053
 8104SOL     OW25210   1.695   6.236   0.309
 8104SOL    HW125211   1.642   6.239   0.224
 8104SOL    HW225212   1.753   6.317   0.315
 8105SOL     OW25213   6.904   0.348   3.326
 8105SOL    HW125214   6.927   0.371   3.421
 8105SOL    HW225215   6.945   0.260   3.302
 8106SOL     OW25216   2.321   6.613   5.503
 8106SOL    HW125217   2.301   6.575   5.413
 8106SOL    HW225218   2.245   6.670   5.533
 8107SOL     OW25219   2.046   6.125   6.155
 8107SOL    HW125220   2.013   6.170   6.238
 8107SOL    HW225221   1.969   6.079   6.110
 8108SOL     OW25222   0.538   1.453   6.875
 8108SOL    HW125223   0.608   1.392   6.914
 8108SOL    HW225224   0.499   1.410   6.794
 8109SOL     OW25225   6.212   2.892   0.807
 8109SOL    HW125226   6.223   2.865   0.711
 8109SOL    HW225227   6.137   2.958   0.814
 8110SOL     OW25228   4.141   4.793   1.270
 8110SOL    HW125229   4.221   4.844   1.237
 8110SOL    HW225230   4.161   4.695   1.267
 8111SOL     OW25231   6.399   1.466   2.617
 8111SOL    HW125232   6.470   1.529   2.585
 8111SOL    HW225233   6.359   1.500   2.702
 8112SOL     OW25234   1.197   3.398   5.517
 8112SOL    HW125235   1.288   3.378   5.479
 8112SOL    HW225236   1.139   3.436   5.445
 8113SOL     OW25237   5.582   2.849   6.859
 8113SOL    HW125238   5.494   2.847   6.905
 8113SOL    HW225239   5.601   2.941   6.824
 8114SOL     OW25240   1.944   4.177   0.983
 8114SOL    HW125241   2.015   4.135   0.927
 8114SOL    HW225242   1.920   4.266   0.945
 8115SOL     OW25243   2.054   1.266   6.294
 8115SOL    HW125244   1.962   1.230   6.281
 8115SOL    HW225245   2.091   1.293   6.205
 8116SOL     OW25246   3.477   3.686   1.088
 8116SOL    HW125247   3.496   3.711   0.993
 8116SOL    HW225248   3.394   3.734   1.119
 8117SOL     OW25249   3.102   6.832   2.932
 8117SOL    HW125250   3.046   6.773   2.874
 8117SOL    HW225251   3.082   6.928   2.910
 8118SOL     OW25252   6.604   2.614   0.649
 8118SOL    HW125253   6.568   2.706   0.668
 8118SOL    HW225254   6.641   2.575   0.733
 8119SOL     OW25255   6.257   5.887   6.640
 8119SOL    HW125256   6.324   5.891   6.714
 8119SOL    HW225257   6.225   5.979   6.619
 8120SOL     OW25258   2.386   6.302   1.280
 8120SOL    HW125259   2.320   6.335   1.213
 8120SOL    HW225260   2.366   6.343   1.370
 8121SOL     OW25261   1.143   3.159   2.982
 8121SOL    HW125262   1.214   3.099   3.019
 8121SOL    HW225263   1.070   3.170   3.049
 8122SOL     OW25264   0.761   4.822   2.045
 8122SOL    HW125265   0.705   4.892   2.090
 8122SOL    HW225266   0.849   4.862   2.019
 8123SOL     OW25267   0.546   1.871   6.200
 8123SOL    HW125268   0.453   1.898   6.175
 8123SOL    HW225269   0.603   1.865   6.118
 8124SOL     OW25270   5.237   4.842   4.872
 8124SOL    HW125271   5.254   4.744   4.860
 8124SOL    HW225272   5.224   4.885   4.783
 8125SOL     OW25273   1.408   6.297   3.136
 8125SOL    HW125274   1.324   6.247   3.159
 8125SOL    HW225275   1.487   6.252   3.177
 8126SOL     OW25276   4.125   5.043   4.098
 8126SOL    HW125277   4.164   4.957   4.065
 8126SOL    HW225278   4.035   5.025   4.138
 8127SOL     OW25279   3.588   2.958   6.979
 8127SOL    HW125280   3.618   3.026   6.913
 8127SOL    HW225281   3.536   3.003   0.025
 8128SOL     OW25282   3.709   2.941   1.675
 8128SOL    HW125283   3.750   2.852   1.656
 8128SOL    HW225284   3.610   2.936   1.663
 8129SOL     OW25285   1.061   2.840   1.779
 8129SOL    HW125286   1.108   2.755   1.754
 8129SOL    HW225287   1.077   2.908   1.707
 8130SOL     OW25288   1.406   5.376   6.966
 8130SOL    HW125289   1.337   5.446   6.947
 8130SOL    HW225290   1.444   5.390   0.030
 8131SOL     OW25291   1.907   3.360   0.064
 8131SOL    HW125292   1.878   3.355   0.159
 8131SOL    HW225293   1.915   3.268   0.027
 8132SOL     OW25294   6.768   6.815   4.959
 8132SOL    HW125295   6.849   6.862   4.996
 8132SOL    HW225296   6.686   6.848   5.005
 8133SOL     OW25297   3.214   4.862   0.677
 8133SOL    HW125298   3.195   4.769   0.707
 8133SOL    HW225299   3.147   4.924   0.717
 8134SOL     OW25300   5.331   1.037   5.403
 8134SOL    HW125301   5.231   1.044   5.401
 8134SOL    HW225302   5.360   0.949   5.367
 8135SOL     OW25303   2.374   0.247   1.577
 8135SOL    HW125304   2.392   0.343   1.559
 8135SOL    HW225305   2.288   0.220   1.532
 8136SOL     OW25306   4.649   4.733   2.037
 8136SOL    HW125307   4.569   4.695   2.084
 8136SOL    HW225308   4.678   4.670   1.965
 8137SOL     OW25309   4.128   1.866   4.656
 8137SOL    HW125310   4.112   1.880   4.558
 8137SOL    HW225311   4.051   1.818   4.697
 8138SOL     OW25312   4.815   1.088   1.260
 8138SOL    HW125313   4.775   1.120   1.174
 8138SOL    HW225314   4.765   1.007   1.292
 8139SOL     OW25315   1.077   2.352   3.632
 8139SOL    HW125316   1.162   2.330   3.585
 8139SOL    HW225317   1.041   2.439   3.597
 8140SOL     OW25318   3.897   1.082   3.455
 8140SOL    HW125319   3.892   1.032   3.541
 8140SOL    HW225320   3.810   1.073   3.406
 8141SOL     OW25321   4.442   4.911   4.319
 8141SOL    HW125322   4.520   4.850   4.301
 8141SOL    HW225323   4.471   4.984   4.381
 8142SOL     OW25324   6.047   5.643   0.374
 8142SOL    HW125325   5.994   5.643   0.289
 8142SOL    HW225326   6.033   5.556   0.421
 8143SOL     OW25327   6.189   4.133   4.791
 8143SOL    HW125328   6.098   4.173   4.795
 8143SOL    HW225329   6.223   4.135   4.697
 8144SOL     OW25330   6.083   6.373   6.590
 8144SOL    HW125331   6.021   6.411   6.523
 8144SOL    HW225332   6.037   6.366   6.679
 8145SOL     OW25333   6.168   5.804   2.557
 8145SOL    HW125334   6.079   5.847   2.570
 8145SOL    HW225335   6.239   5.860   2.600
 8146SOL     OW25336   3.023   1.405   4.578
 8146SOL    HW125337   3.019   1.475   4.507
 8146SOL    HW225338   3.005   1.316   4.538
 8147SOL     OW25339   4.660   1.425   3.813
 8147SOL    HW125340   4.588   1.357   3.801
 8147SOL    HW225341   4.740   1.400   3.758
 8148SOL     OW25342   5.532   3.859   3.474
 8148SOL    HW125343   5.598   3.815   3.535
 8148SOL    HW225344   5.479   3.788   3.426
 8149SOL     OW25345   4.395   4.612   3.393
 8149SOL    HW125346   4.475   4.574   3.348
 8149SOL    HW225347   4.351   4.542   3.449
 8150SOL     OW25348   0.611   5.581   7.000
 8150SOL    HW125349   0.676   5.627   6.939
 8150SOL    HW225350   0.561   5.650   0.026
 8151SOL     OW25351   1.163   1.560   5.256
 8151SOL    HW125352   1.207   1.510   5.330
 8151SOL    HW225353   1.193   1.523   5.168
 8152SOL     OW25354   1.561   1.010   3.072
 8152SOL    HW125355   1.649   0.996   3.119
 8152SOL    HW225356   1.560   0.957   2.987
 8153SOL     OW25357   2.138   6.700   0.460
 8153SOL    HW125358   2.093   6.649   0.386
 8153SOL    HW225359   2.096   6.791   0.467
 8154SOL     OW25360   2.111   6.333   3.662
 8154SOL    HW125361   2.067   6.262   3.607
 8154SOL    HW225362   2.209   6.313   3.669
 8155SOL     OW25363   3.070   3.496   3.499
 8155SOL    HW125364   3.050   3.422   3.434
 8155SOL    HW225365   3.006   3.571   3.483
 8156SOL     OW25366   6.130   0.400   5.890
 8156SOL    HW125367   6.188   0.475   5.860
 8156SOL    HW225368   6.057   0.436   5.949
 8157SOL     OW25369   6.343   3.359   6.630
 8157SOL    HW125370   6.291   3.436   6.591
 8157SOL    HW225371   6.396   3.391   6.708
 8158SOL     OW25372   1.898   5.013   2.377
 8158SOL    HW125373   1.813   4.965   2.354
 8158SOL    HW225374   1.896   5.038   2.474
 8159SOL     OW25375   1.760   5.991   2.248
 8159SOL    HW125376   1.791   5.931   2.322
 8159SOL    HW225377   1.839   6.024   2.197
 8160SOL     OW25378   4.420   2.084   1.760
 8160SOL    HW125379   4.485   2.121   1.826
 8160SOL    HW225380   4.358   2.020   1.805
 8161SOL     OW25381   5.162   1.415   0.904
 8161SOL    HW125382   5.262   1.413   0.907
 8161SOL    HW225383   5.126   1.429   0.997
 8162SOL     OW25384   6.057   0.386   2.057
 8162SOL    HW125385   6.012   0.436   1.983
 8162SOL    HW225386   6.117   0.316   2.017
 8163SOL     OW25387   2.133   3.898   5.150
 8163SOL    HW125388   2.201   3.964   5.120
 8163SOL    HW225389   2.163   3.856   5.236
 8164SOL     OW25390   4.134   2.166   1.914
 8164SOL    HW125391   4.189   2.170   1.997
 8164SOL    HW225392   4.157   2.243   1.854
 8165SOL     OW25393   2.261   5.238   1.715
 8165SOL    HW125394   2.351   5.239   1.672
 8165SOL    HW225395   2.218   5.328   1.703
 8166SOL     OW25396   3.009   6.869   2.061
 8166SOL    HW125397   2.939   6.928   2.018
 8166SOL    HW225398   3.068   6.925   2.118
 8167SOL     OW25399   5.568   2.553   3.521
 8167SOL    HW125400   5.532   2.539   3.429
 8167SOL    HW225401   5.660   2.514   3.526
 8168SOL     OW25402   3.336   1.242   3.218
 8168SOL    HW125403   3.285   1.301   3.155
 8168SOL    HW225404   3.384   1.171   3.165
 8169SOL     OW25405   4.988   3.851   6.226
 8169SOL    HW125406   5.030   3.856   6.317
 8169SOL    HW225407   4.889   3.854   6.235
 8170SOL     OW25408   0.892   5.785   4.033
 8170SOL    HW125409   0.987   5.815   4.023
 8170SOL    HW225410   0.889   5.690   4.064
 8171SOL     OW25411   1.027   1.744   5.737
 8171SOL    HW125412   0.965   1.665   5.731
 8171SOL    HW225413   1.088   1.745   5.658
 8172SOL     OW25414   6.889   6.681   0.913
 8172SOL    HW125415   6.976   6.696   0.865
 8172SOL    HW225416   6.901   6.607   0.979
 8173SOL     OW25417   4.507   2.588   6.858
 8173SOL    HW125418   4.517   2.635   6.946
 8173SOL    HW225419   4.410   2.584   6.834
 8174SOL     OW25420   5.975   0.398   2.341
 8174SOL    HW125421   5.939   0.307   2.362
 8174SOL    HW225422   6.005   0.401   2.246
 8175SOL     OW25423   0.971   3.379   6.166
 8175SOL    HW125424   1.015   3.318   6.232
 8175SOL    HW225425   1.011   3.470   6.174
 8176SOL     OW25426   2.435   6.057   2.212
 8176SOL    HW125427   2.520   6.077   2.261
 8176SOL    HW225428   2.454   6.044   2.115
 8177SOL     OW25429   0.356   6.940   5.652
 8177SOL    HW125430   0.387   6.860   5.704
 8177SOL    HW225431   0.287   6.912   5.586
 8178SOL     OW25432   2.131   6.493   6.690
 8178SOL    HW125433   2.229   6.504   6.672
 8178SOL    HW225434   2.084   6.579   6.668
 8179SOL     OW25435   3.346   1.418   0.432
 8179SOL    HW125436   3.443   1.407   0.412
 8179SOL    HW225437   3.292   1.383   0.355
 8180SOL     OW25438   5.996   5.583   5.293
 8180SOL    HW125439   6.022   5.501   5.344
 8180SOL    HW225440   5.896   5.591   5.290
 8181SOL     OW25441   2.272   2.403   2.683
 8181SOL    HW125442   2.234   2.437   2.770
 8181SOL    HW225443   2.224   2.320   2.656
 8182SOL     OW25444   3.705   2.948   5.427
 8182SOL    HW125445   3.662   2.860   5.407
 8182SOL    HW225446   3.648   3.000   5.490
 8183SOL     OW25447   1.208   3.750   4.916
 8183SOL    HW125448   1.153   3.676   4.954
 8183SOL    HW225449   1.222   3.820   4.986
 8184SOL     OW25450   5.688   6.169   5.538
 8184SOL    HW125451   5.727   6.117   5.614
 8184SOL    HW225452   5.762   6.215   5.488
 8185SOL     OW25453   2.049   1.346   2.842
 8185SOL    HW125454   1.956   1.382   2.832
 8185SOL    HW225455   2.089   1.381   2.926
 8186SOL     OW25456   3.686   5.044   6.184
 8186SOL    HW125457   3.646   5.123   6.231
 8186SOL    HW225458   3.752   4.999   6.244
 8187SOL     OW25459   0.694   2.258   5.704
 8187SOL    HW125460   0.630   2.204   5.650
 8187SOL    HW225461   0.674   2.247   5.801
 8188SOL     OW25462   5.769   3.865   2.601
 8188SOL    HW125463   5.708   3.860   2.680
 8188SOL    HW225464   5.745   3.944   2.545
 8189SOL     OW25465   6.013   4.353   2.553
 8189SOL    HW125466   6.046   4.260   2.566
 8189SOL    HW225467   6.066   4.398   2.481
 8190SOL     OW25468   5.163   3.656   3.017
 8190SOL    HW125469   5.238   3.672   2.953
 8190SOL    HW225470   5.076   3.674   2.971
 8191SOL     OW25471   0.753   5.206   2.887
 8191SOL    HW125472   0.797   5.118   2.905
 8191SOL    HW225473   0.752   5.222   2.788
 8192SOL     OW25474   1.459   3.955   1.734
 8192SOL    HW125475   1.434   3.898   1.813
 8192SOL    HW225476   1.463   4.051   1.763
 8193SOL     OW25477   3.545   0.979   5.991
 8193SOL    HW125478   3.531   1.073   6.021
 8193SOL    HW225479   3.458   0.940   5.961
 8194SOL     OW25480   1.288   0.144   0.609
 8194SOL    HW125481   1.293   0.046   0.588
 8194SOL    HW225482   1.280   0.196   0.525
 8195SOL     OW25483   6.084   6.934   0.687
 8195SOL    HW125484   6.058   6.969   0.597
 8195SOL    HW225485   6.114   7.010   0.745
 8196SOL     OW25486   2.258   0.140   6.041
 8196SOL    HW125487   2.205   0.094   5.969
 8196SOL    HW225488   2.328   0.078   6.076
 8197SOL     OW25489   0.755   6.703   6.723
 8197SOL    HW125490   0.736   6.645   6.644
 8197SOL    HW225491   0.673   6.756   6.746
 8198SOL     OW25492   3.768   6.545   2.606
 8198SOL    HW125493   3.786   6.547   2.705
 8198SOL    HW225494   3.781   6.452   2.572
 8199SOL     OW25495   5.880   3.825   0.322
 8199SOL    HW125496   5.856   3.917   0.354
 8199SOL    HW225497   5.807   3.790   0.264
 8200SOL     OW25498   4.989   3.829   1.231
 8200SOL    HW125499   5.050   3.889   1.283
 8200SOL    HW225500   4.894   3.849   1.254
 8201SOL     OW25501   6.475   1.364   4.133
 8201SOL    HW125502   6.383   1.349   4.096
 8201SOL    HW225503   6.543   1.347   4.062
 8202SOL     OW25504   1.654   4.066   3.594
 8202SOL    HW125505   1.602   4.101   3.515
 8202SOL    HW225506   1.709   4.140   3.633
 8203SOL     OW25507   5.881   3.604   1.047
 8203SOL    HW125508   5.903   3.694   1.087
 8203SOL    HW225509   5.953   3.539   1.071
 8204SOL     OW25510   3.552   6.844   0.784
 8204SOL    HW125511   3.622   6.914   0.770
 8204SOL    HW225512   3.556   6.811   0.878
 8205SOL     OW25513   5.893   5.348   3.069
 8205SOL    HW125514   5.821   5.311   3.128
 8205SOL    HW225515   5.901   5.447   3.085
 8206SOL     OW25516   4.401   1.986   4.045
 8206SOL    HW125517   4.496   2.016   4.042
 8206SOL    HW225518   4.342   2.066   4.056
 8207SOL     OW25519   2.739   6.319   0.047
 8207SOL    HW125520   2.761   6.221   0.052
 8207SOL    HW225521   2.648   6.334   0.085
 8208SOL     OW25522   1.496   4.822   6.149
 8208SOL    HW125523   1.409   4.782   6.122
 8208SOL    HW225524   1.492   4.921   6.140
 8209SOL     OW25525   0.466   6.581   5.172
 8209SOL    HW125526   0.558   6.575   5.210
 8209SOL    HW225527   0.451   6.504   5.109
 8210SOL     OW25528   2.846   1.874   0.027
 8210SOL    HW125529   2.761   1.917   0.056
 8210SOL    HW225530   2.855   1.784   0.071
 8211SOL     OW25531   2.946   3.489   4.732
 8211SOL    HW125532   3.041   3.495   4.702
 8211SOL    HW225533   2.923   3.394   4.753
 8212SOL     OW25534   3.860   6.678   1.074
 8212SOL    HW125535   3.915   6.650   1.153
 8212SOL    HW225536   3.764   6.685   1.101
 8213SOL     OW25537   4.257   4.027   1.715
 8213SOL    HW125538   4.161   4.025   1.741
 8213SOL    HW225539   4.301   4.108   1.754
 8214SOL     OW25540   3.849   5.313   4.219
 8214SOL    HW125541   3.924   5.370   4.186
 8214SOL    HW225542   3.787   5.293   4.143
 8215SOL     OW25543   3.387   5.989   6.595
 8215SOL    HW125544   3.400   6.050   6.517
 8215SOL    HW225545   3.289   5.968   6.604
 8216SOL     OW25546   6.311   4.802   1.922
 8216SOL    HW125547   6.271   4.892   1.937
 8216SOL    HW225548   6.290   4.771   1.829
 8217SOL     OW25549   2.732   6.339   3.901
 8217SOL    HW125550   2.812   6.348   3.842
 8217SOL    HW225551   2.752   6.377   3.991
 8218SOL     OW25552   2.877   6.914   5.022
 8218SOL    HW125553   2.856   6.816   5.025
 8218SOL    HW225554   2.976   6.926   5.012
 8219SOL     OW25555   4.099   3.052   1.737
 8219SOL    HW125556   4.194   3.074   1.716
 8219SOL    HW225557   4.083   2.955   1.721
 8220SOL     OW25558   3.420   4.067   4.346
 8220SOL    HW125559   3.405   4.085   4.249
 8220SOL    HW225560   3.495   4.124   4.380
 8221SOL     OW25561   5.617   3.980   3.234
 8221SOL    HW125562   5.717   3.981   3.227
 8221SOL    HW225563   5.589   3.921   3.310
 8222SOL     OW25564   6.570   2.824   0.358
 8222SOL    HW125565   6.608   2.834   0.266
 8222SOL    HW225566   6.523   2.735   0.365
 8223SOL     OW25567   2.167   6.223   5.779
 8223SOL    HW125568   2.171   6.316   5.816
 8223SOL    HW225569   2.075   6.186   5.792
 8224SOL     OW25570   4.942   1.463   0.220
 8224SOL    HW125571   4.891   1.542   0.253
 8224SOL    HW225572   4.879   1.401   0.171
 8225SOL     OW25573   5.390   2.043   0.261
 8225SOL    HW125574   5.423   1.974   0.197
 8225SOL    HW225575   5.455   2.119   0.265
 8226SOL     OW25576   4.164   0.823   0.798
 8226SOL    HW125577   4.245   0.770   0.823
 8226SOL    HW225578   4.184   0.877   0.716
 8227SOL     OW25579   4.333   2.160   2.789
 8227SOL    HW125580   4.240   2.154   2.755
 8227SOL    HW225581   4.335   2.222   2.868
 8228SOL     OW25582   2.262   7.001   4.432
 8228SOL    HW125583   2.282   0.072   4.428
 8228SOL    HW225584   2.302   6.955   4.352
 8229SOL     OW25585   4.493   4.427   0.219
 8229SOL    HW125586   4.517   4.458   0.311
 8229SOL    HW225587   4.546   4.346   0.196
 8230SOL     OW25588   5.505   0.420   5.848
 8230SOL    HW125589   5.409   0.439   5.830
 8230SOL    HW225590   5.554   0.507   5.862
 8231SOL     OW25591   2.823   1.915   2.560
 8231SOL    HW125592   2.836   2.000   2.510
 8231SOL    HW225593   2.837   1.931   2.658
 8232SOL     OW25594   3.750   5.701   3.045
 8232SOL    HW125595   3.741   5.685   3.144
 8232SOL    HW225596   3.676   5.761   3.014
 8233SOL     OW25597   1.151   1.135   6.115
 8233SOL    HW125598   1.231   1.114   6.170
 8233SOL    HW225599   1.123   1.229   6.132
 8234SOL     OW25600   0.636   1.903   0.764
 8234SOL    HW125601   0.574   1.846   0.817
 8234SOL    HW225602   0.688   1.963   0.825
 8235SOL     OW25603   0.753   0.006   1.288
 8235SOL    HW125604   0.763   0.105   1.297
 8235SOL    HW225605   0.746   6.992   1.379
 8236SOL     OW25606   0.982   6.640   1.523
 8236SOL    HW125607   0.983   6.674   1.617
 8236SOL    HW225608   0.905   6.577   1.513
 8237SOL     OW25609   4.127   4.911   6.106
 8237SOL    HW125610   4.204   4.965   6.072
 8237SOL    HW225611   4.126   4.914   6.206
 8238SOL     OW25612   0.627   4.675   0.672
 8238SOL    HW125613   0.608   4.577   0.672
 8238SOL    HW225614   0.637   4.708   0.766
 8239SOL     OW25615   1.971   1.539   5.273
 8239SOL    HW125616   1.945   1.635   5.263
 8239SOL    HW225617   2.059   1.533   5.319
 8240SOL     OW25618   3.791   3.484   4.679
 8240SOL    HW125619   3.832   3.521   4.763
 8240SOL    HW225620   3.840   3.521   4.600
 8241SOL     OW25621   1.856   4.020   5.155
 8241SOL    HW125622   1.927   4.009   5.085
 8241SOL    HW225623   1.878   3.962   5.234
 8242SOL     OW25624   0.670   3.359   2.765
 8242SOL    HW125625   0.571   3.372   2.774
 8242SOL    HW225626   0.694   3.360   2.668
 8243SOL     OW25627   1.531   5.416   4.325
 8243SOL    HW125628   1.472   5.341   4.354
 8243SOL    HW225629   1.588   5.387   4.249
 8244SOL     OW25630   6.771   1.384   3.908
 8244SOL    HW125631   6.773   1.292   3.947
 8244SOL    HW225632   6.715   1.384   3.825
 8245SOL     OW25633   5.591   2.129   2.578
 8245SOL    HW125634   5.539   2.177   2.507
 8245SOL    HW225635   5.561   2.034   2.583
 8246SOL     OW25636   1.744   5.045   6.505
 8246SOL    HW125637   1.734   4.962   6.450
 8246SOL    HW225638   1.663   5.102   6.494
 8247SOL     OW25639   2.883   5.629   3.035
 8247SOL    HW125640   2.871   5.603   2.939
 8247SOL    HW225641   2.970   5.593   3.068
 8248SOL     OW25642   6.861   5.195   3.883
 8248SOL    HW125643   6.956   5.220   3.865
 8248SOL    HW225644   6.830   5.235   3.969
 8249SOL     OW25645   3.381   1.595   6.732
 8249SOL    HW125646   3.322   1.619   6.810
 8249SOL    HW225647   3.395   1.676   6.675
 8250SOL     OW25648   0.834   2.009   6.862
 8250SOL    HW125649   0.838   1.912   6.885
 8250SOL    HW225650   0.915   2.055   6.898
 8251SOL     OW25651   0.785   2.117   5.335
 8251SOL    HW125652   0.701   2.098   5.284
 8251SOL    HW225653   0.813   2.035   5.385
 8252SOL     OW25654   0.786   2.171   6.654
 8252SOL    HW125655   0.800   2.103   6.726
 8252SOL    HW225656   0.784   2.125   6.565
 8253SOL     OW25657   3.940   5.977   0.369
 8253SOL    HW125658   4.035   5.993   0.346
 8253SOL    HW225659   3.933   5.895   0.427
 8254SOL     OW25660   5.703   5.372   0.072
 8254SOL    HW125661   5.706   5.379   0.172
 8254SOL    HW225662   5.621   5.322   0.044
 8255SOL     OW25663   2.595   0.693   5.631
 8255SOL    HW125664   2.644   0.672   5.547
 8255SOL    HW225665   2.498   0.668   5.621
 8256SOL     OW25666   1.512   4.847   5.247
 8256SOL    HW125667   1.525   4.876   5.152
 8256SOL    HW225668   1.417   4.816   5.260
 8257SOL     OW25669   5.262   3.961   2.874
 8257SOL    HW125670   5.207   4.037   2.837
 8257SOL    HW225671   5.319   3.995   2.948
 8258SOL     OW25672   0.675   3.156   2.413
 8258SOL    HW125673   0.652   3.249   2.440
 8258SOL    HW225674   0.600   3.094   2.438
 8259SOL     OW25675   5.260   1.844   3.942
 8259SOL    HW125676   5.291   1.752   3.918
 8259SOL    HW225677   5.241   1.896   3.858
 8260SOL     OW25678   4.242   2.184   1.275
 8260SOL    HW125679   4.334   2.180   1.315
 8260SOL    HW225680   4.181   2.124   1.327
 8261SOL     OW25681   5.638   1.313   2.443
 8261SOL    HW125682   5.553   1.326   2.494
 8261SOL    HW225683   5.634   1.227   2.393
 8262SOL     OW25684   5.457   3.779   1.856
 8262SOL    HW125685   5.492   3.731   1.775
 8262SOL    HW225686   5.533   3.816   1.909
 8263SOL     OW25687   6.087   1.811   5.318
 8263SOL    HW125688   6.017   1.839   5.252
 8263SOL    HW225689   6.042   1.772   5.398
 8264SOL     OW25690   3.556   0.121   2.922
 8264SOL    HW125691   3.530   0.025   2.912
 8264SOL    HW225692   3.474   0.178   2.919
 8265SOL     OW25693   4.738   6.275   0.772
 8265SOL    HW125694   4.808   6.279   0.843
 8265SOL    HW225695   4.653   6.312   0.808
 8266SOL     OW25696   3.135   1.220   3.841
 8266SOL    HW125697   3.233   1.200   3.848
 8266SOL    HW225698   3.122   1.318   3.830
 8267SOL     OW25699   2.136   3.413   2.465
 8267SOL    HW125700   2.158   3.491   2.406
 8267SOL    HW225701   2.170   3.329   2.423
 8268SOL     OW25702   3.169   4.195   6.426
 8268SOL    HW125703   3.201   4.244   6.507
 8268SOL    HW225704   3.215   4.106   6.420
 8269SOL     OW25705   6.268   2.915   4.557
 8269SOL    HW125706   6.216   2.842   4.514
 8269SOL    HW225707   6.289   2.890   4.652
 8270SOL     OW25708   4.040   6.151   6.348
 8270SOL    HW125709   4.093   6.067   6.361
 8270SOL    HW225710   4.101   6.230   6.354
 8271SOL     OW25711   3.256   6.547   6.349
 8271SOL    HW125712   3.182   6.507   6.403
 8271SOL    HW225713   3.325   6.477   6.330
 8272SOL     OW25714   1.412   0.498   2.036
 8272SOL    HW125715   1.321   0.494   2.078
 8272SOL    HW225716   1.403   0.484   1.938
 8273SOL     OW25717   4.159   0.569   0.371
 8273SOL    HW125718   4.172   0.541   0.276
 8273SOL    HW225719   4.063   0.589   0.387
 8274SOL     OW25720   5.125   6.338   5.572
 8274SOL    HW125721   5.125   6.278   5.492
 8274SOL    HW225722   5.076   6.422   5.550
 8275SOL     OW25723   5.550   0.621   4.423
 8275SOL    HW125724   5.516   0.527   4.421
 8275SOL    HW225725   5.474   0.684   4.441
 8276SOL     OW25726   6.743   2.441   6.687
 8276SOL    HW125727   6.683   2.386   6.629
 8276SOL    HW225728   6.731   2.414   6.783
 8277SOL     OW25729   0.989   0.005   6.939
 8277SOL    HW125730   1.041   7.022   6.854
 8277SOL    HW225731   0.908   6.974   6.935
 8278SOL     OW25732   3.036   1.396   0.841
 8278SOL    HW125733   2.969   1.406   0.915
 8278SOL    HW225734   3.124   1.434   0.871
 8279SOL     OW25735   3.806   6.007   5.467
 8279SOL    HW125736   3.822   5.916   5.504
 8279SOL    HW225737   3.737   6.054   5.521
 8280SOL     OW25738   5.216   4.089   6.982
 8280SOL    HW125739   5.243   4.004   6.937
 8280SOL    HW225740   5.296   4.148   6.993
 8281SOL     OW25741   2.858   5.649   6.921
 8281SOL    HW125742   2.924   5.664   6.995
 8281SOL    HW225743   2.767   5.675   6.953
 8282SOL     OW25744   2.873   3.097   1.854
 8282SOL    HW125745   2.843   3.041   1.777
 8282SOL    HW225746   2.826   3.185   1.851
 8283SOL     OW25747   0.472   6.722   4.075
 8283SOL    HW125748   0.477   6.802   4.015
 8283SOL    HW225749   0.420   6.650   4.030
 8284SOL     OW25750   3.734   1.444   2.403
 8284SOL    HW125751   3.637   1.421   2.394
 8284SOL    HW225752   3.760   1.505   2.329
 8285SOL     OW25753   2.368   4.589   6.774
 8285SOL    HW125754   2.453   4.536   6.772
 8285SOL    HW225755   2.344   4.616   6.680
 8286SOL     OW25756   5.501   2.475   5.509
 8286SOL    HW125757   5.447   2.512   5.434
 8286SOL    HW225758   5.506   2.375   5.501
 8287SOL     OW25759   1.704   0.389   3.867
 8287SOL    HW125760   1.683   0.326   3.943
 8287SOL    HW225761   1.752   0.339   3.795
 8288SOL     OW25762   2.387   0.378   2.904
 8288SOL    HW125763   2.346   0.376   2.813
 8288SOL    HW225764   2.435   0.464   2.917
 8289SOL     OW25765   6.446   0.667   6.522
 8289SOL    HW125766   6.375   0.737   6.524
 8289SOL    HW225767   6.535   0.711   6.511
 8290SOL     OW25768   4.576   2.630   1.612
 8290SOL    HW125769   4.636   2.705   1.642
 8290SOL    HW225770   4.516   2.663   1.539
 8291SOL     OW25771   4.465   5.834   6.692
 8291SOL    HW125772   4.385   5.792   6.734
 8291SOL    HW225773   4.514   5.767   6.638
 8292SOL     OW25774   0.613   2.938   5.078
 8292SOL    HW125775   0.693   2.956   5.135
 8292SOL    HW225776   0.631   2.970   4.985
 8293SOL     OW25777   2.872   5.670   3.737
 8293SOL    HW125778   2.782   5.648   3.774
 8293SOL    HW225779   2.941   5.614   3.782
 8294SOL     OW25780   5.183   3.827   5.469
 8294SOL    HW125781   5.226   3.752   5.519
 8294SOL    HW225782   5.254   3.886   5.431
 8295SOL     OW25783   5.048   4.819   2.460
 8295SOL    HW125784   4.954   4.854   2.463
 8295SOL    HW225785   5.072   4.794   2.366
 8296SOL     OW25786   4.169   6.958   1.820
 8296SOL    HW125787   4.200   6.985   1.911
 8296SOL    HW225788   4.183   6.859   1.808
 8297SOL     OW25789   5.256   4.240   3.391
 8297SOL    HW125790   5.290   4.199   3.475
 8297SOL    HW225791   5.199   4.320   3.414
 8298SOL     OW25792   0.131   6.836   0.016
 8298SOL    HW125793   0.113   6.925   7.000
 8298SOL    HW225794   0.149   6.850   0.113
 8299SOL     OW25795   1.029   3.353   0.896
 8299SOL    HW125796   0.963   3.322   0.965
 8299SOL    HW225797   0.994   3.436   0.852
 8300SOL     OW25798   6.270   5.216   3.798
 8300SOL    HW125799   6.341   5.261   3.744
 8300SOL    HW225800   6.254   5.124   3.764
 8301SOL     OW25801   5.704   6.716   0.635
 8301SOL    HW125802   5.631   6.653   0.660
 8301SOL    HW225803   5.792   6.677   0.662
 8302SOL     OW25804   3.744   0.212   5.512
 8302SOL    HW125805   3.804   0.222   5.433
 8302SOL    HW225806   3.748   0.296   5.567
 8303SOL     OW25807   0.285   5.252   2.563
 8303SOL    HW125808   0.197   5.231   2.606
 8303SOL    HW225809   0.273   5.327   2.497
 8304SOL     OW25810   5.980   4.762   3.216
 8304SOL    HW125811   6.000   4.693   3.285
 8304SOL    HW225812   6.065   4.797   3.178
 8305SOL     OW25813   5.385   6.867   5.207
 8305SOL    HW125814   5.333   6.821   5.135
 8305SOL    HW225815   5.365   6.965   5.204
 8306SOL     OW25816   0.006   1.649   2.989
 8306SOL    HW125817   7.006   1.632   3.084
 8306SOL    HW225818   6.989   1.581   2.930
 8307SOL     OW25819   1.561   2.882   2.877
 8307SOL    HW125820   1.563   2.891   2.777
 8307SOL    HW225821   1.559   2.973   2.918
 8308SOL     OW25822   0.724   5.402   0.924
 8308SOL    HW125823   0.805   5.461   0.921
 8308SOL    HW225824   0.674   5.411   0.837
 8309SOL     OW25825   6.425   4.791   4.540
 8309SOL    HW125826   6.407   4.781   4.638
 8309SOL    HW225827   6.468   4.707   4.506
 8310SOL     OW25828   2.186   0.555   0.859
 8310SOL    HW125829   2.093   0.555   0.822
 8310SOL    HW225830   2.239   0.628   0.817
 8311SOL     OW25831   5.153   5.785   3.501
 8311SOL    HW125832   5.219   5.722   3.542
 8311SOL    HW225833   5.102   5.831   3.573
 8312SOL     OW25834   5.891   1.477   0.323
 8312SOL    HW125835   5.852   1.439   0.240
 8312SOL    HW225836   5.986   1.503   0.307
 8313SOL     OW25837   5.774   2.491   5.893
 8313SOL    HW125838   5.720   2.532   5.820
 8313SOL    HW225839   5.835   2.560   5.932
 8314SOL     OW25840   4.610   6.117   4.296
 8314SOL    HW125841   4.553   6.038   4.273
 8314SOL    HW225842   4.567   6.200   4.261
 8315SOL     OW25843   3.340   3.298   4.765
 8315SOL    HW125844   3.437   3.321   4.762
 8315SOL    HW225845   3.328   3.202   4.739
 8316SOL     OW25846   2.603   2.139   5.548
 8316SOL    HW125847   2.562   2.209   5.489
 8316SOL    HW225848   2.703   2.147   5.544
 8317SOL     OW25849   1.392   2.197   4.260
 8317SOL    HW125850   1.485   2.175   4.233
 8317SOL    HW225851   1.368   2.289   4.228
 8318SOL     OW25852   4.224   6.764   6.216
 8318SOL    HW125853   4.269   6.766   6.127
 8318SOL    HW225854   4.141   6.820   6.213
 8319SOL     OW25855   2.358   5.755   5.999
 8319SOL    HW125856   2.271   5.715   5.968
 8319SOL    HW225857   2.342   5.847   6.035
 8320SOL     OW25858   3.532   3.361   5.164
 8320SOL    HW125859   3.464   3.375   5.236
 8320SOL    HW225860   3.490   3.376   5.074
 8321SOL     OW25861   6.826   6.965   0.652
 8321SOL    HW125862   6.805   0.032   0.625
 8321SOL    HW225863   6.917   6.962   0.693
 8322SOL     OW25864   0.502   6.609   0.051
 8322SOL    HW125865   0.473   6.593   6.984
 8322SOL    HW225866   0.423   6.601   0.112
 8323SOL     OW25867   5.679   4.403   0.468
 8323SOL    HW125868   5.600   4.370   0.519
 8323SOL    HW225869   5.710   4.490   0.508
 8324SOL     OW25870   5.269   6.240   0.284
 8324SOL    HW125871   5.187   6.206   0.238
 8324SOL    HW225872   5.345   6.243   0.219
 8325SOL     OW25873   1.521   6.616   5.517
 8325SOL    HW125874   1.560   6.544   5.460
 8325SOL    HW225875   1.473   6.682   5.459
 8326SOL     OW25876   1.545   3.101   6.923
 8326SOL    HW125877   1.586   3.012   6.942
 8326SOL    HW225878   1.446   3.096   6.936
 8327SOL     OW25879   1.183   5.953   4.771
 8327SOL    HW125880   1.226   5.900   4.845
 8327SOL    HW225881   1.239   5.945   4.689
 8328SOL     OW25882   0.421   6.494   6.829
 8328SOL    HW125883   0.451   6.542   6.747
 8328SOL    HW225884   0.403   6.398   6.807
 8329SOL     OW25885   1.273   3.069   4.688
 8329SOL    HW125886   1.292   3.097   4.594
 8329SOL    HW225887   1.190   3.114   4.719
 8330SOL     OW25888   3.187   1.092   0.011
 8330SOL    HW125889   3.254   1.156   7.000
 8330SOL    HW225890   3.165   1.022   6.970
 8331SOL     OW25891   1.488   2.471   6.525
 8331SOL    HW125892   1.421   2.416   6.474
 8331SOL    HW225893   1.471   2.568   6.509
 8332SOL     OW25894   6.449   4.354   1.888
 8332SOL    HW125895   6.539   4.321   1.915
 8332SOL    HW225896   6.391   4.277   1.862
 8333SOL     OW25897   1.728   3.843   6.993
 8333SOL    HW125898   1.777   3.828   6.907
 8333SOL    HW225899   1.729   3.940   7.015
 8334SOL     OW25900   2.877   2.165   5.558
 8334SOL    HW125901   2.870   2.093   5.489
 8334SOL    HW225902   2.970   2.165   5.597
 8335SOL     OW25903   5.560   4.616   6.314
 8335SOL    HW125904   5.498   4.660   6.379
 8335SOL    HW225905   5.653   4.652   6.327
 8336SOL     OW25906   0.826   4.176   3.560
 8336SOL    HW125907   0.858   4.262   3.599
 8336SOL    HW225908   0.786   4.120   3.633
 8337SOL     OW25909   0.278   1.517   4.018
 8337SOL    HW125910   0.190   1.560   3.996
 8337SOL    HW225911   0.352   1.573   3.982
 8338SOL     OW25912   3.137   5.226   1.215
 8338SOL    HW125913   3.214   5.274   1.258
 8338SOL    HW225914   3.076   5.294   1.174
 8339SOL     OW25915   6.185   0.575   1.403
 8339SOL    HW125916   6.142   0.636   1.470
 8339SOL    HW225917   6.221   0.495   1.449
 8340SOL     OW25918   6.137   1.854   6.977
 8340SOL    HW125919   6.200   1.928   6.999
 8340SOL    HW225920   6.186   1.781   6.930
 8341SOL     OW25921   4.150   1.384   0.952
 8341SOL    HW125922   4.130   1.463   1.010
 8341SOL    HW225923   4.066   1.332   0.937
 8342SOL     OW25924   4.464   0.564   0.434
 8342SOL    HW125925   4.413   0.484   0.465
 8342SOL    HW225926   4.411   0.647   0.454
 8343SOL     OW25927   5.810   4.385   3.576
 8343SOL    HW125928   5.815   4.364   3.673
 8343SOL    HW225929   5.739   4.328   3.533
 8344SOL     OW25930   1.165   4.819   6.114
 8344SOL    HW125931   1.125   4.842   6.203
 8344SOL    HW225932   1.152   4.896   6.052
 8345SOL     OW25933   4.889   0.097   3.727
 8345SOL    HW125934   4.835   0.161   3.782
 8345SOL    HW225935   4.912   0.017   3.782
 8346SOL     OW25936   5.913   3.071   4.239
 8346SOL    HW125937   5.968   2.988   4.253
 8346SOL    HW225938   5.973   3.151   4.242
 8347SOL     OW25939   2.355   1.409   6.286
 8347SOL    HW125940   2.451   1.433   6.301
 8347SOL    HW225941   2.314   1.474   6.223
 8348SOL     OW25942   3.000   6.116   2.133
 8348SOL    HW125943   2.922   6.148   2.079
 8348SOL    HW225944   3.021   6.184   2.203
 8349SOL     OW25945   6.220   6.171   2.224
 8349SOL    HW125946   6.235   6.073   2.231
 8349SOL    HW225947   6.277   6.208   2.150
 8350SOL     OW25948   2.070   0.793   6.710
 8350SOL    HW125949   1.975   0.823   6.724
 8350SOL    HW225950   2.091   0.795   6.612
 8351SOL     OW25951   0.401   3.471   2.752
 8351SOL    HW125952   0.368   3.382   2.722
 8351SOL    HW225953   0.345   3.504   2.828
 8352SOL     OW25954   2.823   5.495   1.008
 8352SOL    HW125955   2.817   5.537   0.917
 8352SOL    HW225956   2.732   5.484   1.046
 8353SOL     OW25957   1.164   5.098   1.709
 8353SOL    HW125958   1.210   5.152   1.638
 8353SOL    HW225959   1.118   5.159   1.773
 8354SOL     OW25960   3.394   0.298   3.453
 8354SOL    HW125961   3.437   0.313   3.542
 8354SOL    HW225962   3.463   0.269   3.387
 8355SOL     OW25963   2.991   6.471   6.929
 8355SOL    HW125964   2.982   6.562   6.888
 8355SOL    HW225965   2.901   6.427   6.932
 8356SOL     OW25966   1.901   5.015   0.496
 8356SOL    HW125967   1.873   5.110   0.484
 8356SOL    HW225968   1.926   4.976   0.407
 8357SOL     OW25969   4.663   6.631   5.821
 8357SOL    HW125970   4.592   6.575   5.863
 8357SOL    HW225971   4.635   6.727   5.821
 8358SOL     OW25972   1.200   1.162   5.093
 8358SOL    HW125973   1.283   1.108   5.110
 8358SOL    HW225974   1.120   1.102   5.095
 8359SOL     OW25975   3.608   1.840   5.970
 8359SOL    HW125976   3.628   1.937   5.986
 8359SOL    HW225977   3.693   1.787   5.974
 8360SOL     OW25978   4.726   0.186   1.120
 8360SOL    HW125979   4.738   0.286   1.122
 8360SOL    HW225980   4.812   0.142   1.144
 8361SOL     OW25981   4.013   1.240   6.691
 8361SOL    HW125982   4.073   1.163   6.669
 8361SOL    HW225983   3.928   1.232   6.639
 8362SOL     OW25984   0.576   4.353   1.421
 8362SOL    HW125985   0.668   4.329   1.390
 8362SOL    HW225986   0.581   4.401   1.508
 8363SOL     OW25987   1.774   3.017   0.920
 8363SOL    HW125988   1.823   2.997   1.005
 8363SOL    HW225989   1.820   3.092   0.872
 8364SOL     OW25990   0.076   3.227   4.139
 8364SOL    HW125991   0.036   3.181   4.218
 8364SOL    HW225992   0.011   3.293   4.102
 8365SOL     OW25993   1.509   2.123   1.928
 8365SOL    HW125994   1.452   2.110   2.009
 8365SOL    HW225995   1.457   2.102   1.846
 8366SOL     OW25996   5.570   4.988   2.680
 8366SOL    HW125997   5.653   5.044   2.671
 8366SOL    HW225998   5.510   5.028   2.749
 8367SOL     OW25999   2.122   5.185   4.041
 8367SOL    HW126000   2.144   5.098   4.087
 8367SOL    HW226001   2.046   5.171   3.978
 8368SOL     OW26002   5.896   6.483   6.420
 8368SOL    HW126003   5.933   6.564   6.463
 8368SOL    HW226004   5.796   6.487   6.421
 8369SOL     OW26005   2.249   6.200   0.649
 8369SOL    HW126006   2.314   6.275   0.638
 8369SOL    HW226007   2.171   6.214   0.588
 8370SOL     OW26008   3.026   4.388   0.013
 8370SOL    HW126009   2.928   4.393   7.021
 8370SOL    HW226010   3.074   4.461   6.991
 8371SOL     OW26011   2.040   4.440   5.117
 8371SOL    HW126012   2.096   4.366   5.081
 8371SOL    HW226013   1.983   4.406   5.191
 8372SOL     OW26014   2.162   6.432   1.152
 8372SOL    HW126015   2.113   6.393   1.231
 8372SOL    HW226016   2.128   6.390   1.068
 8373SOL     OW26017   6.722   2.170   4.064
 8373SOL    HW126018   6.726   2.223   4.149
 8373SOL    HW226019   6.778   2.088   4.074
 8374SOL     OW26020   6.967   1.553   4.213
 8374SOL    HW126021   6.941   1.458   4.230
 8374SOL    HW226022   6.916   1.588   4.134
 8375SOL     OW26023   3.184   1.287   4.880
 8375SOL    HW126024   3.172   1.332   4.969
 8375SOL    HW226025   3.115   1.215   4.869
 8376SOL     OW26026   1.346   1.838   3.546
 8376SOL    HW126027   1.296   1.921   3.519
 8376SOL    HW226028   1.391   1.798   3.466
 8377SOL     OW26029   4.980   5.377   0.418
 8377SOL    HW126030   5.004   5.465   0.460
 8377SOL    HW226031   5.055   5.312   0.432
 8378SOL     OW26032   5.088   6.001   4.563
 8378SOL    HW126033   5.114   5.942   4.639
 8378SOL    HW226034   4.990   5.992   4.546
 8379SOL     OW26035   5.666   1.958   1.266
 8379SOL    HW126036   5.650   1.920   1.358
 8379SOL    HW226037   5.623   2.048   1.260
 8380SOL     OW26038   6.944   5.831   1.041
 8380SOL    HW126039   7.021   5.820   1.104
 8380SOL    HW226040   6.934   5.927   1.016
 8381SOL     OW26041   0.465   1.546   2.816
 8381SOL    HW126042   0.451   1.480   2.742
 8381SOL    HW226043   0.547   1.522   2.867
 8382SOL     OW26044   1.826   0.844   0.893
 8382SOL    HW126045   1.779   0.759   0.873
 8382SOL    HW226046   1.766   0.904   0.946
 8383SOL     OW26047   2.885   6.978   6.819
 8383SOL    HW126048   2.862   0.007   6.740
 8383SOL    HW226049   2.807   6.921   6.845
 8384SOL     OW26050   0.706   3.086   2.945
 8384SOL    HW126051   0.728   3.135   3.029
 8384SOL    HW226052   0.764   3.120   2.870
 8385SOL     OW26053   4.400   2.901   1.067
 8385SOL    HW126054   4.455   2.829   1.108
 8385SOL    HW226055   4.312   2.908   1.115
 8386SOL     OW26056   2.222   5.994   1.919
 8386SOL    HW126057   2.222   6.068   1.851
 8386SOL    HW226058   2.314   5.956   1.926
 8387SOL     OW26059   1.250   1.212   2.927
 8387SOL    HW126060   1.264   1.215   3.026
 8387SOL    HW226061   1.263   1.303   2.888
 8388SOL     OW26062   4.549   5.994   0.970
 8388SOL    HW126063   4.607   5.913   0.970
 8388SOL    HW226064   4.487   5.991   1.049
 8389SOL     OW26065   0.548   3.064   4.086
 8389SOL    HW126066   0.537   2.983   4.143
 8389SOL    HW226067   0.625   3.118   4.120
 8390SOL     OW26068   2.836   0.028   5.476
 8390SOL    HW126069   2.759   0.080   5.512
 8390SOL    HW226070   2.905   0.017   5.547
 8391SOL     OW26071   5.611   5.788   0.900
 8391SOL    HW126072   5.567   5.821   0.983
 8391SOL    HW226073   5.549   5.725   0.853
 8392SOL     OW26074   6.098   6.416   5.738
 8392SOL    HW126075   6.069   6.400   5.832
 8392SOL    HW226076   6.051   6.497   5.702
 8393SOL     OW26077   0.295   5.541   3.103
 8393SOL    HW126078   0.289   5.480   3.024
 8393SOL    HW226079   0.364   5.506   3.166
 8394SOL     OW26080   0.993   1.786   2.847
 8394SOL    HW126081   0.965   1.849   2.775
 8394SOL    HW226082   1.077   1.819   2.889
 8395SOL     OW26083   0.893   6.127   5.434
 8395SOL    HW126084   0.911   6.143   5.531
 8395SOL    HW226085   0.817   6.185   5.405
 8396SOL     OW26086   4.719   3.602   0.881
 8396SOL    HW126087   4.755   3.522   0.930
 8396SOL    HW226088   4.759   3.685   0.920
 8397SOL     OW26089   1.639   5.531   3.379
 8397SOL    HW126090   1.671   5.497   3.468
 8397SOL    HW226091   1.676   5.622   3.363
 8398SOL     OW26092   4.991   1.976   0.541
 8398SOL    HW126093   5.030   2.014   0.625
 8398SOL    HW226094   4.936   1.895   0.564
 8399SOL     OW26095   5.876   5.635   0.151
 8399SOL    HW126096   5.783   5.601   0.169
 8399SOL    HW226097   5.871   5.725   0.108
 8400SOL     OW26098   5.943   0.704   4.086
 8400SOL    HW126099   5.937   0.657   3.998
 8400SOL    HW226100   5.882   0.659   4.152
 8401SOL     OW26101   3.176   4.903   6.003
 8401SOL    HW126102   3.251   4.956   6.041
 8401SOL    HW226103   3.144   4.836   6.070
 8402SOL     OW26104   4.322   1.959   0.340
 8402SOL    HW126105   4.410   1.992   0.373
 8402SOL    HW226106   4.274   2.033   0.292
 8403SOL     OW26107   1.313   1.910   4.436
 8403SOL    HW126108   1.344   1.861   4.518
 8403SOL    HW226109   1.369   1.991   4.423
 8404SOL     OW26110   4.463   4.963   5.423
 8404SOL    HW126111   4.388   5.009   5.471
 8404SOL    HW226112   4.445   4.865   5.419
 8405SOL     OW26113   0.995   2.540   5.205
 8405SOL    HW126114   0.925   2.596   5.161
 8405SOL    HW226115   1.086   2.569   5.174
 8406SOL     OW26116   5.047   3.423   1.373
 8406SOL    HW126117   5.113   3.487   1.334
 8406SOL    HW226118   5.060   3.416   1.472
 8407SOL     OW26119   5.008   3.744   2.228
 8407SOL    HW126120   4.932   3.796   2.268
 8407SOL    HW226121   5.085   3.806   2.210
 8408SOL     OW26122   4.680   2.548   3.763
 8408SOL    HW126123   4.594   2.534   3.715
 8408SOL    HW226124   4.728   2.626   3.724
 8409SOL     OW26125   0.931   2.559   4.048
 8409SOL    HW126126   1.012   2.512   4.014
 8409SOL    HW226127   0.917   2.643   3.995
 8410SOL     OW26128   3.588   6.640   2.065
 8410SOL    HW126129   3.490   6.625   2.080
 8410SOL    HW226130   3.601   6.713   1.997
 8411SOL     OW26131   1.962   2.957   3.721
 8411SOL    HW126132   2.051   2.934   3.681
 8411SOL    HW226133   1.896   2.885   3.698
 8412SOL     OW26134   6.128   3.084   2.910
 8412SOL    HW126135   6.125   2.995   2.957
 8412SOL    HW226136   6.047   3.095   2.854
 8413SOL     OW26137   2.251   4.063   1.072
 8413SOL    HW126138   2.340   4.109   1.065
 8413SOL    HW226139   2.186   4.107   1.010
 8414SOL     OW26140   5.262   6.570   2.274
 8414SOL    HW126141   5.201   6.543   2.348
 8414SOL    HW226142   5.271   6.670   2.273
 8415SOL     OW26143   6.466   3.347   2.404
 8415SOL    HW126144   6.559   3.316   2.389
 8415SOL    HW226145   6.407   3.314   2.330
 8416SOL     OW26146   5.140   3.524   2.171
 8416SOL    HW126147   5.167   3.544   2.077
 8416SOL    HW226148   5.085   3.600   2.206
 8417SOL     OW26149   2.714   5.906   6.040
 8417SOL    HW126150   2.689   5.940   5.949
 8417SOL    HW226151   2.660   5.954   6.109
 8418SOL     OW26152   6.091   5.539   2.377
 8418SOL    HW126153   6.178   5.580   2.349
 8418SOL    HW226154   6.023   5.610   2.391
 8419SOL     OW26155   4.128   6.855   3.628
 8419SOL    HW126156   4.101   6.892   3.717
 8419SOL    HW226157   4.208   6.796   3.639
 8420SOL     OW26158   3.679   2.071   6.084
 8420SOL    HW126159   3.623   2.054   6.164
 8420SOL    HW226160   3.771   2.097   6.112
 8421SOL     OW26161   1.954   6.741   1.718
 8421SOL    HW126162   2.009   6.801   1.776
 8421SOL    HW226163   1.960   6.772   1.623
 8422SOL     OW26164   3.929   6.885   1.404
 8422SOL    HW126165   3.962   6.980   1.404
 8422SOL    HW226166   3.832   6.884   1.425
 8423SOL     OW26167   2.557   3.879   1.275
 8423SOL    HW126168   2.509   3.829   1.203
 8423SOL    HW226169   2.495   3.893   1.352
 8424SOL     OW26170   3.035   2.246   2.958
 8424SOL    HW126171   3.127   2.238   2.919
 8424SOL    HW226172   3.043   2.255   3.058
 8425SOL     OW26173   5.854   5.075   0.255
 8425SOL    HW126174   5.907   5.157   0.234
 8425SOL    HW226175   5.876   5.003   0.189
 8426SOL     OW26176   3.933   3.440   2.420
 8426SOL    HW126177   3.890   3.349   2.414
 8426SOL    HW226178   3.866   3.510   2.396
 8427SOL     OW26179   2.308   3.624   6.135
 8427SOL    HW126180   2.291   3.540   6.187
 8427SOL    HW226181   2.397   3.662   6.161
 8428SOL     OW26182   6.077   4.491   2.312
 8428SOL    HW126183   6.099   4.588   2.328
 8428SOL    HW226184   6.050   4.478   2.217
 8429SOL     OW26185   1.805   6.369   2.506
 8429SOL    HW126186   1.768   6.431   2.575
 8429SOL    HW226187   1.745   6.290   2.497
 8430SOL     OW26188   4.687   4.204   2.980
 8430SOL    HW126189   4.750   4.243   2.912
 8430SOL    HW226190   4.593   4.221   2.950
 8431SOL     OW26191   3.122   3.830   0.841
 8431SOL    HW126192   3.146   3.733   0.842
 8431SOL    HW226193   3.027   3.841   0.812
 8432SOL     OW26194   4.544   6.166   6.403
 8432SOL    HW126195   4.462   6.152   6.459
 8432SOL    HW226196   4.569   6.080   6.359
 8433SOL     OW26197   0.901   1.421   5.194
 8433SOL    HW126198   0.865   1.513   5.210
 8433SOL    HW226199   0.984   1.427   5.140
 8434SOL     OW26200   5.652   6.424   5.792
 8434SOL    HW126201   5.696   6.421   5.702
 8434SOL    HW226202   5.557   6.396   5.784
 8435SOL     OW26203   4.531   2.108   1.325
 8435SOL    HW126204   4.571   2.115   1.416
 8435SOL    HW226205   4.587   2.161   1.260
 8436SOL     OW26206   3.883   4.599   1.421
 8436SOL    HW126207   3.969   4.648   1.410
 8436SOL    HW226208   3.840   4.585   1.332
 8437SOL     OW26209   0.261   1.444   1.214
 8437SOL    HW126210   0.293   1.442   1.309
 8437SOL    HW226211   0.163   1.424   1.211
 8438SOL     OW26212   1.747   6.577   1.772
 8438SOL    HW126213   1.782   6.510   1.838
 8438SOL    HW226214   1.819   6.642   1.748
 8439SOL     OW26215   6.606   6.321   2.250
 8439SOL    HW126216   6.660   6.398   2.282
 8439SOL    HW226217   6.523   6.313   2.305
 8440SOL     OW26218   0.164   1.867   3.573
 8440SOL    HW126219   0.239   1.803   3.590
 8440SOL    HW226220   0.129   1.902   3.660
 8441SOL     OW26221   4.291   5.171   0.951
 8441SOL    HW126222   4.206   5.223   0.947
 8441SOL    HW226223   4.291   5.101   0.879
 8442SOL     OW26224   2.252   3.821   6.999
 8442SOL    HW126225   2.158   3.794   6.979
 8442SOL    HW226226   2.255   3.866   0.061
 8443SOL     OW26227   1.840   1.447   2.036
 8443SOL    HW126228   1.757   1.483   1.994
 8443SOL    HW226229   1.862   1.500   2.118
 8444SOL     OW26230   4.190   0.069   3.437
 8444SOL    HW126231   4.157   0.090   3.345
 8444SOL    HW226232   4.129   0.002   3.479
 8445SOL     OW26233   3.957   5.028   2.041
 8445SOL    HW126234   3.967   4.934   2.075
 8445SOL    HW226235   3.864   5.060   2.060
 8446SOL     OW26236   6.830   4.532   3.352
 8446SOL    HW126237   6.875   4.463   3.409
 8446SOL    HW226238   6.769   4.487   3.287
 8447SOL     OW26239   4.826   2.897   1.194
 8447SOL    HW126240   4.811   2.888   1.292
 8447SOL    HW226241   4.924   2.889   1.174
 8448SOL     OW26242   0.810   2.790   6.706
 8448SOL    HW126243   0.825   2.864   6.772
 8448SOL    HW226244   0.808   2.827   6.614
 8449SOL     OW26245   1.485   2.096   5.142
 8449SOL    HW126246   1.572   2.111   5.094
 8449SOL    HW226247   1.504   2.070   5.237
 8450SOL     OW26248   2.342   5.239   2.409
 8450SOL    HW126249   2.373   5.333   2.393
 8450SOL    HW226250   2.251   5.227   2.369
 8451SOL     OW26251   3.708   3.027   0.736
 8451SOL    HW126252   3.796   3.060   0.770
 8451SOL    HW226253   3.651   2.999   0.813
 8452SOL     OW26254   6.459   5.969   1.392
 8452SOL    HW126255   6.428   5.928   1.478
 8452SOL    HW226256   6.548   5.931   1.367
 8453SOL     OW26257   0.278   4.979   5.388
 8453SOL    HW126258   0.360   4.977   5.444
 8453SOL    HW226259   0.202   5.016   5.441
 8454SOL     OW26260   1.795   6.983   4.839
 8454SOL    HW126261   1.879   6.935   4.864
 8454SOL    HW226262   1.796   7.003   4.741
 8455SOL     OW26263   6.057   2.157   1.263
 8455SOL    HW126264   6.138   2.105   1.238
 8455SOL    HW226265   6.010   2.188   1.180
 8456SOL     OW26266   5.434   5.663   3.127
 8456SOL    HW126267   5.400   5.622   3.042
 8456SOL    HW226268   5.445   5.762   3.114
 8457SOL     OW26269   6.980   6.520   6.642
 8457SOL    HW126270   6.946   6.604   6.683
 8457SOL    HW226271   6.946   6.512   6.549
 8458SOL     OW26272   1.138   1.548   1.195
 8458SOL    HW126273   1.154   1.461   1.243
 8458SOL    HW226274   1.145   1.624   1.260
 8459SOL     OW26275   2.852   5.017   2.795
 8459SOL    HW126276   2.871   4.951   2.867
 8459SOL    HW226277   2.797   4.974   2.724
 8460SOL     OW26278   4.253   1.000   0.592
 8460SOL    HW126279   4.326   1.054   0.635
 8460SOL    HW226280   4.283   0.971   0.501
 8461SOL     OW26281   5.108   4.027   2.429
 8461SOL    HW126282   5.202   4.002   2.451
 8461SOL    HW226283   5.106   4.083   2.346
 8462SOL     OW26284   2.884   5.007   0.098
 8462SOL    HW126285   2.904   4.964   0.186
 8462SOL    HW226286   2.807   5.070   0.108
 8463SOL     OW26287   6.316   0.850   0.122
 8463SOL    HW126288   6.411   0.881   0.113
 8463SOL    HW226289   6.275   0.891   0.203
 8464SOL     OW26290   0.293   3.615   6.189
 8464SOL    HW126291   0.214   3.620   6.251
 8464SOL    HW226292   0.263   3.589   6.098
 8465SOL     OW26293   4.720   3.137   1.114
 8465SOL    HW126294   4.766   3.056   1.150
 8465SOL    HW226295   4.626   3.140   1.148
 8466SOL     OW26296   5.767   1.103   5.358
 8466SOL    HW126297   5.725   1.016   5.386
 8466SOL    HW226298   5.866   1.096   5.367
 8467SOL     OW26299   3.664   0.994   1.131
 8467SOL    HW126300   3.630   0.992   1.037
 8467SOL    HW226301   3.762   0.977   1.131
 8468SOL     OW26302   6.118   3.185   0.540
 8468SOL    HW126303   6.028   3.166   0.501
 8468SOL    HW226304   6.121   3.280   0.572
 8469SOL     OW26305   4.556   3.196   6.072
 8469SOL    HW126306   4.569   3.102   6.042
 8469SOL    HW226307   4.544   3.198   6.172
 8470SOL     OW26308   1.446   4.732   1.593
 8470SOL    HW126309   1.479   4.710   1.501
 8470SOL    HW226310   1.497   4.810   1.629
 8471SOL     OW26311   3.473   2.063   4.650
 8471SOL    HW126312   3.572   2.071   4.664
 8471SOL    HW226313   3.445   1.968   4.663
 8472SOL     OW26314   5.912   1.415   5.904
 8472SOL    HW126315   5.965   1.466   5.971
 8472SOL    HW226316   5.857   1.345   5.950
 8473SOL     OW26317   4.631   4.444   6.668
 8473SOL    HW126318   4.547   4.446   6.722
 8473SOL    HW226319   4.705   4.406   6.724
 8474SOL     OW26320   3.434   4.123   3.042
 8474SOL    HW126321   3.533   4.111   3.035
 8474SOL    HW226322   3.412   4.159   3.133
 8475SOL     OW26323   0.432   3.021   2.509
 8475SOL    HW126324   0.413   3.007   2.412
 8475SOL    HW226325   0.464   2.936   2.549
 8476SOL     OW26326   6.201   0.038   2.094
 8476SOL    HW126327   6.279   0.095   2.122
 8476SOL    HW226328   6.162   0.075   2.009
 8477SOL     OW26329   5.553   0.088   1.789
 8477SOL    HW126330   5.537   0.007   1.846
 8477SOL    HW226331   5.643   0.126   1.810
 8478SOL     OW26332   6.308   0.859   5.859
 8478SOL    HW126333   6.403   0.864   5.892
 8478SOL    HW226334   6.254   0.930   5.904
 8479SOL     OW26335   0.874   2.407   0.626
 8479SOL    HW126336   0.804   2.358   0.676
 8479SOL    HW226337   0.927   2.465   0.689
 8480SOL     OW26338   3.823   3.853   6.972
 8480SOL    HW126339   3.761   3.777   6.954
 8480SOL    HW226340   3.911   3.837   6.926
 8481SOL     OW26341   4.135   1.904   3.649
 8481SOL    HW126342   4.089   1.823   3.612
 8481SOL    HW226343   4.106   1.984   3.597
 8482SOL     OW26344   4.821   0.697   0.770
 8482SOL    HW126345   4.773   0.785   0.781
 8482SOL    HW226346   4.778   0.644   0.698
 8483SOL     OW26347   3.486   5.136   2.883
 8483SOL    HW126348   3.489   5.137   2.983
 8483SOL    HW226349   3.456   5.046   2.851
 8484SOL     OW26350   5.519   5.558   4.992
 8484SOL    HW126351   5.509   5.635   5.054
 8484SOL    HW226352   5.501   5.473   5.041
 8485SOL     OW26353   3.407   2.489   0.248
 8485SOL    HW126354   3.426   2.570   0.303
 8485SOL    HW226355   3.486   2.427   0.252
 8486SOL     OW26356   0.765   2.195   2.935
 8486SOL    HW126357   0.736   2.156   3.023
 8486SOL    HW226358   0.724   2.142   2.861
 8487SOL     OW26359   6.331   1.638   5.925
 8487SOL    HW126360   6.371   1.714   5.975
 8487SOL    HW226361   6.270   1.586   5.985
 8488SOL     OW26362   4.687   5.041   1.707
 8488SOL    HW126363   4.723   4.960   1.753
 8488SOL    HW226364   4.587   5.034   1.700
 8489SOL     OW26365   5.500   2.044   1.621
 8489SOL    HW126366   5.436   2.028   1.546
 8489SOL    HW226367   5.494   1.969   1.688
 8490SOL     OW26368   2.851   0.331   6.523
 8490SOL    HW126369   2.828   0.308   6.617
 8490SOL    HW226370   2.899   0.254   6.480
 8491SOL     OW26371   2.907   5.782   1.951
 8491SOL    HW126372   2.962   5.777   1.867
 8491SOL    HW226373   2.842   5.706   1.952
 8492SOL     OW26374   6.659   6.333   4.009
 8492SOL    HW126375   6.642   6.260   4.075
 8492SOL    HW226376   6.611   6.416   4.039
 8493SOL     OW26377   4.822   1.103   0.117
 8493SOL    HW126378   4.766   1.182   0.142
 8493SOL    HW226379   4.785   1.061   0.035
 8494SOL     OW26380   6.766   4.676   2.546
 8494SOL    HW126381   6.716   4.652   2.629
 8494SOL    HW226382   6.856   4.633   2.547
 8495SOL     OW26383   6.487   5.423   6.534
 8495SOL    HW126384   6.487   5.516   6.571
 8495SOL    HW226385   6.554   5.367   6.583
 8496SOL     OW26386   5.614   2.969   1.966
 8496SOL    HW126387   5.526   3.007   1.993
 8496SOL    HW226388   5.639   3.004   1.875
 8497SOL     OW26389   6.931   0.909   3.590
 8497SOL    HW126390   7.003   0.888   3.656
 8497SOL    HW226391   6.906   0.826   3.540
 8498SOL     OW26392   4.681   6.913   3.792
 8498SOL    HW126393   4.669   6.953   3.701
 8498SOL    HW226394   4.627   6.965   3.858
 8499SOL     OW26395   6.287   6.729   6.036
 8499SOL    HW126396   6.258   6.740   5.942
 8499SOL    HW226397   6.228   6.783   6.097
 8500SOL     OW26398   0.732   0.846   5.052
 8500SOL    HW126399   0.727   0.841   5.151
 8500SOL    HW226400   0.668   0.915   5.019
 8501SOL     OW26401   0.757   1.977   6.432
 8501SOL    HW126402   0.847   1.954   6.395
 8501SOL    HW226403   0.726   2.065   6.394
 8502SOL     OW26404   0.842   3.979   7.016
 8502SOL    HW126405   0.888   3.897   6.982
 8502SOL    HW226406   0.781   4.015   6.945
 8503SOL     OW26407   5.620   1.004   4.673
 8503SOL    HW126408   5.688   0.992   4.745
 8503SOL    HW226409   5.612   1.101   4.651
 8504SOL     OW26410   1.140   6.681   1.893
 8504SOL    HW126411   1.218   6.620   1.895
 8504SOL    HW226412   1.055   6.627   1.893
 8505SOL     OW26413   4.953   3.490   2.883
 8505SOL    HW126414   4.960   3.467   2.786
 8505SOL    HW226415   4.941   3.589   2.892
 8506SOL     OW26416   1.412   0.405   6.304
 8506SOL    HW126417   1.369   0.375   6.218
 8506SOL    HW226418   1.363   0.364   6.381
 8507SOL     OW26419   3.537   6.443   5.277
 8507SOL    HW126420   3.578   6.355   5.251
 8507SOL    HW226421   3.523   6.446   5.375
 8508SOL     OW26422   3.189   1.960   6.426
 8508SOL    HW126423   3.221   2.054   6.414
 8508SOL    HW226424   3.140   1.930   6.344
 8509SOL     OW26425   5.721   1.836   2.978
 8509SOL    HW126426   5.788   1.796   3.040
 8509SOL    HW226427   5.686   1.921   3.018
 8510SOL     OW26428   6.638   2.231   4.631
 8510SOL    HW126429   6.638   2.231   4.531
 8510SOL    HW226430   6.557   2.182   4.664
 8511SOL     OW26431   5.639   2.777   2.482
 8511SOL    HW126432   5.723   2.731   2.454
 8511SOL    HW226433   5.603   2.733   2.565
 8512SOL     OW26434   1.960   6.726   5.905
 8512SOL    HW126435   1.869   6.688   5.891
 8512SOL    HW226436   1.967   6.762   5.998
 8513SOL     OW26437   4.828   6.891   6.295
 8513SOL    HW126438   4.803   6.840   6.213
 8513SOL    HW226439   4.745   6.922   6.341
 8514SOL     OW26440   3.012   5.803   4.031
 8514SOL    HW126441   3.004   5.732   3.960
 8514SOL    HW226442   2.965   5.885   4.000
 8515SOL     OW26443   6.035   1.607   0.678
 8515SOL    HW126444   5.952   1.554   0.657
 8515SOL    HW226445   6.009   1.696   0.715
 8516SOL     OW26446   0.288   2.058   2.509
 8516SOL    HW126447   0.256   1.970   2.474
 8516SOL    HW226448   0.210   2.113   2.538
 8517SOL     OW26449   0.921   3.972   0.627
 8517SOL    HW126450   0.843   4.024   0.593
 8517SOL    HW226451   0.951   4.011   0.715
 8518SOL     OW26452   3.210   5.250   0.859
 8518SOL    HW126453   3.237   5.249   0.763
 8518SOL    HW226454   3.289   5.274   0.916
 8519SOL     OW26455   1.349   4.791   2.833
 8519SOL    HW126456   1.423   4.807   2.768
 8519SOL    HW226457   1.272   4.850   2.812
 8520SOL     OW26458   2.762   0.485   7.001
 8520SOL    HW126459   2.743   0.542   0.053
 8520SOL    HW226460   2.852   0.443   7.011
 8521SOL     OW26461   0.979   7.018   6.649
 8521SOL    HW126462   1.057   6.955   6.651
 8521SOL    HW226463   0.948   0.001   6.554
 8522SOL     OW26464   1.939   6.175   4.653
 8522SOL    HW126465   1.914   6.270   4.635
 8522SOL    HW226466   1.984   6.136   4.572
 8523SOL     OW26467   1.237   6.882   6.614
 8523SOL    HW126468   1.280   6.837   6.692
 8523SOL    HW226469   1.277   6.973   6.601
 8524SOL     OW26470   1.487   2.482   6.049
 8524SOL    HW126471   1.490   2.555   6.117
 8524SOL    HW226472   1.576   2.473   6.005
 8525SOL     OW26473   5.091   2.952   3.206
 8525SOL    HW126474   4.992   2.955   3.193
 8525SOL    HW226475   5.135   3.022   3.150
 8526SOL     OW26476   2.115   2.988   1.925
 8526SOL    HW126477   2.195   2.945   1.885
 8526SOL    HW226478   2.104   3.080   1.888
 8527SOL     OW26479   4.266   0.178   4.402
 8527SOL    HW126480   4.186   0.218   4.358
 8527SOL    HW226481   4.341   0.245   4.403
 8528SOL     OW26482   5.035   2.721   0.028
 8528SOL    HW126483   5.063   2.643   0.083
 8528SOL    HW226484   5.074   2.714   6.963
 8529SOL     OW26485   0.268   4.554   0.112
 8529SOL    HW126486   0.312   4.605   0.186
 8529SOL    HW226487   0.180   4.519   0.143
 8530SOL     OW26488   1.539   3.404   5.847
 8530SOL    HW126489   1.590   3.366   5.924
 8530SOL    HW226490   1.538   3.338   5.771
 8531SOL     OW26491   4.198   4.720   2.379
 8531SOL    HW126492   4.246   4.807   2.366
 8531SOL    HW226493   4.205   4.691   2.474
 8532SOL     OW26494   1.457   4.431   6.084
 8532SOL    HW126495   1.366   4.471   6.094
 8532SOL    HW226496   1.457   4.365   6.009
 8533SOL     OW26497   3.616   0.573   5.979
 8533SOL    HW126498   3.681   0.502   6.003
 8533SOL    HW226499   3.632   0.654   6.035
 8534SOL     OW26500   1.914   2.925   3.083
 8534SOL    HW126501   1.940   2.983   3.006
 8534SOL    HW226502   1.972   2.844   3.085
 8535SOL     OW26503   6.416   3.147   4.135
 8535SOL    HW126504   6.473   3.194   4.068
 8535SOL    HW226505   6.320   3.168   4.116
 8536SOL     OW26506   0.125   1.242   4.328
 8536SOL    HW126507   0.034   1.233   4.287
 8536SOL    HW226508   0.159   1.335   4.315
 8537SOL     OW26509   6.156   0.038   2.411
 8537SOL    HW126510   6.157   6.966   2.427
 8537SOL    HW226511   6.230   0.062   2.348
 8538SOL     OW26512   5.296   1.304   4.546
 8538SOL    HW126513   5.276   1.256   4.631
 8538SOL    HW226514   5.257   1.254   4.469
 8539SOL     OW26515   6.830   2.951   2.645
 8539SOL    HW126516   6.824   2.972   2.743
 8539SOL    HW226517   6.899   3.008   2.603
 8540SOL     OW26518   3.910   0.240   0.037
 8540SOL    HW126519   3.937   0.148   0.065
 8540SOL    HW226520   3.872   0.289   0.116
 8541SOL     OW26521   3.494   7.021   5.166
 8541SOL    HW126522   3.427   6.951   5.190
 8541SOL    HW226523   3.585   6.980   5.164
 8542SOL     OW26524   1.439   5.352   6.290
 8542SOL    HW126525   1.350   5.396   6.297
 8542SOL    HW226526   1.455   5.296   6.371
 8543SOL     OW26527   2.296   2.880   5.971
 8543SOL    HW126528   2.292   2.824   5.888
 8543SOL    HW226529   2.282   2.822   6.051
 8544SOL     OW26530   5.630   4.672   6.007
 8544SOL    HW126531   5.600   4.590   6.055
 8544SOL    HW226532   5.551   4.715   5.963
 8545SOL     OW26533   2.590   0.026   6.595
 8545SOL    HW126534   2.549   0.016   6.686
 8545SOL    HW226535   2.643   0.110   6.591
 8546SOL     OW26536   4.987   0.860   2.619
 8546SOL    HW126537   5.014   0.941   2.567
 8546SOL    HW226538   5.010   0.873   2.716
 8547SOL     OW26539   5.581   6.204   6.134
 8547SOL    HW126540   5.591   6.126   6.072
 8547SOL    HW226541   5.486   6.237   6.130
 8548SOL     OW26542   0.367   3.486   5.710
 8548SOL    HW126543   0.421   3.473   5.626
 8548SOL    HW226544   0.415   3.549   5.771
 8549SOL     OW26545   2.211   0.104   4.089
 8549SOL    HW126546   2.249   0.168   4.156
 8549SOL    HW226547   2.275   0.029   4.074
 8550SOL     OW26548   6.619   4.410   6.128
 8550SOL    HW126549   6.699   4.431   6.183
 8550SOL    HW226550   6.583   4.495   6.088
 8551SOL     OW26551   1.995   0.573   5.830
 8551SOL    HW126552   2.022   0.565   5.734
 8551SOL    HW226553   2.076   0.588   5.887
 8552SOL     OW26554   3.174   2.117   2.386
 8552SOL    HW126555   3.164   2.213   2.411
 8552SOL    HW226556   3.085   2.079   2.359
 8553SOL     OW26557   5.406   3.922   6.813
 8553SOL    HW126558   5.452   3.930   6.902
 8553SOL    HW226559   5.438   3.994   6.752
 8554SOL     OW26560   2.361   1.094   0.439
 8554SOL    HW126561   2.318   1.184   0.441
 8554SOL    HW226562   2.459   1.103   0.458
 8555SOL     OW26563   3.830   1.235   4.100
 8555SOL    HW126564   3.760   1.197   4.160
 8555SOL    HW226565   3.919   1.232   4.146
 8556SOL     OW26566   1.359   5.728   0.140
 8556SOL    HW126567   1.299   5.674   0.081
 8556SOL    HW226568   1.308   5.762   0.218
 8557SOL     OW26569   6.674   0.794   6.423
 8557SOL    HW126570   6.687   0.775   6.325
 8557SOL    HW226571   6.697   0.890   6.441
 8558SOL     OW26572   3.122   6.162   4.358
 8558SOL    HW126573   3.130   6.067   4.389
 8558SOL    HW226574   3.088   6.163   4.264
 8559SOL     OW26575   2.134   4.416   2.880
 8559SOL    HW126576   2.061   4.417   2.812
 8559SOL    HW226577   2.210   4.361   2.846
 8560SOL     OW26578   1.985   4.568   0.505
 8560SOL    HW126579   2.013   4.583   0.411
 8560SOL    HW226580   1.944   4.477   0.513
 8561SOL     OW26581   4.497   0.740   2.933
 8561SOL    HW126582   4.578   0.736   2.874
 8561SOL    HW226583   4.470   0.836   2.947
 8562SOL     OW26584   5.441   2.050   6.946
 8562SOL    HW126585   5.427   1.988   7.023
 8562SOL    HW226586   5.368   2.119   6.947
 8563SOL     OW26587   2.784   5.192   2.537
 8563SOL    HW126588   2.848   5.199   2.614
 8563SOL    HW226589   2.780   5.097   2.506
 8564SOL     OW26590   3.947   0.030   0.214
 8564SOL    HW126591   3.935   6.967   0.171
 8564SOL    HW226592   3.938   0.021   0.313
 8565SOL     OW26593   1.953   5.084   1.150
 8565SOL    HW126594   1.861   5.083   1.110
 8565SOL    HW226595   2.021   5.068   1.078
 8566SOL     OW26596   3.460   1.372   2.411
 8566SOL    HW126597   3.377   1.380   2.466
 8566SOL    HW226598   3.440   1.322   2.327
 8567SOL     OW26599   1.651   3.093   2.369
 8567SOL    HW126600   1.747   3.120   2.377
 8567SOL    HW226601   1.620   3.109   2.275
 8568SOL     OW26602   5.663   0.526   6.259
 8568SOL    HW126603   5.592   0.476   6.308
 8568SOL    HW226604   5.684   0.480   6.173
 8569SOL     OW26605   4.464   2.249   0.207
 8569SOL    HW126606   4.379   2.243   0.260
 8569SOL    HW226607   4.464   2.333   0.154
 8570SOL     OW26608   2.197   2.439   1.810
 8570SOL    HW126609   2.122   2.414   1.871
 8570SOL    HW226610   2.253   2.509   1.852
 8571SOL     OW26611   1.640   0.870   2.844
 8571SOL    HW126612   1.712   0.938   2.858
 8571SOL    HW226613   1.681   0.780   2.829
 8572SOL     OW26614   2.245   4.231   5.503
 8572SOL    HW126615   2.294   4.197   5.583
 8572SOL    HW226616   2.309   4.239   5.426
 8573SOL     OW26617   3.177   6.553   0.400
 8573SOL    HW126618   3.158   6.516   0.309
 8573SOL    HW226619   3.190   6.652   0.394
 8574SOL     OW26620   4.538   0.864   4.930
 8574SOL    HW126621   4.611   0.893   4.991
 8574SOL    HW226622   4.528   0.764   4.934
 8575SOL     OW26623   3.184   5.995   3.376
 8575SOL    HW126624   3.118   6.015   3.448
 8575SOL    HW226625   3.237   5.914   3.400
 8576SOL     OW26626   1.622   4.524   3.958
 8576SOL    HW126627   1.595   4.473   3.876
 8576SOL    HW226628   1.706   4.575   3.939
 8577SOL     OW26629   1.907   1.221   0.373
 8577SOL    HW126630   1.870   1.288   0.439
 8577SOL    HW226631   1.971   1.266   0.312
 8578SOL     OW26632   0.180   6.831   6.111
 8578SOL    HW126633   0.147   6.923   6.091
 8578SOL    HW226634   0.276   6.824   6.086
 8579SOL     OW26635   2.873   6.584   2.230
 8579SOL    HW126636   2.837   6.546   2.145
 8579SOL    HW226637   2.823   6.667   2.253
 8580SOL     OW26638   1.774   0.644   1.247
 8580SOL    HW126639   1.684   0.603   1.229
 8580SOL    HW226640   1.767   0.709   1.322
 8581SOL     OW26641   3.264   4.787   1.313
 8581SOL    HW126642   3.335   4.724   1.344
 8581SOL    HW226643   3.221   4.831   1.392
 8582SOL     OW26644   3.586   5.276   5.629
 8582SOL    HW126645   3.624   5.207   5.568
 8582SOL    HW226646   3.487   5.280   5.618
 8583SOL     OW26647   4.074   0.282   2.750
 8583SOL    HW126648   4.101   0.369   2.792
 8583SOL    HW226649   3.975   0.272   2.757
 8584SOL     OW26650   6.845   1.570   5.009
 8584SOL    HW126651   6.877   1.664   4.994
 8584SOL    HW226652   6.829   1.526   4.921
 8585SOL     OW26653   5.578   2.690   2.761
 8585SOL    HW126654   5.635   2.767   2.792
 8585SOL    HW226655   5.484   2.721   2.750
 8586SOL     OW26656   6.826   6.337   0.147
 8586SOL    HW126657   6.801   6.336   0.244
 8586SOL    HW226658   6.791   6.421   0.104
 8587SOL     OW26659   0.259   1.665   6.913
 8587SOL    HW126660   0.269   1.655   6.814
 8587SOL    HW226661   0.231   1.759   6.933
 8588SOL     OW26662   2.817   1.482   6.172
 8588SOL    HW126663   2.775   1.490   6.262
 8588SOL    HW226664   2.842   1.386   6.155
 8589SOL     OW26665   6.730   3.224   6.900
 8589SOL    HW126666   6.662   3.274   6.953
 8589SOL    HW226667   6.738   3.131   6.935
 8590SOL     OW26668   0.788   0.313   4.297
 8590SOL    HW126669   0.768   0.331   4.393
 8590SOL    HW226670   0.848   0.385   4.261
 8591SOL     OW26671   6.783   4.526   6.599
 8591SOL    HW126672   6.747   4.539   6.691
 8591SOL    HW226673   6.775   4.611   6.548
 8592SOL     OW26674   0.300   1.741   4.602
 8592SOL    HW126675   0.389   1.720   4.641
 8592SOL    HW226676   0.265   1.661   4.553
 8593SOL     OW26677   4.761   1.531   6.908
 8593SOL    HW126678   4.769   1.630   6.894
 8593SOL    HW226679   4.766   1.510   7.005
 8594SOL     OW26680   6.463   2.954   6.573
 8594SOL    HW126681   6.529   3.026   6.593
 8594SOL    HW226682   6.419   2.973   6.485
 8595SOL     OW26683   6.222   6.553   3.194
 8595SOL    HW126684   6.165   6.484   3.237
 8595SOL    HW226685   6.184   6.644   3.212
 8596SOL     OW26686   0.927   1.669   4.046
 8596SOL    HW126687   0.906   1.585   3.996
 8596SOL    HW226688   1.011   1.709   4.009
 8597SOL     OW26689   5.765   3.442   6.453
 8597SOL    HW126690   5.812   3.513   6.507
 8597SOL    HW226691   5.722   3.484   6.374
 8598SOL     OW26692   6.003   6.707   4.801
 8598SOL    HW126693   6.036   6.613   4.792
 8598SOL    HW226694   6.080   6.770   4.810
 8599SOL     OW26695   6.918   3.445   4.018
 8599SOL    HW126696   6.829   3.418   4.054
 8599SOL    HW226697   6.960   3.512   4.080
 8600SOL     OW26698   4.747   1.875   1.166
 8600SOL    HW126699   4.704   1.905   1.081
 8600SOL    HW226700   4.682   1.822   1.220
 8601SOL     OW26701   0.307   6.281   3.821
 8601SOL    HW126702   0.344   6.266   3.729
 8601SOL    HW226703   0.367   6.238   3.889
 8602SOL     OW26704   2.018   6.320   4.868
 8602SOL    HW126705   2.000   6.249   4.800
 8602SOL    HW226706   2.054   6.401   4.823
 8603SOL     OW26707   0.187   0.143   0.449
 8603SOL    HW126708   0.153   0.080   0.379
 8603SOL    HW226709   0.113   0.164   0.513
 8604SOL     OW26710   0.114   4.724   6.422
 8604SOL    HW126711   0.159   4.764   6.342
 8604SOL    HW226712   0.133   4.626   6.425
 8605SOL     OW26713   0.002   4.422   4.877
 8605SOL    HW126714   0.101   4.430   4.869
 8605SOL    HW226715   6.985   4.478   4.806
 8606SOL     OW26716   1.691   2.104   0.340
 8606SOL    HW126717   1.673   2.133   0.434
 8606SOL    HW226718   1.767   2.157   0.303
 8607SOL     OW26719   2.204   3.890   1.304
 8607SOL    HW126720   2.257   3.907   1.387
 8607SOL    HW226721   2.227   3.959   1.235
 8608SOL     OW26722   1.763   4.666   2.791
 8608SOL    HW126723   1.832   4.598   2.766
 8608SOL    HW226724   1.796   4.721   2.868
 8609SOL     OW26725   4.101   1.253   4.208
 8609SOL    HW126726   4.039   1.241   4.286
 8609SOL    HW226727   4.141   1.344   4.210
 8610SOL     OW26728   6.910   6.161   3.318
 8610SOL    HW126729   6.826   6.171   3.371
 8610SOL    HW226730   6.888   6.121   3.229
 8611SOL     OW26731   3.166   1.444   5.128
 8611SOL    HW126732   3.112   1.456   5.211
 8611SOL    HW226733   3.147   1.519   5.065
 8612SOL     OW26734   2.888   3.380   3.969
 8612SOL    HW126735   2.885   3.480   3.966
 8612SOL    HW226736   2.886   3.345   3.876
 8613SOL     OW26737   3.905   3.061   2.150
 8613SOL    HW126738   3.993   3.104   2.127
 8613SOL    HW226739   3.889   2.985   2.087
 8614SOL     OW26740   1.734   1.879   3.116
 8614SOL    HW126741   1.639   1.907   3.104
 8614SOL    HW226742   1.760   1.893   3.212
 8615SOL     OW26743   3.828   1.473   4.322
 8615SOL    HW126744   3.750   1.416   4.294
 8615SOL    HW226745   3.907   1.414   4.341
 8616SOL     OW26746   5.703   4.440   3.846
 8616SOL    HW126747   5.705   4.539   3.832
 8616SOL    HW226748   5.610   4.411   3.872
 8617SOL     OW26749   2.459   0.454   3.704
 8617SOL    HW126750   2.504   0.423   3.787
 8617SOL    HW226751   2.483   0.549   3.685
 8618SOL     OW26752   5.061   4.398   1.253
 8618SOL    HW126753   5.117   4.461   1.307
 8618SOL    HW226754   5.018   4.331   1.314
 8619SOL     OW26755   5.179   5.194   0.449
 8619SOL    HW126756   5.182   5.095   0.439
 8619SOL    HW226757   5.259   5.225   0.500
 8620SOL     OW26758   2.570   0.645   4.177
 8620SOL    HW126759   2.508   0.707   4.225
 8620SOL    HW226760   2.641   0.698   4.131
 8621SOL     OW26761   5.705   3.084   1.731
 8621SOL    HW126762   5.680   3.057   1.638
 8621SOL    HW226763   5.724   3.182   1.734
 8622SOL     OW26764   0.094   4.902   2.717
 8622SOL    HW126765   0.180   4.857   2.741
 8622SOL    HW226766   0.069   4.879   2.623
 8623SOL     OW26767   1.308   3.622   4.472
 8623SOL    HW126768   1.398   3.613   4.428
 8623SOL    HW226769   1.237   3.623   4.403
 8624SOL     OW26770   3.308   3.995   4.749
 8624SOL    HW126771   3.280   3.980   4.654
 8624SOL    HW226772   3.228   4.019   4.804
 8625SOL     OW26773   4.068   2.583   5.567
 8625SOL    HW126774   4.003   2.595   5.492
 8625SOL    HW226775   4.105   2.672   5.594
 8626SOL     OW26776   3.554   3.509   0.619
 8626SOL    HW126777   3.545   3.463   0.531
 8626SOL    HW226778   3.608   3.452   0.681
 8627SOL     OW26779   2.050   0.973   1.865
 8627SOL    HW126780   2.020   0.878   1.856
 8627SOL    HW226781   2.129   0.977   1.926
 8628SOL     OW26782   0.178   6.880   0.964
 8628SOL    HW126783   0.111   6.853   1.033
 8628SOL    HW226784   0.271   6.869   1.000
 8629SOL     OW26785   6.980   6.169   5.783
 8629SOL    HW126786   6.938   6.128   5.702
 8629SOL    HW226787   6.987   6.268   5.771
 8630SOL     OW26788   4.840   2.984   2.200
 8630SOL    HW126789   4.863   3.077   2.227
 8630SOL    HW226790   4.761   2.985   2.138
 8631SOL     OW26791   2.951   6.790   6.455
 8631SOL    HW126792   2.900   6.719   6.502
 8631SOL    HW226793   3.049   6.774   6.467
 8632SOL     OW26794   5.269   4.934   5.273
 8632SOL    HW126795   5.187   4.980   5.308
 8632SOL    HW226796   5.296   4.976   5.187
 8633SOL     OW26797   5.701   4.006   6.012
 8633SOL    HW126798   5.777   4.049   5.963
 8633SOL    HW226799   5.624   3.992   5.949
 8634SOL     OW26800   4.336   2.913   0.482
 8634SOL    HW126801   4.386   2.950   0.560
 8634SOL    HW226802   4.341   2.977   0.406
 8635SOL     OW26803   5.091   2.625   5.911
 8635SOL    HW126804   5.066   2.651   6.004
 8635SOL    HW226805   5.170   2.564   5.914
 8636SOL     OW26806   4.525   0.146   1.916
 8636SOL    HW126807   4.593   0.073   1.907
 8636SOL    HW226808   4.439   0.107   1.949
 8637SOL     OW26809   1.839   2.262   6.736
 8637SOL    HW126810   1.924   2.314   6.747
 8637SOL    HW226811   1.861   2.164   6.735
 8638SOL     OW26812   4.754   2.585   3.441
 8638SOL    HW126813   4.817   2.508   3.450
 8638SOL    HW226814   4.781   2.657   3.504
 8639SOL     OW26815   3.627   4.080   0.152
 8639SOL    HW126816   3.717   4.037   0.154
 8639SOL    HW226817   3.629   4.158   0.089
 8640SOL     OW26818   3.002   2.935   0.616
 8640SOL    HW126819   3.010   2.934   0.715
 8640SOL    HW226820   3.089   2.908   0.575
 8641SOL     OW26821   4.737   5.412   1.898
 8641SOL    HW126822   4.659   5.350   1.897
 8641SOL    HW226823   4.725   5.483   1.828
 8642SOL     OW26824   1.176   5.878   3.648
 8642SOL    HW126825   1.210   5.964   3.687
 8642SOL    HW226826   1.084   5.860   3.683
 8643SOL     OW26827   3.680   6.474   0.869
 8643SOL    HW126828   3.700   6.558   0.919
 8643SOL    HW226829   3.582   6.455   0.874
 8644SOL     OW26830   5.944   1.984   6.169
 8644SOL    HW126831   5.988   1.927   6.100
 8644SOL    HW226832   5.946   1.938   6.258
 8645SOL     OW26833   5.888   4.525   2.880
 8645SOL    HW126834   5.968   4.519   2.941
 8645SOL    HW226835   5.822   4.589   2.918
 8646SOL     OW26836   6.444   2.582   5.150
 8646SOL    HW126837   6.345   2.591   5.166
 8646SOL    HW226838   6.482   2.514   5.214
 8647SOL     OW26839   2.191   5.735   2.065
 8647SOL    HW126840   2.158   5.806   2.002
 8647SOL    HW226841   2.132   5.730   2.145
 8648SOL     OW26842   5.172   4.922   0.521
 8648SOL    HW126843   5.100   4.853   0.512
 8648SOL    HW226844   5.256   4.888   0.477
 8649SOL     OW26845   4.881   0.335   0.881
 8649SOL    HW126846   4.809   0.268   0.859
 8649SOL    HW226847   4.953   0.330   0.812
 8650SOL     OW26848   2.512   6.528   4.937
 8650SOL    HW126849   2.565   6.516   5.020
 8650SOL    HW226850   2.444   6.600   4.951
 8651SOL     OW26851   3.745   2.099   1.298
 8651SOL    HW126852   3.814   2.083   1.228
 8651SOL    HW226853   3.789   2.119   1.385
 8652SOL     OW26854   1.215   3.048   3.659
 8652SOL    HW126855   1.134   3.092   3.621
 8652SOL    HW226856   1.189   2.992   3.738
 8653SOL     OW26857   6.393   1.370   6.501
 8653SOL    HW126858   6.388   1.386   6.600
 8653SOL    HW226859   6.488   1.351   6.475
 8654SOL     OW26860   0.248   4.578   2.108
 8654SOL    HW126861   0.330   4.633   2.096
 8654SOL    HW226862   0.257   4.523   2.192
 8655SOL     OW26863   0.084   0.858   4.583
 8655SOL    HW126864   0.002   0.895   4.626
 8655SOL    HW226865   0.155   0.929   4.579
 8656SOL     OW26866   5.000   0.096   1.184
 8656SOL    HW126867   5.011   0.008   1.138
 8656SOL    HW226868   5.006   0.170   1.118
 8657SOL     OW26869   4.428   1.047   3.223
 8657SOL    HW126870   4.414   1.145   3.211
 8657SOL    HW226871   4.522   1.023   3.198
 8658SOL     OW26872   6.059   4.388   0.902
 8658SOL    HW126873   6.096   4.385   0.995
 8658SOL    HW226874   5.961   4.405   0.905
 8659SOL     OW26875   3.233   1.084   2.868
 8659SOL    HW126876   3.219   1.083   2.769
 8659SOL    HW226877   3.305   1.150   2.891
 8660SOL     OW26878   0.180   4.064   1.822
 8660SOL    HW126879   0.260   4.098   1.871
 8660SOL    HW226880   0.174   4.110   1.733
 8661SOL     OW26881   6.578   3.954   2.328
 8661SOL    HW126882   6.657   3.898   2.354
 8661SOL    HW226883   6.501   3.894   2.305
 8662SOL     OW26884   1.854   4.042   3.352
 8662SOL    HW126885   1.816   4.103   3.422
 8662SOL    HW226886   1.813   3.951   3.362
 8663SOL     OW26887   4.446   5.550   2.261
 8663SOL    HW126888   4.482   5.596   2.180
 8663SOL    HW226889   4.416   5.619   2.327
 8664SOL     OW26890   3.679   6.011   3.303
 8664SOL    HW126891   3.659   5.970   3.215
 8664SOL    HW226892   3.603   5.996   3.366
 8665SOL     OW26893   5.646   3.412   6.889
 8665SOL    HW126894   5.612   3.475   6.819
 8665SOL    HW226895   5.570   3.377   6.943
 8666SOL     OW26896   4.705   0.095   2.594
 8666SOL    HW126897   4.739   0.153   2.520
 8666SOL    HW226898   4.779   0.078   2.660
 8667SOL     OW26899   4.975   1.962   3.241
 8667SOL    HW126900   4.989   1.923   3.332
 8667SOL    HW226901   4.879   1.987   3.229
 8668SOL     OW26902   4.925   2.452   5.089
 8668SOL    HW126903   4.960   2.362   5.062
 8668SOL    HW226904   4.891   2.501   5.009
 8669SOL     OW26905   6.202   6.127   6.555
 8669SOL    HW126906   6.162   6.218   6.565
 8669SOL    HW226907   6.193   6.097   6.460
 8670SOL     OW26908   6.530   4.327   6.511
 8670SOL    HW126909   6.572   4.397   6.568
 8670SOL    HW226910   6.585   4.314   6.428
 8671SOL     OW26911   0.592   2.902   3.216
 8671SOL    HW126912   0.575   2.999   3.202
 8671SOL    HW226913   0.618   2.885   3.311
 8672SOL     OW26914   0.453   0.772   2.776
 8672SOL    HW126915   0.495   0.829   2.848
 8672SOL    HW226916   0.375   0.821   2.737
 8673SOL     OW26917   0.181   1.905   1.476
 8673SOL    HW126918   0.251   1.837   1.500
 8673SOL    HW226919   0.094   1.859   1.461
 8674SOL     OW26920   6.714   3.923   3.726
 8674SOL    HW126921   6.753   3.890   3.640
 8674SOL    HW226922   6.708   4.023   3.723
 8675SOL     OW26923   3.434   2.175   5.160
 8675SOL    HW126924   3.460   2.144   5.069
 8675SOL    HW226925   3.353   2.233   5.153
 8676SOL     OW26926   5.305   1.072   0.811
 8676SOL    HW126927   5.274   1.166   0.827
 8676SOL    HW226928   5.396   1.060   0.850
 8677SOL     OW26929   2.276   6.815   6.266
 8677SOL    HW126930   2.259   6.835   6.169
 8677SOL    HW226931   2.332   6.733   6.273
 8678SOL     OW26932   1.498   1.812   0.191
 8678SOL    HW126933   1.469   1.907   0.180
 8678SOL    HW226934   1.591   1.802   0.155
 8679SOL     OW26935   1.745   2.398   5.977
 8679SOL    HW126936   1.794   2.469   5.924
 8679SOL    HW226937   1.810   2.351   6.037
 8680SOL     OW26938   6.753   0.720   0.254
 8680SOL    HW126939   6.716   0.630   0.232
 8680SOL    HW226940   6.807   0.715   0.338
 8681SOL     OW26941   5.583   6.573   1.331
 8681SOL    HW126942   5.550   6.665   1.354
 8681SOL    HW226943   5.593   6.565   1.232
 8682SOL     OW26944   2.119   0.682   1.413
 8682SOL    HW126945   2.095   0.699   1.317
 8682SOL    HW226946   2.086   0.591   1.440
 8683SOL     OW26947   1.678   4.317   4.143
 8683SOL    HW126948   1.743   4.266   4.088
 8683SOL    HW226949   1.642   4.394   4.089
 8684SOL     OW26950   1.980   4.260   4.371
 8684SOL    HW126951   1.988   4.305   4.282
 8684SOL    HW226952   2.047   4.187   4.378
 8685SOL     OW26953   4.839   2.364   4.588
 8685SOL    HW126954   4.864   2.453   4.551
 8685SOL    HW226955   4.799   2.307   4.516
 8686SOL     OW26956   1.198   5.146   3.095
 8686SOL    HW126957   1.232   5.212   3.028
 8686SOL    HW226958   1.276   5.110   3.147
 8687SOL     OW26959   4.879   4.289   6.080
 8687SOL    HW126960   4.827   4.260   6.000
 8687SOL    HW226961   4.857   4.385   6.101
 8688SOL     OW26962   0.604   3.664   5.245
 8688SOL    HW126963   0.670   3.706   5.183
 8688SOL    HW226964   0.512   3.694   5.220
 8689SOL     OW26965   3.844   3.529   7.019
 8689SOL    HW126966   3.908   3.529   0.069
 8689SOL    HW226967   3.757   3.569   0.020
 8690SOL     OW26968   2.013   2.211   2.784
 8690SOL    HW126969   1.934   2.149   2.793
 8690SOL    HW226970   2.000   2.270   2.705
 8691SOL     OW26971   3.364   2.326   5.421
 8691SOL    HW126972   3.318   2.343   5.333
 8691SOL    HW226973   3.438   2.260   5.407
 8692SOL     OW26974   4.440   1.886   5.435
 8692SOL    HW126975   4.539   1.890   5.446
 8692SOL    HW226976   4.413   1.796   5.401
 8693SOL     OW26977   6.492   0.006   5.792
 8693SOL    HW126978   6.466   7.007   5.885
 8693SOL    HW226979   6.449   0.092   5.767
 8694SOL     OW26980   5.511   3.365   5.233
 8694SOL    HW126981   5.441   3.342   5.300
 8694SOL    HW226982   5.514   3.464   5.220
 8695SOL     OW26983   3.640   4.498   6.619
 8695SOL    HW126984   3.563   4.512   6.556
 8695SOL    HW226985   3.622   4.544   6.705
 8696SOL     OW26986   3.069   5.449   5.521
 8696SOL    HW126987   3.075   5.548   5.527
 8696SOL    HW226988   2.973   5.421   5.521
 8697SOL     OW26989   2.035   3.373   5.577
 8697SOL    HW126990   2.047   3.470   5.553
 8697SOL    HW226991   2.123   3.325   5.567
 8698SOL     OW26992   5.407   5.826   5.927
 8698SOL    HW126993   5.430   5.917   5.893
 8698SOL    HW226994   5.358   5.775   5.856
 8699SOL     OW26995   1.637   2.590   6.739
 8699SOL    HW126996   1.556   2.604   6.795
 8699SOL    HW226997   1.614   2.531   6.661
 8700SOL     OW26998   1.154   0.320   3.591
 8700SOL    HW126999   1.195   0.410   3.572
 8700SOL    HW227000   1.055   0.326   3.578
 8701SOL     OW27001   0.781   2.280   0.159
 8701SOL    HW127002   0.821   2.371   0.145
 8701SOL    HW227003   0.682   2.284   0.145
 8702SOL     OW27004   5.297   4.857   1.298
 8702SOL    HW127005   5.234   4.885   1.226
 8702SOL    HW227006   5.391   4.867   1.266
 8703SOL     OW27007   2.386   5.886   0.616
 8703SOL    HW127008   2.414   5.819   0.685
 8703SOL    HW227009   2.461   5.950   0.600
 8704SOL     OW27010   0.853   0.670   4.859
 8704SOL    HW127011   0.823   0.742   4.922
 8704SOL    HW227012   0.783   0.599   4.853
 8705SOL     OW27013   4.183   2.429   6.765
 8705SOL    HW127014   4.245   2.352   6.753
 8705SOL    HW227015   4.178   2.454   6.862
 8706SOL     OW27016   4.944   3.471   6.248
 8706SOL    HW127017   4.922   3.541   6.316
 8706SOL    HW227018   4.917   3.381   6.284
 8707SOL     OW27019   1.955   1.745   4.726
 8707SOL    HW127020   1.861   1.727   4.755
 8707SOL    HW227021   2.019   1.710   4.795
 8708SOL     OW27022   6.058   2.601   0.538
 8708SOL    HW127023   6.062   2.623   0.440
 8708SOL    HW227024   6.077   2.684   0.591
 8709SOL     OW27025   5.779   6.949   5.371
 8709SOL    HW127026   5.878   6.942   5.388
 8709SOL    HW227027   5.758   0.014   5.339
 8710SOL     OW27028   2.225   1.212   3.639
 8710SOL    HW127029   2.266   1.303   3.641
 8710SOL    HW227030   2.134   1.217   3.600
 8711SOL     OW27031   1.523   1.532   1.321
 8711SOL    HW127032   1.464   1.510   1.398
 8711SOL    HW227033   1.561   1.624   1.333
 8712SOL     OW27034   1.440   4.118   5.456
 8712SOL    HW127035   1.531   4.160   5.463
 8712SOL    HW227036   1.389   4.135   5.541
 8713SOL     OW27037   0.306   3.692   1.396
 8713SOL    HW127038   0.295   3.619   1.464
 8713SOL    HW227039   0.326   3.652   1.307
 8714SOL     OW27040   6.884   5.535   6.440
 8714SOL    HW127041   6.808   5.484   6.479
 8714SOL    HW227042   6.850   5.595   6.367
 8715SOL     OW27043   2.022   3.688   1.676
 8715SOL    HW127044   2.106   3.719   1.632
 8715SOL    HW227045   1.953   3.668   1.606
 8716SOL     OW27046   6.679   0.089   2.102
 8716SOL    HW127047   6.701   0.007   2.155
 8716SOL    HW227048   6.759   0.150   2.101
 8717SOL     OW27049   2.522   3.587   0.493
 8717SOL    HW127050   2.554   3.594   0.399
 8717SOL    HW227051   2.595   3.552   0.551
 8718SOL     OW27052   2.542   4.929   6.082
 8718SOL    HW127053   2.595   5.005   6.121
 8718SOL    HW227054   2.508   4.954   5.992
 8719SOL     OW27055   3.256   0.774   4.922
 8719SOL    HW127056   3.260   0.674   4.920
 8719SOL    HW227057   3.284   0.810   4.834
 8720SOL     OW27058   7.009   4.993   4.855
 8720SOL    HW127059   6.952   5.075   4.871
 8720SOL    HW227060   6.979   4.948   4.771
 8721SOL     OW27061   0.316   7.004   6.716
 8721SOL    HW127062   0.371   0.041   6.661
 8721SOL    HW227063   0.248   6.960   6.658
 8722SOL     OW27064   3.678   0.722   1.310
 8722SOL    HW127065   3.616   0.791   1.347
 8722SOL    HW227066   3.644   0.693   1.220
 8723SOL     OW27067   3.993   0.020   2.383
 8723SOL    HW127068   3.940   0.104   2.393
 8723SOL    HW227069   3.930   6.969   2.374
 8724SOL     OW27070   3.920   0.870   4.255
 8724SOL    HW127071   3.980   0.928   4.199
 8724SOL    HW227072   3.896   0.788   4.203
 8725SOL     OW27073   6.559   7.018   3.614
 8725SOL    HW127074   6.540   6.922   3.592
 8725SOL    HW227075   6.595   7.025   3.707
 8726SOL     OW27076   0.010   0.853   0.992
 8726SOL    HW127077   6.945   0.855   1.029
 8726SOL    HW227078   0.070   0.804   1.055
 8727SOL     OW27079   4.615   6.563   6.184
 8727SOL    HW127080   4.546   6.513   6.133
 8727SOL    HW227081   4.626   6.523   6.275
 8728SOL     OW27082   6.350   0.026   4.148
 8728SOL    HW127083   6.288   7.001   4.207
 8728SOL    HW227084   6.443   0.020   4.184
 8729SOL     OW27085   4.700   6.129   6.048
 8729SOL    HW127086   4.649   6.212   6.024
 8729SOL    HW227087   4.714   6.074   5.966
 8730SOL     OW27088   4.473   5.419   1.451
 8730SOL    HW127089   4.376   5.403   1.436
 8730SOL    HW227090   4.502   5.498   1.398
 8731SOL     OW27091   6.924   1.768   3.514
 8731SOL    HW127092   7.022   1.757   3.531
 8731SOL    HW227093   6.900   1.865   3.520
 8732SOL     OW27094   5.993   6.677   0.265
 8732SOL    HW127095   5.925   6.721   0.324
 8732SOL    HW227096   5.952   6.596   0.222
 8733SOL     OW27097   6.330   4.716   2.837
 8733SOL    HW127098   6.420   4.706   2.879
 8733SOL    HW227099   6.299   4.627   2.804
 8734SOL     OW27100   0.170   3.654   2.216
 8734SOL    HW127101   0.216   3.725   2.163
 8734SOL    HW227102   0.219   3.567   2.205
 8735SOL     OW27103   6.919   3.290   5.223
 8735SOL    HW127104   7.000   3.323   5.271
 8735SOL    HW227105   6.926   3.191   5.211
 8736SOL     OW27106   0.893   6.358   4.048
 8736SOL    HW127107   0.892   6.312   3.959
 8736SOL    HW227108   0.846   6.446   4.040
 8737SOL     OW27109   1.777   5.993   0.106
 8737SOL    HW127110   1.863   5.987   0.055
 8737SOL    HW227111   1.794   5.979   0.203
 8738SOL     OW27112   1.375   3.105   3.421
 8738SOL    HW127113   1.326   3.078   3.504
 8738SOL    HW227114   1.473   3.102   3.437
 8739SOL     OW27115   5.209   4.008   5.774
 8739SOL    HW127116   5.307   4.023   5.760
 8739SOL    HW227117   5.173   3.953   5.698
 8740SOL     OW27118   2.885   0.477   4.777
 8740SOL    HW127119   2.869   0.571   4.806
 8740SOL    HW227120   2.974   0.470   4.733
 8741SOL     OW27121   1.352   0.557   2.851
 8741SOL    HW127122   1.359   0.473   2.798
 8741SOL    HW227123   1.317   0.630   2.793
 8742SOL     OW27124   2.786   1.860   2.162
 8742SOL    HW127125   2.824   1.777   2.121
 8742SOL    HW227126   2.704   1.836   2.214
 8743SOL     OW27127   0.510   2.271   1.564
 8743SOL    HW127128   0.514   2.251   1.466
 8743SOL    HW227129   0.440   2.340   1.581
 8744SOL     OW27130   3.371   4.363   5.726
 8744SOL    HW127131   3.295   4.297   5.724
 8744SOL    HW227132   3.451   4.322   5.682
 8745SOL     OW27133   6.259   0.850   6.153
 8745SOL    HW127134   6.296   0.776   6.097
 8745SOL    HW227135   6.320   0.930   6.148
 8746SOL     OW27136   4.756   5.448   5.567
 8746SOL    HW127137   4.812   5.378   5.522
 8746SOL    HW227138   4.770   5.443   5.666
 8747SOL     OW27139   0.594   0.474   2.494
 8747SOL    HW127140   0.599   0.563   2.538
 8747SOL    HW227141   0.682   0.427   2.502
 8748SOL     OW27142   6.305   1.893   3.560
 8748SOL    HW127143   6.211   1.926   3.565
 8748SOL    HW227144   6.353   1.918   3.644
 8749SOL     OW27145   2.429   1.077   3.861
 8749SOL    HW127146   2.434   0.988   3.905
 8749SOL    HW227147   2.461   1.070   3.767
 8750SOL     OW27148   3.941   3.460   0.262
 8750SOL    HW127149   3.952   3.539   0.324
 8750SOL    HW227150   3.917   3.379   0.316
 8751SOL     OW27151   2.027   6.242   0.479
 8751SOL    HW127152   2.016   6.276   0.385
 8751SOL    HW227153   1.977   6.302   0.542
 8752SOL     OW27154   6.101   3.097   5.687
 8752SOL    HW127155   6.020   3.153   5.703
 8752SOL    HW227156   6.095   3.012   5.740
 8753SOL     OW27157   2.577   2.412   1.044
 8753SOL    HW127158   2.579   2.473   0.965
 8753SOL    HW227159   2.577   2.466   1.128
 8754SOL     OW27160   1.774   5.124   6.964
 8754SOL    HW127161   1.832   5.100   0.015
 8754SOL    HW227162   1.810   5.206   6.919
 8755SOL     OW27163   0.437   2.995   1.560
 8755SOL    HW127164   0.349   3.041   1.553
 8755SOL    HW227165   0.462   2.957   1.471
 8756SOL     OW27166   1.690   1.586   1.841
 8756SOL    HW127167   1.723   1.604   1.748
 8756SOL    HW227168   1.658   1.672   1.882
 8757SOL     OW27169   5.033   5.798   5.224
 8757SOL    HW127170   5.123   5.833   5.248
 8757SOL    HW227171   4.971   5.875   5.206
 8758SOL     OW27172   3.599   5.831   5.119
 8758SOL    HW127173   3.523   5.880   5.161
 8758SOL    HW227174   3.581   5.733   5.123
 8759SOL     OW27175   6.009   0.500   0.813
 8759SOL    HW127176   5.976   0.407   0.833
 8759SOL    HW227177   6.107   0.497   0.796
 8760SOL     OW27178   2.578   2.548   4.376
 8760SOL    HW127179   2.652   2.514   4.433
 8760SOL    HW227180   2.540   2.631   4.417
 8761SOL     OW27181   5.401   1.614   2.883
 8761SOL    HW127182   5.432   1.632   2.790
 8761SOL    HW227183   5.479   1.624   2.946
 8762SOL     OW27184   2.922   5.162   3.483
 8762SOL    HW127185   2.847   5.155   3.417
 8762SOL    HW227186   2.886   5.147   3.575
 8763SOL     OW27187   0.487   0.422   6.993
 8763SOL    HW127188   0.440   0.349   0.016
 8763SOL    HW227189   0.584   0.422   7.018
 8764SOL     OW27190   3.008   5.057   5.181
 8764SOL    HW127191   2.984   5.029   5.274
 8764SOL    HW227192   3.063   4.986   5.137
 8765SOL     OW27193   4.192   6.690   4.758
 8765SOL    HW127194   4.132   6.668   4.681
 8765SOL    HW227195   4.268   6.746   4.726
 8766SOL     OW27196   4.558   6.320   5.941
 8766SOL    HW127197   4.476   6.378   5.942
 8766SOL    HW227198   4.557   6.263   5.858
 8767SOL     OW27199   1.732   0.927   4.018
 8767SOL    HW127200   1.653   0.886   4.064
 8767SOL    HW227201   1.706   1.015   3.979
 8768SOL     OW27202   6.408   1.434   6.783
 8768SOL    HW127203   6.338   1.437   6.854
 8768SOL    HW227204   6.495   1.466   6.821
 8769SOL     OW27205   6.162   7.005   0.008
 8769SOL    HW127206   6.155   6.996   0.108
 8769SOL    HW227207   6.245   0.029   7.012
 8770SOL     OW27208   5.108   2.498   0.173
 8770SOL    HW127209   5.167   2.425   0.208
 8770SOL    HW227210   5.020   2.495   0.220
 8771SOL     OW27211   0.396   3.076   0.340
 8771SOL    HW127212   0.339   3.053   0.261
 8771SOL    HW227213   0.400   2.997   0.402
 8772SOL     OW27214   6.933   0.099   3.979
 8772SOL    HW127215   6.898   0.180   4.025
 8772SOL    HW227216   0.004   0.109   3.962
 8773SOL     OW27217   0.245   1.082   4.514
 8773SOL    HW127218   0.193   1.138   4.449
 8773SOL    HW227219   0.321   1.038   4.467
 8774SOL     OW27220   0.808   1.500   0.409
 8774SOL    HW127221   0.755   1.493   0.325
 8774SOL    HW227222   0.782   1.583   0.458
 8775SOL     OW27223   5.492   2.944   3.710
 8775SOL    HW127224   5.575   2.972   3.758
 8775SOL    HW227225   5.415   3.001   3.739
 8776SOL     OW27226   4.462   3.059   0.670
 8776SOL    HW127227   4.406   3.143   0.666
 8776SOL    HW227228   4.557   3.084   0.687
 8777SOL     OW27229   6.723   2.133   2.621
 8777SOL    HW127230   6.783   2.194   2.569
 8777SOL    HW227231   6.769   2.105   2.706
 8778SOL     OW27232   3.283   4.930   6.885
 8778SOL    HW127233   3.350   4.978   6.830
 8778SOL    HW227234   3.312   4.928   6.981
 8779SOL     OW27235   4.269   4.788   3.211
 8779SOL    HW127236   4.177   4.824   3.230
 8779SOL    HW227237   4.294   4.723   3.283
 8780SOL     OW27238   0.114   4.737   4.026
 8780SOL    HW127239   0.074   4.760   4.115
 8780SOL    HW227240   0.041   4.712   3.962
 8781SOL     OW27241   3.212   0.801   2.146
 8781SOL    HW127242   3.258   0.727   2.096
 8781SOL    HW227243   3.156   0.855   2.082
 8782SOL     OW27244   5.439   2.293   1.023
 8782SOL    HW127245   5.349   2.335   1.013
 8782SOL    HW227246   5.468   2.256   0.934
 8783SOL     OW27247   5.516   3.341   4.948
 8783SOL    HW127248   5.481   3.374   5.036
 8783SOL    HW227249   5.548   3.419   4.894
 8784SOL     OW27250   5.453   0.894   1.010
 8784SOL    HW127251   5.416   0.837   1.083
 8784SOL    HW227252   5.485   0.836   0.935
 8785SOL     OW27253   0.166   5.792   5.215
 8785SOL    HW127254   0.149   5.842   5.130
 8785SOL    HW227255   0.146   5.695   5.202
 8786SOL     OW27256   4.785   1.610   2.599
 8786SOL    HW127257   4.754   1.519   2.572
 8786SOL    HW227258   4.720   1.650   2.664
 8787SOL     OW27259   3.750   6.049   0.759
 8787SOL    HW127260   3.799   6.131   0.790
 8787SOL    HW227261   3.798   5.968   0.791
 8788SOL     OW27262   0.963   6.957   3.920
 8788SOL    HW127263   0.961   0.012   3.976
 8788SOL    HW227264   1.057   6.924   3.910
 8789SOL     OW27265   0.171   2.638   6.570
 8789SOL    HW127266   0.137   2.576   6.500
 8789SOL    HW227267   0.114   2.721   6.571
 8790SOL     OW27268   4.913   3.101   5.475
 8790SOL    HW127269   5.007   3.134   5.479
 8790SOL    HW227270   4.853   3.162   5.526
 8791SOL     OW27271   3.427   6.466   4.526
 8791SOL    HW127272   3.453   6.379   4.569
 8791SOL    HW227273   3.502   6.531   4.534
 8792SOL     OW27274   5.280   4.913   1.567
 8792SOL    HW127275   5.188   4.951   1.578
 8792SOL    HW227276   5.289   4.874   1.475
 8793SOL     OW27277   0.461   6.106   4.865
 8793SOL    HW127278   0.485   6.009   4.874
 8793SOL    HW227279   0.362   6.116   4.864
 8794SOL     OW27280   6.911   1.249   2.488
 8794SOL    HW127281   7.001   1.289   2.502
 8794SOL    HW227282   6.904   1.162   2.537
 8795SOL     OW27283   1.702   6.082   6.827
 8795SOL    HW127284   1.764   6.005   6.812
 8795SOL    HW227285   1.748   6.151   6.883
 8796SOL     OW27286   6.247   3.498   4.019
 8796SOL    HW127287   6.251   3.422   3.954
 8796SOL    HW227288   6.156   3.501   4.061
 8797SOL     OW27289   4.667   6.471   3.650
 8797SOL    HW127290   4.698   6.564   3.674
 8797SOL    HW227291   4.715   6.440   3.568
 8798SOL     OW27292   3.113   0.240   5.824
 8798SOL    HW127293   3.021   0.272   5.846
 8798SOL    HW227294   3.151   0.191   5.902
 8799SOL     OW27295   0.919   5.293   1.566
 8799SOL    HW127296   0.987   5.276   1.494
 8799SOL    HW227297   0.965   5.329   1.647
 8800SOL     OW27298   6.958   5.592   5.001
 8800SOL    HW127299   6.969   5.552   4.910
 8800SOL    HW227300   7.024   5.550   5.064
 8801SOL     OW27301   5.868   3.253   5.691
 8801SOL    HW127302   5.800   3.215   5.628
 8801SOL    HW227303   5.902   3.340   5.655
 8802SOL     OW27304   1.477   6.374   6.653
 8802SOL    HW127305   1.383   6.407   6.642
 8802SOL    HW227306   1.520   6.423   6.729
 8803SOL     OW27307   6.528   6.771   6.281
 8803SOL    HW127308   6.500   6.676   6.267
 8803SOL    HW227309   6.625   6.781   6.261
 8804SOL     OW27310   1.659   6.062   2.858
 8804SOL    HW127311   1.584   6.026   2.803
 8804SOL    HW227312   1.731   5.993   2.865
 8805SOL     OW27313   5.541   4.676   3.376
 8805SOL    HW127314   5.445   4.701   3.367
 8805SOL    HW227315   5.597   4.738   3.321
 8806SOL     OW27316   2.060   0.870   1.109
 8806SOL    HW127317   2.045   0.935   1.034
 8806SOL    HW227318   1.977   0.818   1.125
 8807SOL     OW27319   5.160   2.941   1.541
 8807SOL    HW127320   5.179   3.014   1.475
 8807SOL    HW227321   5.228   2.869   1.530
 8808SOL     OW27322   1.370   2.293   6.838
 8808SOL    HW127323   1.453   2.247   6.871
 8808SOL    HW227324   1.384   2.392   6.837
 8809SOL     OW27325   0.465   3.531   3.320
 8809SOL    HW127326   0.554   3.492   3.345
 8809SOL    HW227327   0.478   3.615   3.268
 8810SOL     OW27328   0.777   1.022   5.332
 8810SOL    HW127329   0.778   1.040   5.431
 8810SOL    HW227330   0.801   1.105   5.282
 8811SOL     OW27331   4.093   5.576   2.453
 8811SOL    HW127332   4.016   5.634   2.476
 8811SOL    HW227333   4.061   5.496   2.401
 8812SOL     OW27334   4.870   1.059   6.356
 8812SOL    HW127335   4.897   1.114   6.277
 8812SOL    HW227336   4.947   1.049   6.418
 8813SOL     OW27337   2.192   3.890   3.397
 8813SOL    HW127338   2.255   3.904   3.473
 8813SOL    HW227339   2.162   3.978   3.360
 8814SOL     OW27340   5.116   0.540   5.561
 8814SOL    HW127341   5.104   0.638   5.542
 8814SOL    HW227342   5.157   0.528   5.651
 8815SOL     OW27343   5.617   0.815   0.576
 8815SOL    HW127344   5.648   0.909   0.563
 8815SOL    HW227345   5.522   0.808   0.545
 8816SOL     OW27346   0.842   6.065   4.460
 8816SOL    HW127347   0.887   6.112   4.536
 8816SOL    HW227348   0.783   5.993   4.495
 8817SOL     OW27349   1.345   2.714   3.482
 8817SOL    HW127350   1.297   2.713   3.569
 8817SOL    HW227351   1.422   2.779   3.487
 8818SOL     OW27352   0.701   0.329   5.499
 8818SOL    HW127353   0.618   0.274   5.510
 8818SOL    HW227354   0.763   0.284   5.436
 8819SOL     OW27355   5.393   4.772   6.600
 8819SOL    HW127356   5.448   4.852   6.576
 8819SOL    HW227357   5.305   4.801   6.638
 8820SOL     OW27358   3.391   0.553   5.427
 8820SOL    HW127359   3.364   0.597   5.512
 8820SOL    HW227360   3.447   0.615   5.372
 8821SOL     OW27361   6.875   4.296   6.425
 8821SOL    HW127362   6.831   4.348   6.498
 8821SOL    HW227363   6.878   4.352   6.342
 8822SOL     OW27364   6.680   0.469   4.616
 8822SOL    HW127365   6.766   0.479   4.666
 8822SOL    HW227366   6.618   0.411   4.670
 8823SOL     OW27367   4.072   1.147   3.235
 8823SOL    HW127368   4.009   1.127   3.310
 8823SOL    HW227369   4.036   1.223   3.180
 8824SOL     OW27370   1.525   0.606   2.248
 8824SOL    HW127371   1.528   0.706   2.240
 8824SOL    HW227372   1.497   0.567   2.160
 8825SOL     OW27373   0.354   6.311   0.490
 8825SOL    HW127374   0.398   6.396   0.519
 8825SOL    HW227375   0.274   6.293   0.547
 8826SOL     OW27376   1.131   3.733   0.915
 8826SOL    HW127377   1.083   3.668   0.857
 8826SOL    HW227378   1.162   3.810   0.861
 8827SOL     OW27379   4.859   0.138   2.849
 8827SOL    HW127380   4.772   0.139   2.900
 8827SOL    HW227381   4.918   0.211   2.884
 8828SOL     OW27382   4.502   2.419   6.112
 8828SOL    HW127383   4.543   2.328   6.123
 8828SOL    HW227384   4.457   2.424   6.023
 8829SOL     OW27385   6.931   1.214   1.648
 8829SOL    HW127386   6.980   1.130   1.670
 8829SOL    HW227387   6.941   1.279   1.724
 8830SOL     OW27388   2.858   0.709   3.223
 8830SOL    HW127389   2.806   0.780   3.174
 8830SOL    HW227390   2.803   0.675   3.299
 8831SOL     OW27391   0.578   2.578   1.925
 8831SOL    HW127392   0.582   2.655   1.988
 8831SOL    HW227393   0.612   2.606   1.835
 8832SOL     OW27394   5.360   0.945   4.750
 8832SOL    HW127395   5.298   1.023   4.742
 8832SOL    HW227396   5.451   0.970   4.716
 8833SOL     OW27397   5.017   2.758   1.399
 8833SOL    HW127398   5.039   2.842   1.448
 8833SOL    HW227399   5.043   2.679   1.455
 8834SOL     OW27400   5.629   3.972   5.516
 8834SOL    HW127401   5.701   3.954   5.583
 8834SOL    HW227402   5.608   3.889   5.465
 8835SOL     OW27403   0.252   0.407   5.815
 8835SOL    HW127404   0.183   0.345   5.778
 8835SOL    HW227405   0.276   0.475   5.746
 8836SOL     OW27406   5.048   1.482   1.821
 8836SOL    HW127407   5.124   1.526   1.869
 8836SOL    HW227408   5.065   1.384   1.816
 8837SOL     OW27409   3.559   6.507   0.284
 8837SOL    HW127410   3.540   6.445   0.361
 8837SOL    HW227411   3.642   6.560   0.304
 8838SOL     OW27412   1.734   3.670   3.899
 8838SOL    HW127413   1.819   3.620   3.917
 8838SOL    HW227414   1.752   3.745   3.836
 8839SOL     OW27415   5.614   5.633   2.462
 8839SOL    HW127416   5.544   5.668   2.523
 8839SOL    HW227417   5.578   5.631   2.368
 8840SOL     OW27418   0.107   0.225   1.656
 8840SOL    HW127419   0.091   0.228   1.557
 8840SOL    HW227420   0.138   0.315   1.687
 8841SOL     OW27421   3.594   0.647   0.989
 8841SOL    HW127422   3.621   0.559   0.951
 8841SOL    HW227423   3.521   0.634   1.056
 8842SOL     OW27424   4.083   3.693   4.600
 8842SOL    HW127425   4.053   3.787   4.584
 8842SOL    HW227426   4.180   3.686   4.581
 8843SOL     OW27427   2.768   6.355   6.702
 8843SOL    HW127428   2.695   6.295   6.737
 8843SOL    HW227429   2.835   6.300   6.653
 8844SOL     OW27430   3.656   2.785   6.438
 8844SOL    HW127431   3.724   2.765   6.367
 8844SOL    HW227432   3.678   2.732   6.520
 8845SOL     OW27433   6.695   4.371   2.226
 8845SOL    HW127434   6.603   4.395   2.259
 8845SOL    HW227435   6.687   4.320   2.141
 8846SOL     OW27436   5.221   4.558   4.842
 8846SOL    HW127437   5.257   4.467   4.824
 8846SOL    HW227438   5.178   4.595   4.759
 8847SOL     OW27439   1.533   1.933   3.777
 8847SOL    HW127440   1.620   1.884   3.775
 8847SOL    HW227441   1.471   1.894   3.710
 8848SOL     OW27442   5.048   1.244   0.348
 8848SOL    HW127443   5.010   1.333   0.322
 8848SOL    HW227444   5.003   1.211   0.430
 8849SOL     OW27445   2.836   4.923   4.362
 8849SOL    HW127446   2.877   5.001   4.411
 8849SOL    HW227447   2.904   4.884   4.300
 8850SOL     OW27448   3.465   0.906   1.388
 8850SOL    HW127449   3.453   0.975   1.460
 8850SOL    HW227450   3.402   0.926   1.313
 8851SOL     OW27451   6.783   4.621   2.233
 8851SOL    HW127452   6.745   4.529   2.235
 8851SOL    HW227453   6.794   4.651   2.138
 8852SOL     OW27454   4.608   2.714   4.496
 8852SOL    HW127455   4.586   2.645   4.565
 8852SOL    HW227456   4.556   2.797   4.513
 8853SOL     OW27457   4.273   1.364   5.536
 8853SOL    HW127458   4.365   1.378   5.499
 8853SOL    HW227459   4.247   1.443   5.592
 8854SOL     OW27460   1.153   1.896   6.605
 8854SOL    HW127461   1.089   1.921   6.533
 8854SOL    HW227462   1.159   1.970   6.672
 8855SOL     OW27463   6.282   5.190   0.100
 8855SOL    HW127464   6.271   5.130   0.020
 8855SOL    HW227465   6.380   5.199   0.121
 8856SOL     OW27466   5.781   1.231   4.330
 8856SOL    HW127467   5.811   1.157   4.270
 8856SOL    HW227468   5.832   1.226   4.416
 8857SOL     OW27469   6.993   2.685   4.957
 8857SOL    HW127470   7.020   2.709   4.863
 8857SOL    HW227471   0.041   2.706   5.020
 8858SOL     OW27472   0.216   4.302   6.739
 8858SOL    HW127473   0.273   4.338   6.812
 8858SOL    HW227474   0.261   4.224   6.695
 8859SOL     OW27475   3.021   5.328   5.117
 8859SOL    HW127476   3.085   5.364   5.186
 8859SOL    HW227477   3.004   5.231   5.135
 8860SOL     OW27478   1.189   2.614   1.705
 8860SOL    HW127479   1.262   2.636   1.641
 8860SOL    HW227480   1.130   2.543   1.665
 8861SOL     OW27481   2.846   2.780   0.457
 8861SOL    HW127482   2.764   2.827   0.424
 8861SOL    HW227483   2.913   2.848   0.489
 8862SOL     OW27484   6.907   2.321   4.457
 8862SOL    HW127485   6.970   2.364   4.522
 8862SOL    HW227486   6.957   2.257   4.399
 8863SOL     OW27487   1.573   5.386   4.994
 8863SOL    HW127488   1.563   5.456   4.924
 8863SOL    HW227489   1.484   5.342   5.009
 8864SOL     OW27490   0.855   2.733   6.264
 8864SOL    HW127491   0.819   2.711   6.173
 8864SOL    HW227492   0.954   2.748   6.258
 8865SOL     OW27493   2.430   2.022   6.607
 8865SOL    HW127494   2.410   1.924   6.606
 8865SOL    HW227495   2.525   2.036   6.633
 8866SOL     OW27496   3.886   6.792   5.290
 8866SOL    HW127497   3.876   6.750   5.381
 8866SOL    HW227498   3.850   6.730   5.221
 8867SOL     OW27499   0.219   2.826   3.618
 8867SOL    HW127500   0.211   2.746   3.558
 8867SOL    HW227501   0.316   2.841   3.640
 8868SOL     OW27502   4.296   3.587   1.031
 8868SOL    HW127503   4.387   3.625   1.011
 8868SOL    HW227504   4.241   3.655   1.079
 8869SOL     OW27505   5.311   2.566   4.055
 8869SOL    HW127506   5.273   2.595   4.143
 8869SOL    HW227507   5.395   2.618   4.036
 8870SOL     OW27508   4.341   1.550   0.819
 8870SOL    HW127509   4.423   1.495   0.837
 8870SOL    HW227510   4.262   1.506   0.862
 8871SOL     OW27511   1.823   2.200   4.524
 8871SOL    HW127512   1.782   2.134   4.462
 8871SOL    HW227513   1.831   2.288   4.478
 8872SOL     OW27514   1.793   3.158   3.684
 8872SOL    HW127515   1.871   3.096   3.688
 8872SOL    HW227516   1.775   3.197   3.774
 8873SOL     OW27517   0.010   6.350   4.781
 8873SOL    HW127518   6.953   6.297   4.769
 8873SOL    HW227519   7.017   6.447   4.768
 8874SOL     OW27520   2.155   1.323   0.063
 8874SOL    HW127521   2.223   1.349   7.021
 8874SOL    HW227522   2.177   1.232   0.098
 8875SOL     OW27523   1.626   2.047   4.256
 8875SOL    HW127524   1.570   2.019   4.178
 8875SOL    HW227525   1.613   1.981   4.330
 8876SOL     OW27526   1.587   7.023   4.211
 8876SOL    HW127527   1.640   6.945   4.177
 8876SOL    HW227528   1.573   7.013   4.309
 8877SOL     OW27529   2.853   6.649   4.977
 8877SOL    HW127530   2.949   6.628   4.993
 8877SOL    HW227531   2.819   6.594   4.902
 8878SOL     OW27532   5.872   4.674   6.977
 8878SOL    HW127533   5.940   4.628   0.007
 8878SOL    HW227534   5.834   4.608   6.911
 8879SOL     OW27535   4.779   5.716   4.589
 8879SOL    HW127536   4.774   5.812   4.562
 8879SOL    HW227537   4.868   5.679   4.561
 8880SOL     OW27538   0.061   5.877   5.475
 8880SOL    HW127539   0.103   5.804   5.529
 8880SOL    HW227540   0.099   5.876   5.382
 8881SOL     OW27541   0.148   0.709   2.073
 8881SOL    HW127542   0.128   0.763   2.155
 8881SOL    HW227543   0.243   0.725   2.045
 8882SOL     OW27544   5.768   1.866   6.621
 8882SOL    HW127545   5.752   1.928   6.698
 8882SOL    HW227546   5.750   1.772   6.650
 8883SOL     OW27547   6.542   1.327   5.248
 8883SOL    HW127548   6.639   1.325   5.224
 8883SOL    HW227549   6.495   1.394   5.192
 8884SOL     OW27550   6.515   0.655   5.527
 8884SOL    HW127551   6.594   0.644   5.587
 8884SOL    HW227552   6.448   0.715   5.572
 8885SOL     OW27553   4.756   3.769   1.413
 8885SOL    HW127554   4.782   3.748   1.508
 8885SOL    HW227555   4.695   3.698   1.379
 8886SOL     OW27556   3.116   0.036   6.914
 8886SOL    HW127557   3.025   0.002   6.887
 8886SOL    HW227558   3.171   0.052   6.832
 8887SOL     OW27559   2.338   0.582   1.136
 8887SOL    HW127560   2.350   0.671   1.093
 8887SOL    HW227561   2.241   0.558   1.137
 8888SOL     OW27562   2.907   1.523   2.807
 8888SOL    HW127563   2.927   1.462   2.884
 8888SOL    HW227564   2.868   1.469   2.732
 8889SOL     OW27565   3.950   0.278   5.279
 8889SOL    HW127566   4.043   0.313   5.269
 8889SOL    HW227567   3.942   0.190   5.231
 8890SOL     OW27568   0.996   4.905   4.601
 8890SOL    HW127569   0.958   4.998   4.602
 8890SOL    HW227570   0.933   4.844   4.552
 8891SOL     OW27571   3.585   1.886   6.922
 8891SOL    HW127572   3.580   1.939   7.006
 8891SOL    HW227573   3.519   1.923   6.856
 8892SOL     OW27574   0.803   6.094   2.836
 8892SOL    HW127575   0.804   6.148   2.752
 8892SOL    HW227576   0.710   6.094   2.875
 8893SOL     OW27577   0.670   1.568   1.613
 8893SOL    HW127578   0.625   1.495   1.665
 8893SOL    HW227579   0.735   1.527   1.549
 8894SOL     OW27580   3.837   3.430   6.472
 8894SOL    HW127581   3.871   3.515   6.431
 8894SOL    HW227582   3.778   3.452   6.549
 8895SOL     OW27583   0.506   6.616   2.100
 8895SOL    HW127584   0.589   6.651   2.143
 8895SOL    HW227585   0.494   6.659   2.010
 8896SOL     OW27586   2.037   4.134   4.892
 8896SOL    HW127587   2.109   4.114   4.959
 8896SOL    HW227588   2.079   4.145   4.801
 8897SOL     OW27589   1.336   2.024   1.462
 8897SOL    HW127590   1.296   2.113   1.483
 8897SOL    HW227591   1.345   2.014   1.363
 8898SOL     OW27592   6.035   3.705   4.994
 8898SOL    HW127593   6.000   3.797   4.974
 8898SOL    HW227594   6.135   3.707   4.994
 8899SOL     OW27595   2.253   4.194   0.011
 8899SOL    HW127596   2.180   4.184   0.078
 8899SOL    HW227597   2.213   4.200   6.946
 8900SOL     OW27598   5.356   2.213   3.035
 8900SOL    HW127599   5.302   2.132   3.060
 8900SOL    HW227600   5.429   2.186   2.972
 8901SOL     OW27601   2.251   6.992   2.852
 8901SOL    HW127602   2.283   6.903   2.818
 8901SOL    HW227603   2.285   0.038   2.793
 8902SOL     OW27604   1.920   5.292   5.876
 8902SOL    HW127605   1.964   5.349   5.807
 8902SOL    HW227606   1.940   5.329   5.967
 8903SOL     OW27607   1.475   1.701   3.356
 8903SOL    HW127608   1.505   1.624   3.300
 8903SOL    HW227609   1.552   1.737   3.408
 8904SOL     OW27610   1.260   5.906   3.205
 8904SOL    HW127611   1.359   5.904   3.191
 8904SOL    HW227612   1.225   5.997   3.186
 8905SOL     OW27613   2.455   4.208   5.312
 8905SOL    HW127614   2.430   4.134   5.250
 8905SOL    HW227615   2.524   4.175   5.377
 8906SOL     OW27616   0.951   5.455   5.702
 8906SOL    HW127617   0.892   5.419   5.630
 8906SOL    HW227618   0.995   5.539   5.670
 8907SOL     OW27619   3.354   2.741   5.197
 8907SOL    HW127620   3.354   2.782   5.106
 8907SOL    HW227621   3.449   2.726   5.227
 8908SOL     OW27622   0.474   2.541   1.219
 8908SOL    HW127623   0.451   2.575   1.128
 8908SOL    HW227624   0.480   2.618   1.283
 8909SOL     OW27625   2.848   0.365   5.871
 8909SOL    HW127626   2.763   0.388   5.823
 8909SOL    HW227627   2.832   0.372   5.970
 8910SOL     OW27628   3.550   4.157   6.670
 8910SOL    HW127629   3.638   4.204   6.664
 8910SOL    HW227630   3.476   4.224   6.667
 8911SOL     OW27631   3.368   2.041   4.026
 8911SOL    HW127632   3.306   2.041   4.104
 8911SOL    HW227633   3.337   1.973   3.959
 8912SOL     OW27634   4.784   2.735   6.092
 8912SOL    HW127635   4.729   2.797   6.036
 8912SOL    HW227636   4.734   2.712   6.175
 8913SOL     OW27637   4.869   3.867   0.878
 8913SOL    HW127638   4.956   3.861   0.927
 8913SOL    HW227639   4.886   3.861   0.779
 8914SOL     OW27640   4.162   2.249   4.663
 8914SOL    HW127641   4.211   2.162   4.660
 8914SOL    HW227642   4.067   2.235   4.634
 8915SOL     OW27643   1.420   5.073   1.537
 8915SOL    HW127644   1.451   5.052   1.630
 8915SOL    HW227645   1.375   5.162   1.536
 8916SOL     OW27646   6.743   3.809   1.640
 8916SOL    HW127647   6.795   3.891   1.619
 8916SOL    HW227648   6.666   3.802   1.576
 8917SOL     OW27649   6.121   5.676   5.990
 8917SOL    HW127650   6.066   5.593   6.004
 8917SOL    HW227651   6.206   5.652   5.943
 8918SOL     OW27652   4.488   4.875   6.457
 8918SOL    HW127653   4.584   4.856   6.437
 8918SOL    HW227654   4.460   4.958   6.409
 8919SOL     OW27655   2.162   4.448   0.886
 8919SOL    HW127656   2.116   4.531   0.855
 8919SOL    HW227657   2.261   4.458   0.874
 8920SOL     OW27658   6.616   5.871   5.931
 8920SOL    HW127659   6.600   5.966   5.955
 8920SOL    HW227660   6.626   5.862   5.832
 8921SOL     OW27661   1.697   6.687   3.279
 8921SOL    HW127662   1.727   6.593   3.291
 8921SOL    HW227663   1.707   6.714   3.183
 8922SOL     OW27664   6.294   4.075   0.024
 8922SOL    HW127665   6.226   4.013   0.064
 8922SOL    HW227666   6.248   4.141   6.992
 8923SOL     OW27667   1.688   4.209   5.434
 8923SOL    HW127668   1.741   4.164   5.505
 8923SOL    HW227669   1.751   4.250   5.367
 8924SOL     OW27670   2.938   5.822   5.272
 8924SOL    HW127671   2.857   5.789   5.319
 8924SOL    HW227672   2.929   5.805   5.174
 8925SOL     OW27673   6.135   6.605   2.222
 8925SOL    HW127674   6.207   6.648   2.167
 8925SOL    HW227675   6.045   6.633   2.187
 8926SOL     OW27676   5.799   1.686   0.498
 8926SOL    HW127677   5.703   1.699   0.473
 8926SOL    HW227678   5.838   1.612   0.443
 8927SOL     OW27679   2.502   1.861   5.507
 8927SOL    HW127680   2.408   1.857   5.473
 8927SOL    HW227681   2.549   1.940   5.467
 8928SOL     OW27682   0.258   0.313   5.071
 8928SOL    HW127683   0.217   0.391   5.118
 8928SOL    HW227684   0.309   0.257   5.137
 8929SOL     OW27685   6.111   3.724   4.245
 8929SOL    HW127686   6.094   3.816   4.210
 8929SOL    HW227687   6.099   3.723   4.345
 8930SOL     OW27688   0.851   5.014   5.097
 8930SOL    HW127689   0.812   5.066   5.021
 8930SOL    HW227690   0.806   4.925   5.104
 8931SOL     OW27691   5.737   1.165   0.941
 8931SOL    HW127692   5.708   1.091   1.002
 8931SOL    HW227693   5.758   1.246   0.996
 8932SOL     OW27694   6.625   0.302   7.026
 8932SOL    HW127695   6.558   0.287   0.072
 8932SOL    HW227696   6.643   0.400   7.016
 8933SOL     OW27697   1.915   6.575   5.562
 8933SOL    HW127698   1.827   6.544   5.598
 8933SOL    HW227699   1.958   6.638   5.626
 8934SOL     OW27700   4.521   6.710   2.849
 8934SOL    HW127701   4.498   6.764   2.931
 8934SOL    HW227702   4.576   6.766   2.787
 8935SOL     OW27703   5.534   2.855   3.264
 8935SOL    HW127704   5.591   2.790   3.314
 8935SOL    HW227705   5.451   2.810   3.232
 8936SOL     OW27706   1.674   4.881   2.306
 8936SOL    HW127707   1.663   4.821   2.385
 8936SOL    HW227708   1.609   4.853   2.235
 8937SOL     OW27709   4.895   6.926   5.330
 8937SOL    HW127710   4.937   6.927   5.420
 8937SOL    HW227711   4.940   6.993   5.271
 8938SOL     OW27712   5.928   0.160   1.463
 8938SOL    HW127713   5.859   0.220   1.503
 8938SOL    HW227714   5.961   0.200   1.377
 8939SOL     OW27715   0.140   3.054   3.748
 8939SOL    HW127716   0.154   2.965   3.703
 8939SOL    HW227717   0.213   3.070   3.814
 8940SOL     OW27718   6.185   2.504   0.882
 8940SOL    HW127719   6.148   2.411   0.878
 8940SOL    HW227720   6.256   2.515   0.812
 8941SOL     OW27721   4.280   2.335   1.731
 8941SOL    HW127722   4.361   2.368   1.779
 8941SOL    HW227723   4.296   2.242   1.698
 8942SOL     OW27724   5.887   4.109   4.722
 8942SOL    HW127725   5.794   4.075   4.712
 8942SOL    HW227726   5.887   4.209   4.718
 8943SOL     OW27727   4.501   4.075   0.547
 8943SOL    HW127728   4.520   3.986   0.588
 8943SOL    HW227729   4.427   4.065   0.479
 8944SOL     OW27730   5.566   5.300   5.123
 8944SOL    HW127731   5.659   5.279   5.091
 8944SOL    HW227732   5.521   5.216   5.151
 8945SOL     OW27733   5.175   3.958   3.426
 8945SOL    HW127734   5.212   3.871   3.392
 8945SOL    HW227735   5.161   4.020   3.349
 8946SOL     OW27736   4.516   0.779   5.551
 8946SOL    HW127737   4.494   0.875   5.532
 8946SOL    HW227738   4.612   0.771   5.579
 8947SOL     OW27739   2.601   5.209   6.127
 8947SOL    HW127740   2.611   5.296   6.175
 8947SOL    HW227741   2.526   5.215   6.062
 8948SOL     OW27742   5.564   1.308   2.780
 8948SOL    HW127743   5.496   1.243   2.745
 8948SOL    HW227744   5.643   1.310   2.718
 8949SOL     OW27745   3.859   6.287   0.865
 8949SOL    HW127746   3.801   6.364   0.841
 8949SOL    HW227747   3.817   6.234   0.939
 8950SOL     OW27748   3.624   3.317   0.795
 8950SOL    HW127749   3.682   3.239   0.819
 8950SOL    HW227750   3.529   3.296   0.816
 8951SOL     OW27751   1.834   0.736   4.383
 8951SOL    HW127752   1.737   0.760   4.388
 8951SOL    HW227753   1.865   0.706   4.474
 8952SOL     OW27754   2.026   4.493   4.179
 8952SOL    HW127755   2.114   4.469   4.140
 8952SOL    HW227756   2.008   4.590   4.164
 8953SOL     OW27757   1.295   4.614   0.927
 8953SOL    HW127758   1.237   4.535   0.911
 8953SOL    HW227759   1.391   4.586   0.925
 8954SOL     OW27760   2.643   4.476   5.882
 8954SOL    HW127761   2.670   4.409   5.951
 8954SOL    HW227762   2.597   4.429   5.806
 8955SOL     OW27763   5.183   2.418   4.625
 8955SOL    HW127764   5.144   2.486   4.688
 8955SOL    HW227765   5.109   2.372   4.577
 8956SOL     OW27766   0.607   6.136   6.810
 8956SOL    HW127767   0.575   6.166   6.900
 8956SOL    HW227768   0.705   6.150   6.803
 8957SOL     OW27769   0.113   6.225   2.955
 8957SOL    HW127770   0.153   6.242   2.865
 8957SOL    HW227771   0.186   6.203   3.020
 8958SOL     OW27772   1.918   2.862   4.973
 8958SOL    HW127773   1.918   2.869   4.873
 8958SOL    HW227774   1.869   2.940   5.012
 8959SOL     OW27775   6.764   2.411   2.845
 8959SOL    HW127776   6.681   2.416   2.901
 8959SOL    HW227777   6.740   2.426   2.749
 8960SOL     OW27778   5.393   4.406   3.223
 8960SOL    HW127779   5.335   4.343   3.275
 8960SOL    HW227780   5.345   4.493   3.212
 8961SOL     OW27781   2.260   1.459   4.676
 8961SOL    HW127782   2.231   1.444   4.582
 8961SOL    HW227783   2.218   1.390   4.735
 8962SOL     OW27784   6.602   5.506   2.048
 8962SOL    HW127785   6.555   5.593   2.055
 8962SOL    HW227786   6.672   5.511   1.977
 8963SOL     OW27787   5.055   6.588   5.503
 8963SOL    HW127788   5.154   6.574   5.495
 8963SOL    HW227789   5.018   6.616   5.415
 8964SOL     OW27790   1.650   2.806   4.801
 8964SOL    HW127791   1.737   2.780   4.759
 8964SOL    HW227792   1.662   2.818   4.899
 8965SOL     OW27793   3.931   5.548   6.258
 8965SOL    HW127794   3.996   5.577   6.187
 8965SOL    HW227795   3.849   5.511   6.216
 8966SOL     OW27796   4.232   6.191   4.881
 8966SOL    HW127797   4.136   6.186   4.909
 8966SOL    HW227798   4.240   6.250   4.801
 8967SOL     OW27799   2.910   6.957   3.841
 8967SOL    HW127800   2.891   6.985   3.935
 8967SOL    HW227801   3.009   6.961   3.824
 8968SOL     OW27802   3.710   5.291   2.474
 8968SOL    HW127803   3.634   5.268   2.534
 8968SOL    HW227804   3.795   5.253   2.511
 8969SOL     OW27805   1.222   0.787   2.780
 8969SOL    HW127806   1.161   0.742   2.714
 8969SOL    HW227807   1.286   0.846   2.731
 8970SOL     OW27808   1.801   7.010   3.753
 8970SOL    HW127809   1.794   0.015   3.658
 8970SOL    HW227810   1.892   0.003   3.788
 8971SOL     OW27811   3.279   5.116   0.154
 8971SOL    HW127812   3.358   5.131   0.095
 8971SOL    HW227813   3.302   5.049   0.224
 8972SOL     OW27814   6.133   3.491   6.949
 8972SOL    HW127815   6.217   3.519   6.995
 8972SOL    HW227816   6.135   3.524   6.854
 8973SOL     OW27817   1.616   2.526   3.542
 8973SOL    HW127818   1.680   2.488   3.475
 8973SOL    HW227819   1.593   2.620   3.517
 8974SOL     OW27820   2.375   4.553   4.801
 8974SOL    HW127821   2.323   4.637   4.782
 8974SOL    HW227822   2.348   4.517   4.891
 8975SOL     OW27823   0.375   5.531   5.967
 8975SOL    HW127824   0.458   5.508   5.917
 8975SOL    HW227825   0.337   5.448   6.007
 8976SOL     OW27826   5.908   0.156   2.445
 8976SOL    HW127827   5.888   0.165   2.542
 8976SOL    HW227828   6.003   0.130   2.432
 8977SOL     OW27829   6.182   4.673   6.047
 8977SOL    HW127830   6.131   4.607   5.991
 8977SOL    HW227831   6.241   4.623   6.111
 8978SOL     OW27832   6.252   5.798   6.369
 8978SOL    HW127833   6.257   5.810   6.468
 8978SOL    HW227834   6.189   5.865   6.330
 8979SOL     OW27835   1.526   4.972   4.981
 8979SOL    HW127836   1.477   4.916   4.915
 8979SOL    HW227837   1.602   5.020   4.936
 8980SOL     OW27838   3.488   0.424   6.760
 8980SOL    HW127839   3.574   0.417   6.810
 8980SOL    HW227840   3.415   0.380   6.812
 8981SOL     OW27841   4.616   3.641   6.465
 8981SOL    HW127842   4.624   3.721   6.405
 8981SOL    HW227843   4.707   3.618   6.501
 8982SOL     OW27844   0.498   1.823   2.145
 8982SOL    HW127845   0.543   1.869   2.068
 8982SOL    HW227846   0.410   1.866   2.162
 8983SOL     OW27847   1.717   6.493   2.250
 8983SOL    HW127848   1.735   6.451   2.339
 8983SOL    HW227849   1.642   6.445   2.205
 8984SOL     OW27850   0.057   0.958   4.022
 8984SOL    HW127851   0.140   0.915   4.057
 8984SOL    HW227852   7.008   0.938   4.085
 8985SOL     OW27853   5.011   1.607   1.548
 8985SOL    HW127854   4.990   1.696   1.588
 8985SOL    HW227855   5.021   1.539   1.620
 8986SOL     OW27856   6.826   4.590   0.159
 8986SOL    HW127857   6.750   4.537   0.122
 8986SOL    HW227858   6.806   4.688   0.151
 8987SOL     OW27859   2.162   6.537   1.693
 8987SOL    HW127860   2.091   6.566   1.629
 8987SOL    HW227861   2.148   6.582   1.781
 8988SOL     OW27862   2.392   6.440   1.528
 8988SOL    HW127863   2.306   6.488   1.545
 8988SOL    HW227864   2.465   6.508   1.514
 8989SOL     OW27865   5.187   2.013   3.070
 8989SOL    HW127866   5.117   1.972   3.129
 8989SOL    HW227867   5.166   1.992   2.975
 8990SOL     OW27868   3.154   1.063   2.321
 8990SOL    HW127869   3.152   0.965   2.298
 8990SOL    HW227870   3.238   1.103   2.285
 8991SOL     OW27871   1.258   1.631   0.754
 8991SOL    HW127872   1.225   1.677   0.672
 8991SOL    HW227873   1.356   1.650   0.765
 8992SOL     OW27874   0.779   3.942   6.379
 8992SOL    HW127875   0.683   3.954   6.402
 8992SOL    HW227876   0.803   4.001   6.301
 8993SOL     OW27877   5.707   3.732   4.763
 8993SOL    HW127878   5.722   3.775   4.674
 8993SOL    HW227879   5.771   3.770   4.830
 8994SOL     OW27880   0.954   5.525   2.702
 8994SOL    HW127881   1.000   5.537   2.790
 8994SOL    HW227882   0.931   5.614   2.664
 8995SOL     OW27883   2.219   4.039   4.721
 8995SOL    HW127884   2.243   4.030   4.818
 8995SOL    HW227885   2.255   4.125   4.685
 8996SOL     OW27886   1.248   3.977   2.198
 8996SOL    HW127887   1.232   3.878   2.197
 8996SOL    HW227888   1.342   3.996   2.169
 8997SOL     OW27889   4.722   1.940   5.515
 8997SOL    HW127890   4.718   2.040   5.513
 8997SOL    HW227891   4.727   1.909   5.610
 8998SOL     OW27892   0.566   1.383   6.231
 8998SOL    HW127893   0.523   1.315   6.172
 8998SOL    HW227894   0.663   1.362   6.241
 8999SOL     OW27895   5.166   1.161   4.754
 8999SOL    HW127896   5.075   1.145   4.716
 8999SOL    HW227897   5.159   1.169   4.853
 9000SOL     OW27898   2.241   4.371   0.337
 9000SOL    HW127899   2.322   4.365   0.279
 9000SOL    HW227900   2.169   4.422   0.289
 9001SOL     OW27901   1.648   4.477   3.677
 9001SOL    HW127902   1.712   4.551   3.696
 9001SOL    HW227903   1.634   4.470   3.579
 9002SOL     OW27904   5.160   4.706   6.182
 9002SOL    HW127905   5.208   4.620   6.201
 9002SOL    HW227906   5.224   4.772   6.144
 9003SOL     OW27907   5.547   3.374   5.996
 9003SOL    HW127908   5.601   3.290   6.003
 9003SOL    HW227909   5.456   3.358   6.034
 9004SOL     OW27910   4.610   5.391   0.605
 9004SOL    HW127911   4.642   5.362   0.515
 9004SOL    HW227912   4.687   5.393   0.668
 9005SOL     OW27913   4.918   2.190   3.005
 9005SOL    HW127914   4.989   2.225   2.944
 9005SOL    HW227915   4.876   2.110   2.963
 9006SOL     OW27916   1.528   6.823   0.534
 9006SOL    HW127917   1.482   6.822   0.623
 9006SOL    HW227918   1.484   6.756   0.473
 9007SOL     OW27919   2.830   6.400   4.152
 9007SOL    HW127920   2.779   6.381   4.236
 9007SOL    HW227921   2.835   6.498   4.137
 9008SOL     OW27922   6.317   4.223   3.027
 9008SOL    HW127923   6.339   4.303   3.082
 9008SOL    HW227924   6.218   4.205   3.032
 9009SOL     OW27925   4.121   6.472   1.552
 9009SOL    HW127926   4.206   6.512   1.518
 9009SOL    HW227927   4.123   6.468   1.652
 9010SOL     OW27928   0.994   5.946   4.972
 9010SOL    HW127929   1.056   5.904   5.038
 9010SOL    HW227930   1.036   5.946   4.882
 9011SOL     OW27931   4.077   1.589   1.725
 9011SOL    HW127932   4.173   1.568   1.705
 9011SOL    HW227933   4.072   1.650   1.804
 9012SOL     OW27934   6.330   5.565   1.806
 9012SOL    HW127935   6.409   5.586   1.863
 9012SOL    HW227936   6.255   5.533   1.864
 9013SOL     OW27937   5.105   6.230   2.972
 9013SOL    HW127938   5.128   6.325   2.951
 9013SOL    HW227939   5.170   6.193   3.039
 9014SOL     OW27940   3.272   0.919   0.832
 9014SOL    HW127941   3.210   0.923   0.754
 9014SOL    HW227942   3.229   0.868   0.907
 9015SOL     OW27943   6.449   1.527   5.084
 9015SOL    HW127944   6.369   1.584   5.102
 9015SOL    HW227945   6.510   1.573   5.020
 9016SOL     OW27946   6.792   6.215   6.116
 9016SOL    HW127947   6.697   6.204   6.087
 9016SOL    HW227948   6.851   6.158   6.058
 9017SOL     OW27949   0.431   4.080   3.889
 9017SOL    HW127950   0.440   4.020   3.968
 9017SOL    HW227951   0.341   4.068   3.848
 9018SOL     OW27952   3.652   2.524   5.683
 9018SOL    HW127953   3.727   2.529   5.748
 9018SOL    HW227954   3.688   2.519   5.590
 9019SOL     OW27955   1.617   6.341   0.028
 9019SOL    HW127956   1.562   6.278   6.999
 9019SOL    HW227957   1.590   6.436   0.007
 9020SOL     OW27958   0.297   4.744   2.803
 9020SOL    HW127959   0.383   4.782   2.769
 9020SOL    HW227960   0.313   4.651   2.836
 9021SOL     OW27961   6.881   5.797   5.149
 9021SOL    HW127962   6.904   5.882   5.102
 9021SOL    HW227963   6.913   5.719   5.096
 9022SOL     OW27964   3.055   0.864   6.609
 9022SOL    HW127965   3.055   0.771   6.573
 9022SOL    HW227966   2.972   0.912   6.580
 9023SOL     OW27967   3.275   2.988   2.623
 9023SOL    HW127968   3.348   3.054   2.604
 9023SOL    HW227969   3.246   2.945   2.537
 9024SOL     OW27970   1.884   0.150   6.654
 9024SOL    HW127971   1.873   0.176   6.750
 9024SOL    HW227972   1.970   0.101   6.642
 9025SOL     OW27973   0.147   4.467   1.269
 9025SOL    HW127974   0.184   4.539   1.327
 9025SOL    HW227975   0.207   4.386   1.274
 9026SOL     OW27976   3.058   3.617   5.352
 9026SOL    HW127977   2.995   3.542   5.330
 9026SOL    HW227978   3.152   3.588   5.333
 9027SOL     OW27979   2.365   2.679   2.884
 9027SOL    HW127980   2.325   2.756   2.933
 9027SOL    HW227981   2.335   2.593   2.925
 9028SOL     OW27982   2.315   4.720   5.274
 9028SOL    HW127983   2.336   4.625   5.250
 9028SOL    HW227984   2.223   4.743   5.244
 9029SOL     OW27985   4.918   5.113   3.231
 9029SOL    HW127986   4.883   5.205   3.215
 9029SOL    HW227987   4.863   5.068   3.302
 9030SOL     OW27988   3.145   1.657   1.896
 9030SOL    HW127989   3.198   1.656   1.980
 9030SOL    HW227990   3.205   1.642   1.818
 9031SOL     OW27991   2.130   1.013   0.091
 9031SOL    HW127992   2.224   0.997   0.122
 9031SOL    HW227993   2.068   0.961   0.149
 9032SOL     OW27994   1.456   1.841   2.544
 9032SOL    HW127995   1.503   1.757   2.515
 9032SOL    HW227996   1.383   1.862   2.480
 9033SOL     OW27997   1.463   3.270   2.750
 9033SOL    HW127998   1.411   3.190   2.719
 9033SOL    HW227999   1.400   3.343   2.775
 9034SOL     OW28000   1.963   0.276   5.915
 9034SOL    HW128001   1.966   0.375   5.926
 9034SOL    HW228002   1.868   0.245   5.916
 9035SOL     OW28003   6.908   1.256   4.252
 9035SOL    HW128004   6.847   1.245   4.173
 9035SOL    HW228005   6.867   1.215   4.333
 9036SOL     OW28006   1.004   1.769   5.163
 9036SOL    HW128007   1.056   1.689   5.194
 9036SOL    HW228008   1.043   1.802   5.077
 9037SOL     OW28009   2.496   3.794   5.926
 9037SOL    HW128010   2.578   3.797   5.983
 9037SOL    HW228011   2.517   3.834   5.836
 9038SOL     OW28012   5.800   6.457   5.544
 9038SOL    HW128013   5.852   6.533   5.503
 9038SOL    HW228014   5.802   6.378   5.482
 9039SOL     OW28015   2.395   5.239   5.932
 9039SOL    HW128016   2.364   5.223   5.839
 9039SOL    HW228017   2.410   5.337   5.946
 9040SOL     OW28018   2.537   1.545   1.824
 9040SOL    HW128019   2.525   1.629   1.771
 9040SOL    HW228020   2.582   1.566   1.911
 9041SOL     OW28021   1.571   3.417   0.144
 9041SOL    HW128022   1.486   3.379   0.107
 9041SOL    HW228023   1.649   3.373   0.100
 9042SOL     OW28024   2.603   5.294   3.829
 9042SOL    HW128025   2.536   5.239   3.879
 9042SOL    HW228026   2.660   5.234   3.773
 9043SOL     OW28027   6.862   2.268   0.424
 9043SOL    HW128028   6.786   2.331   0.406
 9043SOL    HW228029   6.934   2.316   0.475
 9044SOL     OW28030   6.364   4.929   0.272
 9044SOL    HW128031   6.445   4.871   0.285
 9044SOL    HW228032   6.338   4.929   0.176
 9045SOL     OW28033   3.792   6.166   4.143
 9045SOL    HW128034   3.828   6.192   4.233
 9045SOL    HW228035   3.865   6.127   4.087
 9046SOL     OW28036   3.494   4.438   5.955
 9046SOL    HW128037   3.448   4.522   5.983
 9046SOL    HW228038   3.465   4.414   5.862
 9047SOL     OW28039   1.476   4.538   4.895
 9047SOL    HW128040   1.477   4.632   4.861
 9047SOL    HW228041   1.445   4.538   4.990
 9048SOL     OW28042   1.749   2.721   5.295
 9048SOL    HW128043   1.729   2.641   5.238
 9048SOL    HW228044   1.785   2.691   5.383
 9049SOL     OW28045   4.904   6.014   6.464
 9049SOL    HW128046   4.896   6.060   6.376
 9049SOL    HW228047   4.839   6.052   6.529
 9050SOL     OW28048   0.675   6.275   5.338
 9050SOL    HW128049   0.619   6.246   5.261
 9050SOL    HW228050   0.666   6.374   5.350
 9051SOL     OW28051   5.060   6.268   6.038
 9051SOL    HW128052   5.052   6.362   6.071
 9051SOL    HW228053   5.057   6.268   5.938
 9052SOL     OW28054   2.270   5.601   4.809
 9052SOL    HW128055   2.305   5.531   4.747
 9052SOL    HW228056   2.226   5.673   4.756
 9053SOL     OW28057   2.688   1.569   3.542
 9053SOL    HW128058   2.620   1.496   3.540
 9053SOL    HW228059   2.651   1.651   3.498
 9054SOL     OW28060   3.611   0.332   1.178
 9054SOL    HW128061   3.675   0.350   1.253
 9054SOL    HW228062   3.546   0.408   1.172
 9055SOL     OW28063   1.235   1.302   4.217
 9055SOL    HW128064   1.220   1.397   4.245
 9055SOL    HW228065   1.258   1.247   4.297
 9056SOL     OW28066   5.956   1.508   2.708
 9056SOL    HW128067   5.891   1.578   2.677
 9056SOL    HW228068   6.034   1.553   2.752
 9057SOL     OW28069   4.196   6.334   6.663
 9057SOL    HW128070   4.153   6.250   6.695
 9057SOL    HW228071   4.233   6.385   6.741
 9058SOL     OW28072   1.900   2.587   4.964
 9058SOL    HW128073   1.894   2.537   5.051
 9058SOL    HW228074   1.895   2.685   4.982
 9059SOL     OW28075   6.525   0.827   3.216
 9059SOL    HW128076   6.537   0.769   3.135
 9059SOL    HW228077   6.436   0.809   3.257
 9060SOL     OW28078   0.747   5.593   1.869
 9060SOL    HW128079   0.760   5.591   1.770
 9060SOL    HW228080   0.699   5.677   1.895
 9061SOL     OW28081   5.544   3.930   2.845
 9061SOL    HW128082   5.445   3.912   2.850
 9061SOL    HW228083   5.559   4.026   2.822
 9062SOL     OW28084   0.747   5.677   2.907
 9062SOL    HW128085   0.777   5.594   2.953
 9062SOL    HW228086   0.703   5.653   2.821
 9063SOL     OW28087   4.622   1.452   1.933
 9063SOL    HW128088   4.542   1.421   1.984
 9063SOL    HW228089   4.614   1.550   1.914
 9064SOL     OW28090   1.018   5.321   3.190
 9064SOL    HW128091   1.053   5.378   3.265
 9064SOL    HW228092   1.083   5.246   3.173
 9065SOL     OW28093   2.579   4.412   5.636
 9065SOL    HW128094   2.500   4.416   5.575
 9065SOL    HW228095   2.651   4.473   5.602
 9066SOL     OW28096   4.874   4.967   4.563
 9066SOL    HW128097   4.896   5.060   4.593
 9066SOL    HW228098   4.947   4.933   4.504
 9067SOL     OW28099   1.159   6.330   4.137
 9067SOL    HW128100   1.080   6.319   4.077
 9067SOL    HW228101   1.127   6.345   4.231
 9068SOL     OW28102   4.576   6.922   5.793
 9068SOL    HW128103   4.541   6.938   5.701
 9068SOL    HW228104   4.646   6.990   5.814
 9069SOL     OW28105   5.473   2.145   1.232
 9069SOL    HW128106   5.448   2.198   1.152
 9069SOL    HW228107   5.526   2.201   1.295
 9070SOL     OW28108   1.506   1.458   5.972
 9070SOL    HW128109   1.544   1.550   5.958
 9070SOL    HW228110   1.410   1.458   5.944
 9071SOL     OW28111   4.601   2.194   6.237
 9071SOL    HW128112   4.610   2.205   6.336
 9071SOL    HW228113   4.691   2.200   6.194
 9072SOL     OW28114   4.830   1.061   2.999
 9072SOL    HW128115   4.796   1.013   3.079
 9072SOL    HW228116   4.916   1.020   2.968
 9073SOL     OW28117   4.874   1.873   5.282
 9073SOL    HW128118   4.802   1.895   5.216
 9073SOL    HW228119   4.836   1.875   5.375
 9074SOL     OW28120   1.519   0.831   1.777
 9074SOL    HW128121   1.518   0.749   1.720
 9074SOL    HW228122   1.581   0.816   1.855
 9075SOL     OW28123   6.096   6.287   1.029
 9075SOL    HW128124   6.163   6.220   1.060
 9075SOL    HW228125   6.049   6.327   1.107
 9076SOL     OW28126   6.407   0.581   2.645
 9076SOL    HW128127   6.338   0.560   2.575
 9076SOL    HW228128   6.463   0.500   2.662
 9077SOL     OW28129   6.437   1.695   6.326
 9077SOL    HW128130   6.445   1.793   6.310
 9077SOL    HW228131   6.497   1.646   6.263
 9078SOL     OW28132   4.978   6.333   6.983
 9078SOL    HW128133   5.036   6.412   6.964
 9078SOL    HW228134   4.952   6.289   6.897
 9079SOL     OW28135   1.367   1.286   6.728
 9079SOL    HW128136   1.311   1.329   6.657
 9079SOL    HW228137   1.397   1.355   6.794
 9080SOL     OW28138   6.262   3.442   1.713
 9080SOL    HW128139   6.301   3.426   1.803
 9080SOL    HW228140   6.259   3.356   1.662
 9081SOL     OW28141   5.305   1.759   7.005
 9081SOL    HW128142   5.254   1.818   6.942
 9081SOL    HW228143   5.257   1.672   7.015
 9082SOL     OW28144   3.565   5.774   6.236
 9082SOL    HW128145   3.487   5.775   6.174
 9082SOL    HW228146   3.583   5.680   6.266
 9083SOL     OW28147   4.300   5.382   6.461
 9083SOL    HW128148   4.224   5.387   6.397
 9083SOL    HW228149   4.265   5.376   6.555
 9084SOL     OW28150   6.709   2.572   6.188
 9084SOL    HW128151   6.681   2.495   6.245
 9084SOL    HW228152   6.668   2.563   6.097
 9085SOL     OW28153   2.380   4.877   6.650
 9085SOL    HW128154   2.363   4.791   6.602
 9085SOL    HW228155   2.293   4.915   6.683
 9086SOL     OW28156   0.105   4.457   0.881
 9086SOL    HW128157   0.031   4.436   0.817
 9086SOL    HW228158   0.129   4.553   0.874
 9087SOL     OW28159   5.860   0.812   1.639
 9087SOL    HW128160   5.950   0.771   1.622
 9087SOL    HW228161   5.861   0.860   1.727
 9088SOL     OW28162   6.473   6.776   0.694
 9088SOL    HW128163   6.497   6.873   0.701
 9088SOL    HW228164   6.416   6.762   0.613
 9089SOL     OW28165   5.161   5.411   4.004
 9089SOL    HW128166   5.261   5.408   4.013
 9089SOL    HW228167   5.137   5.428   3.909
 9090SOL     OW28168   5.368   6.160   5.222
 9090SOL    HW128169   5.389   6.088   5.157
 9090SOL    HW228170   5.338   6.242   5.172
 9091SOL     OW28171   2.509   1.441   1.286
 9091SOL    HW128172   2.588   1.479   1.238
 9091SOL    HW228173   2.530   1.431   1.383
 9092SOL     OW28174   1.345   1.179   5.637
 9092SOL    HW128175   1.322   1.271   5.667
 9092SOL    HW228176   1.421   1.144   5.693
 9093SOL     OW28177   1.975   3.823   0.535
 9093SOL    HW128178   1.991   3.758   0.461
 9093SOL    HW228179   1.878   3.846   0.539
 9094SOL     OW28180   6.679   4.643   1.582
 9094SOL    HW128181   6.605   4.576   1.589
 9094SOL    HW228182   6.714   4.644   1.488
 9095SOL     OW28183   3.127   2.747   0.067
 9095SOL    HW128184   3.101   2.811   7.022
 9095SOL    HW228185   3.189   2.678   0.030
 9096SOL     OW28186   5.011   2.573   3.108
 9096SOL    HW128187   5.047   2.656   3.150
 9096SOL    HW228188   4.941   2.598   3.040
 9097SOL     OW28189   1.047   5.226   6.442
 9097SOL    HW128190   0.979   5.154   6.454
 9097SOL    HW228191   1.063   5.241   6.344
 9098SOL     OW28192   3.977   3.620   2.868
 9098SOL    HW128193   4.041   3.550   2.902
 9098SOL    HW228194   4.009   3.653   2.779
 9099SOL     OW28195   2.132   3.091   0.793
 9099SOL    HW128196   2.177   3.030   0.858
 9099SOL    HW228197   2.178   3.086   0.705
 9100SOL     OW28198   0.296   2.948   1.124
 9100SOL    HW128199   0.374   2.956   1.186
 9100SOL    HW228200   0.329   2.936   1.030
 9101SOL     OW28201   1.967   2.838   1.372
 9101SOL    HW128202   1.964   2.759   1.433
 9101SOL    HW228203   2.020   2.911   1.415
 9102SOL     OW28204   3.732   5.502   2.304
 9102SOL    HW128205   3.777   5.572   2.360
 9102SOL    HW228206   3.736   5.414   2.352
 9103SOL     OW28207   0.362   3.947   0.551
 9103SOL    HW128208   0.423   3.919   0.477
 9103SOL    HW228209   0.308   3.869   0.581
 9104SOL     OW28210   4.591   6.709   1.307
 9104SOL    HW128211   4.529   6.784   1.327
 9104SOL    HW228212   4.613   6.660   1.391
 9105SOL     OW28213   1.769   1.872   5.523
 9105SOL    HW128214   1.806   1.854   5.614
 9105SOL    HW228215   1.704   1.948   5.528
 9106SOL     OW28216   6.226   5.114   1.039
 9106SOL    HW128217   6.186   5.063   1.115
 9106SOL    HW228218   6.214   5.063   0.954
 9107SOL     OW28219   4.152   0.372   1.505
 9107SOL    HW128220   4.106   0.315   1.572
 9107SOL    HW228221   4.234   0.325   1.472
 9108SOL     OW28222   4.681   5.758   5.875
 9108SOL    HW128223   4.586   5.787   5.883
 9108SOL    HW228224   4.708   5.709   5.958
 9109SOL     OW28225   3.070   1.932   3.867
 9109SOL    HW128226   3.156   1.892   3.835
 9109SOL    HW228227   3.049   2.014   3.813
 9110SOL     OW28228   1.823   3.888   3.732
 9110SOL    HW128229   1.886   3.951   3.778
 9110SOL    HW228230   1.742   3.938   3.702
 9111SOL     OW28231   3.723   4.111   1.767
 9111SOL    HW128232   3.678   4.083   1.852
 9111SOL    HW228233   3.663   4.093   1.689
 9112SOL     OW28234   0.336   4.357   2.302
 9112SOL    HW128235   0.302   4.392   2.389
 9112SOL    HW228236   0.298   4.265   2.286
 9113SOL     OW28237   4.413   6.834   0.739
 9113SOL    HW128238   4.372   6.772   0.673
 9113SOL    HW228239   4.370   6.820   0.829
 9114SOL     OW28240   3.062   4.846   1.511
 9114SOL    HW128241   3.073   4.774   1.580
 9114SOL    HW228242   2.965   4.860   1.494
 9115SOL     OW28243   1.266   4.756   5.278
 9115SOL    HW128244   1.284   4.663   5.245
 9115SOL    HW228245   1.175   4.785   5.248
 9116SOL     OW28246   0.151   1.214   5.935
 9116SOL    HW128247   0.144   1.288   5.868
 9116SOL    HW228248   0.221   1.236   6.003
 9117SOL     OW28249   6.743   2.357   6.966
 9117SOL    HW128250   6.715   2.409   0.020
 9117SOL    HW228251   6.843   2.357   6.960
 9118SOL     OW28252   6.607   6.621   1.929
 9118SOL    HW128253   6.549   6.638   1.849
 9118SOL    HW228254   6.575   6.677   2.005
 9119SOL     OW28255   6.493   0.146   1.899
 9119SOL    HW128256   6.540   0.135   1.987
 9119SOL    HW228257   6.543   0.212   1.843
 9120SOL     OW28258   5.532   1.086   6.268
 9120SOL    HW128259   5.540   0.986   6.278
 9120SOL    HW228260   5.442   1.115   6.300
 9121SOL     OW28261   0.461   1.601   6.393
 9121SOL    HW128262   0.496   1.527   6.335
 9121SOL    HW228263   0.535   1.666   6.412
 9122SOL     OW28264   1.761   3.149   3.197
 9122SOL    HW128265   1.832   3.084   3.172
 9122SOL    HW228266   1.694   3.157   3.123
 9123SOL     OW28267   2.625   6.116   6.571
 9123SOL    HW128268   2.553   6.055   6.536
 9123SOL    HW228269   2.615   6.124   6.671
 9124SOL     OW28270   6.686   5.796   5.375
 9124SOL    HW128271   6.752   5.853   5.324
 9124SOL    HW228272   6.604   5.850   5.393
 9125SOL     OW28273   4.896   4.157   3.684
 9125SOL    HW128274   4.821   4.177   3.622
 9125SOL    HW228275   4.924   4.062   3.674
 9126SOL     OW28276   6.402   0.402   1.869
 9126SOL    HW128277   6.372   0.310   1.843
 9126SOL    HW228278   6.449   0.398   1.958
 9127SOL     OW28279   4.863   0.249   0.026
 9127SOL    HW128280   4.899   0.178   6.992
 9127SOL    HW228281   4.780   0.215   0.071
 9128SOL     OW28282   3.912   2.147   5.311
 9128SOL    HW128283   3.963   2.231   5.328
 9128SOL    HW228284   3.887   2.142   5.214
 9129SOL     OW28285   2.003   1.556   6.394
 9129SOL    HW128286   2.040   1.466   6.372
 9129SOL    HW228287   1.973   1.558   6.489
 9130SOL     OW28288   6.035   4.703   0.664
 9130SOL    HW128289   5.981   4.746   0.737
 9130SOL    HW228290   6.110   4.765   0.638
 9131SOL     OW28291   0.781   3.863   4.374
 9131SOL    HW128292   0.724   3.920   4.315
 9131SOL    HW228293   0.854   3.821   4.321
 9132SOL     OW28294   6.624   3.489   4.579
 9132SOL    HW128295   6.605   3.568   4.521
 9132SOL    HW228296   6.595   3.508   4.672
 9133SOL     OW28297   2.428   4.478   0.945
 9133SOL    HW128298   2.521   4.491   0.909
 9133SOL    HW228299   2.433   4.467   1.044
 9134SOL     OW28300   2.964   6.148   6.589
 9134SOL    HW128301   3.028   6.110   6.656
 9134SOL    HW228302   2.953   6.084   6.513
 9135SOL     OW28303   6.375   5.695   3.921
 9135SOL    HW128304   6.461   5.678   3.873
 9135SOL    HW228305   6.358   5.622   3.987
 9136SOL     OW28306   5.095   5.311   5.764
 9136SOL    HW128307   5.170   5.329   5.828
 9136SOL    HW228308   5.118   5.348   5.674
 9137SOL     OW28309   4.228   0.964   1.937
 9137SOL    HW128310   4.169   1.043   1.922
 9137SOL    HW228311   4.300   0.988   2.002
 9138SOL     OW28312   5.320   5.121   6.365
 9138SOL    HW128313   5.364   5.101   6.278
 9138SOL    HW228314   5.228   5.080   6.366
 9139SOL     OW28315   3.686   1.384   5.233
 9139SOL    HW128316   3.644   1.450   5.296
 9139SOL    HW228317   3.767   1.345   5.275
 9140SOL     OW28318   6.680   2.331   2.329
 9140SOL    HW128319   6.645   2.424   2.318
 9140SOL    HW228320   6.761   2.333   2.387
 9141SOL     OW28321   5.178   0.288   5.484
 9141SOL    HW128322   5.149   0.377   5.519
 9141SOL    HW228323   5.278   0.283   5.483
 9142SOL     OW28324   0.624   3.039   6.210
 9142SOL    HW128325   0.546   2.987   6.176
 9142SOL    HW228326   0.709   2.993   6.185
 9143SOL     OW28327   4.597   3.316   0.344
 9143SOL    HW128328   4.587   3.328   0.442
 9143SOL    HW228329   4.507   3.297   0.303
 9144SOL     OW28330   2.471   5.745   5.388
 9144SOL    HW128331   2.410   5.666   5.395
 9144SOL    HW228332   2.435   5.810   5.321
 9145SOL     OW28333   0.160   4.595   6.868
 9145SOL    HW128334   0.082   4.650   6.835
 9145SOL    HW228335   0.163   4.599   6.968
 9146SOL     OW28336   6.190   2.822   1.295
 9146SOL    HW128337   6.092   2.835   1.307
 9146SOL    HW228338   6.223   2.883   1.223
 9147SOL     OW28339   4.476   5.570   4.187
 9147SOL    HW128340   4.446   5.499   4.124
 9147SOL    HW228341   4.433   5.556   4.276
 9148SOL     OW28342   5.117   5.697   3.240
 9148SOL    HW128343   5.111   5.722   3.337
 9148SOL    HW228344   5.210   5.664   3.220
 9149SOL     OW28345   5.260   2.895   4.655
 9149SOL    HW128346   5.351   2.864   4.683
 9149SOL    HW228347   5.201   2.904   4.735
 9150SOL     OW28348   5.152   6.880   3.424
 9150SOL    HW128349   5.219   6.822   3.470
 9150SOL    HW228350   5.191   6.970   3.407
 9151SOL     OW28351   1.430   4.139   2.377
 9151SOL    HW128352   1.351   4.132   2.317
 9151SOL    HW228353   1.501   4.075   2.346
 9152SOL     OW28354   2.615   6.458   3.181
 9152SOL    HW128355   2.610   6.425   3.275
 9152SOL    HW228356   2.623   6.557   3.181
 9153SOL     OW28357   1.923   2.632   6.778
 9153SOL    HW128358   1.832   2.590   6.771
 9153SOL    HW228359   1.983   2.591   6.710
 9154SOL     OW28360   2.677   5.615   6.631
 9154SOL    HW128361   2.765   5.567   6.634
 9154SOL    HW228362   2.688   5.702   6.583
 9155SOL     OW28363   2.110   4.130   6.160
 9155SOL    HW128364   2.129   4.042   6.117
 9155SOL    HW228365   2.170   4.200   6.122
 9156SOL     OW28366   3.968   2.124   1.126
 9156SOL    HW128367   4.061   2.089   1.137
 9156SOL    HW228368   3.969   2.224   1.133
 9157SOL     OW28369   5.377   4.035   5.425
 9157SOL    HW128370   5.476   4.043   5.440
 9157SOL    HW228371   5.346   4.109   5.366
 9158SOL     OW28372   0.248   3.571   4.722
 9158SOL    HW128373   0.279   3.513   4.798
 9158SOL    HW228374   0.157   3.541   4.693
 9159SOL     OW28375   0.266   5.365   2.082
 9159SOL    HW128376   0.357   5.343   2.116
 9159SOL    HW228377   0.199   5.303   2.124
 9160SOL     OW28378   0.976   6.730   6.045
 9160SOL    HW128379   1.068   6.702   6.071
 9160SOL    HW228380   0.911   6.658   6.070
 9161SOL     OW28381   5.084   3.664   5.129
 9161SOL    HW128382   5.098   3.608   5.211
 9161SOL    HW228383   4.989   3.655   5.099
 9162SOL     OW28384   4.863   3.127   2.604
 9162SOL    HW128385   4.882   3.165   2.513
 9162SOL    HW228386   4.885   3.029   2.603
 9163SOL     OW28387   2.869   2.251   3.789
 9163SOL    HW128388   2.927   2.234   3.869
 9163SOL    HW228389   2.864   2.350   3.772
 9164SOL     OW28390   2.747   0.783   6.762
 9164SOL    HW128391   2.823   0.719   6.757
 9164SOL    HW228392   2.662   0.733   6.778
 9165SOL     OW28393   5.600   0.809   6.287
 9165SOL    HW128394   5.633   0.719   6.260
 9165SOL    HW228395   5.503   0.802   6.312
 9166SOL     OW28396   4.038   5.519   0.973
 9166SOL    HW128397   4.008   5.424   0.963
 9166SOL    HW228398   4.067   5.554   0.884
 9167SOL     OW28399   1.569   3.671   5.785
 9167SOL    HW128400   1.598   3.584   5.825
 9167SOL    HW228401   1.516   3.722   5.852
 9168SOL     OW28402   2.077   6.991   5.581
 9168SOL    HW128403   2.008   6.990   5.509
 9168SOL    HW228404   2.159   0.009   5.548
 9169SOL     OW28405   0.265   1.192   4.768
 9169SOL    HW128406   0.266   1.292   4.768
 9169SOL    HW228407   0.262   1.158   4.674
 9170SOL     OW28408   0.007   5.132   0.252
 9170SOL    HW128409   0.066   5.188   0.194
 9170SOL    HW228410   6.938   5.157   0.235
 9171SOL     OW28411   2.954   6.053   0.009
 9171SOL    HW128412   3.021   6.080   6.968
 9171SOL    HW228413   2.975   6.097   0.096
 9172SOL     OW28414   3.630   1.006   4.273
 9172SOL    HW128415   3.667   0.999   4.365
 9172SOL    HW228416   3.551   0.945   4.264
 9173SOL     OW28417   6.175   5.062   4.928
 9173SOL    HW128418   6.165   4.996   4.854
 9173SOL    HW228419   6.265   5.104   4.925
 9174SOL     OW28420   6.604   4.420   0.140
 9174SOL    HW128421   6.663   4.345   0.170
 9174SOL    HW228422   6.526   4.428   0.203
 9175SOL     OW28423   2.274   5.977   5.791
 9175SOL    HW128424   2.224   6.061   5.771
 9175SOL    HW228425   2.288   5.969   5.890
 9176SOL     OW28426   2.104   0.850   5.365
 9176SOL    HW128427   2.190   0.800   5.378
 9176SOL    HW228428   2.122   0.948   5.372
 9177SOL     OW28429   1.434   3.953   4.163
 9177SOL    HW128430   1.343   3.992   4.178
 9177SOL    HW228431   1.428   3.853   4.167
 9178SOL     OW28432   2.271   5.402   0.907
 9178SOL    HW128433   2.193   5.387   0.967
 9178SOL    HW228434   2.283   5.324   0.846
 9179SOL     OW28435   2.957   5.413   4.114
 9179SOL    HW128436   2.975   5.434   4.210
 9179SOL    HW228437   2.882   5.471   4.080
 9180SOL     OW28438   6.160   2.286   3.892
 9180SOL    HW128439   6.121   2.358   3.949
 9180SOL    HW228440   6.235   2.323   3.837
 9181SOL     OW28441   4.479   1.736   2.515
 9181SOL    HW128442   4.512   1.751   2.609
 9181SOL    HW228443   4.555   1.706   2.458
 9182SOL     OW28444   1.420   5.820   2.272
 9182SOL    HW128445   1.430   5.919   2.265
 9182SOL    HW228446   1.420   5.792   2.368
 9183SOL     OW28447   5.035   6.551   0.842
 9183SOL    HW128448   4.939   6.577   0.844
 9183SOL    HW228449   5.092   6.632   0.830
 9184SOL     OW28450   5.245   6.882   0.764
 9184SOL    HW128451   5.271   6.929   0.849
 9184SOL    HW228452   5.324   6.876   0.704
 9185SOL     OW28453   4.177   0.919   5.426
 9185SOL    HW128454   4.125   0.863   5.491
 9185SOL    HW228455   4.137   1.011   5.422
 9186SOL     OW28456   6.424   0.706   4.869
 9186SOL    HW128457   6.412   0.704   4.770
 9186SOL    HW228458   6.377   0.786   4.906
 9187SOL     OW28459   2.139   6.624   2.008
 9187SOL    HW128460   2.062   6.632   2.071
 9187SOL    HW228461   2.149   6.708   1.956
 9188SOL     OW28462   2.624   6.630   1.056
 9188SOL    HW128463   2.549   6.690   1.029
 9188SOL    HW228464   2.708   6.658   1.010
 9189SOL     OW28465   5.597   5.514   2.914
 9189SOL    HW128466   5.631   5.602   2.880
 9189SOL    HW228467   5.499   5.520   2.931
 9190SOL     OW28468   1.874   5.359   0.219
 9190SOL    HW128469   1.968   5.329   0.203
 9190SOL    HW228470   1.835   5.306   0.294
 9191SOL     OW28471   6.522   0.415   5.390
 9191SOL    HW128472   6.476   0.418   5.301
 9191SOL    HW228473   6.537   0.509   5.423
 9192SOL     OW28474   0.473   4.007   4.946
 9192SOL    HW128475   0.453   3.916   4.911
 9192SOL    HW228476   0.410   4.074   4.906
 9193SOL     OW28477   3.216   3.302   7.002
 9193SOL    HW128478   3.200   3.297   6.903
 9193SOL    HW228479   3.314   3.291   7.020
 9194SOL     OW28480   3.163   0.645   4.120
 9194SOL    HW128481   3.184   0.742   4.109
 9194SOL    HW228482   3.084   0.622   4.063
 9195SOL     OW28483   2.257   2.361   4.692
 9195SOL    HW128484   2.309   2.423   4.751
 9195SOL    HW228485   2.319   2.319   4.626
 9196SOL     OW28486   4.572   1.577   4.987
 9196SOL    HW128487   4.525   1.497   4.949
 9196SOL    HW228488   4.506   1.650   5.004
 9197SOL     OW28489   2.412   3.613   1.232
 9197SOL    HW128490   2.327   3.608   1.285
 9197SOL    HW228491   2.400   3.676   1.155
 9198SOL     OW28492   6.530   5.379   5.421
 9198SOL    HW128493   6.522   5.321   5.502
 9198SOL    HW228494   6.469   5.345   5.349
 9199SOL     OW28495   0.096   4.064   6.141
 9199SOL    HW128496   0.021   4.025   6.195
 9199SOL    HW228497   0.163   3.992   6.120
 9200SOL     OW28498   2.863   0.446   0.920
 9200SOL    HW128499   2.917   0.389   0.982
 9200SOL    HW228500   2.774   0.466   0.962
 9201SOL     OW28501   1.499   3.320   6.759
 9201SOL    HW128502   1.535   3.244   6.813
 9201SOL    HW228503   1.569   3.350   6.693
 9202SOL     OW28504   2.028   6.839   3.037
 9202SOL    HW128505   2.114   6.824   2.989
 9202SOL    HW228506   2.027   6.787   3.122
 9203SOL     OW28507   6.874   5.399   0.666
 9203SOL    HW128508   6.963   5.371   0.629
 9203SOL    HW228509   6.881   5.411   0.765
 9204SOL     OW28510   5.309   1.245   6.319
 9204SOL    HW128511   5.276   1.259   6.226
 9204SOL    HW228512   5.285   1.324   6.375
 9205SOL     OW28513   6.886   3.740   2.773
 9205SOL    HW128514   6.943   3.801   2.828
 9205SOL    HW228515   6.790   3.753   2.797
 9206SOL     OW28516   3.749   5.469   0.571
 9206SOL    HW128517   3.794   5.437   0.488
 9206SOL    HW228518   3.669   5.524   0.546
 9207SOL     OW28519   4.624   5.873   0.398
 9207SOL    HW128520   4.666   5.927   0.471
 9207SOL    HW228521   4.603   5.782   0.431
 9208SOL     OW28522   6.824   3.679   4.721
 9208SOL    HW128523   6.736   3.630   4.723
 9208SOL    HW228524   6.895   3.619   4.685
 9209SOL     OW28525   3.215   1.327   6.589
 9209SOL    HW128526   3.174   1.273   6.663
 9209SOL    HW228527   3.256   1.409   6.628
 9210SOL     OW28528   6.836   1.497   2.619
 9210SOL    HW128529   6.866   1.425   2.556
 9210SOL    HW228530   6.775   1.560   2.571
 9211SOL     OW28531   0.321   2.712   3.886
 9211SOL    HW128532   0.261   2.651   3.834
 9211SOL    HW228533   0.356   2.664   3.966
 9212SOL     OW28534   3.207   5.427   4.523
 9212SOL    HW128535   3.221   5.477   4.609
 9212SOL    HW228536   3.242   5.482   4.447
 9213SOL     OW28537   5.648   3.565   5.830
 9213SOL    HW128538   5.709   3.635   5.866
 9213SOL    HW228539   5.630   3.497   5.901
 9214SOL     OW28540   0.373   5.885   0.374
 9214SOL    HW128541   0.462   5.841   0.364
 9214SOL    HW228542   0.339   5.872   0.467
 9215SOL     OW28543   1.251   0.950   0.362
 9215SOL    HW128544   1.297   1.034   0.333
 9215SOL    HW228545   1.152   0.962   0.357
 9216SOL     OW28546   2.776   0.278   3.057
 9216SOL    HW128547   2.808   0.206   3.119
 9216SOL    HW228548   2.851   0.340   3.036
 9217SOL     OW28549   7.023   1.836   6.376
 9217SOL    HW128550   7.021   1.925   6.422
 9217SOL    HW228551   0.069   1.780   6.414
 9218SOL     OW28552   3.378   6.776   0.349
 9218SOL    HW128553   3.422   6.764   0.438
 9218SOL    HW228554   3.418   6.712   0.283
 9219SOL     OW28555   1.229   2.547   1.036
 9219SOL    HW128556   1.193   2.640   1.034
 9219SOL    HW228557   1.207   2.504   1.124
 9220SOL     OW28558   3.650   6.687   1.529
 9220SOL    HW128559   3.732   6.631   1.544
 9220SOL    HW228560   3.594   6.685   1.611
 9221SOL     OW28561   3.203   6.452   3.555
 9221SOL    HW128562   3.152   6.484   3.634
 9221SOL    HW228563   3.300   6.474   3.566
 9222SOL     OW28564   2.336   1.199   6.429
 9222SOL    HW128565   2.251   1.194   6.482
 9222SOL    HW228566   2.337   1.284   6.376
 9223SOL     OW28567   1.957   2.920   5.333
 9223SOL    HW128568   1.910   2.837   5.303
 9223SOL    HW228569   2.056   2.905   5.329
 9224SOL     OW28570   2.056   5.236   4.354
 9224SOL    HW128571   2.060   5.335   4.345
 9224SOL    HW228572   2.113   5.207   4.431
 9225SOL     OW28573   3.300   6.294   6.774
 9225SOL    HW128574   3.387   6.339   6.791
 9225SOL    HW228575   3.232   6.361   6.743
 9226SOL     OW28576   5.272   6.328   1.497
 9226SOL    HW128577   5.254   6.426   1.501
 9226SOL    HW228578   5.354   6.312   1.441
 9227SOL     OW28579   1.077   5.116   2.562
 9227SOL    HW128580   1.098   5.203   2.518
 9227SOL    HW228581   0.988   5.083   2.530
 9228SOL     OW28582   1.416   1.038   5.942
 9228SOL    HW128583   1.433   1.036   6.040
 9228SOL    HW228584   1.502   1.057   5.894
 9229SOL     OW28585   1.290   5.726   3.858
 9229SOL    HW128586   1.283   5.772   3.769
 9229SOL    HW228587   1.371   5.667   3.858
 9230SOL     OW28588   5.491   0.497   3.776
 9230SOL    HW128589   5.550   0.485   3.856
 9230SOL    HW228590   5.401   0.459   3.795
 9231SOL     OW28591   1.306   2.691   4.435
 9231SOL    HW128592   1.277   2.660   4.525
 9231SOL    HW228593   1.402   2.720   4.440
 9232SOL     OW28594   3.332   5.273   0.559
 9232SOL    HW128595   3.249   5.259   0.504
 9232SOL    HW228596   3.356   5.370   0.559
 9233SOL     OW28597   5.704   5.143   1.213
 9233SOL    HW128598   5.635   5.082   1.175
 9233SOL    HW228599   5.699   5.232   1.167
 9234SOL     OW28600   2.972   5.577   3.482
 9234SOL    HW128601   2.892   5.636   3.466
 9234SOL    HW228602   2.996   5.579   3.579
 9235SOL     OW28603   1.666   2.187   3.234
 9235SOL    HW128604   1.645   2.276   3.194
 9235SOL    HW228605   1.701   2.126   3.163
 9236SOL     OW28606   3.346   3.928   5.301
 9236SOL    HW128607   3.340   4.001   5.369
 9236SOL    HW228608   3.257   3.884   5.292
 9237SOL     OW28609   1.278   3.750   3.918
 9237SOL    HW128610   1.224   3.679   3.965
 9237SOL    HW228611   1.372   3.749   3.953
 9238SOL     OW28612   5.004   3.021   6.625
 9238SOL    HW128613   5.099   2.992   6.637
 9238SOL    HW228614   4.967   2.983   6.540
 9239SOL     OW28615   0.635   3.752   1.065
 9239SOL    HW128616   0.654   3.735   0.968
 9239SOL    HW228617   0.679   3.681   1.120
 9240SOL     OW28618   5.425   1.622   1.494
 9240SOL    HW128619   5.511   1.672   1.496
 9240SOL    HW228620   5.409   1.585   1.402
 9241SOL     OW28621   6.893   5.377   6.852
 9241SOL    HW128622   6.878   5.441   6.928
 9241SOL    HW228623   6.976   5.403   6.802
 9242SOL     OW28624   0.112   6.097   1.614
 9242SOL    HW128625   0.081   6.120   1.706
 9242SOL    HW228626   0.206   6.131   1.601
 9243SOL     OW28627   6.869   5.995   4.313
 9243SOL    HW128628   6.929   6.037   4.245
 9243SOL    HW228629   6.919   5.983   4.399
 9244SOL     OW28630   4.635   5.618   6.511
 9244SOL    HW128631   4.631   5.519   6.500
 9244SOL    HW228632   4.696   5.641   6.587
 9245SOL     OW28633   0.615   5.594   2.601
 9245SOL    HW128634   0.575   5.546   2.523
 9245SOL    HW228635   0.660   5.678   2.569
 9246SOL     OW28636   6.730   5.100   3.655
 9246SOL    HW128637   6.641   5.144   3.650
 9246SOL    HW228638   6.773   5.122   3.743
 9247SOL     OW28639   0.803   6.875   2.754
 9247SOL    HW128640   0.774   6.781   2.772
 9247SOL    HW228641   0.856   6.909   2.832
 9248SOL     OW28642   2.688   2.571   6.245
 9248SOL    HW128643   2.634   2.488   6.254
 9248SOL    HW228644   2.784   2.547   6.230
 9249SOL     OW28645   5.444   1.664   4.391
 9249SOL    HW128646   5.388   1.628   4.316
 9249SOL    HW228647   5.536   1.681   4.358
 9250SOL     OW28648   4.860   3.974   3.954
 9250SOL    HW128649   4.856   4.020   3.865
 9250SOL    HW228650   4.802   4.022   4.019
 9251SOL     OW28651   3.629   1.568   2.898
 9251SOL    HW128652   3.717   1.606   2.926
 9251SOL    HW228653   3.583   1.528   2.978
 9252SOL     OW28654   6.998   6.934   5.015
 9252SOL    HW128655   7.016   6.868   5.089
 9252SOL    HW228656   0.052   6.991   5.001
 9253SOL     OW28657   2.438   6.578   5.930
 9253SOL    HW128658   2.403   6.487   5.953
 9253SOL    HW228659   2.424   6.595   5.833
 9254SOL     OW28660   5.716   3.826   1.608
 9254SOL    HW128661   5.747   3.760   1.677
 9254SOL    HW228662   5.643   3.785   1.554
 9255SOL     OW28663   5.223   3.700   0.447
 9255SOL    HW128664   5.131   3.664   0.463
 9255SOL    HW228665   5.290   3.637   0.486
 9256SOL     OW28666   4.399   4.576   2.203
 9256SOL    HW128667   4.365   4.564   2.110
 9256SOL    HW228668   4.323   4.601   2.263
 9257SOL     OW28669   0.865   4.025   2.189
 9257SOL    HW128670   0.916   3.998   2.107
 9257SOL    HW228671   0.775   3.979   2.189
 9258SOL     OW28672   3.557   2.882   3.702
 9258SOL    HW128673   3.499   2.928   3.635
 9258SOL    HW228674   3.621   2.821   3.654
 9259SOL     OW28675   1.123   2.162   1.257
 9259SOL    HW128676   1.160   2.125   1.171
 9259SOL    HW228677   1.028   2.188   1.243
 9260SOL     OW28678   4.913   2.812   6.354
 9260SOL    HW128679   4.823   2.855   6.361
 9260SOL    HW228680   4.969   2.861   6.288
 9261SOL     OW28681   3.680   0.364   6.501
 9261SOL    HW128682   3.601   0.389   6.558
 9261SOL    HW228683   3.695   0.436   6.433
 9262SOL     OW28684   5.627   1.502   4.990
 9262SOL    HW128685   5.552   1.436   5.000
 9262SOL    HW228686   5.590   1.589   4.958
 9263SOL     OW28687   5.119   4.028   1.377
 9263SOL    HW128688   5.159   4.086   1.306
 9263SOL    HW228689   5.185   4.014   1.450
 9264SOL     OW28690   6.466   3.478   6.848
 9264SOL    HW128691   6.466   3.439   6.940
 9264SOL    HW228692   6.394   3.547   6.841
 9265SOL     OW28693   2.450   2.204   0.208
 9265SOL    HW128694   2.447   2.157   0.296
 9265SOL    HW228695   2.488   2.296   0.221
 9266SOL     OW28696   2.326   6.044   2.653
 9266SOL    HW128697   2.242   6.053   2.600
 9266SOL    HW228698   2.313   5.975   2.725
 9267SOL     OW28699   0.525   3.921   4.601
 9267SOL    HW128700   0.623   3.919   4.621
 9267SOL    HW228701   0.475   3.870   4.671
 9268SOL     OW28702   0.341   6.681   2.526
 9268SOL    HW128703   0.278   6.725   2.590
 9268SOL    HW228704   0.345   6.583   2.545
 9269SOL     OW28705   3.088   1.834   6.879
 9269SOL    HW128706   3.052   1.842   6.786
 9269SOL    HW228707   3.013   1.842   6.945
 9270SOL     OW28708   6.766   6.593   5.603
 9270SOL    HW128709   6.802   6.629   5.518
 9270SOL    HW228710   6.726   6.667   5.657
 9271SOL     OW28711   1.442   6.841   0.797
 9271SOL    HW128712   1.382   6.799   0.865
 9271SOL    HW228713   1.503   6.906   0.843
 9272SOL     OW28714   2.575   4.418   6.726
 9272SOL    HW128715   2.636   4.419   6.647
 9272SOL    HW228716   2.551   4.324   6.748
 9273SOL     OW28717   4.315   5.389   4.020
 9273SOL    HW128718   4.226   5.423   3.991
 9273SOL    HW228719   4.308   5.348   4.111
 9274SOL     OW28720   5.280   2.530   6.659
 9274SOL    HW128721   5.353   2.481   6.707
 9274SOL    HW228722   5.226   2.582   6.725
 9275SOL     OW28723   0.863   0.945   6.327
 9275SOL    HW128724   0.767   0.952   6.354
 9275SOL    HW228725   0.878   0.861   6.276
 9276SOL     OW28726   3.743   5.761   4.628
 9276SOL    HW128727   3.749   5.860   4.621
 9276SOL    HW228728   3.746   5.721   4.536
 9277SOL     OW28729   3.595   3.418   6.821
 9277SOL    HW128730   3.686   3.447   6.790
 9277SOL    HW228731   3.528   3.488   6.796
 9278SOL     OW28732   1.165   1.728   3.944
 9278SOL    HW128733   1.224   1.800   3.983
 9278SOL    HW228734   1.204   1.695   3.858
 9279SOL     OW28735   3.592   0.468   2.199
 9279SOL    HW128736   3.670   0.501   2.251
 9279SOL    HW228737   3.545   0.396   2.251
 9280SOL     OW28738   1.398   6.954   3.602
 9280SOL    HW128739   1.464   6.977   3.673
 9280SOL    HW228740   1.335   6.884   3.635
 9281SOL     OW28741   2.237   2.692   0.734
 9281SOL    HW128742   2.142   2.720   0.718
 9281SOL    HW228743   2.238   2.609   0.789
 9282SOL     OW28744   4.493   1.607   4.088
 9282SOL    HW128745   4.525   1.701   4.083
 9282SOL    HW228746   4.571   1.546   4.099
 9283SOL     OW28747   6.607   2.457   2.628
 9283SOL    HW128748   6.625   2.547   2.588
 9283SOL    HW228749   6.569   2.397   2.558
 9284SOL     OW28750   3.816   3.643   1.068
 9284SOL    HW128751   3.740   3.641   1.002
 9284SOL    HW228752   3.784   3.608   1.156
 9285SOL     OW28753   6.593   2.797   0.089
 9285SOL    HW128754   6.594   2.697   0.090
 9285SOL    HW228755   6.537   2.828   0.012
 9286SOL     OW28756   5.718   0.182   5.302
 9286SOL    HW128757   5.759   0.260   5.255
 9286SOL    HW228758   5.619   0.194   5.306
 9287SOL     OW28759   2.827   5.889   1.606
 9287SOL    HW128760   2.740   5.840   1.611
 9287SOL    HW228761   2.857   5.893   1.511
 9288SOL     OW28762   4.106   2.076   5.696
 9288SOL    HW128763   4.014   2.069   5.657
 9288SOL    HW228764   4.099   2.095   5.794
 9289SOL     OW28765   5.055   2.356   2.371
 9289SOL    HW128766   5.080   2.273   2.322
 9289SOL    HW228767   5.014   2.421   2.307
 9290SOL     OW28768   4.200   2.087   5.092
 9290SOL    HW128769   4.237   2.096   5.184
 9290SOL    HW228770   4.163   2.175   5.062
 9291SOL     OW28771   1.532   0.677   5.040
 9291SOL    HW128772   1.466   0.611   5.074
 9291SOL    HW228773   1.517   0.693   4.942
 9292SOL     OW28774   7.008   3.541   6.108
 9292SOL    HW128775   0.018   3.535   6.200
 9292SOL    HW228776   7.021   3.454   6.061
 9293SOL     OW28777   5.157   4.406   0.316
 9293SOL    HW128778   5.213   4.489   0.319
 9293SOL    HW228779   5.216   4.326   0.322
 9294SOL     OW28780   4.210   6.043   0.086
 9294SOL    HW128781   4.248   5.953   0.108
 9294SOL    HW228782   4.221   6.104   0.165
 9295SOL     OW28783   4.230   1.807   2.613
 9295SOL    HW128784   4.150   1.814   2.553
 9295SOL    HW228785   4.309   1.777   2.561
 9296SOL     OW28786   6.323   6.434   6.035
 9296SOL    HW128787   6.360   6.526   6.048
 9296SOL    HW228788   6.263   6.411   6.112
 9297SOL     OW28789   0.469   0.752   1.676
 9297SOL    HW128790   0.533   0.749   1.752
 9297SOL    HW228791   0.424   0.841   1.673
 9298SOL     OW28792   1.935   6.172   5.243
 9298SOL    HW128793   1.986   6.088   5.229
 9298SOL    HW228794   1.961   6.212   5.331
 9299SOL     OW28795   1.597   3.396   3.919
 9299SOL    HW128796   1.560   3.432   4.005
 9299SOL    HW228797   1.670   3.331   3.939
 9300SOL     OW28798   6.025   4.705   5.184
 9300SOL    HW128799   6.074   4.773   5.238
 9300SOL    HW228800   5.943   4.747   5.144
 9301SOL     OW28801   4.948   4.389   2.776
 9301SOL    HW128802   4.984   4.432   2.693
 9301SOL    HW228803   4.893   4.309   2.751
 9302SOL     OW28804   2.502   2.565   3.506
 9302SOL    HW128805   2.516   2.617   3.591
 9302SOL    HW228806   2.471   2.627   3.434
 9303SOL     OW28807   3.920   6.389   7.003
 9303SOL    HW128808   4.015   6.406   0.003
 9303SOL    HW228809   3.893   6.298   0.005
 9304SOL     OW28810   3.233   4.088   0.847
 9304SOL    HW128811   3.317   4.099   0.901
 9304SOL    HW228812   3.208   3.991   0.843
 9305SOL     OW28813   5.794   2.440   1.854
 9305SOL    HW128814   5.882   2.487   1.869
 9305SOL    HW228815   5.772   2.385   1.935
 9306SOL     OW28816   0.392   4.864   4.251
 9306SOL    HW128817   0.485   4.896   4.270
 9306SOL    HW228818   0.376   4.865   4.153
 9307SOL     OW28819   0.900   1.713   0.767
 9307SOL    HW128820   0.825   1.660   0.806
 9307SOL    HW228821   0.980   1.709   0.827
 9308SOL     OW28822   0.503   3.300   1.184
 9308SOL    HW128823   0.541   3.258   1.102
 9308SOL    HW228824   0.426   3.245   1.217
 9309SOL     OW28825   4.270   3.891   5.728
 9309SOL    HW128826   4.284   3.974   5.675
 9309SOL    HW228827   4.338   3.886   5.802
 9310SOL     OW28828   3.955   6.438   6.284
 9310SOL    HW128829   4.048   6.422   6.316
 9310SOL    HW228830   3.956   6.454   6.185
 9311SOL     OW28831   5.501   3.908   0.558
 9311SOL    HW128832   5.426   3.874   0.501
 9311SOL    HW228833   5.480   3.891   0.654
 9312SOL     OW28834   1.119   4.167   6.770
 9312SOL    HW128835   1.213   4.145   6.745
 9312SOL    HW228836   1.075   4.218   6.696
 9313SOL     OW28837   6.963   0.352   2.609
 9313SOL    HW128838   6.922   0.426   2.663
 9313SOL    HW228839   6.892   0.286   2.584
 9314SOL     OW28840   4.328   5.800   0.034
 9314SOL    HW128841   4.285   5.764   6.979
 9314SOL    HW228842   4.409   5.745   0.056
 9315SOL     OW28843   0.302   0.629   5.647
 9315SOL    HW128844   0.268   0.633   5.553
 9315SOL    HW228845   0.246   0.686   5.706
 9316SOL     OW28846   3.856   5.589   3.769
 9316SOL    HW128847   3.932   5.534   3.804
 9316SOL    HW228848   3.844   5.669   3.827
 9317SOL     OW28849   6.037   5.112   3.102
 9317SOL    HW128850   6.123   5.117   3.052
 9317SOL    HW228851   5.992   5.202   3.101
 9318SOL     OW28852   0.268   0.713   6.656
 9318SOL    HW128853   0.274   0.701   6.755
 9318SOL    HW228854   0.173   0.736   6.631
 9319SOL     OW28855   0.858   3.098   6.568
 9319SOL    HW128856   0.818   3.045   6.493
 9319SOL    HW228857   0.869   3.193   6.540
 9320SOL     OW28858   4.241   2.610   6.103
 9320SOL    HW128859   4.324   2.641   6.149
 9320SOL    HW228860   4.174   2.684   6.100
 9321SOL     OW28861   6.614   6.572   3.053
 9321SOL    HW128862   6.563   6.654   3.025
 9321SOL    HW228863   6.568   6.530   3.131
 9322SOL     OW28864   0.550   6.277   5.736
 9322SOL    HW128865   0.467   6.225   5.713
 9322SOL    HW228866   0.588   6.242   5.822
 9323SOL     OW28867   0.514   1.342   6.603
 9323SOL    HW128868   0.472   1.252   6.611
 9323SOL    HW228869   0.446   1.409   6.573
 9324SOL     OW28870   0.962   5.288   0.618
 9324SOL    HW128871   0.933   5.303   0.524
 9324SOL    HW228872   0.980   5.191   0.634
 9325SOL     OW28873   5.628   1.519   0.978
 9325SOL    HW128874   5.568   1.509   1.057
 9325SOL    HW228875   5.639   1.616   0.957
 9326SOL     OW28876   2.263   6.910   0.692
 9326SOL    HW128877   2.195   6.854   0.739
 9326SOL    HW228878   2.345   6.857   0.674
 9327SOL     OW28879   4.588   0.107   2.962
 9327SOL    HW128880   4.504   0.159   2.948
 9327SOL    HW228881   4.594   0.078   3.058
 9328SOL     OW28882   3.681   1.356   0.165
 9328SOL    HW128883   3.653   1.420   0.237
 9328SOL    HW228884   3.764   1.389   0.121
 9329SOL     OW28885   0.011   3.906   2.927
 9329SOL    HW128886   0.028   3.919   3.024
 9329SOL    HW228887   0.053   3.981   2.875
 9330SOL     OW28888   6.469   0.210   0.539
 9330SOL    HW128889   6.394   0.160   0.494
 9330SOL    HW228890   6.442   0.306   0.552
 9331SOL     OW28891   0.440   0.713   6.936
 9331SOL    HW128892   0.478   0.621   6.926
 9331SOL    HW228893   0.494   0.778   6.882
 9332SOL     OW28894   3.045   3.837   4.443
 9332SOL    HW128895   3.095   3.923   4.458
 9332SOL    HW228896   2.993   3.814   4.525
 9333SOL     OW28897   6.361   4.173   1.132
 9333SOL    HW128898   6.396   4.229   1.057
 9333SOL    HW228899   6.434   4.155   1.198
 9334SOL     OW28900   3.163   0.364   3.942
 9334SOL    HW128901   3.063   0.361   3.934
 9334SOL    HW228902   3.194   0.460   3.940
 9335SOL     OW28903   1.802   1.149   6.527
 9335SOL    HW128904   1.807   1.130   6.429
 9335SOL    HW228905   1.738   1.225   6.544
 9336SOL     OW28906   2.859   6.577   6.089
 9336SOL    HW128907   2.803   6.532   6.019
 9336SOL    HW228908   2.836   6.674   6.095
 9337SOL     OW28909   5.401   0.501   2.252
 9337SOL    HW128910   5.418   0.572   2.321
 9337SOL    HW228911   5.436   0.532   2.163
 9338SOL     OW28912   3.624   0.372   2.796
 9338SOL    HW128913   3.616   0.284   2.842
 9338SOL    HW228914   3.691   0.428   2.844
 9339SOL     OW28915   4.796   6.249   1.494
 9339SOL    HW128916   4.895   6.238   1.498
 9339SOL    HW228917   4.773   6.331   1.441
 9340SOL     OW28918   5.674   3.497   6.202
 9340SOL    HW128919   5.624   3.444   6.134
 9340SOL    HW228920   5.772   3.479   6.193
 9341SOL     OW28921   0.769   5.694   6.785
 9341SOL    HW128922   0.815   5.783   6.779
 9341SOL    HW228923   0.838   5.623   6.803
 9342SOL     OW28924   1.568   0.251   5.747
 9342SOL    HW128925   1.574   0.177   5.813
 9342SOL    HW228926   1.519   0.329   5.788
 9343SOL     OW28927   6.526   5.439   4.909
 9343SOL    HW128928   6.427   5.454   4.906
 9343SOL    HW228929   6.571   5.524   4.936
 9344SOL     OW28930   5.528   6.279   1.443
 9344SOL    HW128931   5.566   6.360   1.399
 9344SOL    HW228932   5.603   6.220   1.474
 9345SOL     OW28933   6.846   2.638   1.268
 9345SOL    HW128934   6.768   2.593   1.225
 9345SOL    HW228935   6.923   2.638   1.204
 9346SOL     OW28936   6.410   0.734   1.329
 9346SOL    HW128937   6.466   0.702   1.405
 9346SOL    HW228938   6.326   0.680   1.324
 9347SOL     OW28939   1.541   6.025   1.393
 9347SOL    HW128940   1.616   6.029   1.460
 9347SOL    HW228941   1.565   6.081   1.314
 9348SOL     OW28942   2.811   5.694   0.510
 9348SOL    HW128943   2.883   5.735   0.454
 9348SOL    HW228944   2.722   5.711   0.467
 9349SOL     OW28945   1.156   6.532   2.660
 9349SOL    HW128946   1.163   6.491   2.751
 9349SOL    HW228947   1.245   6.530   2.615
 9350SOL     OW28948   0.636   2.608   5.785
 9350SOL    HW128949   0.712   2.565   5.737
 9350SOL    HW228950   0.588   2.540   5.840
 9351SOL     OW28951   3.624   2.318   7.005
 9351SOL    HW128952   3.613   2.304   0.076
 9351SOL    HW228953   3.535   2.309   6.960
 9352SOL     OW28954   3.001   4.621   6.897
 9352SOL    HW128955   2.905   4.600   6.910
 9352SOL    HW228956   3.015   4.720   6.907
 9353SOL     OW28957   0.355   6.249   1.672
 9353SOL    HW128958   0.398   6.215   1.756
 9353SOL    HW228959   0.337   6.347   1.681
 9354SOL     OW28960   6.169   2.398   0.079
 9354SOL    HW128961   6.129   2.451   0.005
 9354SOL    HW228962   6.191   2.306   0.047
 9355SOL     OW28963   0.560   1.855   5.296
 9355SOL    HW128964   0.475   1.823   5.253
 9355SOL    HW228965   0.635   1.794   5.271
 9356SOL     OW28966   4.815   6.719   2.155
 9356SOL    HW128967   4.724   6.727   2.196
 9356SOL    HW228968   4.862   6.639   2.194
 9357SOL     OW28969   0.580   2.156   6.914
 9357SOL    HW128970   0.676   2.131   6.899
 9357SOL    HW228971   0.533   2.162   6.826
 9358SOL     OW28972   1.530   3.426   2.391
 9358SOL    HW128973   1.475   3.345   2.369
 9358SOL    HW228974   1.577   3.411   2.478
 9359SOL     OW28975   2.028   6.484   6.112
 9359SOL    HW128976   1.937   6.443   6.122
 9359SOL    HW228977   2.062   6.511   6.202
 9360SOL     OW28978   0.626   0.700   5.986
 9360SOL    HW128979   0.649   0.647   5.904
 9360SOL    HW228980   0.614   0.796   5.961
 9361SOL     OW28981   2.272   5.745   4.182
 9361SOL    HW128982   2.360   5.782   4.212
 9361SOL    HW228983   2.273   5.736   4.082
 9362SOL     OW28984   1.922   0.388   2.309
 9362SOL    HW128985   1.842   0.335   2.282
 9362SOL    HW228986   1.898   0.485   2.312
 9363SOL     OW28987   3.147   5.097   2.388
 9363SOL    HW128988   3.226   5.038   2.369
 9363SOL    HW228989   3.177   5.175   2.443
 9364SOL     OW28990   1.490   2.187   1.105
 9364SOL    HW128991   1.409   2.185   1.045
 9364SOL    HW228992   1.563   2.238   1.060
 9365SOL     OW28993   3.211   2.095   4.503
 9365SOL    HW128994   3.287   2.110   4.566
 9365SOL    HW228995   3.174   2.003   4.516
 9366SOL     OW28996   3.584   5.634   0.214
 9366SOL    HW128997   3.557   5.665   0.123
 9366SOL    HW228998   3.510   5.651   0.278
 9367SOL     OW28999   6.495   0.666   1.599
 9367SOL    HW129000   6.401   0.688   1.574
 9367SOL    HW229001   6.504   0.669   1.698
 9368SOL     OW29002   3.479   0.727   2.763
 9368SOL    HW129003   3.404   0.774   2.717
 9368SOL    HW229004   3.553   0.711   2.697
 9369SOL     OW29005   2.203   5.322   6.594
 9369SOL    HW129006   2.295   5.362   6.596
 9369SOL    HW229007   2.202   5.244   6.532
 9370SOL     OW29008   4.661   1.849   4.114
 9370SOL    HW129009   4.650   1.946   4.137
 9370SOL    HW229010   4.752   1.834   4.075
 9371SOL     OW29011   4.464   6.003   1.795
 9371SOL    HW129012   4.407   5.954   1.729
 9371SOL    HW229013   4.459   5.957   1.884
 9372SOL     OW29014   5.211   6.574   1.606
 9372SOL    HW129015   5.134   6.551   1.666
 9372SOL    HW229016   5.185   6.650   1.546
 9373SOL     OW29017   6.778   1.299   0.473
 9373SOL    HW129018   6.761   1.316   0.571
 9373SOL    HW229019   6.873   1.319   0.452
 9374SOL     OW29020   0.553   5.415   5.775
 9374SOL    HW129021   0.489   5.339   5.760
 9374SOL    HW229022   0.545   5.481   5.701
 9375SOL     OW29023   0.390   1.109   0.129
 9375SOL    HW129024   0.486   1.082   0.141
 9375SOL    HW229025   0.366   1.177   0.197
 9376SOL     OW29026   2.440   4.239   1.888
 9376SOL    HW129027   2.380   4.241   1.808
 9376SOL    HW229028   2.488   4.326   1.896
 9377SOL     OW29029   2.292   6.634   3.077
 9377SOL    HW129030   2.376   6.604   3.033
 9377SOL    HW229031   2.313   6.707   3.142
 9378SOL     OW29032   2.937   0.742   3.527
 9378SOL    HW129033   2.903   0.825   3.482
 9378SOL    HW229034   2.881   0.664   3.498
 9379SOL     OW29035   4.060   6.426   4.838
 9379SOL    HW129036   4.038   6.428   4.935
 9379SOL    HW229037   4.102   6.513   4.811
 9380SOL     OW29038   5.231   5.653   0.223
 9380SOL    HW129039   5.260   5.748   0.215
 9380SOL    HW229040   5.138   5.643   0.188
 9381SOL     OW29041   5.443   1.899   4.593
 9381SOL    HW129042   5.361   1.845   4.578
 9381SOL    HW229043   5.493   1.909   4.507
 9382SOL     OW29044   2.917   0.190   4.817
 9382SOL    HW129045   2.918   0.182   4.718
 9382SOL    HW229046   2.967   0.271   4.845
 9383SOL     OW29047   5.062   4.108   3.198
 9383SOL    HW129048   5.049   4.085   3.102
 9383SOL    HW229049   5.138   4.174   3.206
 9384SOL     OW29050   1.958   0.511   1.944
 9384SOL    HW129051   2.008   0.481   2.025
 9384SOL    HW229052   1.860   0.499   1.959
 9385SOL     OW29053   3.619   1.728   3.209
 9385SOL    HW129054   3.596   1.631   3.214
 9385SOL    HW229055   3.691   1.742   3.142
 9386SOL     OW29056   4.379   6.289   6.218
 9386SOL    HW129057   4.366   6.212   6.155
 9386SOL    HW229058   4.465   6.276   6.268
 9387SOL     OW29059   2.739   2.158   0.092
 9387SOL    HW129060   2.837   2.135   0.098
 9387SOL    HW229061   2.720   2.235   0.153
 9388SOL     OW29062   2.382   6.717   4.618
 9388SOL    HW129063   2.340   6.774   4.689
 9388SOL    HW229064   2.481   6.736   4.615
 9389SOL     OW29065   2.684   4.357   1.694
 9389SOL    HW129066   2.622   4.414   1.748
 9389SOL    HW229067   2.778   4.377   1.721
 9390SOL     OW29068   5.039   5.093   5.235
 9390SOL    HW129069   4.952   5.143   5.236
 9390SOL    HW229070   5.038   5.026   5.161
 9391SOL     OW29071   1.658   5.769   4.492
 9391SOL    HW129072   1.749   5.742   4.524
 9391SOL    HW229073   1.660   5.865   4.465
 9392SOL     OW29074   5.582   4.189   2.772
 9392SOL    HW129075   5.644   4.257   2.734
 9392SOL    HW229076   5.540   4.226   2.855
 9393SOL     OW29077   2.564   7.009   6.307
 9393SOL    HW129078   2.591   7.009   6.403
 9393SOL    HW229079   2.560   0.076   6.273
 9394SOL     OW29080   4.010   0.346   0.748
 9394SOL    HW129081   4.019   0.445   0.758
 9394SOL    HW229082   3.947   0.311   0.818
 9395SOL     OW29083   1.828   1.654   0.823
 9395SOL    HW129084   1.850   1.745   0.787
 9395SOL    HW229085   1.840   1.654   0.922
 9396SOL     OW29086   0.497   6.553   6.555
 9396SOL    HW129087   0.540   6.463   6.553
 9396SOL    HW229088   0.400   6.544   6.532
 9397SOL     OW29089   3.701   1.306   5.816
 9397SOL    HW129090   3.757   1.288   5.897
 9397SOL    HW229091   3.637   1.380   5.835
 9398SOL     OW29092   0.162   1.412   6.617
 9398SOL    HW129093   0.123   1.333   6.665
 9398SOL    HW229094   0.088   1.473   6.588
 9399SOL     OW29095   1.672   2.982   4.213
 9399SOL    HW129096   1.715   2.995   4.124
 9399SOL    HW229097   1.742   2.986   4.284
 9400SOL     OW29098   5.852   1.379   0.601
 9400SOL    HW129099   5.812   1.411   0.515
 9400SOL    HW229100   5.811   1.291   0.625
 9401SOL     OW29101   0.390   2.149   3.045
 9401SOL    HW129102   0.374   2.229   2.988
 9401SOL    HW229103   0.341   2.070   3.009
 9402SOL     OW29104   1.691   6.415   3.922
 9402SOL    HW129105   1.710   6.394   3.826
 9402SOL    HW229106   1.610   6.474   3.928
 9403SOL     OW29107   6.442   2.509   2.039
 9403SOL    HW129108   6.343   2.496   2.042
 9403SOL    HW229109   6.470   2.563   2.118
 9404SOL     OW29110   1.844   2.651   0.936
 9404SOL    HW129111   1.756   2.662   0.889
 9404SOL    HW229112   1.918   2.657   0.869
 9405SOL     OW29113   0.618   5.998   5.160
 9405SOL    HW129114   0.551   6.047   5.104
 9405SOL    HW229115   0.571   5.944   5.230
 9406SOL     OW29116   0.067   3.119   0.333
 9406SOL    HW129117   0.061   3.097   0.430
 9406SOL    HW229118   0.094   3.215   0.321
 9407SOL     OW29119   0.972   5.566   5.165
 9407SOL    HW129120   1.024   5.592   5.084
 9407SOL    HW229121   0.937   5.473   5.154
 9408SOL     OW29122   0.412   3.759   4.808
 9408SOL    HW129123   0.353   3.687   4.772
 9408SOL    HW229124   0.415   3.753   4.908
 9409SOL     OW29125   6.789   5.266   2.654
 9409SOL    HW129126   6.809   5.220   2.741
 9409SOL    HW229127   6.717   5.216   2.606
 9410SOL     OW29128   3.839   0.763   0.970
 9410SOL    HW129129   3.745   0.733   0.986
 9410SOL    HW229130   3.851   0.855   1.008
 9411SOL     OW29131   3.043   3.232   2.946
 9411SOL    HW129132   3.037   3.150   2.889
 9411SOL    HW229133   3.130   3.279   2.928
 9412SOL     OW29134   5.983   6.305   0.760
 9412SOL    HW129135   6.020   6.315   0.853
 9412SOL    HW229136   6.033   6.232   0.713
 9413SOL     OW29137   4.790   4.183   2.697
 9413SOL    HW129138   4.823   4.089   2.689
 9413SOL    HW229139   4.699   4.190   2.657
 9414SOL     OW29140   1.786   2.016   3.580
 9414SOL    HW129141   1.811   2.107   3.547
 9414SOL    HW229142   1.837   1.996   3.663
 9415SOL     OW29143   3.962   1.043   2.587
 9415SOL    HW129144   3.959   1.008   2.493
 9415SOL    HW229145   3.947   1.142   2.586
 9416SOL     OW29146   5.826   4.899   6.050
 9416SOL    HW129147   5.756   4.849   5.999
 9416SOL    HW229148   5.909   4.904   5.995
 9417SOL     OW29149   3.919   5.751   2.177
 9417SOL    HW129150   3.945   5.712   2.089
 9417SOL    HW229151   3.827   5.790   2.170
 9418SOL     OW29152   3.330   1.844   4.886
 9418SOL    HW129153   3.394   1.807   4.818
 9418SOL    HW229154   3.288   1.928   4.849
 9419SOL     OW29155   1.823   3.299   6.158
 9419SOL    HW129156   1.739   3.265   6.200
 9419SOL    HW229157   1.901   3.271   6.213
 9420SOL     OW29158   6.662   3.793   6.637
 9420SOL    HW129159   6.595   3.794   6.562
 9420SOL    HW229160   6.698   3.886   6.650
 9421SOL     OW29161   3.378   6.284   5.898
 9421SOL    HW129162   3.329   6.218   5.956
 9421SOL    HW229163   3.419   6.235   5.821
 9422SOL     OW29164   2.366   6.070   4.566
 9422SOL    HW129165   2.405   6.156   4.597
 9422SOL    HW229166   2.328   6.082   4.474
 9423SOL     OW29167   4.813   4.623   3.148
 9423SOL    HW129168   4.805   4.600   3.051
 9423SOL    HW229169   4.813   4.722   3.160
 9424SOL     OW29170   5.954   0.080   4.482
 9424SOL    HW129171   6.033   0.024   4.506
 9424SOL    HW229172   5.908   0.109   4.566
 9425SOL     OW29173   6.800   4.647   0.905
 9425SOL    HW129174   6.714   4.670   0.951
 9425SOL    HW229175   6.871   4.628   0.974
 9426SOL     OW29176   0.030   2.097   6.512
 9426SOL    HW129177   7.012   2.115   6.600
 9426SOL    HW229178   0.128   2.112   6.521
 9427SOL     OW29179   4.851   5.046   2.425
 9427SOL    HW129180   4.795   5.082   2.500
 9427SOL    HW229181   4.839   5.104   2.344
 9428SOL     OW29182   0.207   6.269   5.274
 9428SOL    HW129183   0.122   6.219   5.261
 9428SOL    HW229184   0.205   6.317   5.362
 9429SOL     OW29185   2.730   2.426   4.174
 9429SOL    HW129186   2.704   2.443   4.079
 9429SOL    HW229187   2.689   2.494   4.234
 9430SOL     OW29188   1.218   2.382   4.691
 9430SOL    HW129189   1.278   2.304   4.671
 9430SOL    HW229190   1.205   2.389   4.789
 9431SOL     OW29191   0.538   4.726   5.682
 9431SOL    HW129192   0.550   4.752   5.778
 9431SOL    HW229193   0.557   4.629   5.670
 9432SOL     OW29194   6.702   1.630   3.653
 9432SOL    HW129195   6.789   1.662   3.616
 9432SOL    HW229196   6.697   1.530   3.645
 9433SOL     OW29197   4.868   5.447   2.144
 9433SOL    HW129198   4.821   5.455   2.056
 9433SOL    HW229199   4.965   5.471   2.133
 9434SOL     OW29200   4.898   5.126   3.943
 9434SOL    HW129201   4.836   5.082   3.877
 9434SOL    HW229202   4.844   5.170   4.015
 9435SOL     OW29203   0.325   3.026   1.968
 9435SOL    HW129204   0.358   3.120   1.957
 9435SOL    HW229205   0.225   3.025   1.957
 9436SOL     OW29206   2.044   0.471   2.852
 9436SOL    HW129207   2.022   0.388   2.803
 9436SOL    HW229208   2.048   0.452   2.950
 9437SOL     OW29209   5.664   6.586   4.729
 9437SOL    HW129210   5.666   6.593   4.828
 9437SOL    HW229211   5.668   6.677   4.688
 9438SOL     OW29212   4.866   6.693   2.464
 9438SOL    HW129213   4.942   6.754   2.487
 9438SOL    HW229214   4.900   6.616   2.410
 9439SOL     OW29215   1.559   3.207   0.491
 9439SOL    HW129216   1.514   3.292   0.461
 9439SOL    HW229217   1.507   3.128   0.458
 9440SOL     OW29218   2.368   5.168   3.299
 9440SOL    HW129219   2.335   5.163   3.205
 9440SOL    HW229220   2.467   5.157   3.300
 9441SOL     OW29221   0.510   6.249   4.385
 9441SOL    HW129222   0.541   6.252   4.480
 9441SOL    HW229223   0.536   6.162   4.344
 9442SOL     OW29224   5.093   3.082   0.726
 9442SOL    HW129225   5.158   3.024   0.776
 9442SOL    HW229226   5.018   3.025   0.691
 9443SOL     OW29227   2.232   4.663   2.944
 9443SOL    HW129228   2.184   4.589   2.898
 9443SOL    HW229229   2.324   4.672   2.905
 9444SOL     OW29230   0.867   4.596   5.984
 9444SOL    HW129231   0.942   4.569   5.925
 9444SOL    HW229232   0.863   4.696   5.989
 9445SOL     OW29233   0.817   1.107   3.668
 9445SOL    HW129234   0.908   1.131   3.700
 9445SOL    HW229235   0.770   1.190   3.636
 9446SOL     OW29236   6.509   4.780   3.412
 9446SOL    HW129237   6.478   4.690   3.440
 9446SOL    HW229238   6.430   4.838   3.391
 9447SOL     OW29239   4.949   4.639   1.653
 9447SOL    HW129240   4.930   4.543   1.673
 9447SOL    HW229241   5.043   4.661   1.679
 9448SOL     OW29242   6.278   0.913   4.947
 9448SOL    HW129243   6.233   0.994   4.985
 9448SOL    HW229244   6.242   0.894   4.856
 9449SOL     OW29245   5.292   0.578   1.454
 9449SOL    HW129246   5.260   0.485   1.433
 9449SOL    HW229247   5.214   0.641   1.453
 9450SOL     OW29248   1.111   5.506   2.938
 9450SOL    HW129249   1.098   5.594   2.983
 9450SOL    HW229250   1.082   5.432   2.999
 9451SOL     OW29251   3.282   5.482   6.364
 9451SOL    HW129252   3.196   5.474   6.314
 9451SOL    HW229253   3.287   5.571   6.409
 9452SOL     OW29254   6.111   3.911   0.125
 9452SOL    HW129255   6.031   3.902   0.067
 9452SOL    HW229256   6.125   3.827   0.177
 9453SOL     OW29257   4.820   5.276   1.579
 9453SOL    HW129258   4.754   5.227   1.635
 9453SOL    HW229259   4.911   5.266   1.619
 9454SOL     OW29260   5.933   4.331   0.346
 9454SOL    HW129261   5.917   4.281   0.261
 9454SOL    HW229262   5.846   4.341   0.395
 9455SOL     OW29263   3.561   1.333   2.020
 9455SOL    HW129264   3.590   1.264   1.954
 9455SOL    HW229265   3.557   1.422   1.976
 9456SOL     OW29266   0.402   2.931   2.241
 9456SOL    HW129267   0.456   2.864   2.191
 9456SOL    HW229268   0.369   3.002   2.178
 9457SOL     OW29269   6.757   6.340   4.636
 9457SOL    HW129270   6.682   6.397   4.603
 9457SOL    HW229271   6.834   6.347   4.572
 9458SOL     OW29272   6.436   3.699   0.312
 9458SOL    HW129273   6.530   3.669   0.295
 9458SOL    HW229274   6.428   3.732   0.406
 9459SOL     OW29275   4.702   5.052   5.337
 9459SOL    HW129276   4.613   5.021   5.373
 9459SOL    HW229277   4.760   4.973   5.319
 9460SOL     OW29278   1.761   2.573   2.669
 9460SOL    HW129279   1.758   2.485   2.621
 9460SOL    HW229280   1.824   2.635   2.623
 9461SOL     OW29281   1.768   2.118   2.128
 9461SOL    HW129282   1.760   2.137   2.030
 9461SOL    HW229283   1.719   2.189   2.179
 9462SOL     OW29284   0.531   1.289   4.496
 9462SOL    HW129285   0.469   1.212   4.477
 9462SOL    HW229286   0.568   1.324   4.410
 9463SOL     OW29287   5.684   5.265   1.492
 9463SOL    HW129288   5.764   5.281   1.434
 9463SOL    HW229289   5.634   5.184   1.459
 9464SOL     OW29290   1.005   1.231   2.060
 9464SOL    HW129291   1.021   1.252   1.964
 9464SOL    HW229292   1.091   1.204   2.103
 9465SOL     OW29293   7.009   4.322   1.430
 9465SOL    HW129294   0.037   4.382   1.372
 9465SOL    HW229295   6.916   4.316   1.392
 9466SOL     OW29296   4.054   4.824   5.783
 9466SOL    HW129297   4.147   4.851   5.810
 9466SOL    HW229298   4.005   4.787   5.861
 9467SOL     OW29299   2.043   3.562   0.357
 9467SOL    HW129300   2.135   3.539   0.391
 9467SOL    HW229301   1.978   3.559   0.433
 9468SOL     OW29302   6.440   1.581   0.484
 9468SOL    HW129303   6.389   1.527   0.551
 9468SOL    HW229304   6.419   1.549   0.392
 9469SOL     OW29305   0.857   6.556   1.237
 9469SOL    HW129306   0.830   6.496   1.312
 9469SOL    HW229307   0.778   6.575   1.179
 9470SOL     OW29308   3.501   3.412   1.073
 9470SOL    HW129309   3.519   3.502   1.112
 9470SOL    HW229310   3.573   3.349   1.101
 9471SOL     OW29311   6.453   3.247   4.939
 9471SOL    HW129312   6.380   3.207   4.994
 9471SOL    HW229313   6.415   3.318   4.879
 9472SOL     OW29314   1.523   2.996   6.395
 9472SOL    HW129315   1.436   3.043   6.408
 9472SOL    HW229316   1.531   2.966   6.300
 9473SOL     OW29317   2.463   4.179   0.966
 9473SOL    HW129318   2.417   4.235   0.897
 9473SOL    HW229319   2.505   4.238   1.034
 9474SOL     OW29320   5.486   3.026   0.634
 9474SOL    HW129321   5.405   3.063   0.588
 9474SOL    HW229322   5.552   2.996   0.565
 9475SOL     OW29323   5.070   3.809   6.482
 9475SOL    HW129324   5.048   3.827   6.578
 9475SOL    HW229325   5.139   3.875   6.451
 9476SOL     OW29326   4.118   4.453   6.629
 9476SOL    HW129327   4.042   4.474   6.568
 9476SOL    HW229328   4.127   4.524   6.698
 9477SOL     OW29329   1.667   4.284   0.366
 9477SOL    HW129330   1.603   4.310   0.438
 9477SOL    HW229331   1.756   4.262   0.407
 9478SOL     OW29332   5.482   3.304   0.305
 9478SOL    HW129333   5.525   3.215   0.292
 9478SOL    HW229334   5.410   3.297   0.374
 9479SOL     OW29335   4.218   0.935   2.401
 9479SOL    HW129336   4.295   0.884   2.363
 9479SOL    HW229337   4.135   0.911   2.353
 9480SOL     OW29338   6.587   0.936   0.785
 9480SOL    HW129339   6.617   0.893   0.700
 9480SOL    HW229340   6.546   1.025   0.766
 9481SOL     OW29341   4.061   6.933   3.899
 9481SOL    HW129342   4.120   6.873   3.953
 9481SOL    HW229343   4.086   0.001   3.915
 9482SOL     OW29344   6.804   6.104   6.916
 9482SOL    HW129345   6.873   6.155   6.969
 9482SOL    HW229346   6.713   6.128   6.950
 9483SOL     OW29347   6.459   6.815   0.338
 9483SOL    HW129348   6.488   6.760   0.260
 9483SOL    HW229349   6.528   6.885   0.357
 9484SOL     OW29350   4.096   5.719   4.540
 9484SOL    HW129351   4.024   5.692   4.477
 9484SOL    HW229352   4.080   5.813   4.571
 9485SOL     OW29353   0.179   1.033   0.371
 9485SOL    HW129354   0.163   1.085   0.455
 9485SOL    HW229355   0.271   0.994   0.373
 9486SOL     OW29356   5.384   5.866   0.441
 9486SOL    HW129357   5.346   5.911   0.360
 9486SOL    HW229358   5.312   5.858   0.510
 9487SOL     OW29359   3.364   2.935   2.890
 9487SOL    HW129360   3.343   2.927   2.792
 9487SOL    HW229361   3.463   2.947   2.902
 9488SOL     OW29362   1.705   0.843   0.634
 9488SOL    HW129363   1.749   0.896   0.707
 9488SOL    HW229364   1.614   0.814   0.663
 9489SOL     OW29365   5.600   3.059   0.220
 9489SOL    HW129366   5.538   2.995   0.175
 9489SOL    HW229367   5.688   3.059   0.173
 9490SOL     OW29368   5.713   3.646   4.407
 9490SOL    HW129369   5.753   3.567   4.453
 9490SOL    HW229370   5.656   3.614   4.331
 9491SOL     OW29371   5.490   6.180   2.779
 9491SOL    HW129372   5.484   6.280   2.777
 9491SOL    HW229373   5.429   6.142   2.710
 9492SOL     OW29374   4.845   2.962   4.405
 9492SOL    HW129375   4.801   2.876   4.378
 9492SOL    HW229376   4.782   3.015   4.461
 9493SOL     OW29377   4.386   6.264   1.820
 9493SOL    HW129378   4.415   6.168   1.814
 9493SOL    HW229379   4.434   6.318   1.750
 9494SOL     OW29380   5.443   2.201   2.330
 9494SOL    HW129381   5.486   2.284   2.366
 9494SOL    HW229382   5.407   2.219   2.238
 9495SOL     OW29383   0.063   2.119   1.956
 9495SOL    HW129384   0.115   2.131   2.041
 9495SOL    HW229385   0.093   2.035   1.911
 9496SOL     OW29386   5.246   2.341   2.575
 9496SOL    HW129387   5.189   2.377   2.501
 9496SOL    HW229388   5.206   2.256   2.609
 9497SOL     OW29389   4.885   4.521   4.976
 9497SOL    HW129390   4.917   4.525   4.882
 9497SOL    HW229391   4.785   4.511   4.977
 9498SOL     OW29392   1.064   5.501   3.911
 9498SOL    HW129393   1.093   5.595   3.890
 9498SOL    HW229394   0.991   5.504   3.979
 9499SOL     OW29395   6.547   6.023   4.991
 9499SOL    HW129396   6.491   5.944   4.969
 9499SOL    HW229397   6.598   6.052   4.910
 9500SOL     OW29398   4.091   2.251   0.806
 9500SOL    HW129399   4.030   2.323   0.840
 9500SOL    HW229400   4.104   2.263   0.707
 9501SOL     OW29401   2.290   3.393   5.167
 9501SOL    HW129402   2.223   3.438   5.226
 9501SOL    HW229403   2.263   3.405   5.072
 9502SOL     OW29404   4.856   4.608   4.710
 9502SOL    HW129405   4.946   4.620   4.668
 9502SOL    HW229406   4.836   4.684   4.771
 9503SOL     OW29407   6.934   2.071   0.081
 9503SOL    HW129408   6.907   2.049   0.174
 9503SOL    HW229409   6.927   2.170   0.067
 9504SOL     OW29410   5.932   5.154   2.106
 9504SOL    HW129411   5.908   5.174   2.011
 9504SOL    HW229412   5.918   5.057   2.124
 9505SOL     OW29413   3.845   5.740   5.560
 9505SOL    HW129414   3.835   5.661   5.498
 9505SOL    HW229415   3.905   5.716   5.636
 9506SOL     OW29416   3.261   1.061   1.282
 9506SOL    HW129417   3.206   1.129   1.232
 9506SOL    HW229418   3.223   1.050   1.374
 9507SOL     OW29419   5.365   0.008   2.404
 9507SOL    HW129420   5.354   0.038   2.498
 9507SOL    HW229421   5.351   0.085   2.342
 9508SOL     OW29422   5.084   1.738   3.158
 9508SOL    HW129423   5.043   1.821   3.196
 9508SOL    HW229424   5.169   1.718   3.208
 9509SOL     OW29425   5.307   0.511   3.306
 9509SOL    HW129426   5.371   0.571   3.353
 9509SOL    HW229427   5.355   0.464   3.231
 9510SOL     OW29428   1.148   2.859   3.846
 9510SOL    HW129429   1.055   2.840   3.876
 9510SOL    HW229430   1.212   2.834   3.919
 9511SOL     OW29431   1.139   1.515   0.515
 9511SOL    HW129432   1.072   1.452   0.556
 9511SOL    HW229433   1.095   1.604   0.499
 9512SOL     OW29434   6.251   2.010   1.181
 9512SOL    HW129435   6.190   1.931   1.187
 9512SOL    HW229436   6.336   1.991   1.228
 9513SOL     OW29437   4.161   4.805   5.532
 9513SOL    HW129438   4.126   4.821   5.624
 9513SOL    HW229439   4.099   4.745   5.482
 9514SOL     OW29440   3.629   3.148   6.784
 9514SOL    HW129441   3.595   3.242   6.777
 9514SOL    HW229442   3.644   3.111   6.692
 9515SOL     OW29443   0.834   5.426   3.019
 9515SOL    HW129444   0.898   5.384   3.083
 9515SOL    HW229445   0.819   5.364   2.942
 9516SOL     OW29446   6.774   4.225   0.256
 9516SOL    HW129447   6.758   4.145   0.313
 9516SOL    HW229448   6.821   4.198   0.172
 9517SOL     OW29449   0.811   4.893   0.631
 9517SOL    HW129450   0.791   4.850   0.719
 9517SOL    HW229451   0.892   4.950   0.640
 9518SOL     OW29452   0.930   1.211   0.319
 9518SOL    HW129453   0.916   1.310   0.316
 9518SOL    HW229454   0.951   1.182   0.412
 9519SOL     OW29455   1.243   3.025   5.243
 9519SOL    HW129456   1.177   3.020   5.318
 9519SOL    HW229457   1.321   3.082   5.271
 9520SOL     OW29458   3.699   0.005   1.573
 9520SOL    HW129459   3.605   7.000   1.580
 9520SOL    HW229460   3.746   7.018   1.660
 9521SOL     OW29461   5.598   5.177   3.867
 9521SOL    HW129462   5.596   5.088   3.824
 9521SOL    HW229463   5.692   5.212   3.868
 9522SOL     OW29464   3.295   5.638   1.066
 9522SOL    HW129465   3.368   5.646   0.999
 9522SOL    HW229466   3.234   5.562   1.041
 9523SOL     OW29467   3.418   6.143   5.014
 9523SOL    HW129468   3.396   6.179   5.104
 9523SOL    HW229469   3.335   6.106   4.972
 9524SOL     OW29470   4.739   2.902   0.876
 9524SOL    HW129471   4.748   2.910   0.975
 9524SOL    HW229472   4.732   2.994   0.835
 9525SOL     OW29473   3.346   0.611   5.995
 9525SOL    HW129474   3.273   0.553   6.032
 9525SOL    HW229475   3.433   0.563   6.000
 9526SOL     OW29476   5.558   5.456   2.075
 9526SOL    HW129477   5.569   5.393   2.152
 9526SOL    HW229478   5.573   5.550   2.107
 9527SOL     OW29479   6.094   1.929   1.772
 9527SOL    HW129480   6.066   2.022   1.750
 9527SOL    HW229481   6.192   1.919   1.755
 9528SOL     OW29482   6.708   0.773   2.095
 9528SOL    HW129483   6.735   0.860   2.137
 9528SOL    HW229484   6.790   0.721   2.070
 9529SOL     OW29485   0.825   3.521   4.959
 9529SOL    HW129486   0.774   3.451   5.008
 9529SOL    HW229487   0.796   3.611   4.990
 9530SOL     OW29488   1.744   2.534   4.584
 9530SOL    HW129489   1.822   2.551   4.644
 9530SOL    HW229490   1.683   2.467   4.626
 9531SOL     OW29491   2.866   6.176   3.533
 9531SOL    HW129492   2.865   6.093   3.587
 9531SOL    HW229493   2.794   6.172   3.464
 9532SOL     OW29494   2.639   1.100   1.501
 9532SOL    HW129495   2.540   1.105   1.508
 9532SOL    HW229496   2.681   1.128   1.587
 9533SOL     OW29497   2.184   0.246   5.209
 9533SOL    HW129498   2.136   0.168   5.169
 9533SOL    HW229499   2.123   0.293   5.273
 9534SOL     OW29500   4.861   1.875   4.896
 9534SOL    HW129501   4.779   1.893   4.950
 9534SOL    HW229502   4.905   1.961   4.872
 9535SOL     OW29503   2.112   2.031   5.456
 9535SOL    HW129504   2.122   2.088   5.538
 9535SOL    HW229505   2.069   2.084   5.383
 9536SOL     OW29506   2.960   0.056   6.528
 9536SOL    HW129507   3.054   0.053   6.563
 9536SOL    HW229508   2.936   6.995   6.487
 9537SOL     OW29509   2.882   6.745   1.017
 9537SOL    HW129510   2.829   6.829   1.017
 9537SOL    HW229511   2.958   6.753   1.082
 9538SOL     OW29512   5.748   3.337   3.756
 9538SOL    HW129513   5.767   3.434   3.770
 9538SOL    HW229514   5.651   3.319   3.772
 9539SOL     OW29515   0.496   5.179   0.969
 9539SOL    HW129516   0.583   5.137   0.941
 9539SOL    HW229517   0.430   5.107   0.992
 9540SOL     OW29518   5.251   3.626   4.891
 9540SOL    HW129519   5.215   3.630   4.798
 9540SOL    HW229520   5.180   3.653   4.956
 9541SOL     OW29521   1.242   1.994   3.290
 9541SOL    HW129522   1.185   1.921   3.255
 9541SOL    HW229523   1.189   2.079   3.294
 9542SOL     OW29524   5.264   3.960   4.671
 9542SOL    HW129525   5.331   3.940   4.742
 9542SOL    HW229526   5.299   3.932   4.582
 9543SOL     OW29527   5.151   1.920   1.895
 9543SOL    HW129528   5.241   1.961   1.911
 9543SOL    HW229529   5.080   1.989   1.908
 9544SOL     OW29530   3.380   1.723   2.283
 9544SOL    HW129531   3.378   1.807   2.229
 9544SOL    HW229532   3.453   1.730   2.352
 9545SOL     OW29533   0.268   0.091   4.264
 9545SOL    HW129534   0.207   0.083   4.184
 9545SOL    HW229535   0.298   0.185   4.273
 9546SOL     OW29536   2.320   4.308   1.420
 9546SOL    HW129537   2.293   4.385   1.477
 9546SOL    HW229538   2.240   4.251   1.401
 9547SOL     OW29539   6.501   5.702   3.112
 9547SOL    HW129540   6.575   5.769   3.119
 9547SOL    HW229541   6.510   5.651   3.027
 9548SOL     OW29542   4.941   6.407   2.680
 9548SOL    HW129543   4.842   6.418   2.693
 9548SOL    HW229544   4.972   6.464   2.604
 9549SOL     OW29545   2.792   5.503   0.703
 9549SOL    HW129546   2.793   5.591   0.656
 9549SOL    HW229547   2.698   5.471   0.712
 9550SOL     OW29548   1.108   1.928   0.261
 9550SOL    HW129549   1.155   1.884   0.184
 9550SOL    HW229550   1.013   1.897   0.265
 9551SOL     OW29551   2.237   6.213   5.016
 9551SOL    HW129552   2.220   6.224   5.114
 9551SOL    HW229553   2.160   6.249   4.964
 9552SOL     OW29554   1.238   5.233   3.573
 9552SOL    HW129555   1.165   5.302   3.570
 9552SOL    HW229556   1.293   5.240   3.490
 9553SOL     OW29557   5.273   4.554   5.564
 9553SOL    HW129558   5.288   4.489   5.489
 9553SOL    HW229559   5.239   4.640   5.527
 9554SOL     OW29560   2.334   1.193   2.143
 9554SOL    HW129561   2.346   1.203   2.044
 9554SOL    HW229562   2.330   1.095   2.166
 9555SOL     OW29563   6.350   2.442   6.599
 9555SOL    HW129564   6.351   2.385   6.682
 9555SOL    HW229565   6.427   2.506   6.601
 9556SOL     OW29566   6.957   1.828   1.179
 9556SOL    HW129567   6.972   1.747   1.122
 9556SOL    HW229568   6.966   1.803   1.275
 9557SOL     OW29569   5.400   2.298   1.718
 9557SOL    HW129570   5.410   2.201   1.737
 9557SOL    HW229571   5.477   2.329   1.661
 9558SOL     OW29572   6.303   4.538   2.065
 9558SOL    HW129573   6.348   4.465   2.014
 9558SOL    HW229574   6.288   4.617   2.005
 9559SOL     OW29575   6.608   2.897   2.218
 9559SOL    HW129576   6.537   2.847   2.169
 9559SOL    HW229577   6.570   2.933   2.303
 9560SOL     OW29578   3.240   1.754   4.318
 9560SOL    HW129579   3.316   1.804   4.359
 9560SOL    HW229580   3.156   1.807   4.328
 9561SOL     OW29581   4.142   0.121   0.863
 9561SOL    HW129582   4.096   0.197   0.817
 9561SOL    HW229583   4.082   0.083   0.933
 9562SOL     OW29584   5.948   5.574   3.454
 9562SOL    HW129585   5.922   5.479   3.469
 9562SOL    HW229586   5.970   5.588   3.358
 9563SOL     OW29587   0.323   5.686   6.796
 9563SOL    HW129588   0.290   5.725   6.709
 9563SOL    HW229589   0.387   5.750   6.838
 9564SOL     OW29590   2.391   0.142   0.052
 9564SOL    HW129591   2.416   0.159   0.147
 9564SOL    HW229592   2.418   0.221   7.024
 9565SOL     OW29593   4.119   6.062   4.472
 9565SOL    HW129594   4.076   6.042   4.560
 9565SOL    HW229595   4.209   6.102   4.487
 9566SOL     OW29596   3.264   4.904   5.100
 9566SOL    HW129597   3.233   4.834   5.165
 9566SOL    HW229598   3.214   4.894   5.014
 9567SOL     OW29599   6.229   5.979   5.662
 9567SOL    HW129600   6.157   6.048   5.654
 9567SOL    HW229601   6.191   5.897   5.705
 9568SOL     OW29602   5.414   3.722   6.553
 9568SOL    HW129603   5.325   3.676   6.546
 9568SOL    HW229604   5.419   3.773   6.639
 9569SOL     OW29605   6.058   0.384   1.684
 9569SOL    HW129606   6.144   0.405   1.639
 9569SOL    HW229607   5.992   0.351   1.617
 9570SOL     OW29608   0.742   0.281   6.509
 9570SOL    HW129609   0.794   0.265   6.594
 9570SOL    HW229610   0.723   0.193   6.466
 9571SOL     OW29611   2.225   3.230   6.635
 9571SOL    HW129612   2.270   3.166   6.573
 9571SOL    HW229613   2.139   3.191   6.667
 9572SOL     OW29614   0.581   4.128   0.866
 9572SOL    HW129615   0.501   4.154   0.811
 9572SOL    HW229616   0.553   4.114   0.961
 9573SOL     OW29617   6.332   1.996   1.734
 9573SOL    HW129618   6.336   2.092   1.705
 9573SOL    HW229619   6.421   1.969   1.771
 9574SOL     OW29620   2.310   2.013   4.582
 9574SOL    HW129621   2.211   2.010   4.595
 9574SOL    HW229622   2.332   2.068   4.501
 9575SOL     OW29623   4.808   0.727   2.265
 9575SOL    HW129624   4.751   0.657   2.221
 9575SOL    HW229625   4.802   0.716   2.364
 9576SOL     OW29626   3.897   1.550   4.824
 9576SOL    HW129627   3.993   1.540   4.797
 9576SOL    HW229628   3.890   1.542   4.924
 9577SOL     OW29629   0.343   6.196   3.101
 9577SOL    HW129630   0.398   6.266   3.146
 9577SOL    HW229631   0.375   6.106   3.129
 9578SOL     OW29632   5.878   3.546   2.080
 9578SOL    HW129633   5.802   3.550   2.144
 9578SOL    HW229634   5.919   3.636   2.071
 9579SOL     OW29635   1.222   6.397   2.914
 9579SOL    HW129636   1.256   6.471   2.974
 9579SOL    HW229637   1.287   6.321   2.916
 9580SOL     OW29638   4.284   3.892   6.443
 9580SOL    HW129639   4.219   3.823   6.477
 9580SOL    HW229640   4.233   3.967   6.401
 9581SOL     OW29641   1.586   5.495   6.103
 9581SOL    HW129642   1.682   5.511   6.127
 9581SOL    HW229643   1.550   5.419   6.157
 9582SOL     OW29644   4.706   4.679   4.390
 9582SOL    HW129645   4.680   4.671   4.486
 9582SOL    HW229646   4.798   4.717   4.383
 9583SOL     OW29647   2.518   4.537   1.823
 9583SOL    HW129648   2.511   4.601   1.746
 9583SOL    HW229649   2.490   4.583   1.907
 9584SOL     OW29650   5.321   5.605   6.833
 9584SOL    HW129651   5.399   5.570   6.884
 9584SOL    HW229652   5.309   5.554   6.749
 9585SOL     OW29653   0.209   6.978   3.728
 9585SOL    HW129654   0.262   6.904   3.686
 9585SOL    HW229655   0.115   6.976   3.694
 9586SOL     OW29656   5.155   3.081   2.487
 9586SOL    HW129657   5.182   2.990   2.457
 9586SOL    HW229658   5.092   3.074   2.565
 9587SOL     OW29659   4.628   6.678   2.573
 9587SOL    HW129660   4.576   6.759   2.546
 9587SOL    HW229661   4.708   6.668   2.514
 9588SOL     OW29662   6.900   0.552   3.053
 9588SOL    HW129663   6.986   0.585   3.091
 9588SOL    HW229664   6.848   0.504   3.125
 9589SOL     OW29665   2.230   1.773   5.842
 9589SOL    HW129666   2.219   1.804   5.937
 9589SOL    HW229667   2.323   1.793   5.811
 9590SOL     OW29668   0.134   4.371   4.545
 9590SOL    HW129669   0.192   4.375   4.626
 9590SOL    HW229670   0.191   4.372   4.462
 9591SOL     OW29671   1.502   4.469   2.414
 9591SOL    HW129672   1.489   4.374   2.442
 9591SOL    HW229673   1.422   4.499   2.362
 9592SOL     OW29674   5.141   5.459   2.113
 9592SOL    HW129675   5.175   5.367   2.099
 9592SOL    HW229676   5.149   5.512   2.028
 9593SOL     OW29677   1.899   2.975   4.340
 9593SOL    HW129678   1.951   2.896   4.371
 9593SOL    HW229679   1.948   3.019   4.264
 9594SOL     OW29680   6.161   6.563   1.821
 9594SOL    HW129681   6.091   6.593   1.757
 9594SOL    HW229682   6.192   6.641   1.876
 9595SOL     OW29683   1.080   4.168   4.442
 9595SOL    HW129684   1.001   4.221   4.474
 9595SOL    HW229685   1.164   4.217   4.464
 9596SOL     OW29686   5.008   5.515   2.646
 9596SOL    HW129687   5.065   5.432   2.649
 9596SOL    HW229688   4.954   5.516   2.563
 9597SOL     OW29689   1.678   4.116   1.027
 9597SOL    HW129690   1.641   4.200   1.065
 9597SOL    HW229691   1.772   4.130   0.999
 9598SOL     OW29692   1.062   5.676   5.590
 9598SOL    HW129693   1.136   5.742   5.574
 9598SOL    HW229694   1.048   5.622   5.507
 9599SOL     OW29695   4.739   1.484   4.059
 9599SOL    HW129696   4.709   1.468   3.965
 9599SOL    HW229697   4.828   1.530   4.057
 9600SOL     OW29698   1.434   6.171   6.930
 9600SOL    HW129699   1.423   6.117   7.014
 9600SOL    HW229700   1.511   6.134   6.877
 9601SOL     OW29701   0.813   5.834   6.041
 9601SOL    HW129702   0.766   5.765   5.984
 9601SOL    HW229703   0.844   5.909   5.982
 9602SOL     OW29704   1.037   5.949   0.304
 9602SOL    HW129705   0.956   5.890   0.302
 9602SOL    HW229706   1.043   6.000   0.218
 9603SOL     OW29707   1.095   4.759   3.744
 9603SOL    HW129708   1.186   4.720   3.755
 9603SOL    HW229709   1.102   4.859   3.741
 9604SOL     OW29710   6.771   0.182   0.296
 9604SOL    HW129711   6.686   0.147   0.256
 9604SOL    HW229712   6.762   0.187   0.396
 9605SOL     OW29713   2.388   5.680   0.102
 9605SOL    HW129714   2.431   5.688   0.012
 9605SOL    HW229715   2.296   5.642   0.091
 9606SOL     OW29716   6.136   0.267   5.114
 9606SOL    HW129717   6.191   0.280   5.196
 9606SOL    HW229718   6.190   0.219   5.045
 9607SOL     OW29719   0.530   2.757   2.606
 9607SOL    HW129720   0.628   2.777   2.615
 9607SOL    HW229721   0.492   2.733   2.695
 9608SOL     OW29722   6.497   0.491   3.040
 9608SOL    HW129723   6.544   0.403   3.027
 9608SOL    HW229724   6.444   0.488   3.124
 9609SOL     OW29725   1.634   2.421   3.102
 9609SOL    HW129726   1.588   2.453   3.019
 9609SOL    HW229727   1.725   2.462   3.108
 9610SOL     OW29728   3.269   2.195   6.291
 9610SOL    HW129729   3.324   2.276   6.271
 9610SOL    HW229730   3.262   2.139   6.209
 9611SOL     OW29731   6.236   6.036   1.043
 9611SOL    HW129732   6.260   5.955   0.990
 9611SOL    HW229733   6.311   6.059   1.105
 9612SOL     OW29734   4.946   3.767   2.896
 9612SOL    HW129735   4.987   3.793   2.808
 9612SOL    HW229736   4.881   3.838   2.925
 9613SOL     OW29737   5.925   6.702   5.758
 9613SOL    HW129738   5.863   6.743   5.692
 9613SOL    HW229739   5.883   6.704   5.849
 9614SOL     OW29740   3.431   2.934   1.793
 9614SOL    HW129741   3.392   2.973   1.709
 9614SOL    HW229742   3.433   3.003   1.864
 9615SOL     OW29743   0.377   6.468   3.509
 9615SOL    HW129744   0.470   6.503   3.510
 9615SOL    HW229745   0.375   6.374   3.542
 9616SOL     OW29746   1.981   3.247   1.376
 9616SOL    HW129747   1.938   3.191   1.447
 9616SOL    HW229748   2.071   3.278   1.408
 9617SOL     OW29749   0.890   3.462   2.531
 9617SOL    HW129750   0.963   3.394   2.529
 9617SOL    HW229751   0.922   3.543   2.581
 9618SOL     OW29752   3.988   5.011   0.726
 9618SOL    HW129753   3.967   4.928   0.675
 9618SOL    HW229754   3.962   4.999   0.822
 9619SOL     OW29755   1.926   6.969   0.958
 9619SOL    HW129756   1.880   6.885   0.931
 9619SOL    HW229757   2.001   6.947   1.021
 9620SOL     OW29758   3.875   1.900   7.006
 9620SOL    HW129759   3.786   1.913   6.963
 9620SOL    HW229760   3.935   1.851   6.942
 9621SOL     OW29761   0.873   2.262   2.148
 9621SOL    HW129762   0.847   2.229   2.239
 9621SOL    HW229763   0.827   2.350   2.131
 9622SOL     OW29764   0.159   5.905   5.849
 9622SOL    HW129765   0.085   5.972   5.840
 9622SOL    HW229766   0.169   5.880   5.946
 9623SOL     OW29767   4.570   6.983   6.135
 9623SOL    HW129768   4.539   6.975   6.229
 9623SOL    HW229769   4.643   6.917   6.118
 9624SOL     OW29770   4.820   5.247   5.161
 9624SOL    HW129771   4.795   5.340   5.191
 9624SOL    HW229772   4.759   5.181   5.205
 9625SOL     OW29773   5.001   3.979   5.932
 9625SOL    HW129774   5.077   3.978   5.867
 9625SOL    HW229775   5.015   3.908   6.001
 9626SOL     OW29776   2.151   2.139   6.575
 9626SOL    HW129777   2.147   2.218   6.513
 9626SOL    HW229778   2.241   2.096   6.568
 9627SOL     OW29779   0.368   5.102   0.277
 9627SOL    HW129780   0.340   5.134   0.368
 9627SOL    HW229781   0.384   5.180   0.218
 9628SOL     OW29782   6.142   1.115   6.395
 9628SOL    HW129783   6.189   1.120   6.307
 9628SOL    HW229784   6.098   1.202   6.415
 9629SOL     OW29785   0.315   5.461   3.866
 9629SOL    HW129786   0.413   5.440   3.860
 9629SOL    HW229787   0.294   5.498   3.956
 9630SOL     OW29788   5.956   0.605   5.286
 9630SOL    HW129789   5.952   0.664   5.367
 9630SOL    HW229790   6.016   0.647   5.218
 9631SOL     OW29791   3.572   6.598   0.635
 9631SOL    HW129792   3.638   6.552   0.695
 9631SOL    HW229793   3.581   6.697   0.646
 9632SOL     OW29794   3.485   5.519   2.413
 9632SOL    HW129795   3.458   5.423   2.411
 9632SOL    HW229796   3.565   5.534   2.355
 9633SOL     OW29797   3.719   3.388   3.058
 9633SOL    HW129798   3.727   3.370   2.960
 9633SOL    HW229799   3.644   3.334   3.096
 9634SOL     OW29800   5.729   4.851   3.257
 9634SOL    HW129801   5.826   4.829   3.241
 9634SOL    HW229802   5.723   4.938   3.306
 9635SOL     OW29803   1.210   5.264   3.892
 9635SOL    HW129804   1.302   5.252   3.855
 9635SOL    HW229805   1.186   5.361   3.889
 9636SOL     OW29806   5.147   3.790   4.087
 9636SOL    HW129807   5.154   3.882   4.048
 9636SOL    HW229808   5.056   3.753   4.070
 9637SOL     OW29809   1.672   3.067   0.179
 9637SOL    HW129810   1.676   3.104   0.087
 9637SOL    HW229811   1.726   3.123   0.241
 9638SOL     OW29812   5.600   5.795   5.670
 9638SOL    HW129813   5.502   5.797   5.649
 9638SOL    HW229814   5.645   5.727   5.613
 9639SOL     OW29815   4.380   1.588   1.721
 9639SOL    HW129816   4.417   1.648   1.650
 9639SOL    HW229817   4.430   1.604   1.806
 9640SOL     OW29818   4.483   0.324   3.320
 9640SOL    HW129819   4.399   0.348   3.369
 9640SOL    HW229820   4.501   0.393   3.251
 9641SOL     OW29821   6.525   3.634   3.376
 9641SOL    HW129822   6.441   3.626   3.429
 9641SOL    HW229823   6.603   3.612   3.434
 9642SOL     OW29824   1.175   0.397   4.417
 9642SOL    HW129825   1.089   0.426   4.374
 9642SOL    HW229826   1.159   0.311   4.466
 9643SOL     OW29827   4.978   5.198   4.372
 9643SOL    HW129828   4.933   5.270   4.424
 9643SOL    HW229829   5.071   5.226   4.348
 9644SOL     OW29830   1.511   5.608   4.109
 9644SOL    HW129831   1.591   5.668   4.109
 9644SOL    HW229832   1.491   5.577   4.202
 9645SOL     OW29833   0.748   4.738   6.373
 9645SOL    HW129834   0.810   4.662   6.391
 9645SOL    HW229835   0.715   4.732   6.278
 9646SOL     OW29836   4.580   5.359   6.476
 9646SOL    HW129837   4.597   5.294   6.550
 9646SOL    HW229838   4.481   5.374   6.467
 9647SOL     OW29839   6.347   6.519   3.572
 9647SOL    HW129840   6.266   6.556   3.617
 9647SOL    HW229841   6.386   6.447   3.629
 9648SOL     OW29842   4.304   2.086   0.849
 9648SOL    HW129843   4.220   2.134   0.824
 9648SOL    HW229844   4.373   2.153   0.876
 9649SOL     OW29845   0.988   5.559   0.024
 9649SOL    HW129846   0.936   5.476   0.009
 9649SOL    HW229847   1.072   5.556   6.997
 9650SOL     OW29848   0.292   4.639   4.413
 9650SOL    HW129849   0.323   4.705   4.344
 9650SOL    HW229850   0.193   4.633   4.411
 9651SOL     OW29851   4.080   1.609   0.366
 9651SOL    HW129852   4.133   1.641   0.444
 9651SOL    HW229853   4.049   1.687   0.312
 9652SOL     OW29854   0.386   4.173   0.663
 9652SOL    HW129855   0.394   4.088   0.610
 9652SOL    HW229856   0.300   4.218   0.639
 9653SOL     OW29857   4.733   4.095   6.158
 9653SOL    HW129858   4.702   4.054   6.072
 9653SOL    HW229859   4.806   4.161   6.139
 9654SOL     OW29860   3.413   3.610   3.011
 9654SOL    HW129861   3.424   3.696   3.061
 9654SOL    HW229862   3.418   3.533   3.075
 9655SOL     OW29863   4.362   1.158   1.024
 9655SOL    HW129864   4.329   1.231   1.083
 9655SOL    HW229865   4.355   1.187   0.928
 9656SOL     OW29866   5.856   3.929   0.001
 9656SOL    HW129867   5.811   3.965   6.945
 9656SOL    HW229868   5.799   3.857   0.040
 9657SOL     OW29869   5.692   3.972   4.066
 9657SOL    HW129870   5.753   4.016   4.001
 9657SOL    HW229871   5.727   3.985   4.159
 9658SOL     OW29872   4.687   1.887   2.230
 9658SOL    HW129873   4.696   1.950   2.307
 9658SOL    HW229874   4.701   1.793   2.262
 9659SOL     OW29875   2.567   3.022   6.520
 9659SOL    HW129876   2.619   2.944   6.484
 9659SOL    HW229877   2.506   2.991   6.593
 9660SOL     OW29878   1.403   6.381   2.059
 9660SOL    HW129879   1.403   6.452   1.989
 9660SOL    HW229880   1.463   6.307   2.032
 9661SOL     OW29881   4.441   3.746   0.828
 9661SOL    HW129882   4.538   3.739   0.850
 9661SOL    HW229883   4.402   3.825   0.875
 9662SOL     OW29884   5.585   5.622   5.995
 9662SOL    HW129885   5.536   5.698   5.953
 9662SOL    HW229886   5.662   5.656   6.048
 9663SOL     OW29887   0.766   5.305   2.277
 9663SOL    HW129888   0.806   5.393   2.300
 9663SOL    HW229889   0.806   5.234   2.335
 9664SOL     OW29890   4.805   4.679   2.292
 9664SOL    HW129891   4.904   4.678   2.275
 9664SOL    HW229892   4.757   4.692   2.206
 9665SOL     OW29893   6.882   5.816   6.324
 9665SOL    HW129894   6.789   5.783   6.309
 9665SOL    HW229895   6.882   5.886   6.395
 9666SOL     OW29896   5.783   4.027   6.757
 9666SOL    HW129897   5.751   3.974   6.678
 9666SOL    HW229898   5.881   4.044   6.749
 9667SOL     OW29899   5.894   6.199   6.386
 9667SOL    HW129900   5.876   6.289   6.345
 9667SOL    HW229901   5.807   6.151   6.397
 9668SOL     OW29902   0.909   0.725   6.174
 9668SOL    HW129903   0.844   0.651   6.155
 9668SOL    HW229904   1.002   0.690   6.166
 9669SOL     OW29905   3.566   0.287   0.106
 9669SOL    HW129906   3.496   0.356   0.125
 9669SOL    HW229907   3.656   0.324   0.130
 9670SOL     OW29908   7.010   0.038   0.277
 9670SOL    HW129909   6.989   7.019   0.191
 9670SOL    HW229910   6.932   0.094   0.304
 9671SOL     OW29911   1.472   5.189   6.499
 9671SOL    HW129912   1.457   5.258   6.570
 9671SOL    HW229913   1.400   5.119   6.505
 9672SOL     OW29914   1.133   3.477   3.938
 9672SOL    HW129915   1.057   3.413   3.949
 9672SOL    HW229916   1.217   3.426   3.920
 9673SOL     OW29917   2.205   3.380   0.137
 9673SOL    HW129918   2.112   3.412   0.120
 9673SOL    HW229919   2.270   3.453   0.116
 9674SOL     OW29920   2.613   6.141   4.085
 9674SOL    HW129921   2.678   6.204   4.041
 9674SOL    HW229922   2.664   6.069   4.132
 9675SOL     OW29923   6.034   3.386   6.457
 9675SOL    HW129924   6.062   3.298   6.496
 9675SOL    HW229925   5.938   3.404   6.482
 9676SOL     OW29926   0.906   2.546   0.180
 9676SOL    HW129927   0.965   2.616   0.221
 9676SOL    HW229928   0.865   2.582   0.097
 9677SOL     OW29929   6.929   5.597   1.736
 9677SOL    HW129930   7.027   5.578   1.736
 9677SOL    HW229931   6.879   5.516   1.767
 9678SOL     OW29932   3.357   3.366   5.378
 9678SOL    HW129933   3.386   3.461   5.384
 9678SOL    HW229934   3.259   3.359   5.398
 9679SOL     OW29935   1.789   1.502   4.315
 9679SOL    HW129936   1.789   1.402   4.306
 9679SOL    HW229937   1.861   1.530   4.378
 9680SOL     OW29938   4.892   6.442   2.180
 9680SOL    HW129939   4.985   6.461   2.149
 9680SOL    HW229940   4.886   6.348   2.215
 9681SOL     OW29941   1.184   1.760   1.792
 9681SOL    HW129942   1.225   1.705   1.865
 9681SOL    HW229943   1.104   1.808   1.827
 9682SOL     OW29944   5.003   6.093   5.624
 9682SOL    HW129945   4.912   6.083   5.585
 9682SOL    HW229946   5.030   6.189   5.622
 9683SOL     OW29947   3.029   6.186   2.860
 9683SOL    HW129948   2.973   6.131   2.799
 9683SOL    HW229949   3.124   6.155   2.857
 9684SOL     OW29950   6.938   3.439   5.611
 9684SOL    HW129951   6.978   3.526   5.585
 9684SOL    HW229952   7.006   3.366   5.600
 9685SOL     OW29953   3.731   4.013   1.202
 9685SOL    HW129954   3.702   4.101   1.239
 9685SOL    HW229955   3.711   3.941   1.269
 9686SOL     OW29956   6.238   1.686   5.130
 9686SOL    HW129957   6.162   1.658   5.070
 9686SOL    HW229958   6.201   1.734   5.210
 9687SOL     OW29959   5.788   1.197   3.034
 9687SOL    HW129960   5.837   1.127   2.982
 9687SOL    HW229961   5.830   1.286   3.018
 9688SOL     OW29962   1.068   4.776   1.294
 9688SOL    HW129963   1.053   4.689   1.341
 9688SOL    HW229964   1.160   4.808   1.314
 9689SOL     OW29965   2.275   6.163   0.919
 9689SOL    HW129966   2.268   6.168   0.820
 9689SOL    HW229967   2.371   6.165   0.946
 9690SOL     OW29968   6.703   4.842   4.909
 9690SOL    HW129969   6.796   4.828   4.943
 9690SOL    HW229970   6.637   4.807   4.976
 9691SOL     OW29971   2.793   3.735   1.796
 9691SOL    HW129972   2.818   3.794   1.720
 9691SOL    HW229973   2.858   3.749   1.871
 9692SOL     OW29974   5.095   4.278   0.870
 9692SOL    HW129975   5.075   4.365   0.915
 9692SOL    HW229976   5.149   4.296   0.788
 9693SOL     OW29977   4.945   2.919   5.234
 9693SOL    HW129978   5.018   2.961   5.179
 9693SOL    HW229979   4.927   2.975   5.315
 9694SOL     OW29980   2.622   0.351   1.935
 9694SOL    HW129981   2.619   0.365   1.836
 9694SOL    HW229982   2.706   0.303   1.959
 9695SOL     OW29983   0.848   2.878   3.018
 9695SOL    HW129984   0.777   2.929   2.968
 9695SOL    HW229985   0.865   2.923   3.105
 9696SOL     OW29986   4.779   2.793   3.659
 9696SOL    HW129987   4.853   2.791   3.726
 9696SOL    HW229988   4.786   2.876   3.604
 9697SOL     OW29989   0.435   6.834   0.996
 9697SOL    HW129990   0.434   6.805   0.900
 9697SOL    HW229991   0.429   6.754   1.055
 9698SOL     OW29992   6.367   3.576   1.492
 9698SOL    HW129993   6.305   3.643   1.450
 9698SOL    HW229994   6.327   3.541   1.577
 9699SOL     OW29995   1.268   6.204   0.538
 9699SOL    HW129996   1.248   6.237   0.630
 9699SOL    HW229997   1.314   6.116   0.544
 9700SOL     OW29998   5.465   0.364   5.327
 9700SOL    HW129999   5.477   0.430   5.253
 9700SOL    HW230000   5.533   0.381   5.398
 9701SOL     OW30001   4.110   4.187   6.741
 9701SOL    HW130002   4.198   4.139   6.737
 9701SOL    HW230003   4.124   4.282   6.713
 9702SOL     OW30004   3.595   3.506   1.877
 9702SOL    HW130005   3.642   3.420   1.853
 9702SOL    HW230006   3.498   3.487   1.893
 9703SOL     OW30007   6.439   4.527   4.490
 9703SOL    HW130008   6.402   4.492   4.576
 9703SOL    HW230009   6.510   4.465   4.456
 9704SOL     OW30010   1.374   3.908   2.770
 9704SOL    HW130011   1.417   3.836   2.716
 9704SOL    HW230012   1.352   3.874   2.861
 9705SOL     OW30013   6.303   3.218   5.578
 9705SOL    HW130014   6.256   3.284   5.519
 9705SOL    HW230015   6.235   3.159   5.622
 9706SOL     OW30016   0.480   1.406   2.558
 9706SOL    HW130017   0.565   1.355   2.565
 9706SOL    HW230018   0.447   1.405   2.463
 9707SOL     OW30019   1.368   5.059   2.218
 9707SOL    HW130020   1.275   5.068   2.254
 9707SOL    HW230021   1.434   5.072   2.293
 9708SOL     OW30022   2.534   0.829   1.530
 9708SOL    HW130023   2.613   0.890   1.524
 9708SOL    HW230024   2.544   0.755   1.464
 9709SOL     OW30025   5.723   2.182   1.600
 9709SOL    HW130026   5.634   2.137   1.602
 9709SOL    HW230027   5.721   2.258   1.534
 9710SOL     OW30028   6.739   5.577   4.079
 9710SOL    HW130029   6.734   5.675   4.058
 9710SOL    HW230030   6.808   5.534   4.021
 9711SOL     OW30031   3.518   0.786   0.734
 9711SOL    HW130032   3.431   0.834   0.743
 9711SOL    HW230033   3.545   0.749   0.822
 9712SOL     OW30034   5.414   1.651   6.606
 9712SOL    HW130035   5.504   1.627   6.641
 9712SOL    HW230036   5.407   1.750   6.596
 9713SOL     OW30037   0.961   6.491   2.967
 9713SOL    HW130038   0.994   6.570   3.019
 9713SOL    HW230039   1.039   6.444   2.925
 9714SOL     OW30040   2.449   4.462   4.286
 9714SOL    HW130041   2.399   4.465   4.373
 9714SOL    HW230042   2.387   4.489   4.212
 9715SOL     OW30043   6.918   3.435   0.114
 9715SOL    HW130044   6.978   3.401   0.042
 9715SOL    HW230045   6.952   3.407   0.203
 9716SOL     OW30046   2.125   5.216   0.184
 9716SOL    HW130047   2.057   5.145   0.162
 9716SOL    HW230048   2.214   5.188   0.149
 9717SOL     OW30049   4.180   2.310   5.562
 9717SOL    HW130050   4.132   2.397   5.570
 9717SOL    HW230051   4.158   2.251   5.640
 9718SOL     OW30052   3.843   2.688   6.286
 9718SOL    HW130053   3.903   2.724   6.215
 9718SOL    HW230054   3.898   2.648   6.359
 9719SOL     OW30055   4.787   0.068   5.840
 9719SOL    HW130056   4.788   0.114   5.929
 9719SOL    HW230057   4.876   0.080   5.796
 9720SOL     OW30058   2.230   3.085   3.209
 9720SOL    HW130059   2.256   3.037   3.126
 9720SOL    HW230060   2.189   3.173   3.186
 9721SOL     OW30061   0.650   1.128   0.355
 9721SOL    HW130062   0.596   1.204   0.321
 9721SOL    HW230063   0.743   1.135   0.320
 9722SOL     OW30064   3.945   2.691   5.316
 9722SOL    HW130065   4.016   2.657   5.254
 9722SOL    HW230066   3.942   2.791   5.310
 9723SOL     OW30067   6.408   0.014   4.939
 9723SOL    HW130068   6.451   0.010   4.849
 9723SOL    HW230069   6.450   0.086   4.993
 9724SOL     OW30070   1.595   5.595   0.161
 9724SOL    HW130071   1.508   5.636   0.135
 9724SOL    HW230072   1.651   5.581   0.080
 9725SOL     OW30073   4.152   5.203   4.543
 9725SOL    HW130074   4.168   5.232   4.448
 9725SOL    HW230075   4.076   5.256   4.581
 9726SOL     OW30076   7.016   1.194   3.704
 9726SOL    HW130077   6.927   1.162   3.738
 9726SOL    HW230078   0.049   1.212   3.781
 9727SOL     OW30079   0.493   1.327   1.106
 9727SOL    HW130080   0.529   1.234   1.114
 9727SOL    HW230081   0.419   1.340   1.172
 9728SOL     OW30082   4.972   1.738   4.662
 9728SOL    HW130083   4.938   1.644   4.672
 9728SOL    HW230084   4.923   1.798   4.726
 9729SOL     OW30085   0.541   4.881   2.761
 9729SOL    HW130086   0.524   4.980   2.759
 9729SOL    HW230087   0.583   4.853   2.675
 9730SOL     OW30088   1.120   3.957   3.459
 9730SOL    HW130089   1.070   4.015   3.394
 9730SOL    HW230090   1.072   3.955   3.546
 9731SOL     OW30091   5.396   3.469   1.813
 9731SOL    HW130092   5.342   3.548   1.841
 9731SOL    HW230093   5.458   3.443   1.886
 9732SOL     OW30094   1.653   3.414   3.239
 9732SOL    HW130095   1.670   3.315   3.246
 9732SOL    HW230096   1.736   3.464   3.262
 9733SOL     OW30097   5.916   4.852   2.118
 9733SOL    HW130098   5.941   4.819   2.209
 9733SOL    HW230099   5.954   4.790   2.049
 9734SOL     OW30100   5.050   5.821   6.567
 9734SOL    HW130101   5.002   5.892   6.516
 9734SOL    HW230102   5.149   5.830   6.553
 9735SOL     OW30103   0.719   2.489   1.042
 9735SOL    HW130104   0.736   2.551   1.118
 9735SOL    HW230105   0.796   2.426   1.032
 9736SOL     OW30106   5.012   1.474   4.468
 9736SOL    HW130107   4.913   1.464   4.459
 9736SOL    HW230108   5.041   1.442   4.558
 9737SOL     OW30109   5.931   3.191   2.767
 9737SOL    HW130110   5.872   3.172   2.689
 9737SOL    HW230111   6.001   3.258   2.742
 9738SOL     OW30112   2.718   6.591   1.741
 9738SOL    HW130113   2.629   6.635   1.733
 9738SOL    HW230114   2.788   6.649   1.699
 9739SOL     OW30115   5.920   6.789   6.982
 9739SOL    HW130116   6.015   6.808   6.957
 9739SOL    HW230117   5.910   6.691   7.000
 9740SOL     OW30118   6.089   0.603   3.264
 9740SOL    HW130119   6.012   0.586   3.325
 9740SOL    HW230120   6.059   0.595   3.169
 9741SOL     OW30121   2.441   1.775   4.532
 9741SOL    HW130122   2.457   1.712   4.607
 9741SOL    HW230123   2.399   1.859   4.567
 9742SOL     OW30124   3.913   2.148   6.204
 9742SOL    HW130125   3.914   2.085   6.282
 9742SOL    HW230126   3.857   2.228   6.226
 9743SOL     OW30127   5.373   3.536   4.622
 9743SOL    HW130128   5.353   3.467   4.553
 9743SOL    HW230129   5.457   3.512   4.670
 9744SOL     OW30130   1.592   1.490   3.236
 9744SOL    HW130131   1.573   1.401   3.278
 9744SOL    HW230132   1.691   1.503   3.228
 9745SOL     OW30133   0.039   0.541   5.952
 9745SOL    HW130134   0.072   0.635   5.945
 9745SOL    HW230135   0.114   0.481   5.976
 9746SOL     OW30136   4.258   5.271   6.083
 9746SOL    HW130137   4.326   5.345   6.085
 9746SOL    HW230138   4.206   5.276   5.997
 9747SOL     OW30139   2.178   1.457   3.058
 9747SOL    HW130140   2.192   1.549   3.023
 9747SOL    HW230141   2.219   1.449   3.149
 9748SOL     OW30142   1.017   0.736   3.495
 9748SOL    HW130143   1.098   0.684   3.469
 9748SOL    HW230144   1.045   0.822   3.539
 9749SOL     OW30145   6.932   0.705   1.956
 9749SOL    HW130146   7.022   0.703   1.999
 9749SOL    HW230147   6.894   0.612   1.955
 9750SOL     OW30148   6.164   3.141   4.039
 9750SOL    HW130149   6.202   3.186   3.958
 9750SOL    HW230150   6.144   3.045   4.017
 9751SOL     OW30151   3.420   6.971   1.544
 9751SOL    HW130152   3.339   6.983   1.487
 9751SOL    HW230153   3.392   6.967   1.640
 9752SOL     OW30154   3.151   3.381   6.741
 9752SOL    HW130155   3.108   3.296   6.709
 9752SOL    HW230156   3.081   3.441   6.780
 9753SOL     OW30157   6.804   6.273   5.083
 9753SOL    HW130158   6.794   6.362   5.038
 9753SOL    HW230159   6.713   6.233   5.099
 9754SOL     OW30160   3.178   0.852   1.691
 9754SOL    HW130161   3.168   0.757   1.723
 9754SOL    HW230162   3.261   0.892   1.728
 9755SOL     OW30163   2.656   4.302   0.509
 9755SOL    HW130164   2.706   4.314   0.424
 9755SOL    HW230165   2.604   4.216   0.506
 9756SOL     OW30166   5.500   0.150   5.717
 9756SOL    HW130167   5.561   0.126   5.641
 9756SOL    HW230168   5.503   0.249   5.732
 9757SOL     OW30169   5.310   4.373   4.154
 9757SOL    HW130170   5.337   4.430   4.077
 9757SOL    HW230171   5.391   4.343   4.204
 9758SOL     OW30172   2.249   0.410   1.952
 9758SOL    HW130173   2.215   0.462   2.030
 9758SOL    HW230174   2.180   0.411   1.879
 9759SOL     OW30175   6.883   0.965   1.465
 9759SOL    HW130176   6.844   0.983   1.375
 9759SOL    HW230177   6.810   0.958   1.533
 9760SOL     OW30178   5.050   1.102   6.940
 9760SOL    HW130179   5.011   1.148   6.860
 9760SOL    HW230180   4.976   1.057   6.991
 9761SOL     OW30181   1.282   2.013   0.675
 9761SOL    HW130182   1.188   2.048   0.675
 9761SOL    HW230183   1.344   2.086   0.705
 9762SOL     OW30184   2.593   2.054   5.799
 9762SOL    HW130185   2.496   2.034   5.813
 9762SOL    HW230186   2.613   2.056   5.702
 9763SOL     OW30187   6.353   1.110   0.984
 9763SOL    HW130188   6.369   1.070   1.074
 9763SOL    HW230189   6.256   1.103   0.961
 9764SOL     OW30190   0.077   2.250   2.667
 9764SOL    HW130191   0.070   2.208   2.758
 9764SOL    HW230192   0.171   2.281   2.653
 9765SOL     OW30193   0.114   0.454   2.121
 9765SOL    HW130194   0.122   0.548   2.088
 9765SOL    HW230195   0.073   0.454   2.212
 9766SOL     OW30196   2.138   1.959   4.205
 9766SOL    HW130197   2.127   1.914   4.294
 9766SOL    HW230198   2.056   2.013   4.185
 9767SOL     OW30199   2.293   2.434   5.605
 9767SOL    HW130200   2.261   2.522   5.640
 9767SOL    HW230201   2.378   2.409   5.651
 9768SOL     OW30202   5.611   3.107   0.839
 9768SOL    HW130203   5.552   3.079   0.763
 9768SOL    HW230204   5.662   3.189   0.813
 9769SOL     OW30205   3.554   1.663   5.315
 9769SOL    HW130206   3.605   1.718   5.380
 9769SOL    HW230207   3.492   1.721   5.263
 9770SOL     OW30208   2.514   2.669   6.535
 9770SOL    HW130209   2.586   2.606   6.508
 9770SOL    HW230210   2.516   2.749   6.476
 9771SOL     OW30211   2.762   0.113   2.314
 9771SOL    HW130212   2.762   0.028   2.367
 9771SOL    HW230213   2.855   0.149   2.309
 9772SOL     OW30214   1.502   0.347   1.050
 9772SOL    HW130215   1.473   0.440   1.027
 9772SOL    HW230216   1.508   0.292   0.967
 9773SOL     OW30217   5.383   4.772   1.968
 9773SOL    HW130218   5.405   4.801   2.061
 9773SOL    HW230219   5.458   4.717   1.931
 9774SOL     OW30220   1.010   4.829   5.218
 9774SOL    HW130221   0.969   4.910   5.177
 9774SOL    HW230222   0.960   4.805   5.301
 9775SOL     OW30223   2.511   1.156   3.584
 9775SOL    HW130224   2.551   1.213   3.512
 9775SOL    HW230225   2.415   1.137   3.563
 9776SOL     OW30226   2.286   5.286   0.440
 9776SOL    HW130227   2.230   5.251   0.365
 9776SOL    HW230228   2.350   5.355   0.404
 9777SOL     OW30229   4.317   0.976   5.827
 9777SOL    HW130230   4.300   1.069   5.859
 9777SOL    HW230231   4.354   0.979   5.734
 9778SOL     OW30232   0.049   3.826   3.955
 9778SOL    HW130233   0.137   3.798   3.916
 9778SOL    HW230234   7.002   3.781   3.905
 9779SOL     OW30235   2.095   1.100   3.867
 9779SOL    HW130236   2.178   1.125   3.819
 9779SOL    HW230237   2.035   1.047   3.807
 9780SOL     OW30238   0.947   2.577   2.020
 9780SOL    HW130239   0.865   2.583   2.077
 9780SOL    HW230240   1.018   2.637   2.057
 9781SOL     OW30241   2.244   2.489   3.260
 9781SOL    HW130242   2.301   2.439   3.195
 9781SOL    HW230243   2.223   2.429   3.337
 9782SOL     OW30244   6.729   2.528   0.888
 9782SOL    HW130245   6.689   2.602   0.943
 9782SOL    HW230246   6.773   2.461   0.948
 9783SOL     OW30247   3.511   0.805   3.012
 9783SOL    HW130248   3.569   0.737   3.057
 9783SOL    HW230249   3.496   0.779   2.917
 9784SOL     OW30250   1.263   1.136   6.477
 9784SOL    HW130251   1.215   1.219   6.506
 9784SOL    HW230252   1.208   1.056   6.497
 9785SOL     OW30253   7.025   3.288   4.927
 9785SOL    HW130254   6.926   3.298   4.913
 9785SOL    HW230255   0.016   3.205   4.979
 9786SOL     OW30256   2.086   3.943   0.207
 9786SOL    HW130257   2.047   3.855   0.180
 9786SOL    HW230258   2.126   3.935   0.298
 9787SOL     OW30259   2.974   3.709   3.373
 9787SOL    HW130260   3.048   3.697   3.307
 9787SOL    HW230261   2.892   3.743   3.326
 9788SOL     OW30262   4.495   0.282   2.247
 9788SOL    HW130263   4.462   0.297   2.340
 9788SOL    HW230264   4.568   0.214   2.247
 9789SOL     OW30265   4.031   1.736   6.841
 9789SOL    HW130266   3.959   1.668   6.826
 9789SOL    HW230267   4.105   1.696   6.896
 9790SOL     OW30268   0.368   4.866   3.976
 9790SOL    HW130269   0.284   4.814   3.958
 9790SOL    HW230270   0.381   4.934   3.904
 9791SOL     OW30271   0.891   6.454   0.916
 9791SOL    HW130272   0.928   6.520   0.850
 9791SOL    HW230273   0.826   6.500   0.977
 9792SOL     OW30274   4.011   6.483   0.716
 9792SOL    HW130275   3.996   6.408   0.780
 9792SOL    HW230276   3.966   6.462   0.629
 9793SOL     OW30277   5.676   0.500   3.361
 9793SOL    HW130278   5.598   0.561   3.344
 9793SOL    HW230279   5.755   0.553   3.388
 9794SOL     OW30280   4.506   4.579   4.633
 9794SOL    HW130281   4.438   4.575   4.559
 9794SOL    HW230282   4.564   4.498   4.630
 9795SOL     OW30283   2.123   3.469   3.446
 9795SOL    HW130284   2.109   3.555   3.495
 9795SOL    HW230285   2.217   3.465   3.411
 9796SOL     OW30286   4.118   3.539   3.695
 9796SOL    HW130287   4.133   3.441   3.686
 9796SOL    HW230288   4.127   3.583   3.606
 9797SOL     OW30289   2.647   5.320   6.872
 9797SOL    HW130290   2.691   5.409   6.883
 9797SOL    HW230291   2.715   5.248   6.888
 9798SOL     OW30292   0.543   3.892   0.353
 9798SOL    HW130293   0.520   3.857   0.262
 9798SOL    HW230294   0.596   3.824   0.403
 9799SOL     OW30295   2.699   0.283   6.765
 9799SOL    HW130296   2.660   0.222   6.835
 9799SOL    HW230297   2.701   0.376   6.800
 9800SOL     OW30298   6.556   4.117   5.065
 9800SOL    HW130299   6.639   4.063   5.076
 9800SOL    HW230300   6.491   4.067   5.008
 9801SOL     OW30301   6.338   6.149   6.821
 9801SOL    HW130302   6.366   6.054   6.836
 9801SOL    HW230303   6.313   6.163   6.726
 9802SOL     OW30304   3.655   4.924   0.139
 9802SOL    HW130305   3.719   4.848   0.149
 9802SOL    HW230306   3.638   4.966   0.228
 9803SOL     OW30307   0.879   3.682   6.376
 9803SOL    HW130308   0.858   3.780   6.372
 9803SOL    HW230309   0.935   3.657   6.298
 9804SOL     OW30310   0.165   6.276   2.710
 9804SOL    HW130311   0.069   6.299   2.690
 9804SOL    HW230312   0.223   6.313   2.638
 9805SOL     OW30313   0.775   6.238   3.818
 9805SOL    HW130314   0.779   6.154   3.873
 9805SOL    HW230315   0.762   6.214   3.722
 9806SOL     OW30316   3.714   1.880   6.666
 9806SOL    HW130317   3.646   1.922   6.726
 9806SOL    HW230318   3.748   1.795   6.708
 9807SOL     OW30319   3.191   3.335   1.843
 9807SOL    HW130320   3.219   3.427   1.871
 9807SOL    HW230321   3.168   3.282   1.925
 9808SOL     OW30322   4.133   6.031   2.633
 9808SOL    HW130323   4.065   6.010   2.563
 9808SOL    HW230324   4.159   6.127   2.628
 9809SOL     OW30325   0.258   3.178   1.294
 9809SOL    HW130326   0.214   3.181   1.383
 9809SOL    HW230327   0.257   3.085   1.259
 9810SOL     OW30328   2.280   2.302   0.007
 9810SOL    HW130329   2.335   2.268   0.084
 9810SOL    HW230330   2.332   2.290   6.950
 9811SOL     OW30331   5.969   3.535   4.127
 9811SOL    HW130332   6.020   3.620   4.141
 9811SOL    HW230333   5.950   3.493   4.215
 9812SOL     OW30334   3.469   6.343   5.550
 9812SOL    HW130335   3.544   6.295   5.596
 9812SOL    HW230336   3.389   6.283   5.546
 9813SOL     OW30337   5.158   1.217   1.771
 9813SOL    HW130338   5.076   1.189   1.722
 9813SOL    HW230339   5.237   1.213   1.710
 9814SOL     OW30340   5.274   1.444   0.502
 9814SOL    HW130341   5.216   1.499   0.562
 9814SOL    HW230342   5.225   1.425   0.417
 9815SOL     OW30343   4.338   2.391   4.826
 9815SOL    HW130344   4.264   2.349   4.774
 9815SOL    HW230345   4.301   2.433   4.909
 9816SOL     OW30346   1.969   7.015   0.020
 9816SOL    HW130347   1.940   0.064   6.988
 9816SOL    HW230348   1.897   6.996   0.087
 9817SOL     OW30349   6.753   0.054   3.222
 9817SOL    HW130350   6.728   0.100   3.307
 9817SOL    HW230351   6.775   6.985   3.241
 9818SOL     OW30352   6.378   2.879   4.113
 9818SOL    HW130353   6.397   2.977   4.116
 9818SOL    HW230354   6.287   2.864   4.075
 9819SOL     OW30355   3.953   0.760   3.247
 9819SOL    HW130356   3.945   0.728   3.342
 9819SOL    HW230357   4.036   0.814   3.236
 9820SOL     OW30358   4.263   3.549   6.134
 9820SOL    HW130359   4.234   3.606   6.057
 9820SOL    HW230360   4.316   3.604   6.198
 9821SOL     OW30361   6.325   5.524   0.025
 9821SOL    HW130362   6.298   5.428   0.037
 9821SOL    HW230363   6.246   5.579   0.001
 9822SOL     OW30364   0.417   6.873   2.883
 9822SOL    HW130365   0.484   6.861   2.956
 9822SOL    HW230366   0.324   6.863   2.920
 9823SOL     OW30367   3.381   1.213   2.225
 9823SOL    HW130368   3.469   1.173   2.198
 9823SOL    HW230369   3.335   1.249   2.144
 9824SOL     OW30370   1.635   4.038   5.910
 9824SOL    HW130371   1.669   4.034   5.816
 9824SOL    HW230372   1.550   3.987   5.917
 9825SOL     OW30373   3.904   5.269   5.380
 9825SOL    HW130374   3.979   5.213   5.343
 9825SOL    HW230375   3.823   5.257   5.323
 9826SOL     OW30376   4.127   0.476   5.907
 9826SOL    HW130377   4.206   0.448   5.852
 9826SOL    HW230378   4.089   0.560   5.869
 9827SOL     OW30379   0.818   3.908   4.647
 9827SOL    HW130380   0.881   3.838   4.680
 9827SOL    HW230381   0.810   3.901   4.548
 9828SOL     OW30382   3.755   3.003   6.561
 9828SOL    HW130383   3.854   3.000   6.567
 9828SOL    HW230384   3.722   2.924   6.509
 9829SOL     OW30385   2.538   5.407   0.689
 9829SOL    HW130386   2.510   5.315   0.715
 9829SOL    HW230387   2.513   5.424   0.594
 9830SOL     OW30388   5.956   1.505   1.677
 9830SOL    HW130389   5.893   1.577   1.645
 9830SOL    HW230390   6.018   1.480   1.602
 9831SOL     OW30391   6.443   6.604   1.689
 9831SOL    HW130392   6.470   6.526   1.634
 9831SOL    HW230393   6.346   6.624   1.674
 9832SOL     OW30394   4.496   5.262   1.770
 9832SOL    HW130395   4.421   5.242   1.707
 9832SOL    HW230396   4.521   5.180   1.821
 9833SOL     OW30397   3.439   3.655   5.257
 9833SOL    HW130398   3.416   3.746   5.291
 9833SOL    HW230399   3.369   3.625   5.192
 9834SOL     OW30400   0.996   3.726   4.732
 9834SOL    HW130401   1.061   3.737   4.807
 9834SOL    HW230402   0.922   3.665   4.760
 9835SOL     OW30403   4.923   1.687   4.303
 9835SOL    HW130404   4.956   1.657   4.213
 9835SOL    HW230405   4.985   1.653   4.374
 9836SOL     OW30406   4.940   4.745   3.502
 9836SOL    HW130407   4.887   4.661   3.490
 9836SOL    HW230408   5.028   4.723   3.544
 9837SOL     OW30409   2.747   6.296   4.415
 9837SOL    HW130410   2.671   6.331   4.469
 9837SOL    HW230411   2.833   6.330   4.453
 9838SOL     OW30412   0.910   6.053   5.889
 9838SOL    HW130413   0.926   6.145   5.852
 9838SOL    HW230414   0.908   5.987   5.815
 9839SOL     OW30415   0.347   1.412   1.481
 9839SOL    HW130416   0.353   1.492   1.540
 9839SOL    HW230417   0.293   1.341   1.527
 9840SOL     OW30418   6.656   0.602   1.086
 9840SOL    HW130419   6.651   0.533   1.014
 9840SOL    HW230420   6.609   0.685   1.056
 9841SOL     OW30421   1.814   3.910   4.581
 9841SOL    HW130422   1.842   3.875   4.671
 9841SOL    HW230423   1.734   3.969   4.592
 9842SOL     OW30424   2.941   3.230   2.409
 9842SOL    HW130425   2.864   3.168   2.396
 9842SOL    HW230426   2.930   3.280   2.495
 9843SOL     OW30427   6.702   2.490   1.716
 9843SOL    HW130428   6.748   2.519   1.799
 9843SOL    HW230429   6.738   2.401   1.687
 9844SOL     OW30430   5.494   0.277   2.369
 9844SOL    HW130431   5.448   0.362   2.345
 9844SOL    HW230432   5.553   0.292   2.447
 9845SOL     OW30433   1.515   2.167   3.454
 9845SOL    HW130434   1.561   2.166   3.366
 9845SOL    HW230435   1.573   2.125   3.524
 9846SOL     OW30436   2.997   3.653   2.993
 9846SOL    HW130437   3.074   3.650   3.056
 9846SOL    HW230438   2.994   3.742   2.948
 9847SOL     OW30439   1.604   3.999   6.273
 9847SOL    HW130440   1.570   3.958   6.188
 9847SOL    HW230441   1.636   3.927   6.334
 9848SOL     OW30442   4.586   2.959   0.013
 9848SOL    HW130443   4.599   3.011   0.098
 9848SOL    HW230444   4.616   3.015   6.963
 9849SOL     OW30445   6.572   0.206   6.160
 9849SOL    HW130446   6.640   0.254   6.215
 9849SOL    HW230447   6.543   0.123   6.207
 9850SOL     OW30448   3.986   6.673   2.161
 9850SOL    HW130449   4.042   6.756   2.162
 9850SOL    HW230450   3.905   6.687   2.219
 9851SOL     OW30451   5.457   1.629   5.494
 9851SOL    HW130452   5.370   1.674   5.513
 9851SOL    HW230453   5.442   1.546   5.441
 9852SOL     OW30454   4.588   1.704   3.782
 9852SOL    HW130455   4.489   1.715   3.793
 9852SOL    HW230456   4.611   1.607   3.780
 9853SOL     OW30457   5.917   3.720   2.806
 9853SOL    HW130458   5.908   3.781   2.727
 9853SOL    HW230459   6.003   3.670   2.801
 9854SOL     OW30460   5.891   5.201   4.485
 9854SOL    HW130461   5.858   5.141   4.557
 9854SOL    HW230462   5.901   5.149   4.400
 9855SOL     OW30463   1.368   3.801   1.961
 9855SOL    HW130464   1.420   3.720   1.988
 9855SOL    HW230465   1.387   3.876   2.025
 9856SOL     OW30466   3.470   3.376   0.375
 9856SOL    HW130467   3.420   3.452   0.333
 9856SOL    HW230468   3.404   3.312   0.416
 9857SOL     OW30469   5.409   3.365   3.136
 9857SOL    HW130470   5.454   3.413   3.212
 9857SOL    HW230471   5.448   3.397   3.049
 9858SOL     OW30472   5.547   0.666   2.001
 9858SOL    HW130473   5.549   0.722   1.918
 9858SOL    HW230474   5.609   0.704   2.069
 9859SOL     OW30475   6.432   1.043   2.299
 9859SOL    HW130476   6.494   0.977   2.341
 9859SOL    HW230477   6.436   1.033   2.199
 9860SOL     OW30478   0.925   0.676   2.221
 9860SOL    HW130479   0.890   0.605   2.160
 9860SOL    HW230480   0.848   0.724   2.262
 9861SOL     OW30481   4.116   5.951   4.242
 9861SOL    HW130482   4.137   6.019   4.172
 9861SOL    HW230483   4.137   5.988   4.332
 9862SOL     OW30484   1.977   2.265   0.585
 9862SOL    HW130485   2.020   2.181   0.553
 9862SOL    HW230486   2.023   2.296   0.668
 9863SOL     OW30487   3.081   0.271   3.047
 9863SOL    HW130488   3.047   0.359   3.078
 9863SOL    HW230489   3.101   0.213   3.126
 9864SOL     OW30490   4.747   5.877   2.715
 9864SOL    HW130491   4.847   5.882   2.706
 9864SOL    HW230492   4.704   5.937   2.649
 9865SOL     OW30493   0.660   0.237   3.608
 9865SOL    HW130494   0.600   0.166   3.573
 9865SOL    HW230495   0.713   0.202   3.685
 9866SOL     OW30496   4.863   3.848   4.495
 9866SOL    HW130497   4.884   3.750   4.500
 9866SOL    HW230498   4.765   3.862   4.507
 9867SOL     OW30499   4.881   1.718   0.625
 9867SOL    HW130500   4.901   1.686   0.717
 9867SOL    HW230501   4.824   1.652   0.578
 9868SOL     OW30502   6.655   4.582   6.855
 9868SOL    HW130503   6.599   4.651   6.900
 9868SOL    HW230504   6.614   4.492   6.868
 9869SOL     OW30505   2.114   4.162   3.339
 9869SOL    HW130506   2.111   4.187   3.242
 9869SOL    HW230507   2.022   4.137   3.369
 9870SOL     OW30508   4.600   4.363   2.527
 9870SOL    HW130509   4.581   4.340   2.431
 9870SOL    HW230510   4.550   4.447   2.551
 9871SOL     OW30511   2.073   0.617   5.534
 9871SOL    HW130512   2.051   0.699   5.480
 9871SOL    HW230513   2.159   0.631   5.582
 9872SOL     OW30514   2.951   4.789   3.295
 9872SOL    HW130515   3.019   4.835   3.352
 9872SOL    HW230516   2.888   4.737   3.352
 9873SOL     OW30517   1.710   2.687   0.535
 9873SOL    HW130518   1.618   2.683   0.497
 9873SOL    HW230519   1.769   2.624   0.486
 9874SOL     OW30520   0.413   2.723   3.413
 9874SOL    HW130521   0.318   2.696   3.398
 9874SOL    HW230522   0.455   2.748   3.326
 9875SOL     OW30523   0.698   0.798   2.357
 9875SOL    HW130524   0.679   0.766   2.450
 9875SOL    HW230525   0.669   0.729   2.291
 9876SOL     OW30526   6.380   6.933   2.906
 9876SOL    HW130527   6.434   6.895   2.980
 9876SOL    HW230528   6.327   7.012   2.939
 9877SOL     OW30529   3.375   6.858   2.625
 9877SOL    HW130530   3.358   6.951   2.594
 9877SOL    HW230531   3.407   6.860   2.720
 9878SOL     OW30532   1.573   5.755   5.373
 9878SOL    HW130533   1.582   5.814   5.292
 9878SOL    HW230534   1.635   5.677   5.364
 9879SOL     OW30535   4.092   5.503   4.899
 9879SOL    HW130536   4.057   5.581   4.951
 9879SOL    HW230537   4.036   5.489   4.817
 9880SOL     OW30538   1.050   2.273   5.915
 9880SOL    HW130539   1.129   2.333   5.901
 9880SOL    HW230540   1.026   2.230   5.828
 9881SOL     OW30541   0.611   2.112   5.948
 9881SOL    HW130542   0.698   2.078   5.984
 9881SOL    HW230543   0.553   2.139   6.024
 9882SOL     OW30544   1.078   2.375   3.902
 9882SOL    HW130545   1.171   2.403   3.926
 9882SOL    HW230546   1.067   2.378   3.803
 9883SOL     OW30547   1.544   0.556   1.683
 9883SOL    HW130548   1.617   0.500   1.642
 9883SOL    HW230549   1.475   0.495   1.722
 9884SOL     OW30550   4.110   0.569   3.700
 9884SOL    HW130551   4.034   0.589   3.762
 9884SOL    HW230552   4.195   0.559   3.753
 9885SOL     OW30553   6.045   4.517   4.737
 9885SOL    HW130554   6.004   4.608   4.725
 9885SOL    HW230555   6.056   4.474   4.647
 9886SOL     OW30556   1.307   4.795   2.471
 9886SOL    HW130557   1.366   4.778   2.550
 9886SOL    HW230558   1.311   4.892   2.446
 9887SOL     OW30559   3.588   1.587   6.983
 9887SOL    HW130560   3.649   1.616   0.030
 9887SOL    HW230561   3.526   1.662   6.960
 9888SOL     OW30562   0.081   3.685   0.249
 9888SOL    HW130563   0.012   3.682   0.322
 9888SOL    HW230564   0.153   3.618   0.269
 9889SOL     OW30565   6.252   5.155   0.456
 9889SOL    HW130566   6.207   5.184   0.372
 9889SOL    HW230567   6.293   5.065   0.442
 9890SOL     OW30568   1.495   2.687   1.292
 9890SOL    HW130569   1.499   2.587   1.291
 9890SOL    HW230570   1.570   2.723   1.236
 9891SOL     OW30571   5.748   2.708   0.484
 9891SOL    HW130572   5.764   2.624   0.537
 9891SOL    HW230573   5.757   2.687   0.387
 9892SOL     OW30574   6.602   4.766   0.096
 9892SOL    HW130575   6.672   4.836   0.082
 9892SOL    HW230576   6.604   4.735   0.191
 9893SOL     OW30577   2.292   0.997   1.179
 9893SOL    HW130578   2.204   0.951   1.167
 9893SOL    HW230579   2.366   0.936   1.153
 9894SOL     OW30580   1.511   1.693   0.526
 9894SOL    HW130581   1.466   1.764   0.472
 9894SOL    HW230582   1.610   1.701   0.515
 9895SOL     OW30583   5.631   3.465   4.696
 9895SOL    HW130584   5.703   3.411   4.651
 9895SOL    HW230585   5.663   3.559   4.708
 9896SOL     OW30586   6.568   0.036   0.178
 9896SOL    HW130587   6.530   6.996   0.115
 9896SOL    HW230588   6.496   0.101   0.204
 9897SOL     OW30589   5.886   5.293   3.466
 9897SOL    HW130590   5.937   5.207   3.467
 9897SOL    HW230591   5.799   5.280   3.418
 9898SOL     OW30592   3.029   6.377   5.632
 9898SOL    HW130593   3.120   6.356   5.596
 9898SOL    HW230594   3.027   6.471   5.666
 9899SOL     OW30595   0.695   5.350   0.419
 9899SOL    HW130596   0.785   5.348   0.376
 9899SOL    HW230597   0.666   5.257   0.442
 9900SOL     OW30598   1.534   4.154   3.387
 9900SOL    HW130599   1.551   4.133   3.290
 9900SOL    HW230600   1.439   4.134   3.410
 9901SOL     OW30601   2.537   2.442   5.718
 9901SOL    HW130602   2.520   2.490   5.804
 9901SOL    HW230603   2.636   2.430   5.705
 9902SOL     OW30604   2.721   4.867   6.373
 9902SOL    HW130605   2.651   4.938   6.367
 9902SOL    HW230606   2.750   4.841   6.281
 9903SOL     OW30607   5.025   1.781   3.484
 9903SOL    HW130608   5.029   1.686   3.512
 9903SOL    HW230609   5.075   1.837   3.550
 9904SOL     OW30610   0.067   3.584   6.390
 9904SOL    HW130611   0.018   3.622   6.469
 9904SOL    HW230612   0.110   3.497   6.416
 9905SOL     OW30613   4.158   1.364   0.615
 9905SOL    HW130614   4.228   1.391   0.549
 9905SOL    HW230615   4.071   1.407   0.591
 9906SOL     OW30616   3.680   3.104   2.591
 9906SOL    HW130617   3.768   3.093   2.544
 9906SOL    HW230618   3.618   3.030   2.565
 9907SOL     OW30619   0.420   0.692   1.986
 9907SOL    HW130620   0.419   0.617   1.919
 9907SOL    HW230621   0.492   0.756   1.963
 9908SOL     OW30622   5.022   2.318   3.218
 9908SOL    HW130623   5.003   2.413   3.192
 9908SOL    HW230624   4.982   2.256   3.151
 9909SOL     OW30625   3.433   6.311   3.946
 9909SOL    HW130626   3.371   6.233   3.938
 9909SOL    HW230627   3.383   6.396   3.931
 9910SOL     OW30628   0.917   4.553   2.393
 9910SOL    HW130629   0.919   4.540   2.294
 9910SOL    HW230630   0.985   4.493   2.436
 9911SOL     OW30631   4.120   6.906   2.208
 9911SOL    HW130632   4.211   6.940   2.183
 9911SOL    HW230633   4.089   6.952   2.291
 9912SOL     OW30634   4.612   1.955   0.918
 9912SOL    HW130635   4.592   2.053   0.914
 9912SOL    HW230636   4.643   1.924   0.829
 9913SOL     OW30637   5.821   3.127   6.858
 9913SOL    HW130638   5.824   3.095   6.953
 9913SOL    HW230639   5.729   3.162   6.837
 9914SOL     OW30640   0.467   2.666   4.462
 9914SOL    HW130641   0.551   2.701   4.421
 9914SOL    HW230642   0.439   2.726   4.538
 9915SOL     OW30643   4.726   1.032   3.282
 9915SOL    HW130644   4.682   1.041   3.371
 9915SOL    HW230645   4.774   0.945   3.278
 9916SOL     OW30646   2.385   2.705   2.399
 9916SOL    HW130647   2.345   2.636   2.338
 9916SOL    HW230648   2.409   2.662   2.486
 9917SOL     OW30649   6.748   4.151   6.645
 9917SOL    HW130650   6.718   4.163   6.550
 9917SOL    HW230651   6.708   4.223   6.702
 9918SOL     OW30652   4.099   1.597   2.947
 9918SOL    HW130653   4.175   1.532   2.957
 9918SOL    HW230654   4.135   1.688   2.931
 9919SOL     OW30655   6.282   6.814   1.556
 9919SOL    HW130656   6.280   6.763   1.470
 9919SOL    HW230657   6.196   6.865   1.566
 9920SOL     OW30658   4.897   1.356   2.900
 9920SOL    HW130659   4.918   1.424   2.969
 9920SOL    HW230660   4.803   1.324   2.912
 9921SOL     OW30661   4.371   5.560   5.842
 9921SOL    HW130662   4.422   5.541   5.926
 9921SOL    HW230663   4.276   5.530   5.854
 9922SOL     OW30664   1.207   5.570   6.875
 9922SOL    HW130665   1.176   5.503   6.808
 9922SOL    HW230666   1.179   5.661   6.847
 9923SOL     OW30667   4.666   5.199   6.673
 9923SOL    HW130668   4.691   5.102   6.671
 9923SOL    HW230669   4.636   5.223   6.765
 9924SOL     OW30670   0.013   3.038   5.336
 9924SOL    HW130671   0.108   3.063   5.313
 9924SOL    HW230672   0.004   3.030   5.435
 9925SOL     OW30673   6.030   2.831   4.278
 9925SOL    HW130674   6.051   2.824   4.376
 9925SOL    HW230675   5.942   2.787   4.260
 9926SOL     OW30676   2.603   3.947   6.983
 9926SOL    HW130677   2.548   3.955   0.039
 9926SOL    HW230678   2.697   3.975   7.002
 9927SOL     OW30679   6.417   0.272   2.755
 9927SOL    HW130680   6.374   0.283   2.845
 9927SOL    HW230681   6.473   0.190   2.754
 9928SOL     OW30682   5.031   4.803   1.062
 9928SOL    HW130683   4.975   4.787   1.144
 9928SOL    HW230684   4.980   4.861   0.999
 9929SOL     OW30685   2.005   5.621   4.941
 9929SOL    HW130686   2.094   5.609   4.898
 9929SOL    HW230687   1.996   5.556   5.017
 9930SOL     OW30688   6.883   0.026   4.597
 9930SOL    HW130689   6.892   6.999   4.681
 9930SOL    HW230690   6.795   0.005   4.554
 9931SOL     OW30691   0.770   4.766   5.035
 9931SOL    HW130692   0.768   4.666   5.038
 9931SOL    HW230693   0.707   4.798   4.963
 9932SOL     OW30694   1.131   6.630   6.265
 9932SOL    HW130695   1.034   6.617   6.286
 9932SOL    HW230696   1.171   6.692   6.333
 9933SOL     OW30697   1.792   5.305   2.777
 9933SOL    HW130698   1.856   5.382   2.771
 9933SOL    HW230699   1.786   5.274   2.871
 9934SOL     OW30700   5.738   2.299   5.462
 9934SOL    HW130701   5.722   2.389   5.420
 9934SOL    HW230702   5.662   2.238   5.438
 9935SOL     OW30703   2.395   0.954   0.218
 9935SOL    HW130704   2.419   0.860   0.242
 9935SOL    HW230705   2.367   1.003   0.300
 9936SOL     OW30706   0.514   4.947   5.235
 9936SOL    HW130707   0.417   4.969   5.250
 9936SOL    HW230708   0.523   4.891   5.153
 9937SOL     OW30709   6.151   2.161   5.826
 9937SOL    HW130710   6.103   2.245   5.799
 9937SOL    HW230711   6.245   2.183   5.851
 9938SOL     OW30712   0.373   5.907   3.180
 9938SOL    HW130713   0.428   5.836   3.135
 9938SOL    HW230714   0.277   5.896   3.154
 9939SOL     OW30715   3.197   2.667   1.289
 9939SOL    HW130716   3.188   2.728   1.210
 9939SOL    HW230717   3.110   2.621   1.306
 9940SOL     OW30718   0.190   0.378   1.348
 9940SOL    HW130719   0.135   0.295   1.350
 9940SOL    HW230720   0.219   0.400   1.441
 9941SOL     OW30721   2.824   3.998   5.305
 9941SOL    HW130722   2.781   4.070   5.360
 9941SOL    HW230723   2.770   3.914   5.311
 9942SOL     OW30724   2.237   5.700   2.728
 9942SOL    HW130725   2.226   5.602   2.743
 9942SOL    HW230726   2.282   5.741   2.808
 9943SOL     OW30727   0.607   5.932   6.166
 9943SOL    HW130728   0.539   5.914   6.095
 9943SOL    HW230729   0.694   5.891   6.140
 9944SOL     OW30730   1.873   4.526   6.406
 9944SOL    HW130731   1.811   4.469   6.353
 9944SOL    HW230732   1.825   4.562   6.486
 9945SOL     OW30733   6.838   5.441   0.235
 9945SOL    HW130734   6.801   5.349   0.224
 9945SOL    HW230735   6.851   5.482   0.145
 9946SOL     OW30736   4.892   1.167   4.648
 9946SOL    HW130737   4.917   1.173   4.551
 9946SOL    HW230738   4.796   1.195   4.658
 9947SOL     OW30739   6.318   4.347   5.803
 9947SOL    HW130740   6.307   4.249   5.792
 9947SOL    HW230741   6.229   4.390   5.815
 9948SOL     OW30742   4.786   4.204   4.936
 9948SOL    HW130743   4.859   4.271   4.925
 9948SOL    HW230744   4.725   4.208   4.856
 9949SOL     OW30745   5.503   4.433   3.528
 9949SOL    HW130746   5.480   4.517   3.479
 9949SOL    HW230747   5.570   4.380   3.475
 9950SOL     OW30748   5.103   6.237   5.336
 9950SOL    HW130749   5.195   6.247   5.297
 9950SOL    HW230750   5.035   6.239   5.263
 9951SOL     OW30751   5.723   2.262   3.325
 9951SOL    HW130752   5.682   2.343   3.284
 9951SOL    HW230753   5.688   2.180   3.279
 9952SOL     OW30754   6.490   4.007   0.740
 9952SOL    HW130755   6.414   4.044   0.688
 9952SOL    HW230756   6.528   4.078   0.799
 9953SOL     OW30757   6.608   1.885   3.658
 9953SOL    HW130758   6.645   1.794   3.675
 9953SOL    HW230759   6.541   1.908   3.728
 9954SOL     OW30760   5.963   0.034   4.990
 9954SOL    HW130761   5.864   0.040   4.995
 9954SOL    HW230762   6.002   0.031   5.082
 9955SOL     OW30763   6.900   4.922   4.600
 9955SOL    HW130764   6.942   4.955   4.515
 9955SOL    HW230765   6.801   4.937   4.597
 9956SOL     OW30766   1.850   6.888   2.107
 9956SOL    HW130767   1.900   6.805   2.132
 9956SOL    HW230768   1.787   6.867   2.033
 9957SOL     OW30769   6.508   5.244   3.611
 9957SOL    HW130770   6.465   5.335   3.611
 9957SOL    HW230771   6.472   5.191   3.535
 9958SOL     OW30772   2.936   4.200   0.967
 9958SOL    HW130773   2.871   4.250   0.910
 9958SOL    HW230774   3.029   4.219   0.937
 9959SOL     OW30775   3.865   3.688   6.339
 9959SOL    HW130776   3.903   3.739   6.261
 9959SOL    HW230777   3.881   3.740   6.423
 9960SOL     OW30778   0.063   1.240   2.980
 9960SOL    HW130779   0.053   1.144   2.956
 9960SOL    HW230780   0.161   1.264   2.983
 9961SOL     OW30781   2.124   5.532   4.282
 9961SOL    HW130782   2.192   5.603   4.294
 9961SOL    HW230783   2.141   5.483   4.196
 9962SOL     OW30784   5.536   6.259   4.944
 9962SOL    HW130785   5.480   6.331   4.902
 9962SOL    HW230786   5.593   6.298   5.016
 9963SOL     OW30787   3.820   1.660   1.046
 9963SOL    HW130788   3.776   1.733   0.995
 9963SOL    HW230789   3.759   1.580   1.049
 9964SOL     OW30790   4.343   5.809   4.373
 9964SOL    HW130791   4.330   5.800   4.275
 9964SOL    HW230792   4.283   5.745   4.421
 9965SOL     OW30793   3.728   0.317   6.843
 9965SOL    HW130794   3.810   0.327   6.787
 9965SOL    HW230795   3.751   0.273   6.930
 9966SOL     OW30796   1.446   5.155   1.980
 9966SOL    HW130797   1.398   5.243   1.983
 9966SOL    HW230798   1.441   5.111   2.070
 9967SOL     OW30799   1.616   5.762   1.737
 9967SOL    HW130800   1.581   5.668   1.739
 9967SOL    HW230801   1.583   5.812   1.817
 9968SOL     OW30802   4.007   3.980   2.077
 9968SOL    HW130803   3.977   3.907   2.138
 9968SOL    HW230804   4.100   4.008   2.102
 9969SOL     OW30805   1.412   3.674   2.384
 9969SOL    HW130806   1.443   3.580   2.367
 9969SOL    HW230807   1.315   3.673   2.408
 9970SOL     OW30808   5.992   4.702   1.887
 9970SOL    HW130809   5.927   4.747   1.826
 9970SOL    HW230810   6.016   4.612   1.850
 9971SOL     OW30811   1.964   4.297   0.539
 9971SOL    HW130812   2.055   4.258   0.522
 9971SOL    HW230813   1.914   4.239   0.603
 9972SOL     OW30814   6.538   4.714   3.008
 9972SOL    HW130815   6.604   4.662   2.953
 9972SOL    HW230816   6.561   4.705   3.104
 9973SOL     OW30817   6.112   1.087   4.422
 9973SOL    HW130818   6.096   0.988   4.418
 9973SOL    HW230819   6.027   1.134   4.446
 9974SOL     OW30820   1.403   0.522   3.759
 9974SOL    HW130821   1.493   0.528   3.715
 9974SOL    HW230822   1.370   0.428   3.754
 9975SOL     OW30823   0.058   2.802   0.422
 9975SOL    HW130824   0.045   2.899   0.404
 9975SOL    HW230825   0.119   2.763   0.353
 9976SOL     OW30826   1.310   0.181   5.590
 9976SOL    HW130827   1.311   0.084   5.614
 9976SOL    HW230828   1.403   0.217   5.592
 9977SOL     OW30829   6.361   4.372   4.708
 9977SOL    HW130830   6.406   4.292   4.668
 9977SOL    HW230831   6.283   4.342   4.763
 9978SOL     OW30832   0.480   2.798   4.178
 9978SOL    HW130833   0.555   2.736   4.199
 9978SOL    HW230834   0.425   2.815   4.260
 9979SOL     OW30835   6.054   3.487   4.723
 9979SOL    HW130836   6.026   3.546   4.799
 9979SOL    HW230837   6.147   3.454   4.740
 9980SOL     OW30838   3.373   0.665   6.616
 9980SOL    HW130839   3.380   0.682   6.518
 9980SOL    HW230840   3.435   0.591   6.642
 9981SOL     OW30841   2.870   1.811   4.020
 9981SOL    HW130842   2.793   1.822   3.957
 9981SOL    HW230843   2.944   1.873   3.993
 9982SOL     OW30844   0.046   6.149   4.171
 9982SOL    HW130845   0.088   6.239   4.183
 9982SOL    HW230846   0.105   6.091   4.114
 9983SOL     OW30847   0.071   1.379   2.251
 9983SOL    HW130848   0.093   1.470   2.216
 9983SOL    HW230849   0.053   1.317   2.175
 9984SOL     OW30850   2.838   1.686   6.428
 9984SOL    HW130851   2.768   1.673   6.498
 9984SOL    HW230852   2.802   1.746   6.356
 9985SOL     OW30853   1.594   1.036   1.606
 9985SOL    HW130854   1.690   1.025   1.580
 9985SOL    HW230855   1.566   0.961   1.666
 9986SOL     OW30856   5.453   3.895   4.843
 9986SOL    HW130857   5.498   3.813   4.878
 9986SOL    HW230858   5.439   3.960   4.918
 9987SOL     OW30859   6.362   3.757   6.237
 9987SOL    HW130860   6.358   3.744   6.138
 9987SOL    HW230861   6.443   3.712   6.274
 9988SOL     OW30862   6.581   6.774   5.415
 9988SOL    HW130863   6.546   6.766   5.508
 9988SOL    HW230864   6.529   6.843   5.365
 9989SOL     OW30865   0.248   3.215   5.213
 9989SOL    HW130866   0.309   3.244   5.139
 9989SOL    HW230867   0.190   3.292   5.240
 9990SOL     OW30868   1.052   4.517   2.950
 9990SOL    HW130869   1.140   4.558   2.973
 9990SOL    HW230870   1.028   4.448   3.018
 9991SOL     OW30871   3.058   2.213   3.970
 9991SOL    HW130872   3.104   2.128   3.996
 9991SOL    HW230873   3.014   2.253   4.050
 9992SOL     OW30874   6.060   5.506   6.322
 9992SOL    HW130875   6.009   5.479   6.240
 9992SOL    HW230876   6.111   5.589   6.304
 9993SOL     OW30877   1.368   1.490   1.565
 9993SOL    HW130878   1.342   1.586   1.559
 9993SOL    HW230879   1.411   1.472   1.653
 9994SOL     OW30880   5.772   4.644   3.527
 9994SOL    HW130881   5.698   4.652   3.460
 9994SOL    HW230882   5.778   4.548   3.557
 9995SOL     OW30883   6.015   0.816   4.452
 9995SOL    HW130884   6.053   0.726   4.432
 9995SOL    HW230885   5.916   0.809   4.462
 9996SOL     OW30886   3.514   4.787   6.782
 9996SOL    HW130887   3.580   4.750   6.848
 9996SOL    HW230888   3.423   4.790   6.825
 9997SOL     OW30889   2.376   0.323   5.362
 9997SOL    HW130890   2.301   0.272   5.321
 9997SOL    HW230891   2.463   0.289   5.328
 9998SOL     OW30892   5.829   5.804   5.835
 9998SOL    HW130893   5.825   5.779   5.932
 9998SOL    HW230894   5.744   5.775   5.790
 9999SOL     OW30895   6.304   2.402   5.465
 9999SOL    HW130896   6.253   2.488   5.477
 9999SOL    HW230897   6.271   2.335   5.531
10000SOL     OW30898   6.874   2.581   6.473
10000SOL    HW130899   6.829   2.538   6.551
10000SOL    HW230900   6.945   2.520   6.437
10001SOL     OW30901   4.796   0.447   2.964
10001SOL    HW130902   4.869   0.460   3.032
10001SOL    HW230903   4.834   0.457   2.872
10002SOL     OW30904   1.367   0.346   1.746
10002SOL    HW130905   1.429   0.276   1.782
10002SOL    HW230906   1.353   0.332   1.648
10003SOL     OW30907   3.751   1.831   3.436
10003SOL    HW130908   3.704   1.773   3.369
10003SOL    HW230909   3.690   1.846   3.514
10004SOL     OW30910   6.855   2.149   2.861
10004SOL    HW130911   6.843   2.248   2.863
10004SOL    HW230912   6.948   2.125   2.888
10005SOL     OW30913   4.563   6.673   3.827
10005SOL    HW130914   4.548   6.643   3.921
10005SOL    HW230915   4.603   6.765   3.827
10006SOL     OW30916   3.665   6.825   4.450
10006SOL    HW130917   3.644   6.803   4.545
10006SOL    HW230918   3.585   6.867   4.407
10007SOL     OW30919   0.325   3.553   4.452
10007SOL    HW130920   0.243   3.527   4.401
10007SOL    HW230921   0.300   3.577   4.545
10008SOL     OW30922   2.927   0.557   4.017
10008SOL    HW130923   2.906   0.522   3.925
10008SOL    HW230924   2.861   0.627   4.042
10009SOL     OW30925   1.490   4.211   1.812
10009SOL    HW130926   1.574   4.258   1.836
10009SOL    HW230927   1.428   4.274   1.765
10010SOL     OW30928   0.959   1.800   6.002
10010SOL    HW130929   0.932   1.896   6.008
10010SOL    HW230930   0.967   1.773   5.906
10011SOL     OW30931   6.662   6.792   5.756
10011SOL    HW130932   6.585   6.728   5.765
10011SOL    HW230933   6.631   6.884   5.780
10012SOL     OW30934   5.942   1.265   3.981
10012SOL    HW130935   5.942   1.365   3.975
10012SOL    HW230936   5.850   1.230   3.961
10013SOL     OW30937   0.648   0.698   2.611
10013SOL    HW130938   0.741   0.687   2.647
10013SOL    HW230939   0.584   0.709   2.687
10014SOL     OW30940   0.290   4.618   6.071
10014SOL    HW130941   0.351   4.539   6.083
10014SOL    HW230942   0.309   4.685   6.143
10015SOL     OW30943   1.705   4.130   0.027
10015SOL    HW130944   1.658   4.121   0.115
10015SOL    HW230945   1.721   4.227   0.007
10016SOL     OW30946   2.526   1.051   5.564
10016SOL    HW130947   2.544   0.969   5.510
10016SOL    HW230948   2.604   1.069   5.625
10017SOL     OW30949   1.846   2.430   4.350
10017SOL    HW130950   1.798   2.468   4.270
10017SOL    HW230951   1.821   2.482   4.432
10018SOL     OW30952   4.876   0.371   5.471
10018SOL    HW130953   4.949   0.439   5.478
10018SOL    HW230954   4.820   0.391   5.390
10019SOL     OW30955   1.327   0.898   3.175
10019SOL    HW130956   1.327   0.918   3.274
10019SOL    HW230957   1.384   0.966   3.128
10020SOL     OW30958   0.423   2.890   0.887
10020SOL    HW130959   0.460   2.805   0.924
10020SOL    HW230960   0.484   2.924   0.815
10021SOL     OW30961   0.352   3.619   0.912
10021SOL    HW130962   0.331   3.716   0.901
10021SOL    HW230963   0.392   3.584   0.828
10022SOL     OW30964   1.366   2.287   6.194
10022SOL    HW130965   1.399   2.359   6.134
10022SOL    HW230966   1.425   2.206   6.186
10023SOL     OW30967   0.106   3.493   0.909
10023SOL    HW130968   0.195   3.536   0.924
10023SOL    HW230969   0.114   3.394   0.924
10024SOL     OW30970   1.835   4.669   3.870
10024SOL    HW130971   1.910   4.713   3.821
10024SOL    HW230972   1.808   4.724   3.948
10025SOL     OW30973   1.391   0.925   0.634
10025SOL    HW130974   1.332   0.905   0.713
10025SOL    HW230975   1.351   0.886   0.552
10026SOL     OW30976   6.724   0.716   3.454
10026SOL    HW130977   6.667   0.646   3.410
10026SOL    HW230978   6.809   0.726   3.403
10027SOL     OW30979   4.782   2.782   5.383
10027SOL    HW130980   4.711   2.851   5.376
10027SOL    HW230981   4.857   2.805   5.321
10028SOL     OW30982   1.987   0.855   0.269
10028SOL    HW130983   1.893   0.889   0.275
10028SOL    HW230984   1.986   0.759   0.242
10029SOL     OW30985   6.013   1.636   3.749
10029SOL    HW130986   5.995   1.722   3.700
10029SOL    HW230987   6.110   1.614   3.743
10030SOL     OW30988   1.766   0.094   3.465
10030SOL    HW130989   1.670   0.072   3.448
10030SOL    HW230990   1.824   0.030   3.415
10031SOL     OW30991   6.088   4.523   3.723
10031SOL    HW130992   6.084   4.429   3.687
10031SOL    HW230993   6.184   4.548   3.736
10032SOL     OW30994   2.837   1.564   4.741
10032SOL    HW130995   2.754   1.515   4.713
10032SOL    HW230996   2.915   1.528   4.690
10033SOL     OW30997   5.765   3.156   4.961
10033SOL    HW130998   5.675   3.199   4.947
10033SOL    HW230999   5.829   3.225   4.995
10034SOL     OW31000   5.128   0.758   5.232
10034SOL    HW131001   5.124   0.665   5.196
10034SOL    HW231002   5.217   0.774   5.276
10035SOL     OW31003   0.579   5.801   1.981
10035SOL    HW131004   0.567   5.819   1.884
10035SOL    HW231005   0.490   5.783   2.023
10036SOL     OW31006   6.707   0.828   0.581
10036SOL    HW131007   6.732   0.902   0.518
10036SOL    HW231008   6.763   0.748   0.562
10037SOL     OW31009   0.850   6.778   6.951
10037SOL    HW131010   0.778   6.782   7.021
10037SOL    HW231011   0.810   6.750   6.864
10038SOL     OW31012   6.472   0.198   1.281
10038SOL    HW131013   6.442   0.280   1.231
10038SOL    HW231014   6.451   0.117   1.227
10039SOL     OW31015   3.339   0.261   3.757
10039SOL    HW131016   3.255   0.282   3.808
10039SOL    HW231017   3.393   0.344   3.747
10040SOL     OW31018   0.777   3.036   1.398
10040SOL    HW131019   0.824   3.028   1.486
10040SOL    HW231020   0.715   3.114   1.400
10041SOL     OW31021   2.099   5.829   0.294
10041SOL    HW131022   2.010   5.842   0.337
10041SOL    HW231023   2.089   5.763   0.219
10042SOL     OW31024   6.027   2.874   2.617
10042SOL    HW131025   5.987   2.937   2.551
10042SOL    HW231026   6.090   2.812   2.570
10043SOL     OW31027   0.226   1.894   4.806
10043SOL    HW131028   0.163   1.834   4.854
10043SOL    HW231029   0.251   1.854   4.718
10044SOL     OW31030   2.985   2.079   5.976
10044SOL    HW131031   2.971   1.993   5.927
10044SOL    HW231032   3.074   2.079   6.020
10045SOL     OW31033   3.626   1.014   0.879
10045SOL    HW131034   3.571   0.970   0.808
10045SOL    HW231035   3.643   1.110   0.854
10046SOL     OW31036   1.736   5.695   0.682
10046SOL    HW131037   1.658   5.634   0.690
10046SOL    HW231038   1.805   5.654   0.623
10047SOL     OW31039   0.751   3.581   1.222
10047SOL    HW131040   0.798   3.507   1.175
10047SOL    HW231041   0.734   3.555   1.317
10048SOL     OW31042   6.169   5.471   3.085
10048SOL    HW131043   6.110   5.466   3.005
10048SOL    HW231044   6.265   5.472   3.056
10049SOL     OW31045   7.010   0.610   5.644
10049SOL    HW131046   0.011   0.704   5.663
10049SOL    HW231047   7.021   0.555   5.727
10050SOL     OW31048   6.796   2.966   0.013
10050SOL    HW131049   6.802   3.015   0.100
10050SOL    HW231050   6.729   2.892   0.021
10051SOL     OW31051   2.236   3.080   3.843
10051SOL    HW131052   2.156   3.052   3.896
10051SOL    HW231053   2.206   3.118   3.756
10052SOL     OW31054   1.248   6.550   3.403
10052SOL    HW131055   1.215   6.465   3.361
10052SOL    HW231056   1.348   6.551   3.401
10053SOL     OW31057   5.824   5.224   5.073
10053SOL    HW131058   5.897   5.214   5.140
10053SOL    HW231059   5.849   5.295   5.007
10054SOL     OW31060   6.445   4.026   5.415
10054SOL    HW131061   6.482   4.103   5.364
10054SOL    HW231062   6.514   3.992   5.480
10055SOL     OW31063   0.710   1.286   7.000
10055SOL    HW131064   0.705   1.209   0.037
10055SOL    HW231065   0.803   1.294   6.965
10056SOL     OW31066   6.014   1.925   3.528
10056SOL    HW131067   6.011   1.984   3.608
10056SOL    HW231068   5.922   1.914   3.490
10057SOL     OW31069   6.037   5.084   5.205
10057SOL    HW131070   6.090   5.034   5.136
10057SOL    HW231071   5.963   5.026   5.238
10058SOL     OW31072   6.997   3.907   5.513
10058SOL    HW131073   0.035   3.833   5.500
10058SOL    HW231074   6.985   3.957   5.427
10059SOL     OW31075   6.182   0.748   6.768
10059SOL    HW131076   6.125   0.753   6.850
10059SOL    HW231077   6.141   0.685   6.702
10060SOL     OW31078   2.333   2.012   1.480
10060SOL    HW131079   2.412   2.062   1.447
10060SOL    HW231080   2.326   2.020   1.579
10061SOL     OW31081   3.801   6.903   3.330
10061SOL    HW131082   3.724   6.961   3.359
10061SOL    HW231083   3.796   6.815   3.379
10062SOL     OW31084   6.887   0.176   4.899
10062SOL    HW131085   6.893   0.221   4.810
10062SOL    HW231086   6.979   0.150   4.929
10063SOL     OW31087   2.398   2.305   5.400
10063SOL    HW131088   2.370   2.357   5.480
10063SOL    HW231089   2.365   2.350   5.317
10064SOL     OW31090   2.920   0.098   0.323
10064SOL    HW131091   2.844   0.061   0.376
10064SOL    HW231092   3.006   0.073   0.366
10065SOL     OW31093   0.529   1.822   1.796
10065SOL    HW131094   0.624   1.825   1.767
10065SOL    HW231095   0.491   1.915   1.795
10066SOL     OW31096   6.274   3.766   3.891
10066SOL    HW131097   6.285   3.688   3.952
10066SOL    HW231098   6.224   3.738   3.809
10067SOL     OW31099   6.747   3.349   5.779
10067SOL    HW131100   6.655   3.385   5.761
10067SOL    HW231101   6.811   3.387   5.714
10068SOL     OW31102   2.147   3.560   2.928
10068SOL    HW131103   2.106   3.572   2.838
10068SOL    HW231104   2.114   3.632   2.989
10069SOL     OW31105   2.875   5.257   0.385
10069SOL    HW131106   2.872   5.238   0.484
10069SOL    HW231107   2.890   5.171   0.336
10070SOL     OW31108   4.229   6.491   6.124
10070SOL    HW131109   4.229   6.571   6.183
10070SOL    HW231110   4.269   6.413   6.173
10071SOL     OW31111   5.649   7.020   4.265
10071SOL    HW131112   5.743   0.006   4.235
10071SOL    HW231113   5.637   6.926   4.295
10072SOL     OW31114   6.551   3.313   1.575
10072SOL    HW131115   6.544   3.374   1.495
10072SOL    HW231116   6.606   3.233   1.551
10073SOL     OW31117   5.866   4.731   4.717
10073SOL    HW131118   5.803   4.671   4.767
10073SOL    HW231119   5.813   4.802   4.669
10074SOL     OW31120   1.066   4.971   0.456
10074SOL    HW131121   1.121   4.893   0.426
10074SOL    HW231122   1.032   5.021   0.376
10075SOL     OW31123   1.547   3.160   2.114
10075SOL    HW131124   1.455   3.149   2.076
10075SOL    HW231125   1.572   3.257   2.111
10076SOL     OW31126   5.178   5.214   4.635
10076SOL    HW131127   5.129   5.280   4.690
10076SOL    HW231128   5.207   5.256   4.549
10077SOL     OW31129   5.250   3.685   6.789
10077SOL    HW131130   5.262   3.619   6.863
10077SOL    HW231131   5.280   3.775   6.819
10078SOL     OW31132   6.790   5.346   5.157
10078SOL    HW131133   6.697   5.310   5.166
10078SOL    HW231134   6.804   5.419   5.224
10079SOL     OW31135   4.804   3.107   3.946
10079SOL    HW131136   4.864   3.182   3.977
10079SOL    HW231137   4.712   3.143   3.929
10080SOL     OW31138   5.330   1.695   5.847
10080SOL    HW131139   5.404   1.628   5.838
10080SOL    HW231140   5.357   1.766   5.912
10081SOL     OW31141   1.440   4.110   0.799
10081SOL    HW131142   1.523   4.070   0.840
10081SOL    HW231143   1.467   4.180   0.733
10082SOL     OW31144   0.725   4.615   1.182
10082SOL    HW131145   0.767   4.704   1.162
10082SOL    HW231146   0.717   4.562   1.098
10083SOL     OW31147   3.234   5.355   2.738
10083SOL    HW131148   3.252   5.432   2.799
10083SOL    HW231149   3.194   5.280   2.791
10084SOL     OW31150   0.975   0.993   5.062
10084SOL    HW131151   0.882   0.959   5.051
10084SOL    HW231152   1.013   0.959   5.149
10085SOL     OW31153   5.004   0.356   0.646
10085SOL    HW131154   5.086   0.330   0.696
10085SOL    HW231155   5.024   0.363   0.548
10086SOL     OW31156   5.350   6.694   3.584
10086SOL    HW131157   5.411   6.618   3.610
10086SOL    HW231158   5.260   6.679   3.623
10087SOL     OW31159   1.374   6.066   5.495
10087SOL    HW131160   1.458   6.029   5.454
10087SOL    HW231161   1.343   6.005   5.568
10088SOL     OW31162   6.720   3.087   1.508
10088SOL    HW131163   6.782   3.038   1.447
10088SOL    HW231164   6.725   3.048   1.600
10089SOL     OW31165   3.366   0.560   1.472
10089SOL    HW131166   3.426   0.635   1.500
10089SOL    HW231167   3.409   0.472   1.495
10090SOL     OW31168   2.461   6.511   2.690
10090SOL    HW131169   2.421   6.517   2.599
10090SOL    HW231170   2.474   6.415   2.714
10091SOL     OW31171   6.139   4.762   5.620
10091SOL    HW131172   6.130   4.663   5.605
10091SOL    HW231173   6.232   4.783   5.650
10092SOL     OW31174   0.981   2.807   4.314
10092SOL    HW131175   1.039   2.888   4.321
10092SOL    HW231176   1.026   2.738   4.257
10093SOL     OW31177   4.655   4.701   6.123
10093SOL    HW131178   4.690   4.751   6.202
10093SOL    HW231179   4.692   4.608   6.124
10094SOL     OW31180   3.670   1.735   1.273
10094SOL    HW131181   3.729   1.673   1.222
10094SOL    HW231182   3.725   1.807   1.315
10095SOL     OW31183   4.274   3.108   5.656
10095SOL    HW131184   4.365   3.149   5.645
10095SOL    HW231185   4.217   3.133   5.578
10096SOL     OW31186   6.514   3.178   1.841
10096SOL    HW131187   6.489   3.248   1.908
10096SOL    HW231188   6.496   3.213   1.749
10097SOL     OW31189   0.166   1.261   0.549
10097SOL    HW131190   0.121   1.350   0.544
10097SOL    HW231191   0.209   1.250   0.639
10098SOL     OW31192   2.670   5.554   3.903
10098SOL    HW131193   2.636   5.464   3.878
10098SOL    HW231194   2.603   5.601   3.961
10099SOL     OW31195   0.380   5.098   1.876
10099SOL    HW131196   0.398   5.001   1.858
10099SOL    HW231197   0.466   5.147   1.890
10100SOL     OW31198   5.398   5.173   4.043
10100SOL    HW131199   5.312   5.163   3.993
10100SOL    HW231200   5.474   5.178   3.979
10101SOL     OW31201   0.120   3.186   0.922
10101SOL    HW131202   0.164   3.150   1.004
10101SOL    HW231203   0.021   3.190   0.935
10102SOL     OW31204   0.360   5.148   3.408
10102SOL    HW131205   0.357   5.125   3.310
10102SOL    HW231206   0.271   5.127   3.449
10103SOL     OW31207   0.176   5.774   6.511
10103SOL    HW131208   0.228   5.732   6.437
10103SOL    HW231209   0.129   5.703   6.564
10104SOL     OW31210   2.493   0.708   4.888
10104SOL    HW131211   2.490   0.662   4.799
10104SOL    HW231212   2.509   0.640   4.959
10105SOL     OW31213   3.445   1.342   4.860
10105SOL    HW131214   3.482   1.401   4.933
10105SOL    HW231215   3.346   1.333   4.872
10106SOL     OW31216   5.214   4.589   1.410
10106SOL    HW131217   5.187   4.678   1.371
10106SOL    HW231218   5.313   4.577   1.400
10107SOL     OW31219   5.638   5.137   0.409
10107SOL    HW131220   5.592   5.224   0.392
10107SOL    HW231221   5.713   5.125   0.345
10108SOL     OW31222   2.158   2.113   5.963
10108SOL    HW131223   2.151   2.159   5.875
10108SOL    HW231224   2.249   2.129   6.002
10109SOL     OW31225   1.063   2.441   1.529
10109SOL    HW131226   1.024   2.532   1.533
10109SOL    HW231227   0.991   2.373   1.542
10110SOL     OW31228   5.973   5.405   2.808
10110SOL    HW131229   5.938   5.402   2.715
10110SOL    HW231230   5.905   5.369   2.871
10111SOL     OW31231   0.328   2.450   1.618
10111SOL    HW131232   0.262   2.508   1.571
10111SOL    HW231233   0.401   2.506   1.657
10112SOL     OW31234   0.566   2.395   2.662
10112SOL    HW131235   0.557   2.320   2.595
10112SOL    HW231236   0.658   2.395   2.701
10113SOL     OW31237   5.905   0.239   6.174
10113SOL    HW131238   5.883   0.217   6.269
10113SOL    HW231239   5.831   0.293   6.134
10114SOL     OW31240   6.005   3.091   1.500
10114SOL    HW131241   6.023   3.000   1.535
10114SOL    HW231242   5.934   3.086   1.429
10115SOL     OW31243   3.454   2.682   5.571
10115SOL    HW131244   3.528   2.634   5.620
10115SOL    HW231245   3.421   2.624   5.496
10116SOL     OW31246   0.049   0.216   5.744
10116SOL    HW131247   0.027   0.158   5.666
10116SOL    HW231248   6.993   0.259   5.779
10117SOL     OW31249   6.341   4.543   3.457
10117SOL    HW131250   6.331   4.460   3.512
10117SOL    HW231251   6.269   4.608   3.481
10118SOL     OW31252   4.104   5.006   3.794
10118SOL    HW131253   4.191   4.958   3.807
10118SOL    HW231254   4.079   5.052   3.880
10119SOL     OW31255   6.586   6.053   6.323
10119SOL    HW131256   6.557   6.081   6.232
10119SOL    HW231257   6.660   5.987   6.316
10120SOL     OW31258   2.454   2.622   3.770
10120SOL    HW131259   2.391   2.554   3.733
10120SOL    HW231260   2.402   2.694   3.816
10121SOL     OW31261   0.254   4.696   0.794
10121SOL    HW131262   0.298   4.669   0.880
10121SOL    HW231263   0.316   4.754   0.742
10122SOL     OW31264   1.515   0.375   3.397
10122SOL    HW131265   1.511   0.277   3.414
10122SOL    HW231266   1.443   0.402   3.333
10123SOL     OW31267   6.774   5.062   6.676
10123SOL    HW131268   6.736   4.969   6.673
10123SOL    HW231269   6.808   5.087   6.585
10124SOL     OW31270   2.541   4.885   3.119
10124SOL    HW131271   2.573   4.873   3.025
10124SOL    HW231272   2.567   4.804   3.173
10125SOL     OW31273   1.072   0.531   5.135
10125SOL    HW131274   1.019   0.533   5.220
10125SOL    HW231275   1.022   0.480   5.066
10126SOL     OW31276   6.403   6.671   5.671
10126SOL    HW131277   6.404   6.577   5.704
10126SOL    HW231278   6.333   6.723   5.719
10127SOL     OW31279   3.058   0.032   5.631
10127SOL    HW131280   3.056   0.079   5.719
10127SOL    HW231281   3.106   6.972   5.640
10128SOL     OW31282   2.126   2.608   0.428
10128SOL    HW131283   2.173   2.520   0.421
10128SOL    HW231284   2.028   2.594   0.435
10129SOL     OW31285   6.130   1.709   4.529
10129SOL    HW131286   6.148   1.751   4.441
10129SOL    HW231287   6.124   1.610   4.518
10130SOL     OW31288   0.700   1.606   4.614
10130SOL    HW131289   0.702   1.587   4.516
10130SOL    HW231290   0.789   1.642   4.643
10131SOL     OW31291   2.517   6.467   4.492
10131SOL    HW131292   2.420   6.491   4.492
10131SOL    HW231293   2.569   6.542   4.449
10132SOL     OW31294   5.786   6.943   1.451
10132SOL    HW131295   5.851   6.871   1.426
10132SOL    HW231296   5.815   0.003   1.411
10133SOL     OW31297   5.392   7.022   1.182
10133SOL    HW131298   5.487   0.007   1.153
10133SOL    HW231299   5.364   6.927   1.165
10134SOL     OW31300   6.653   0.493   3.330
10134SOL    HW131301   6.744   0.452   3.336
10134SOL    HW231302   6.589   0.440   3.385
10135SOL     OW31303   5.755   0.243   3.234
10135SOL    HW131304   5.700   0.166   3.266
10135SOL    HW231305   5.748   0.318   3.300
10136SOL     OW31306   4.422   1.947   2.939
10136SOL    HW131307   4.512   1.909   2.958
10136SOL    HW231308   4.423   1.994   2.850
10137SOL     OW31309   6.443   4.963   5.223
10137SOL    HW131310   6.444   4.880   5.167
10137SOL    HW231311   6.482   5.039   5.171
10138SOL     OW31312   0.189   2.673   1.517
10138SOL    HW131313   0.152   2.733   1.445
10138SOL    HW231314   0.252   2.725   1.574
10139SOL     OW31315   3.254   2.671   6.544
10139SOL    HW131316   3.192   2.691   6.468
10139SOL    HW231317   3.327   2.739   6.545
10140SOL     OW31318   1.113   5.969   5.397
10140SOL    HW131319   1.037   6.033   5.387
10140SOL    HW231320   1.199   6.017   5.386
10141SOL     OW31321   1.627   2.701   4.212
10141SOL    HW131322   1.675   2.786   4.192
10141SOL    HW231323   1.628   2.684   4.310
10142SOL     OW31324   4.948   6.379   3.143
10142SOL    HW131325   5.000   6.319   3.083
10142SOL    HW231326   4.858   6.397   3.103
10143SOL     OW31327   5.705   2.536   6.540
10143SOL    HW131328   5.708   2.493   6.449
10143SOL    HW231329   5.796   2.573   6.562
10144SOL     OW31330   3.332   6.475   0.618
10144SOL    HW131331   3.277   6.490   0.536
10144SOL    HW231332   3.427   6.500   0.600
10145SOL     OW31333   6.015   7.011   5.941
10145SOL    HW131334   6.039   0.033   6.025
10145SOL    HW231335   5.951   6.938   5.962
10146SOL     OW31336   0.921   2.777   5.094
10146SOL    HW131337   0.879   2.813   5.010
10146SOL    HW231338   0.893   2.833   5.172
10147SOL     OW31339   4.149   6.000   5.658
10147SOL    HW131340   4.133   5.902   5.666
10147SOL    HW231341   4.184   6.021   5.567
10148SOL     OW31342   0.615   4.162   0.366
10148SOL    HW131343   0.576   4.198   0.282
10148SOL    HW231344   0.604   4.063   0.369
10149SOL     OW31345   3.952   3.308   1.085
10149SOL    HW131346   3.872   3.333   1.140
10149SOL    HW231347   4.033   3.310   1.143
10150SOL     OW31348   4.431   4.517   1.145
10150SOL    HW131349   4.421   4.549   1.050
10150SOL    HW231350   4.508   4.454   1.151
10151SOL     OW31351   6.526   0.660   6.004
10151SOL    HW131352   6.577   0.613   5.931
10151SOL    HW231353   6.462   0.597   6.046
10152SOL     OW31354   3.826   6.804   2.374
10152SOL    HW131355   3.902   6.774   2.432
10152SOL    HW231356   3.741   6.799   2.426
10153SOL     OW31357   4.704   4.494   1.921
10153SOL    HW131358   4.772   4.469   1.853
10153SOL    HW231359   4.639   4.418   1.933
10154SOL     OW31360   4.393   5.229   5.663
10154SOL    HW131361   4.307   5.210   5.615
10154SOL    HW231362   4.457   5.272   5.601
10155SOL     OW31363   4.371   1.835   4.270
10155SOL    HW131364   4.462   1.797   4.286
10155SOL    HW231365   4.368   1.878   4.180
10156SOL     OW31366   4.248   1.661   7.000
10156SOL    HW131367   4.334   1.614   6.978
10156SOL    HW231368   4.205   1.618   0.051
10157SOL     OW31369   0.295   4.506   1.632
10157SOL    HW131370   0.387   4.494   1.669
10157SOL    HW231371   0.299   4.566   1.552
10158SOL     OW31372   5.875   5.207   6.956
10158SOL    HW131373   5.960   5.259   6.952
10158SOL    HW231374   5.801   5.267   6.987
10159SOL     OW31375   3.093   2.881   1.712
10159SOL    HW131376   3.136   2.925   1.791
10159SOL    HW231377   3.011   2.832   1.742
10160SOL     OW31378   0.369   4.491   2.855
10160SOL    HW131379   0.452   4.458   2.810
10160SOL    HW231380   0.357   4.443   2.942
10161SOL     OW31381   5.593   3.521   5.575
10161SOL    HW131382   5.637   3.528   5.665
10161SOL    HW231383   5.507   3.472   5.583
10162SOL     OW31384   1.534   2.436   1.862
10162SOL    HW131385   1.524   2.440   1.763
10162SOL    HW231386   1.532   2.341   1.893
10163SOL     OW31387   2.782   5.455   5.017
10163SOL    HW131388   2.807   5.486   5.108
10163SOL    HW231389   2.783   5.355   5.014
10164SOL     OW31390   0.508   1.689   3.928
10164SOL    HW131391   0.550   1.608   3.887
10164SOL    HW231392   0.579   1.745   3.972
10165SOL     OW31393   0.730   3.370   4.608
10165SOL    HW131394   0.824   3.347   4.634
10165SOL    HW231395   0.726   3.465   4.578
10166SOL     OW31396   1.993   6.093   2.740
10166SOL    HW131397   2.045   6.089   2.654
10166SOL    HW231398   1.923   6.164   2.733
10167SOL     OW31399   2.170   1.893   6.990
10167SOL    HW131400   2.136   1.808   0.004
10167SOL    HW231401   2.230   1.871   6.913
10168SOL     OW31402   6.878   0.445   6.774
10168SOL    HW131403   6.899   0.348   6.762
10168SOL    HW231404   6.805   0.454   6.843
10169SOL     OW31405   5.154   4.486   3.508
10169SOL    HW131406   5.193   4.568   3.549
10169SOL    HW231407   5.133   4.420   3.580
10170SOL     OW31408   5.295   5.949   0.158
10170SOL    HW131409   5.215   5.997   0.122
10170SOL    HW231410   5.376   6.005   0.144
10171SOL     OW31411   2.175   4.843   5.009
10171SOL    HW131412   2.116   4.782   5.062
10171SOL    HW231413   2.142   4.937   5.018
10172SOL     OW31414   6.686   0.990   3.332
10172SOL    HW131415   6.730   0.926   3.395
10172SOL    HW231416   6.611   0.944   3.285
10173SOL     OW31417   3.518   3.568   4.957
10173SOL    HW131418   3.463   3.642   4.917
10173SOL    HW231419   3.582   3.533   4.888
10174SOL     OW31420   4.177   5.401   1.393
10174SOL    HW131421   4.125   5.412   1.478
10174SOL    HW231422   4.187   5.304   1.372
10175SOL     OW31423   0.133   7.008   4.498
10175SOL    HW131424   0.039   6.991   4.527
10175SOL    HW231425   0.134   0.028   4.411
10176SOL     OW31426   6.559   0.947   4.550
10176SOL    HW131427   6.623   1.000   4.495
10176SOL    HW231428   6.609   0.878   4.602
10177SOL     OW31429   2.439   0.819   3.948
10177SOL    HW131430   2.342   0.806   3.927
10177SOL    HW231431   2.466   0.755   4.020
10178SOL     OW31432   0.709   1.766   1.040
10178SOL    HW131433   0.622   1.769   0.989
10178SOL    HW231434   0.718   1.677   1.084
10179SOL     OW31435   0.836   4.212   0.104
10179SOL    HW131436   0.834   4.121   0.063
10179SOL    HW231437   0.742   4.243   0.122
10180SOL     OW31438   4.129   0.172   5.946
10180SOL    HW131439   4.087   0.127   5.867
10180SOL    HW231440   4.131   0.271   5.931
10181SOL     OW31441   6.218   3.336   3.053
10181SOL    HW131442   6.184   3.287   2.973
10181SOL    HW231443   6.318   3.339   3.052
10182SOL     OW31444   4.537   0.942   1.042
10182SOL    HW131445   4.507   0.873   1.108
10182SOL    HW231446   4.469   1.015   1.036
10183SOL     OW31447   5.089   0.846   5.525
10183SOL    HW131448   5.065   0.918   5.460
10183SOL    HW231449   5.125   0.887   5.609
10184SOL     OW31450   5.284   2.092   5.911
10184SOL    HW131451   5.307   2.126   6.002
10184SOL    HW231452   5.217   2.018   5.918
10185SOL     OW31453   3.413   5.247   1.035
10185SOL    HW131454   3.511   5.250   1.013
10185SOL    HW231455   3.398   5.282   1.127
10186SOL     OW31456   3.502   3.479   6.504
10186SOL    HW131457   3.448   3.532   6.568
10186SOL    HW231458   3.520   3.388   6.542
10187SOL     OW31459   1.822   4.553   5.410
10187SOL    HW131460   1.814   4.615   5.488
10187SOL    HW231461   1.868   4.469   5.440
10188SOL     OW31462   2.879   0.103   6.146
10188SOL    HW131463   2.853   0.076   6.053
10188SOL    HW231464   2.805   0.158   6.186
10189SOL     OW31465   2.012   1.513   4.923
10189SOL    HW131466   2.025   1.416   4.904
10189SOL    HW231467   2.079   1.544   4.989
10190SOL     OW31468   4.694   4.604   0.957
10190SOL    HW131469   4.766   4.537   0.937
10190SOL    HW231470   4.614   4.583   0.902
10191SOL     OW31471   5.276   0.211   0.175
10191SOL    HW131472   5.179   0.233   0.184
10191SOL    HW231473   5.323   0.286   0.126
10192SOL     OW31474   1.524   1.139   4.606
10192SOL    HW131475   1.521   1.109   4.702
10192SOL    HW231476   1.610   1.185   4.588
10193SOL     OW31477   3.705   3.688   3.731
10193SOL    HW131478   3.773   3.637   3.785
10193SOL    HW231479   3.614   3.673   3.770
10194SOL     OW31480   2.959   0.283   2.630
10194SOL    HW131481   2.971   0.382   2.642
10194SOL    HW231482   2.874   0.265   2.581
10195SOL     OW31483   5.059   6.899   2.541
10195SOL    HW131484   5.031   6.995   2.544
10195SOL    HW231485   5.156   6.893   2.563
10196SOL     OW31486   5.465   3.076   4.331
10196SOL    HW131487   5.478   2.980   4.357
10196SOL    HW231488   5.552   3.125   4.339
10197SOL     OW31489   5.754   1.540   2.384
10197SOL    HW131490   5.707   1.452   2.391
10197SOL    HW231491   5.691   1.614   2.407
10198SOL     OW31492   2.304   7.015   1.189
10198SOL    HW131493   2.275   0.045   1.112
10198SOL    HW231494   2.291   0.039   1.274
10199SOL     OW31495   0.839   1.906   0.312
10199SOL    HW131496   0.769   1.857   0.260
10199SOL    HW231497   0.805   1.996   0.338
10200SOL     OW31498   5.801   5.237   5.483
10200SOL    HW131499   5.796   5.153   5.538
10200SOL    HW231500   5.752   5.311   5.530
10201SOL     OW31501   2.056   4.929   2.885
10201SOL    HW131502   1.976   4.907   2.941
10201SOL    HW231503   2.127   4.861   2.900
10202SOL     OW31504   0.385   2.705   2.837
10202SOL    HW131505   0.448   2.695   2.914
10202SOL    HW231506   0.316   2.775   2.858
10203SOL     OW31507   1.191   3.483   1.939
10203SOL    HW131508   1.129   3.524   2.007
10203SOL    HW231509   1.195   3.385   1.953
10204SOL     OW31510   3.190   5.316   4.007
10204SOL    HW131511   3.149   5.231   3.973
10204SOL    HW231512   3.121   5.368   4.057
10205SOL     OW31513   4.373   0.923   2.663
10205SOL    HW131514   4.331   0.939   2.574
10205SOL    HW231515   4.467   0.892   2.650
10206SOL     OW31516   4.426   0.325   6.268
10206SOL    HW131517   4.438   0.296   6.173
10206SOL    HW231518   4.485   0.270   6.328
10207SOL     OW31519   4.177   0.909   3.101
10207SOL    HW131520   4.143   0.981   3.163
10207SOL    HW231521   4.271   0.929   3.076
10208SOL     OW31522   5.918   3.932   4.927
10208SOL    HW131523   5.884   3.992   4.999
10208SOL    HW231524   5.924   3.983   4.841
10209SOL     OW31525   5.212   6.705   6.634
10209SOL    HW131526   5.157   6.644   6.691
10209SOL    HW231527   5.307   6.704   6.665
10210SOL     OW31528   5.025   5.633   1.802
10210SOL    HW131529   5.085   5.659   1.727
10210SOL    HW231530   4.957   5.567   1.769
10211SOL     OW31531   3.775   5.614   4.886
10211SOL    HW131532   3.725   5.528   4.872
10211SOL    HW231533   3.798   5.653   4.797
10212SOL     OW31534   5.984   6.647   5.150
10212SOL    HW131535   6.008   6.698   5.068
10212SOL    HW231536   5.987   6.708   5.229
10213SOL     OW31537   5.224   0.402   3.798
10213SOL    HW131538   5.211   0.409   3.897
10213SOL    HW231539   5.163   0.331   3.761
10214SOL     OW31540   0.081   0.450   1.825
10214SOL    HW131541   7.011   0.451   1.848
10214SOL    HW231542   0.134   0.423   1.906
10215SOL     OW31543   3.752   2.795   0.078
10215SOL    HW131544   3.773   2.702   0.047
10215SOL    HW231545   3.693   2.840   0.011
10216SOL     OW31546   4.991   0.428   2.544
10216SOL    HW131547   5.052   0.477   2.482
10216SOL    HW231548   4.916   0.387   2.491
10217SOL     OW31549   3.134   2.118   5.683
10217SOL    HW131550   3.093   2.067   5.758
10217SOL    HW231551   3.206   2.064   5.641
10218SOL     OW31552   2.315   2.606   1.205
10218SOL    HW131553   2.218   2.587   1.215
10218SOL    HW231554   2.368   2.540   1.258
10219SOL     OW31555   0.873   4.158   0.863
10219SOL    HW131556   0.893   4.101   0.942
10219SOL    HW231557   0.775   4.171   0.854
10220SOL     OW31558   3.701   2.694   0.739
10220SOL    HW131559   3.743   2.740   0.661
10220SOL    HW231560   3.768   2.634   0.782
10221SOL     OW31561   3.026   0.832   5.076
10221SOL    HW131562   3.102   0.816   5.013
10221SOL    HW231563   3.020   0.929   5.097
10222SOL     OW31564   1.878   4.831   5.924
10222SOL    HW131565   1.950   4.762   5.927
10222SOL    HW231566   1.917   4.919   5.898
10223SOL     OW31567   6.614   4.702   0.369
10223SOL    HW131568   6.550   4.657   0.432
10223SOL    HW231569   6.706   4.699   0.407
10224SOL     OW31570   2.109   6.811   4.567
10224SOL    HW131571   2.154   6.724   4.544
10224SOL    HW231572   2.163   6.886   4.530
10225SOL     OW31573   5.448   5.845   4.647
10225SOL    HW131574   5.509   5.767   4.659
10225SOL    HW231575   5.501   5.929   4.641
10226SOL     OW31576   6.823   2.582   0.419
10226SOL    HW131577   6.907   2.601   0.469
10226SOL    HW231578   6.746   2.625   0.466
10227SOL     OW31579   5.521   6.195   6.460
10227SOL    HW131580   5.491   6.205   6.365
10227SOL    HW231581   5.458   6.135   6.508
10228SOL     OW31582   0.713   3.469   3.469
10228SOL    HW131583   0.755   3.546   3.421
10228SOL    HW231584   0.741   3.471   3.566
10229SOL     OW31585   2.315   0.908   1.991
10229SOL    HW131586   2.339   0.811   1.995
10229SOL    HW231587   2.395   0.961   1.962
10230SOL     OW31588   6.432   6.705   4.716
10230SOL    HW131589   6.409   6.633   4.782
10230SOL    HW231590   6.484   6.776   4.763
10231SOL     OW31591   4.410   6.542   4.414
10231SOL    HW131592   4.494   6.565   4.366
10231SOL    HW231593   4.338   6.606   4.389
10232SOL     OW31594   3.766   2.069   4.662
10232SOL    HW131595   3.786   1.972   4.677
10232SOL    HW231596   3.841   2.111   4.612
10233SOL     OW31597   4.695   0.876   5.736
10233SOL    HW131598   4.711   0.974   5.733
10233SOL    HW231599   4.768   0.828   5.686
10234SOL     OW31600   5.714   6.071   1.512
10234SOL    HW131601   5.714   6.094   1.609
10234SOL    HW231602   5.671   5.981   1.499
10235SOL     OW31603   5.108   1.523   5.892
10235SOL    HW131604   5.061   1.579   5.960
10235SOL    HW231605   5.177   1.578   5.845
10236SOL     OW31606   2.360   5.839   2.911
10236SOL    HW131607   2.395   5.763   2.965
10236SOL    HW231608   2.392   5.925   2.950
10237SOL     OW31609   6.552   2.479   3.026
10237SOL    HW131610   6.453   2.482   3.031
10237SOL    HW231611   6.587   2.409   3.088
10238SOL     OW31612   4.887   5.384   4.527
10238SOL    HW131613   4.798   5.430   4.527
10238SOL    HW231614   4.957   5.448   4.557
10239SOL     OW31615   6.983   4.008   4.149
10239SOL    HW131616   0.002   3.960   4.074
10239SOL    HW231617   0.024   4.048   4.210
10240SOL     OW31618   6.418   3.933   3.690
10240SOL    HW131619   6.366   3.871   3.748
10240SOL    HW231620   6.516   3.921   3.708
10241SOL     OW31621   1.973   1.302   3.544
10241SOL    HW131622   1.879   1.274   3.524
10241SOL    HW231623   1.984   1.399   3.521
10242SOL     OW31624   0.842   6.481   5.766
10242SOL    HW131625   0.814   6.494   5.861
10242SOL    HW231626   0.777   6.527   5.705
10243SOL     OW31627   0.888   5.760   2.569
10243SOL    HW131628   0.836   5.845   2.560
10243SOL    HW231629   0.985   5.780   2.558
10244SOL     OW31630   1.866   6.268   6.976
10244SOL    HW131631   1.908   6.359   6.974
10244SOL    HW231632   1.773   6.275   7.011
10245SOL     OW31633   2.256   2.134   0.435
10245SOL    HW131634   2.250   2.073   0.356
10245SOL    HW231635   2.292   2.223   0.407
10246SOL     OW31636   4.064   3.735   4.259
10246SOL    HW131637   3.982   3.692   4.298
10246SOL    HW231638   4.037   3.817   4.207
10247SOL     OW31639   1.360   5.913   5.741
10247SOL    HW131640   1.332   5.911   5.837
10247SOL    HW231641   1.447   5.865   5.732
10248SOL     OW31642   4.804   0.206   2.372
10248SOL    HW131643   4.848   0.277   2.318
10248SOL    HW231644   4.805   0.120   2.321
10249SOL     OW31645   4.165   1.435   0.157
10249SOL    HW131646   4.143   1.344   0.122
10249SOL    HW231647   4.083   1.477   0.194
10250SOL     OW31648   5.856   0.256   0.117
10250SOL    HW131649   5.791   0.234   0.190
10250SOL    HW231650   5.828   0.340   0.071
10251SOL     OW31651   3.893   4.492   6.504
10251SOL    HW131652   3.894   4.571   6.444
10251SOL    HW231653   3.809   4.494   6.560
10252SOL     OW31654   6.373   5.243   2.401
10252SOL    HW131655   6.278   5.275   2.410
10252SOL    HW231656   6.399   5.242   2.305
10253SOL     OW31657   3.698   5.267   6.542
10253SOL    HW131658   3.647   5.229   6.465
10253SOL    HW231659   3.664   5.359   6.563
10254SOL     OW31660   2.490   1.681   4.283
10254SOL    HW131661   2.487   1.714   4.377
10254SOL    HW231662   2.572   1.626   4.269
10255SOL     OW31663   3.120   5.550   3.079
10255SOL    HW131664   3.140   5.554   2.981
10255SOL    HW231665   3.196   5.591   3.131
10256SOL     OW31666   5.921   6.313   6.818
10256SOL    HW131667   5.966   6.236   6.863
10256SOL    HW231668   5.862   6.280   6.745
10257SOL     OW31669   1.731   6.403   6.462
10257SOL    HW131670   1.643   6.358   6.454
10257SOL    HW231671   1.804   6.340   6.436
10258SOL     OW31672   4.226   0.438   3.438
10258SOL    HW131673   4.171   0.360   3.469
10258SOL    HW231674   4.175   0.523   3.454
10259SOL     OW31675   0.859   3.581   3.688
10259SOL    HW131676   0.861   3.657   3.622
10259SOL    HW231677   0.944   3.529   3.681
10260SOL     OW31678   0.008   6.932   1.199
10260SOL    HW131679   7.004   6.974   1.284
10260SOL    HW231680   0.034   6.837   1.217
10261SOL     OW31681   2.263   6.796   1.572
10261SOL    HW131682   2.169   6.786   1.541
10261SOL    HW231683   2.274   6.884   1.618
10262SOL     OW31684   1.792   5.252   5.155
10262SOL    HW131685   1.733   5.306   5.096
10262SOL    HW231686   1.743   5.169   5.183
10263SOL     OW31687   6.685   2.120   5.727
10263SOL    HW131688   6.703   2.022   5.719
10263SOL    HW231689   6.756   2.171   5.677
10264SOL     OW31690   0.225   6.541   6.514
10264SOL    HW131691   0.178   6.611   6.568
10264SOL    HW231692   0.181   6.453   6.528
10265SOL     OW31693   4.302   1.893   2.285
10265SOL    HW131694   4.348   1.918   2.370
10265SOL    HW231695   4.280   1.796   2.287
10266SOL     OW31696   4.155   4.093   6.272
10266SOL    HW131697   4.095   4.147   6.331
10266SOL    HW231698   4.219   4.154   6.225
10267SOL     OW31699   6.280   1.919   6.024
10267SOL    HW131700   6.206   1.923   5.957
10267SOL    HW231701   6.368   1.912   5.976
10268SOL     OW31702   6.108   4.599   1.631
10268SOL    HW131703   6.171   4.665   1.672
10268SOL    HW231704   6.092   4.524   1.696
10269SOL     OW31705   3.090   2.978   6.162
10269SOL    HW131706   3.153   3.055   6.159
10269SOL    HW231707   3.098   2.925   6.078
10270SOL     OW31708   2.918   6.190   0.897
10270SOL    HW131709   2.870   6.159   0.979
10270SOL    HW231710   3.017   6.181   0.910
10271SOL     OW31711   3.641   4.940   0.774
10271SOL    HW131712   3.573   4.981   0.713
10271SOL    HW231713   3.657   4.845   0.748
10272SOL     OW31714   0.574   0.934   5.869
10272SOL    HW131715   0.650   0.984   5.827
10272SOL    HW231716   0.539   0.986   5.947
10273SOL     OW31717   4.397   6.345   4.226
10273SOL    HW131718   4.318   6.327   4.168
10273SOL    HW231719   4.400   6.441   4.251
10274SOL     OW31720   2.303   6.025   6.082
10274SOL    HW131721   2.367   6.081   6.133
10274SOL    HW231722   2.210   6.058   6.098
10275SOL     OW31723   1.144   6.265   1.907
10275SOL    HW131724   1.050   6.232   1.898
10275SOL    HW231725   1.171   6.313   1.824
10276SOL     OW31726   6.942   6.294   6.321
10276SOL    HW131727   6.929   6.393   6.306
10276SOL    HW231728   6.886   6.243   6.256
10277SOL     OW31729   1.856   5.184   3.214
10277SOL    HW131730   1.897   5.239   3.141
10277SOL    HW231731   1.901   5.095   3.218
10278SOL     OW31732   6.365   0.409   6.108
10278SOL    HW131733   6.284   0.370   6.063
10278SOL    HW231734   6.432   0.336   6.125
10279SOL     OW31735   3.493   6.525   3.482
10279SOL    HW131736   3.445   6.558   3.400
10279SOL    HW231737   3.582   6.570   3.488
10280SOL     OW31738   3.024   2.678   6.763
10280SOL    HW131739   2.988   2.727   6.684
10280SOL    HW231740   3.063   2.590   6.732
10281SOL     OW31741   3.935   6.863   4.355
10281SOL    HW131742   3.842   6.861   4.392
10281SOL    HW231743   3.934   6.843   4.258
10282SOL     OW31744   1.140   2.649   4.690
10282SOL    HW131745   1.220   2.705   4.711
10282SOL    HW231746   1.169   2.555   4.673
10283SOL     OW31747   1.228   3.194   5.796
10283SOL    HW131748   1.234   3.106   5.749
10283SOL    HW231749   1.223   3.268   5.728
10284SOL     OW31750   5.553   3.748   6.338
10284SOL    HW131751   5.492   3.738   6.417
10284SOL    HW231752   5.558   3.660   6.289
10285SOL     OW31753   5.885   0.378   0.540
10285SOL    HW131754   5.895   0.392   0.639
10285SOL    HW231755   5.970   0.401   0.494
10286SOL     OW31756   4.553   0.616   3.787
10286SOL    HW131757   4.570   0.658   3.698
10286SOL    HW231758   4.575   0.518   3.783
10287SOL     OW31759   1.997   5.882   1.773
10287SOL    HW131760   2.083   5.918   1.810
10287SOL    HW231761   2.015   5.836   1.686
10288SOL     OW31762   4.820   6.202   3.730
10288SOL    HW131763   4.762   6.213   3.810
10288SOL    HW231764   4.913   6.231   3.752
10289SOL     OW31765   3.277   1.316   1.660
10289SOL    HW131766   3.368   1.275   1.653
10289SOL    HW231767   3.280   1.409   1.623
10290SOL     OW31768   3.003   3.700   2.474
10290SOL    HW131769   2.996   3.616   2.420
10290SOL    HW231770   3.001   3.678   2.571
10291SOL     OW31771   3.858   0.410   5.948
10291SOL    HW131772   3.951   0.419   5.913
10291SOL    HW231773   3.849   0.326   6.001
10292SOL     OW31774   6.706   0.775   4.693
10292SOL    HW131775   6.706   0.772   4.793
10292SOL    HW231776   6.706   0.682   4.657
10293SOL     OW31777   2.510   5.589   2.659
10293SOL    HW131778   2.554   5.557   2.576
10293SOL    HW231779   2.493   5.687   2.653
10294SOL     OW31780   5.964   1.427   2.976
10294SOL    HW131781   5.956   1.422   2.876
10294SOL    HW231782   6.055   1.395   3.004
10295SOL     OW31783   0.806   5.172   5.700
10295SOL    HW131784   0.839   5.165   5.794
10295SOL    HW231785   0.722   5.225   5.697
10296SOL     OW31786   6.346   2.287   1.194
10296SOL    HW131787   6.315   2.192   1.196
10296SOL    HW231788   6.267   2.348   1.184
10297SOL     OW31789   2.167   5.175   4.590
10297SOL    HW131790   2.096   5.156   4.658
10297SOL    HW231791   2.231   5.098   4.587
10298SOL     OW31792   5.466   3.576   3.395
10298SOL    HW131793   5.437   3.484   3.422
10298SOL    HW231794   5.566   3.583   3.403
10299SOL     OW31795   5.075   4.709   2.207
10299SOL    HW131796   5.131   4.627   2.207
10299SOL    HW231797   5.092   4.761   2.123
10300SOL     OW31798   2.120   5.203   2.801
10300SOL    HW131799   2.110   5.117   2.851
10300SOL    HW231800   2.128   5.185   2.703
10301SOL     OW31801   5.735   1.995   1.904
10301SOL    HW131802   5.721   2.051   1.821
10301SOL    HW231803   5.831   1.997   1.930
10302SOL     OW31804   1.415   5.091   3.256
10302SOL    HW131805   1.397   5.030   3.333
10302SOL    HW231806   1.466   5.041   3.186
10303SOL     OW31807   3.774   2.862   1.116
10303SOL    HW131808   3.708   2.932   1.090
10303SOL    HW231809   3.810   2.882   1.207
10304SOL     OW31810   5.995   6.455   3.881
10304SOL    HW131811   5.987   6.364   3.839
10304SOL    HW231812   6.074   6.457   3.942
10305SOL     OW31813   1.778   5.802   1.249
10305SOL    HW131814   1.766   5.891   1.204
10305SOL    HW231815   1.725   5.801   1.334
10306SOL     OW31816   4.489   4.796   0.514
10306SOL    HW131817   4.391   4.805   0.529
10306SOL    HW231818   4.532   4.886   0.527
10307SOL     OW31819   2.921   1.339   5.567
10307SOL    HW131820   3.011   1.374   5.592
10307SOL    HW231821   2.931   1.248   5.526
10308SOL     OW31822   3.254   5.704   3.450
10308SOL    HW131823   3.218   5.751   3.530
10308SOL    HW231824   3.351   5.681   3.464
10309SOL     OW31825   0.838   6.455   3.297
10309SOL    HW131826   0.838   6.360   3.268
10309SOL    HW231827   0.861   6.514   3.219
10310SOL     OW31828   3.858   3.601   4.372
10310SOL    HW131829   3.790   3.622   4.302
10310SOL    HW231830   3.856   3.503   4.393
10311SOL     OW31831   0.115   6.158   0.912
10311SOL    HW131832   0.048   6.160   0.987
10311SOL    HW231833   0.176   6.080   0.924
10312SOL     OW31834   1.702   5.395   1.128
10312SOL    HW131835   1.690   5.328   1.055
10312SOL    HW231836   1.664   5.359   1.213
10313SOL     OW31837   6.201   5.875   3.387
10313SOL    HW131838   6.192   5.882   3.288
10313SOL    HW231839   6.283   5.823   3.410
10314SOL     OW31840   6.675   5.344   6.000
10314SOL    HW131841   6.691   5.306   6.091
10314SOL    HW231842   6.667   5.444   6.006
10315SOL     OW31843   5.886   6.017   4.881
10315SOL    HW131844   5.868   6.049   4.974
10315SOL    HW231845   5.885   6.096   4.819
10316SOL     OW31846   7.018   3.894   3.261
10316SOL    HW131847   6.924   3.927   3.265
10316SOL    HW231848   0.026   3.882   3.353
10317SOL     OW31849   3.458   4.684   0.824
10317SOL    HW131850   3.358   4.679   0.832
10317SOL    HW231851   3.500   4.667   0.913
10318SOL     OW31852   6.591   5.643   2.619
10318SOL    HW131853   6.601   5.740   2.594
10318SOL    HW231854   6.566   5.590   2.537
10319SOL     OW31855   4.831   5.825   4.844
10319SOL    HW131856   4.753   5.827   4.908
10319SOL    HW231857   4.799   5.796   4.754
10320SOL     OW31858   4.655   6.416   1.114
10320SOL    HW131859   4.585   6.483   1.089
10320SOL    HW231860   4.647   6.394   1.212
10321SOL     OW31861   4.090   7.020   4.512
10321SOL    HW131862   4.161   0.051   4.473
10321SOL    HW231863   4.029   6.989   4.438
10322SOL     OW31864   6.519   2.521   0.104
10322SOL    HW131865   6.458   2.575   0.163
10322SOL    HW231866   6.595   2.485   0.158
10323SOL     OW31867   5.761   2.448   5.116
10323SOL    HW131868   5.798   2.486   5.201
10323SOL    HW231869   5.668   2.483   5.102
10324SOL     OW31870   3.150   3.665   3.838
10324SOL    HW131871   3.174   3.581   3.788
10324SOL    HW231872   3.123   3.641   3.932
10325SOL     OW31873   0.899   3.725   3.937
10325SOL    HW131874   0.923   3.654   3.871
10325SOL    HW231875   0.800   3.739   3.936
10326SOL     OW31876   4.857   1.487   1.385
10326SOL    HW131877   4.850   1.395   1.424
10326SOL    HW231878   4.904   1.547   1.451
10327SOL     OW31879   0.096   0.836   3.752
10327SOL    HW131880   0.189   0.801   3.743
10327SOL    HW231881   0.091   0.901   3.828
10328SOL     OW31882   5.865   2.982   2.403
10328SOL    HW131883   5.822   3.044   2.337
10328SOL    HW231884   5.895   2.899   2.356
10329SOL     OW31885   4.396   6.153   2.422
10329SOL    HW131886   4.422   6.110   2.335
10329SOL    HW231887   4.362   6.245   2.404
10330SOL     OW31888   3.495   4.154   0.968
10330SOL    HW131889   3.511   4.200   1.055
10330SOL    HW231890   3.570   4.174   0.905
10331SOL     OW31891   5.150   0.530   4.572
10331SOL    HW131892   5.149   0.552   4.669
10331SOL    HW231893   5.156   0.614   4.518
10332SOL     OW31894   0.045   1.844   6.734
10332SOL    HW131895   0.099   1.894   6.801
10332SOL    HW231896   6.976   1.842   6.761
10333SOL     OW31897   5.035   4.063   4.776
10333SOL    HW131898   5.019   4.156   4.743
10333SOL    HW231899   5.119   4.027   4.736
10334SOL     OW31900   1.051   4.719   4.968
10334SOL    HW131901   0.998   4.712   5.053
10334SOL    HW231902   1.031   4.807   4.924
10335SOL     OW31903   2.139   5.218   1.987
10335SOL    HW131904   2.039   5.220   1.981
10335SOL    HW231905   2.177   5.259   1.905
10336SOL     OW31906   4.234   6.092   2.896
10336SOL    HW131907   4.194   6.080   2.805
10336SOL    HW231908   4.325   6.133   2.887
10337SOL     OW31909   0.485   4.967   5.569
10337SOL    HW131910   0.572   4.988   5.525
10337SOL    HW231911   0.489   4.877   5.611
10338SOL     OW31912   3.838   4.905   3.352
10338SOL    HW131913   3.897   4.980   3.320
10338SOL    HW231914   3.875   4.868   3.437
10339SOL     OW31915   3.065   5.561   0.571
10339SOL    HW131916   2.972   5.574   0.535
10339SOL    HW231917   3.130   5.556   0.495
10340SOL     OW31918   2.053   6.752   6.989
10340SOL    HW131919   2.009   6.834   7.024
10340SOL    HW231920   1.985   6.680   6.977
10341SOL     OW31921   1.401   2.140   2.591
10341SOL    HW131922   1.456   2.175   2.666
10341SOL    HW231923   1.417   2.042   2.580
10342SOL     OW31924   2.857   6.680   4.090
10342SOL    HW131925   2.880   6.700   4.185
10342SOL    HW231926   2.936   6.700   4.032
10343SOL     OW31927   2.102   2.987   4.094
10343SOL    HW131928   2.186   2.947   4.128
10343SOL    HW231929   2.090   3.078   4.134
10344SOL     OW31930   3.906   3.992   0.159
10344SOL    HW131931   4.004   3.978   0.171
10344SOL    HW231932   3.880   3.969   0.065
10345SOL     OW31933   1.601   1.705   5.894
10345SOL    HW131934   1.603   1.788   5.950
10345SOL    HW231935   1.695   1.671   5.882
10346SOL     OW31936   5.638   5.407   0.343
10346SOL    HW131937   5.659   5.505   0.349
10346SOL    HW231938   5.540   5.395   0.332
10347SOL     OW31939   5.044   1.290   2.163
10347SOL    HW131940   5.051   1.225   2.239
10347SOL    HW231941   4.965   1.267   2.107
10348SOL     OW31942   6.759   4.959   5.917
10348SOL    HW131943   6.796   5.033   5.860
10348SOL    HW231944   6.659   4.965   5.918
10349SOL     OW31945   0.498   1.757   1.286
10349SOL    HW131946   0.430   1.741   1.215
10349SOL    HW231947   0.577   1.697   1.271
10350SOL     OW31948   2.318   4.513   4.519
10350SOL    HW131949   2.331   4.527   4.617
10350SOL    HW231950   2.232   4.556   4.491
10351SOL     OW31951   4.622   4.462   4.948
10351SOL    HW131952   4.531   4.485   4.982
10351SOL    HW231953   4.619   4.455   4.848
10352SOL     OW31954   5.619   1.058   6.822
10352SOL    HW131955   5.607   1.023   6.729
10352SOL    HW231956   5.702   1.018   6.861
10353SOL     OW31957   6.344   2.691   3.841
10353SOL    HW131958   6.330   2.601   3.799
10353SOL    HW231959   6.355   2.759   3.769
10354SOL     OW31960   6.122   3.459   1.099
10354SOL    HW131961   6.219   3.482   1.086
10354SOL    HW231962   6.093   3.395   1.028
10355SOL     OW31963   0.527   1.458   0.870
10355SOL    HW131964   0.495   1.409   0.789
10355SOL    HW231965   0.504   1.404   0.952
10356SOL     OW31966   6.132   3.592   5.447
10356SOL    HW131967   6.040   3.585   5.486
10356SOL    HW231968   6.145   3.684   5.409
10357SOL     OW31969   0.770   1.143   5.833
10357SOL    HW131970   0.834   1.118   5.905
10357SOL    HW231971   0.816   1.139   5.744
10358SOL     OW31972   0.963   2.646   3.084
10358SOL    HW131973   1.029   2.681   3.150
10358SOL    HW231974   0.908   2.721   3.049
10359SOL     OW31975   5.994   2.341   2.210
10359SOL    HW131976   6.005   2.242   2.218
10359SOL    HW231977   6.034   2.386   2.291
10360SOL     OW31978   5.790   4.334   1.684
10360SOL    HW131979   5.737   4.277   1.747
10360SOL    HW231980   5.732   4.407   1.649
10361SOL     OW31981   6.610   1.895   2.507
10361SOL    HW131982   6.667   1.974   2.532
10361SOL    HW231983   6.546   1.875   2.582
10362SOL     OW31984   1.202   5.971   1.859
10362SOL    HW131985   1.186   6.068   1.875
10362SOL    HW231986   1.134   5.935   1.795
10363SOL     OW31987   5.620   4.332   6.506
10363SOL    HW131988   5.580   4.351   6.416
10363SOL    HW231989   5.644   4.418   6.550
10364SOL     OW31990   6.042   4.759   2.385
10364SOL    HW131991   6.104   4.836   2.402
10364SOL    HW231992   5.950   4.784   2.417
10365SOL     OW31993   5.624   5.261   0.710
10365SOL    HW131994   5.664   5.348   0.683
10365SOL    HW231995   5.680   5.186   0.673
10366SOL     OW31996   2.859   6.209   3.073
10366SOL    HW131997   2.930   6.193   3.142
10366SOL    HW231998   2.901   6.216   2.983
10367SOL     OW31999   5.980   6.227   1.500
10367SOL    HW132000   5.996   6.130   1.517
10367SOL    HW232001   6.067   6.272   1.482
10368SOL     OW32002   2.045   6.752   1.440
10368SOL    HW132003   2.022   6.835   1.390
10368SOL    HW232004   2.007   6.672   1.393
10369SOL     OW32005   2.410   0.276   5.820
10369SOL    HW132006   2.385   0.243   5.911
10369SOL    HW232007   2.328   0.283   5.763
10370SOL     OW32008   1.263   1.059   5.379
10370SOL    HW132009   1.291   1.100   5.466
10370SOL    HW232010   1.248   1.132   5.311
10371SOL     OW32011   4.802   5.245   2.804
10371SOL    HW132012   4.752   5.220   2.721
10371SOL    HW232013   4.762   5.328   2.844
10372SOL     OW32014   3.075   6.271   1.840
10372SOL    HW132015   3.032   6.325   1.913
10372SOL    HW232016   3.027   6.184   1.830
10373SOL     OW32017   6.693   1.269   6.108
10373SOL    HW132018   6.674   1.302   6.015
10373SOL    HW232019   6.711   1.171   6.106
10374SOL     OW32020   3.741   5.609   3.312
10374SOL    HW132021   3.756   5.680   3.380
10374SOL    HW232022   3.666   5.550   3.341
10375SOL     OW32023   2.357   5.017   6.971
10375SOL    HW132024   2.286   4.994   6.905
10375SOL    HW232025   2.369   5.116   6.976
10376SOL     OW32026   2.365   5.136   3.882
10376SOL    HW132027   2.326   5.107   3.795
10376SOL    HW232028   2.294   5.178   3.938
10377SOL     OW32029   1.614   0.848   2.165
10377SOL    HW132030   1.608   0.946   2.147
10377SOL    HW232031   1.646   0.801   2.082
10378SOL     OW32032   0.106   5.762   4.261
10378SOL    HW132033   0.156   5.846   4.241
10378SOL    HW232034   0.045   5.777   4.339
10379SOL     OW32035   1.996   6.996   4.245
10379SOL    HW132036   2.017   7.020   4.340
10379SOL    HW232037   2.063   0.011   4.184
10380SOL     OW32038   2.888   2.112   4.464
10380SOL    HW132039   2.826   2.034   4.460
10380SOL    HW232040   2.909   2.134   4.559
10381SOL     OW32041   4.656   6.502   1.927
10381SOL    HW132042   4.743   6.486   1.973
10381SOL    HW232043   4.652   6.447   1.843
10382SOL     OW32044   4.214   5.914   1.693
10382SOL    HW132045   4.141   5.915   1.625
10382SOL    HW232046   4.179   5.951   1.779
10383SOL     OW32047   1.736   4.681   0.077
10383SOL    HW132048   1.685   4.748   0.131
10383SOL    HW232049   1.801   4.729   0.018
10384SOL     OW32050   5.740   6.017   1.789
10384SOL    HW132051   5.781   6.108   1.796
10384SOL    HW232052   5.676   6.004   1.864
10385SOL     OW32053   4.359   4.818   0.021
10385SOL    HW132054   4.405   4.882   0.083
10385SOL    HW232055   4.282   4.775   0.068
10386SOL     OW32056   0.069   0.843   0.696
10386SOL    HW132057   0.155   0.879   0.660
10386SOL    HW232058   0.062   0.865   0.793
10387SOL     OW32059   5.358   3.068   1.989
10387SOL    HW132060   5.353   3.157   2.034
10387SOL    HW232061   5.286   3.008   2.025
10388SOL     OW32062   2.420   0.239   4.707
10388SOL    HW132063   2.379   0.221   4.796
10388SOL    HW232064   2.518   0.253   4.717
10389SOL     OW32065   0.469   3.569   0.665
10389SOL    HW132066   0.475   3.471   0.647
10389SOL    HW232067   0.496   3.620   0.583
10390SOL     OW32068   2.363   2.347   1.376
10390SOL    HW132069   2.309   2.278   1.328
10390SOL    HW232070   2.459   2.319   1.376
10391SOL     OW32071   5.120   0.064   4.474
10391SOL    HW132072   5.115   0.146   4.531
10391SOL    HW232073   5.031   0.018   4.476
10392SOL     OW32074   6.539   4.027   4.358
10392SOL    HW132075   6.554   3.930   4.376
10392SOL    HW232076   6.608   4.060   4.293
10393SOL     OW32077   1.360   3.351   3.790
10393SOL    HW132078   1.371   3.296   3.707
10393SOL    HW232079   1.450   3.381   3.822
10394SOL     OW32080   3.283   0.038   4.388
10394SOL    HW132081   3.357   0.098   4.357
10394SOL    HW232082   3.203   0.093   4.409
10395SOL     OW32083   1.375   0.584   0.985
10395SOL    HW132084   1.303   0.595   0.916
10395SOL    HW232085   1.402   0.674   1.019
10396SOL     OW32086   2.692   2.201   4.767
10396SOL    HW132087   2.786   2.183   4.736
10396SOL    HW232088   2.646   2.113   4.782
10397SOL     OW32089   3.482   2.131   2.972
10397SOL    HW132090   3.529   2.050   2.938
10397SOL    HW232091   3.445   2.112   3.063
10398SOL     OW32092   6.430   2.802   1.502
10398SOL    HW132093   6.426   2.735   1.575
10398SOL    HW232094   6.348   2.795   1.445
10399SOL     OW32095   0.380   3.650   1.755
10399SOL    HW132096   0.298   3.699   1.783
10399SOL    HW232097   0.420   3.695   1.676
10400SOL     OW32098   4.136   6.521   0.073
10400SOL    HW132099   4.098   6.530   0.165
10400SOL    HW232100   4.184   6.606   0.049
10401SOL     OW32101   0.432   1.227   5.588
10401SOL    HW132102   0.466   1.179   5.507
10401SOL    HW232103   0.370   1.300   5.560
10402SOL     OW32104   6.806   3.041   4.836
10402SOL    HW132105   6.886   3.033   4.895
10402SOL    HW232106   6.750   3.118   4.867
10403SOL     OW32107   2.672   0.367   2.249
10403SOL    HW132108   2.684   0.270   2.269
10403SOL    HW232109   2.760   0.406   2.219
10404SOL     OW32110   0.160   6.793   6.384
10404SOL    HW132111   0.213   6.709   6.393
10404SOL    HW232112   0.144   6.813   6.287
10405SOL     OW32113   6.771   1.791   6.297
10405SOL    HW132114   6.862   1.814   6.333
10405SOL    HW232115   6.770   1.694   6.271
10406SOL     OW32116   2.939   4.584   1.586
10406SOL    HW132117   2.941   4.553   1.681
10406SOL    HW232118   2.981   4.515   1.527
10407SOL     OW32119   2.988   6.692   0.181
10407SOL    HW132120   3.051   6.615   0.174
10407SOL    HW232121   3.039   6.776   0.199
10408SOL     OW32122   3.909   0.709   0.422
10408SOL    HW132123   3.846   0.726   0.346
10408SOL    HW232124   3.878   0.759   0.502
10409SOL     OW32125   5.938   4.718   1.162
10409SOL    HW132126   5.977   4.743   1.074
10409SOL    HW232127   6.010   4.685   1.223
10410SOL     OW32128   5.736   0.530   0.917
10410SOL    HW132129   5.656   0.573   0.874
10410SOL    HW232130   5.819   0.569   0.879
10411SOL     OW32131   2.961   5.308   3.085
10411SOL    HW132132   2.996   5.266   3.168
10411SOL    HW232133   3.000   5.399   3.074
10412SOL     OW32134   6.301   0.402   0.749
10412SOL    HW132135   6.332   0.336   0.818
10412SOL    HW232136   6.292   0.492   0.792
10413SOL     OW32137   6.005   2.841   1.566
10413SOL    HW132138   6.066   2.764   1.586
10413SOL    HW232139   5.917   2.805   1.535
10414SOL     OW32140   4.776   2.713   4.290
10414SOL    HW132141   4.747   2.668   4.205
10414SOL    HW232142   4.701   2.711   4.356
10415SOL     OW32143   0.789   6.294   6.318
10415SOL    HW132144   0.888   6.284   6.309
10415SOL    HW232145   0.747   6.204   6.328
10416SOL     OW32146   6.073   2.710   4.533
10416SOL    HW132147   6.100   2.615   4.524
10416SOL    HW232148   6.013   2.721   4.612
10417SOL     OW32149   2.611   4.658   4.125
10417SOL    HW132150   2.573   4.590   4.188
10417SOL    HW232151   2.617   4.747   4.171
10418SOL     OW32152   0.850   4.892   5.953
10418SOL    HW132153   0.861   4.969   6.015
10418SOL    HW232154   0.752   4.880   5.933
10419SOL     OW32155   1.154   0.910   0.781
10419SOL    HW132156   1.105   0.966   0.714
10419SOL    HW232157   1.125   0.935   0.873
10420SOL     OW32158   0.046   3.417   3.364
10420SOL    HW132159   6.989   3.362   3.363
10420SOL    HW232160   0.106   3.387   3.291
10421SOL     OW32161   0.466   0.582   3.081
10421SOL    HW132162   0.396   0.512   3.090
10421SOL    HW232163   0.440   0.663   3.133
10422SOL     OW32164   6.308   2.932   6.324
10422SOL    HW132165   6.353   2.844   6.310
10422SOL    HW232166   6.282   2.971   6.236
10423SOL     OW32167   4.787   4.511   3.473
10423SOL    HW132168   4.797   4.427   3.526
10423SOL    HW232169   4.729   4.493   3.393
10424SOL     OW32170   5.173   1.639   6.743
10424SOL    HW132171   5.256   1.615   6.692
10424SOL    HW232172   5.168   1.583   6.826
10425SOL     OW32173   1.387   5.664   2.525
10425SOL    HW132174   1.375   5.569   2.497
10425SOL    HW232175   1.469   5.672   2.582
10426SOL     OW32176   6.399   4.446   0.334
10426SOL    HW132177   6.302   4.470   0.338
10426SOL    HW232178   6.445   4.482   0.415
10427SOL     OW32179   5.270   2.328   0.292
10427SOL    HW132180   5.369   2.339   0.296
10427SOL    HW232181   5.247   2.231   0.300
10428SOL     OW32182   4.677   0.502   4.459
10428SOL    HW132183   4.698   0.409   4.490
10428SOL    HW232184   4.707   0.567   4.528
10429SOL     OW32185   6.856   6.461   1.731
10429SOL    HW132186   6.824   6.366   1.726
10429SOL    HW232187   6.882   6.482   1.825
10430SOL     OW32188   4.284   6.450   2.445
10430SOL    HW132189   4.281   6.418   2.540
10430SOL    HW232190   4.330   6.539   2.442
10431SOL     OW32191   2.969   0.498   4.482
10431SOL    HW132192   2.913   0.432   4.430
10431SOL    HW232193   2.983   0.464   4.575
10432SOL     OW32194   5.811   0.990   4.875
10432SOL    HW132195   5.818   1.028   4.967
10432SOL    HW232196   5.864   1.047   4.812
10433SOL     OW32197   2.114   6.583   0.731
10433SOL    HW132198   2.068   6.497   0.710
10433SOL    HW232199   2.142   6.628   0.645
10434SOL     OW32200   2.304   0.517   4.076
10434SOL    HW132201   2.381   0.466   4.039
10434SOL    HW232202   2.271   0.582   4.008
10435SOL     OW32203   5.332   6.318   6.188
10435SOL    HW132204   5.379   6.393   6.142
10435SOL    HW232205   5.233   6.328   6.176
10436SOL     OW32206   1.675   4.887   3.718
10436SOL    HW132207   1.710   4.847   3.802
10436SOL    HW232208   1.577   4.867   3.710
10437SOL     OW32209   6.996   5.178   6.165
10437SOL    HW132210   7.019   5.274   6.145
10437SOL    HW232211   6.906   5.157   6.128
10438SOL     OW32212   4.091   6.676   0.302
10438SOL    HW132213   4.100   6.767   0.344
10438SOL    HW232214   4.123   6.606   0.367
10439SOL     OW32215   3.754   0.025   5.900
10439SOL    HW132216   3.799   6.964   5.903
10439SOL    HW232217   3.777   0.077   5.982
10440SOL     OW32218   1.873   6.439   0.621
10440SOL    HW132219   1.782   6.453   0.660
10440SOL    HW232220   1.899   6.518   0.565
10441SOL     OW32221   5.227   2.050   6.216
10441SOL    HW132222   5.240   2.127   6.279
10441SOL    HW232223   5.136   2.011   6.230
10442SOL     OW32224   3.812   5.013   5.931
10442SOL    HW132225   3.890   4.952   5.946
10442SOL    HW232226   3.750   5.007   6.010
10443SOL     OW32227   5.928   3.515   5.164
10443SOL    HW132228   5.833   3.548   5.159
10443SOL    HW232229   5.988   3.577   5.113
10444SOL     OW32230   3.969   5.441   4.626
10444SOL    HW132231   3.942   5.508   4.557
10444SOL    HW232232   3.924   5.354   4.608
10445SOL     OW32233   6.984   6.165   5.275
10445SOL    HW132234   6.921   6.233   5.238
10445SOL    HW232235   6.934   6.097   5.328
10446SOL     OW32236   1.132   5.051   5.967
10446SOL    HW132237   1.181   5.111   6.030
10446SOL    HW232238   1.099   5.105   5.890
10447SOL     OW32239   6.150   2.517   1.234
10447SOL    HW132240   6.060   2.538   1.195
10447SOL    HW232241   6.186   2.599   1.279
10448SOL     OW32242   3.901   3.901   2.531
10448SOL    HW132243   3.919   3.868   2.439
10448SOL    HW232244   3.854   3.989   2.526
10449SOL     OW32245   2.721   5.463   4.468
10449SOL    HW132246   2.661   5.428   4.396
10449SOL    HW232247   2.666   5.508   4.539
10450SOL     OW32248   6.960   2.180   0.805
10450SOL    HW132249   6.901   2.100   0.792
10450SOL    HW232250   6.914   2.262   0.773
10451SOL     OW32251   2.415   4.416   3.109
10451SOL    HW132252   2.386   4.349   3.178
10451SOL    HW232253   2.357   4.406   3.027
10452SOL     OW32254   0.929   3.293   3.995
10452SOL    HW132255   0.961   3.207   4.035
10452SOL    HW232256   0.860   3.334   4.056
10453SOL     OW32257   4.951   6.714   1.898
10453SOL    HW132258   4.947   6.618   1.869
10453SOL    HW232259   4.909   6.723   1.988
10454SOL     OW32260   5.113   3.002   2.097
10454SOL    HW132261   5.024   2.965   2.120
10454SOL    HW232262   5.109   3.102   2.094
10455SOL     OW32263   0.079   5.052   4.038
10455SOL    HW132264   7.007   5.042   4.042
10455SOL    HW232265   0.123   4.967   4.067
10456SOL     OW32266   4.408   5.970   1.185
10456SOL    HW132267   4.491   6.001   1.230
10456SOL    HW232268   4.330   5.986   1.246
10457SOL     OW32269   4.090   3.447   3.255
10457SOL    HW132270   4.082   3.352   3.282
10457SOL    HW232271   4.103   3.453   3.156
10458SOL     OW32272   1.013   6.645   0.752
10458SOL    HW132273   0.977   6.735   0.777
10458SOL    HW232274   1.063   6.651   0.666
10459SOL     OW32275   6.293   5.131   2.997
10459SOL    HW132276   6.363   5.069   2.961
10459SOL    HW232277   6.337   5.211   3.037
10460SOL     OW32278   2.102   5.179   2.282
10460SOL    HW132279   2.015   5.131   2.288
10460SOL    HW232280   2.121   5.201   2.186
10461SOL     OW32281   2.918   1.389   6.616
10461SOL    HW132282   2.971   1.349   6.691
10461SOL    HW232283   2.981   1.435   6.553
10462SOL     OW32284   6.765   0.178   0.908
10462SOL    HW132285   6.713   0.110   0.959
10462SOL    HW232286   6.862   0.160   0.918
10463SOL     OW32287   2.902   4.623   0.620
10463SOL    HW132288   2.871   4.701   0.564
10463SOL    HW232289   2.822   4.574   0.654
10464SOL     OW32290   5.139   0.651   1.120
10464SOL    HW132291   5.154   0.651   1.021
10464SOL    HW232292   5.044   0.678   1.139
10465SOL     OW32293   6.386   5.084   6.186
10465SOL    HW132294   6.350   4.992   6.200
10465SOL    HW232295   6.337   5.149   6.245
10466SOL     OW32296   5.163   5.922   5.757
10466SOL    HW132297   5.138   5.994   5.692
10466SOL    HW232298   5.180   5.837   5.707
10467SOL     OW32299   2.956   0.718   5.328
10467SOL    HW132300   2.970   0.739   5.231
10467SOL    HW232301   3.020   0.645   5.355
10468SOL     OW32302   3.422   6.526   3.063
10468SOL    HW132303   3.460   6.460   3.127
10468SOL    HW232304   3.342   6.487   3.017
10469SOL     OW32305   1.528   4.390   0.721
10469SOL    HW132306   1.520   4.412   0.818
10469SOL    HW232307   1.574   4.466   0.674
10470SOL     OW32308   2.141   1.427   4.153
10470SOL    HW132309   2.082   1.405   4.230
10470SOL    HW232310   2.165   1.343   4.103
10471SOL     OW32311   3.264   3.911   0.400
10471SOL    HW132312   3.285   3.827   0.450
10471SOL    HW232313   3.233   3.889   0.308
10472SOL     OW32314   4.810   1.107   2.422
10472SOL    HW132315   4.739   1.045   2.454
10472SOL    HW232316   4.892   1.095   2.477
10473SOL     OW32317   4.765   6.628   0.776
10473SOL    HW132318   4.691   6.562   0.762
10473SOL    HW232319   4.728   6.721   0.776
10474SOL     OW32320   3.876   0.573   5.287
10474SOL    HW132321   3.873   0.475   5.307
10474SOL    HW232322   3.968   0.608   5.305
10475SOL     OW32323   4.236   6.698   1.819
10475SOL    HW132324   4.174   6.620   1.811
10475SOL    HW232325   4.313   6.687   1.756
10476SOL     OW32326   0.160   5.267   0.064
10476SOL    HW132327   0.141   5.204   7.016
10476SOL    HW232328   0.181   5.358   0.027
10477SOL     OW32329   5.695   4.106   5.265
10477SOL    HW132330   5.765   4.098   5.194
10477SOL    HW232331   5.719   4.048   5.343
10478SOL     OW32332   0.404   6.594   1.093
10478SOL    HW132333   0.379   6.596   1.189
10478SOL    HW232334   0.369   6.511   1.051
10479SOL     OW32335   1.234   4.208   3.488
10479SOL    HW132336   1.248   4.112   3.511
10479SOL    HW232337   1.206   4.258   3.570
10480SOL     OW32338   5.790   0.175   1.949
10480SOL    HW132339   5.725   0.118   1.999
10480SOL    HW232340   5.797   0.265   1.994
10481SOL     OW32341   2.023   0.561   5.022
10481SOL    HW132342   2.058   0.655   5.029
10481SOL    HW232343   1.949   0.559   4.955
10482SOL     OW32344   1.404   5.436   5.628
10482SOL    HW132345   1.306   5.451   5.640
10482SOL    HW232346   1.442   5.393   5.710
10483SOL     OW32347   0.022   5.312   0.473
10483SOL    HW132348   0.066   5.398   0.446
10483SOL    HW232349   7.022   5.262   0.391
10484SOL     OW32350   6.317   1.244   1.555
10484SOL    HW132351   6.385   1.267   1.485
10484SOL    HW232352   6.340   1.291   1.641
10485SOL     OW32353   3.535   4.123   3.315
10485SOL    HW132354   3.528   4.175   3.401
10485SOL    HW232355   3.628   4.090   3.304
10486SOL     OW32356   6.048   7.000   5.242
10486SOL    HW132357   6.124   6.941   5.267
10486SOL    HW232358   6.036   0.044   5.311
10487SOL     OW32359   4.858   2.267   1.698
10487SOL    HW132360   4.860   2.284   1.797
10487SOL    HW232361   4.936   2.211   1.672
10488SOL     OW32362   5.924   2.672   6.009
10488SOL    HW132363   5.960   2.604   6.073
10488SOL    HW232364   5.882   2.747   6.059
10489SOL     OW32365   6.129   4.517   4.997
10489SOL    HW132366   6.100   4.516   4.901
10489SOL    HW232367   6.092   4.598   5.042
10490SOL     OW32368   5.350   6.412   6.489
10490SOL    HW132369   5.429   6.351   6.486
10490SOL    HW232370   5.357   6.479   6.414
10491SOL     OW32371   1.914   2.592   5.881
10491SOL    HW132372   1.920   2.669   5.818
10491SOL    HW232373   1.922   2.624   5.975
10492SOL     OW32374   3.774   0.434   0.263
10492SOL    HW132375   3.761   0.398   0.356
10492SOL    HW232376   3.749   0.530   0.261
10493SOL     OW32377   4.420   5.688   1.194
10493SOL    HW132378   4.426   5.785   1.173
10493SOL    HW232379   4.324   5.659   1.190
10494SOL     OW32380   0.993   4.703   5.551
10494SOL    HW132381   0.900   4.680   5.522
10494SOL    HW232382   0.991   4.786   5.606
10495SOL     OW32383   0.163   6.647   0.763
10495SOL    HW132384   0.192   6.722   0.822
10495SOL    HW232385   0.173   6.560   0.811
10496SOL     OW32386   7.020   3.671   5.279
10496SOL    HW132387   0.008   3.651   5.182
10496SOL    HW232388   6.924   3.651   5.302
10497SOL     OW32389   2.494   0.255   0.894
10497SOL    HW132390   2.497   0.226   0.799
10497SOL    HW232391   2.403   0.291   0.915
10498SOL     OW32392   4.245   4.342   0.394
10498SOL    HW132393   4.256   4.243   0.401
10498SOL    HW232394   4.327   4.382   0.354
10499SOL     OW32395   5.791   4.366   2.699
10499SOL    HW132396   5.870   4.370   2.638
10499SOL    HW232397   5.819   4.392   2.791
10500SOL     OW32398   0.111   3.218   5.585
10500SOL    HW132399   0.206   3.191   5.574
10500SOL    HW232400   0.078   3.186   5.674
10501SOL     OW32401   3.661   4.905   2.780
10501SOL    HW132402   3.655   5.005   2.787
10501SOL    HW232403   3.676   4.867   2.871
10502SOL     OW32404   3.421   3.796   2.026
10502SOL    HW132405   3.415   3.872   1.961
10502SOL    HW232406   3.508   3.799   2.074
10503SOL     OW32407   6.236   2.513   6.370
10503SOL    HW132408   6.243   2.480   6.464
10503SOL    HW232409   6.273   2.444   6.308
10504SOL     OW32410   1.382   2.753   5.903
10504SOL    HW132411   1.299   2.806   5.885
10504SOL    HW232412   1.369   2.697   5.985
10505SOL     OW32413   5.928   6.561   0.653
10505SOL    HW132414   6.011   6.609   0.627
10505SOL    HW232415   5.950   6.466   0.678
10506SOL     OW32416   1.156   2.425   0.052
10506SOL    HW132417   1.087   2.460   0.115
10506SOL    HW232418   1.137   2.329   0.033
10507SOL     OW32419   1.085   5.301   6.174
10507SOL    HW132420   1.021   5.370   6.207
10507SOL    HW232421   1.150   5.345   6.112
10508SOL     OW32422   1.775   4.765   4.786
10508SOL    HW132423   1.744   4.734   4.696
10508SOL    HW232424   1.819   4.688   4.834
10509SOL     OW32425   4.830   2.768   2.946
10509SOL    HW132426   4.772   2.728   3.018
10509SOL    HW232427   4.839   2.866   2.962
10510SOL     OW32428   5.730   5.820   3.905
10510SOL    HW132429   5.769   5.751   3.845
10510SOL    HW232430   5.697   5.897   3.850
10511SOL     OW32431   5.006   1.868   1.649
10511SOL    HW132432   5.050   1.948   1.607
10511SOL    HW232433   5.005   1.879   1.749
10512SOL     OW32434   4.536   0.988   4.695
10512SOL    HW132435   4.528   0.945   4.785
10512SOL    HW232436   4.450   1.034   4.673
10513SOL     OW32437   4.461   3.166   1.241
10513SOL    HW132438   4.421   3.176   1.150
10513SOL    HW232439   4.475   3.256   1.282
10514SOL     OW32440   1.433   3.460   1.793
10514SOL    HW132441   1.404   3.393   1.725
10514SOL    HW232442   1.353   3.495   1.842
10515SOL     OW32443   2.408   2.635   5.109
10515SOL    HW132444   2.370   2.728   5.113
10515SOL    HW232445   2.499   2.635   5.151
10516SOL     OW32446   3.755   1.684   1.764
10516SOL    HW132447   3.751   1.784   1.764
10516SOL    HW232448   3.850   1.655   1.760
10517SOL     OW32449   1.734   2.336   2.534
10517SOL    HW132450   1.676   2.342   2.453
10517SOL    HW232451   1.686   2.285   2.606
10518SOL     OW32452   0.679   4.727   2.936
10518SOL    HW132453   0.630   4.805   2.898
10518SOL    HW232454   0.659   4.721   3.034
10519SOL     OW32455   3.760   0.000   1.183
10519SOL    HW132456   3.808   0.051   1.255
10519SOL    HW232457   3.702   6.958   1.226
10520SOL     OW32458   6.766   2.679   5.880
10520SOL    HW132459   6.840   2.744   5.895
10520SOL    HW232460   6.804   2.594   5.844
10521SOL     OW32461   6.982   3.003   2.250
10521SOL    HW132462   7.000   3.021   2.154
10521SOL    HW232463   6.941   2.912   2.260
10522SOL     OW32464   5.223   2.572   3.427
10522SOL    HW132465   5.230   2.621   3.514
10522SOL    HW232466   5.193   2.478   3.444
10523SOL     OW32467   0.496   4.138   3.387
10523SOL    HW132468   0.526   4.213   3.446
10523SOL    HW232469   0.508   4.164   3.291
10524SOL     OW32470   0.475   6.254   5.142
10524SOL    HW132471   0.414   6.225   5.216
10524SOL    HW232472   0.423   6.303   5.073
10525SOL     OW32473   4.839   1.819   3.890
10525SOL    HW132474   4.753   1.782   3.855
10525SOL    HW232475   4.836   1.919   3.886
10526SOL     OW32476   1.062   4.554   0.257
10526SOL    HW132477   1.081   4.458   0.277
10526SOL    HW232478   0.999   4.591   0.325
10527SOL     OW32479   0.430   0.303   4.834
10527SOL    HW132480   0.367   0.328   4.760
10527SOL    HW232481   0.378   0.290   4.918
10528SOL     OW32482   1.766   3.337   5.470
10528SOL    HW132483   1.852   3.347   5.519
10528SOL    HW232484   1.716   3.423   5.470
10529SOL     OW32485   0.586   6.364   1.193
10529SOL    HW132486   0.646   6.367   1.273
10529SOL    HW232487   0.621   6.426   1.123
10530SOL     OW32488   0.375   5.319   0.761
10530SOL    HW132489   0.394   5.266   0.844
10530SOL    HW232490   0.308   5.390   0.781
10531SOL     OW32491   2.868   3.410   5.197
10531SOL    HW132492   2.911   3.321   5.216
10531SOL    HW232493   2.775   3.410   5.232
10532SOL     OW32494   5.343   6.423   6.761
10532SOL    HW132495   5.368   6.432   6.665
10532SOL    HW232496   5.378   6.336   6.796
10533SOL     OW32497   3.860   6.496   2.886
10533SOL    HW132498   3.956   6.494   2.915
10533SOL    HW232499   3.816   6.578   2.924
10534SOL     OW32500   1.432   6.187   4.152
10534SOL    HW132501   1.437   6.089   4.133
10534SOL    HW232502   1.349   6.225   4.111
10535SOL     OW32503   3.928   2.161   2.404
10535SOL    HW132504   3.932   2.165   2.304
10535SOL    HW232505   3.834   2.143   2.432
10536SOL     OW32506   5.235   2.540   4.320
10536SOL    HW132507   5.209   2.622   4.370
10536SOL    HW232508   5.174   2.465   4.345
10537SOL     OW32509   3.830   0.156   4.407
10537SOL    HW132510   3.908   0.120   4.459
10537SOL    HW232511   3.754   0.174   4.469
10538SOL     OW32512   0.222   3.572   2.959
10538SOL    HW132513   0.216   3.654   3.015
10538SOL    HW232514   0.184   3.591   2.868
10539SOL     OW32515   6.267   0.107   3.392
10539SOL    HW132516   6.192   0.126   3.456
10539SOL    HW232517   6.303   0.015   3.409
10540SOL     OW32518   1.670   3.747   6.087
10540SOL    HW132519   1.743   3.691   6.049
10540SOL    HW232520   1.630   3.804   6.014
10541SOL     OW32521   3.249   3.343   5.028
10541SOL    HW132522   3.227   3.440   5.038
10541SOL    HW232523   3.307   3.331   4.947
10542SOL     OW32524   4.898   6.873   4.464
10542SOL    HW132525   4.950   6.791   4.489
10542SOL    HW232526   4.865   6.863   4.370
10543SOL     OW32527   1.107   3.507   5.036
10543SOL    HW132528   1.031   3.478   4.978
10543SOL    HW232529   1.187   3.450   5.017
10544SOL     OW32530   2.052   1.836   3.237
10544SOL    HW132531   2.007   1.775   3.172
10544SOL    HW232532   2.081   1.784   3.318
10545SOL     OW32533   2.151   2.847   2.482
10545SOL    HW132534   2.132   2.887   2.392
10545SOL    HW232535   2.243   2.809   2.483
10546SOL     OW32536   3.022   6.737   6.811
10546SOL    HW132537   2.964   6.817   6.820
10546SOL    HW232538   3.108   6.753   6.859
10547SOL     OW32539   4.164   6.652   5.040
10547SOL    HW132540   4.091   6.592   5.071
10547SOL    HW232541   4.137   6.698   4.956
10548SOL     OW32542   0.364   5.623   3.648
10548SOL    HW132543   0.306   5.556   3.694
10548SOL    HW232544   0.315   5.710   3.638
10549SOL     OW32545   0.081   0.601   1.604
10549SOL    HW132546   0.057   0.555   1.689
10549SOL    HW232547   7.025   0.632   1.558
10550SOL     OW32548   4.636   5.322   3.478
10550SOL    HW132549   4.581   5.365   3.549
10550SOL    HW232550   4.596   5.233   3.455
10551SOL     OW32551   2.482   1.766   5.751
10551SOL    HW132552   2.489   1.804   5.659
10551SOL    HW232553   2.516   1.672   5.751
10552SOL     OW32554   2.840   0.939   4.267
10552SOL    HW132555   2.902   0.955   4.344
10552SOL    HW232556   2.749   0.915   4.301
10553SOL     OW32557   6.767   5.655   0.954
10553SOL    HW132558   6.728   5.711   0.881
10553SOL    HW232559   6.832   5.710   1.007
10554SOL     OW32560   5.989   6.185   2.446
10554SOL    HW132561   6.045   6.175   2.364
10554SOL    HW232562   6.005   6.275   2.487
10555SOL     OW32563   3.911   3.124   0.903
10555SOL    HW132564   3.920   3.195   0.973
10555SOL    HW232565   3.958   3.041   0.934
10556SOL     OW32566   2.407   1.394   2.666
10556SOL    HW132567   2.319   1.437   2.685
10556SOL    HW232568   2.418   1.382   2.568
10557SOL     OW32569   2.661   4.673   3.427
10557SOL    HW132570   2.743   4.700   3.477
10557SOL    HW232571   2.614   4.600   3.477
10558SOL     OW32572   3.517   5.583   5.186
10558SOL    HW132573   3.528   5.491   5.149
10558SOL    HW232574   3.502   5.579   5.285
10559SOL     OW32575   4.001   6.723   0.849
10559SOL    HW132576   3.953   6.707   0.936
10559SOL    HW232577   4.006   6.637   0.798
10560SOL     OW32578   5.580   0.191   2.125
10560SOL    HW132579   5.558   0.270   2.067
10560SOL    HW232580   5.529   0.198   2.210
10561SOL     OW32581   6.196   4.790   0.050
10561SOL    HW132582   6.151   4.853   0.114
10561SOL    HW232583   6.178   4.696   0.078
10562SOL     OW32584   4.402   5.751   2.679
10562SOL    HW132585   4.398   5.850   2.672
10562SOL    HW232586   4.446   5.725   2.765
10563SOL     OW32587   0.237   6.927   2.010
10563SOL    HW132588   0.204   6.982   1.933
10563SOL    HW232589   0.210   6.832   1.998
10564SOL     OW32590   5.393   4.791   3.863
10564SOL    HW132591   5.414   4.819   3.957
10564SOL    HW232592   5.461   4.830   3.801
10565SOL     OW32593   0.540   0.172   6.206
10565SOL    HW132594   0.454   0.160   6.156
10565SOL    HW232595   0.615   0.181   6.140
10566SOL     OW32596   3.222   2.838   0.504
10566SOL    HW132597   3.313   2.803   0.526
10566SOL    HW232598   3.215   2.857   0.406
10567SOL     OW32599   1.469   2.059   6.481
10567SOL    HW132600   1.373   2.087   6.473
10567SOL    HW232601   1.527   2.141   6.486
10568SOL     OW32602   4.902   2.461   6.098
10568SOL    HW132603   4.883   2.538   6.037
10568SOL    HW232604   4.951   2.494   6.179
10569SOL     OW32605   5.813   6.460   0.258
10569SOL    HW132606   5.721   6.454   0.298
10569SOL    HW232607   5.860   6.373   0.269
10570SOL     OW32608   1.271   4.344   3.247
10570SOL    HW132609   1.354   4.310   3.204
10570SOL    HW232610   1.250   4.288   3.328
10571SOL     OW32611   6.311   4.567   6.522
10571SOL    HW132612   6.228   4.510   6.524
10571SOL    HW232613   6.344   4.575   6.428
10572SOL     OW32614   5.780   3.973   0.904
10572SOL    HW132615   5.778   3.877   0.875
10572SOL    HW232616   5.797   4.032   0.825
10573SOL     OW32617   6.000   1.719   3.115
10573SOL    HW132618   6.022   1.717   3.213
10573SOL    HW232619   5.967   1.630   3.086
10574SOL     OW32620   6.796   2.568   3.514
10574SOL    HW132621   6.803   2.668   3.518
10574SOL    HW232622   6.859   2.534   3.444
10575SOL     OW32623   6.275   6.793   2.050
10575SOL    HW132624   6.247   6.887   2.032
10575SOL    HW232625   6.375   6.788   2.053
10576SOL     OW32626   1.294   4.325   4.493
10576SOL    HW132627   1.303   4.310   4.591
10576SOL    HW232628   1.379   4.299   4.447
10577SOL     OW32629   3.673   4.703   0.406
10577SOL    HW132630   3.674   4.801   0.423
10577SOL    HW232631   3.679   4.654   0.493
10578SOL     OW32632   0.277   2.983   4.913
10578SOL    HW132633   0.272   2.971   4.814
10578SOL    HW232634   0.372   2.973   4.943
10579SOL     OW32635   1.134   3.732   6.518
10579SOL    HW132636   1.050   3.678   6.511
10579SOL    HW232637   1.145   3.764   6.612
10580SOL     OW32638   6.167   6.897   0.256
10580SOL    HW132639   6.100   6.824   0.268
10580SOL    HW232640   6.257   6.865   0.285
10581SOL     OW32641   4.902   6.943   3.198
10581SOL    HW132642   4.983   6.931   3.141
10581SOL    HW232643   4.926   6.995   3.279
10582SOL     OW32644   5.484   4.083   6.580
10582SOL    HW132645   5.521   4.159   6.525
10582SOL    HW232646   5.528   3.998   6.552
10583SOL     OW32647   2.982   1.881   4.939
10583SOL    HW132648   2.924   1.938   4.881
10583SOL    HW232649   3.023   1.937   5.011
10584SOL     OW32650   1.116   0.127   4.563
10584SOL    HW132651   1.067   0.064   4.502
10584SOL    HW232652   1.120   0.089   4.655
10585SOL     OW32653   1.206   0.195   5.105
10585SOL    HW132654   1.126   0.191   5.166
10585SOL    HW232655   1.234   0.102   5.082
10586SOL     OW32656   4.196   4.181   5.314
10586SOL    HW132657   4.179   4.100   5.257
10586SOL    HW232658   4.217   4.259   5.256
10587SOL     OW32659   2.354   4.996   5.383
10587SOL    HW132660   2.364   4.898   5.367
10587SOL    HW232661   2.258   5.017   5.400
10588SOL     OW32662   1.188   4.011   4.243
10588SOL    HW132663   1.129   4.072   4.296
10588SOL    HW232664   1.131   3.941   4.200
10589SOL     OW32665   5.274   5.804   3.964
10589SOL    HW132666   5.301   5.882   4.021
10589SOL    HW232667   5.174   5.796   3.965
10590SOL     OW32668   0.819   5.007   2.429
10590SOL    HW132669   0.859   4.943   2.362
10590SOL    HW232670   0.741   4.963   2.473
10591SOL     OW32671   6.856   2.698   1.550
10591SOL    HW132672   6.886   2.660   1.463
10591SOL    HW232673   6.791   2.635   1.594
10592SOL     OW32674   6.361   2.261   5.222
10592SOL    HW132675   6.413   2.322   5.161
10592SOL    HW232676   6.306   2.316   5.284
10593SOL     OW32677   3.110   5.185   3.293
10593SOL    HW132678   3.030   5.160   3.346
10593SOL    HW232679   3.166   5.103   3.276
10594SOL     OW32680   2.956   6.315   3.738
10594SOL    HW132681   2.977   6.412   3.734
10594SOL    HW232682   2.943   6.279   3.646
10595SOL     OW32683   5.091   6.698   0.368
10595SOL    HW132684   5.095   6.787   0.322
10595SOL    HW232685   5.015   6.697   0.433
10596SOL     OW32686   4.904   3.185   0.076
10596SOL    HW132687   4.854   3.271   0.062
10596SOL    HW232688   4.894   3.127   7.022
10597SOL     OW32689   2.508   0.503   5.081
10597SOL    HW132690   2.422   0.503   5.132
10597SOL    HW232691   2.547   0.411   5.082
10598SOL     OW32692   2.941   1.225   6.157
10598SOL    HW132693   2.903   1.133   6.167
10598SOL    HW232694   3.016   1.236   6.223
10599SOL     OW32695   6.938   2.112   6.744
10599SOL    HW132696   6.883   2.028   6.743
10599SOL    HW232697   6.927   2.157   6.833
10600SOL     OW32698   2.605   2.533   1.291
10600SOL    HW132699   2.674   2.482   1.344
10600SOL    HW232700   2.618   2.631   1.306
10601SOL     OW32701   1.304   0.857   5.739
10601SOL    HW132702   1.249   0.940   5.730
10601SOL    HW232703   1.352   0.858   5.826
10602SOL     OW32704   6.932   7.008   1.447
10602SOL    HW132705   6.848   0.022   1.482
10602SOL    HW232706   6.965   6.939   1.512
10603SOL     OW32707   5.204   0.716   2.910
10603SOL    HW132708   5.275   0.750   2.972
10603SOL    HW232709   5.235   0.728   2.815
10604SOL     OW32710   4.974   0.230   4.743
10604SOL    HW132711   4.888   0.223   4.691
10604SOL    HW232712   4.957   0.280   4.828
10605SOL     OW32713   2.300   1.762   1.110
10605SOL    HW132714   2.238   1.753   1.032
10605SOL    HW232715   2.257   1.816   1.182
10606SOL     OW32716   6.445   0.273   0.234
10606SOL    HW132717   6.380   0.214   0.281
10606SOL    HW232718   6.443   0.364   0.276
10607SOL     OW32719   3.173   5.060   6.467
10607SOL    HW132720   3.158   5.100   6.377
10607SOL    HW232721   3.088   5.016   6.498
10608SOL     OW32722   5.788   4.023   3.735
10608SOL    HW132723   5.729   3.944   3.750
10608SOL    HW232724   5.791   4.046   3.638
10609SOL     OW32725   4.722   1.451   6.642
10609SOL    HW132726   4.650   1.496   6.588
10609SOL    HW232727   4.720   1.487   6.735
10610SOL     OW32728   0.763   1.411   3.322
10610SOL    HW132729   0.817   1.485   3.281
10610SOL    HW232730   0.778   1.326   3.272
10611SOL     OW32731   3.883   5.639   4.412
10611SOL    HW132732   3.809   5.575   4.391
10611SOL    HW232733   3.905   5.692   4.330
10612SOL     OW32734   6.084   1.682   3.377
10612SOL    HW132735   6.176   1.644   3.378
10612SOL    HW232736   6.083   1.768   3.427
10613SOL     OW32737   4.298   6.223   4.607
10613SOL    HW132738   4.336   6.133   4.630
10613SOL    HW232739   4.372   6.290   4.602
10614SOL     OW32740   3.842   1.253   6.062
10614SOL    HW132741   3.889   1.166   6.076
10614SOL    HW232742   3.882   1.323   6.120
10615SOL     OW32743   1.548   1.695   5.467
10615SOL    HW132744   1.636   1.740   5.480
10615SOL    HW232745   1.559   1.615   5.408
10616SOL     OW32746   2.479   6.387   0.157
10616SOL    HW132747   2.494   6.485   0.168
10616SOL    HW232748   2.449   6.347   0.244
10617SOL     OW32749   2.257   3.317   1.429
10617SOL    HW132750   2.275   3.352   1.521
10617SOL    HW232751   2.304   3.229   1.417
10618SOL     OW32752   1.442   5.270   3.753
10618SOL    HW132753   1.523   5.220   3.724
10618SOL    HW232754   1.379   5.280   3.675
10619SOL     OW32755   2.246   2.511   2.235
10619SOL    HW132756   2.211   2.456   2.159
10619SOL    HW232757   2.171   2.532   2.298
10620SOL     OW32758   3.350   1.379   6.254
10620SOL    HW132759   3.291   1.391   6.334
10620SOL    HW232760   3.332   1.453   6.189
10621SOL     OW32761   0.266   3.978   3.335
10621SOL    HW132762   0.347   4.020   3.376
10621SOL    HW232763   0.207   3.941   3.407
10622SOL     OW32764   4.729   2.180   0.199
10622SOL    HW132765   4.750   2.268   0.157
10622SOL    HW232766   4.630   2.164   0.195
10623SOL     OW32767   4.763   6.761   6.075
10623SOL    HW132768   4.777   6.735   5.980
10623SOL    HW232769   4.715   6.688   6.123
10624SOL     OW32770   0.252   1.963   6.892
10624SOL    HW132771   0.270   2.048   6.842
10624SOL    HW232772   0.339   1.917   6.912
10625SOL     OW32773   5.366   4.555   7.022
10625SOL    HW132774   5.443   4.590   0.049
10625SOL    HW232775   5.286   4.612   0.012
10626SOL     OW32776   5.207   3.232   1.072
10626SOL    HW132777   5.125   3.287   1.055
10626SOL    HW232778   5.220   3.168   0.996
10627SOL     OW32779   5.888   5.278   5.812
10627SOL    HW132780   5.915   5.357   5.757
10627SOL    HW232781   5.801   5.297   5.857
10628SOL     OW32782   3.940   6.983   0.984
10628SOL    HW132783   3.906   6.995   1.077
10628SOL    HW232784   3.946   6.885   0.964
10629SOL     OW32785   3.251   5.584   4.777
10629SOL    HW132786   3.346   5.614   4.781
10629SOL    HW232787   3.239   5.503   4.834
10630SOL     OW32788   3.819   0.903   2.288
10630SOL    HW132789   3.917   0.882   2.286
10630SOL    HW232790   3.803   0.990   2.242
10631SOL     OW32791   3.629   6.019   0.478
10631SOL    HW132792   3.696   5.979   0.416
10631SOL    HW232793   3.658   6.004   0.573
10632SOL     OW32794   4.946   6.004   3.054
10632SOL    HW132795   5.015   6.065   3.016
10632SOL    HW232796   4.910   5.945   2.981
10633SOL     OW32797   1.302   3.050   1.551
10633SOL    HW132798   1.329   3.052   1.454
10633SOL    HW232799   1.304   3.143   1.588
10634SOL     OW32800   0.774   3.624   0.013
10634SOL    HW132801   0.740   3.686   6.969
10634SOL    HW232802   0.874   3.629   0.016
10635SOL     OW32803   2.268   4.739   6.140
10635SOL    HW132804   2.333   4.801   6.184
10635SOL    HW232805   2.318   4.660   6.103
10636SOL     OW32806   6.618   2.267   6.553
10636SOL    HW132807   6.524   2.299   6.541
10636SOL    HW232808   6.627   2.177   6.511
10637SOL     OW32809   2.923   0.762   0.028
10637SOL    HW132810   2.824   0.773   0.034
10637SOL    HW232811   2.957   0.809   6.974
10638SOL     OW32812   6.627   5.996   1.871
10638SOL    HW132813   6.544   5.991   1.928
10638SOL    HW232814   6.677   5.910   1.879
10639SOL     OW32815   1.418   4.512   1.758
10639SOL    HW132816   1.497   4.490   1.816
10639SOL    HW232817   1.446   4.576   1.687
10640SOL     OW32818   4.159   6.681   3.381
10640SOL    HW132819   4.079   6.622   3.391
10640SOL    HW232820   4.157   6.751   3.452
10641SOL     OW32821   1.313   1.024   3.432
10641SOL    HW132822   1.412   1.011   3.441
10641SOL    HW232823   1.267   0.982   3.510
10642SOL     OW32824   5.828   2.206   6.448
10642SOL    HW132825   5.794   2.293   6.413
10642SOL    HW232826   5.762   2.134   6.430
10643SOL     OW32827   2.352   4.939   5.768
10643SOL    HW132828   2.449   4.962   5.770
10643SOL    HW232829   2.342   4.842   5.746
10644SOL     OW32830   6.452   3.065   2.905
10644SOL    HW132831   6.527   3.094   2.846
10644SOL    HW232832   6.365   3.095   2.865
10645SOL     OW32833   2.681   2.418   3.643
10645SOL    HW132834   2.726   2.346   3.590
10645SOL    HW232835   2.604   2.454   3.590
10646SOL     OW32836   5.543   0.741   3.685
10646SOL    HW132837   5.578   0.687   3.762
10646SOL    HW232838   5.507   0.680   3.615
10647SOL     OW32839   3.474   5.303   4.555
10647SOL    HW132840   3.472   5.205   4.533
10647SOL    HW232841   3.387   5.345   4.530
10648SOL     OW32842   5.258   5.054   5.726
10648SOL    HW132843   5.188   4.985   5.744
10648SOL    HW232844   5.217   5.145   5.733
10649SOL     OW32845   6.470   3.510   2.808
10649SOL    HW132846   6.562   3.476   2.830
10649SOL    HW232847   6.468   3.609   2.821
10650SOL     OW32848   0.310   0.370   3.809
10650SOL    HW132849   0.277   0.320   3.728
10650SOL    HW232850   0.386   0.428   3.783
10651SOL     OW32851   3.993   5.863   6.001
10651SOL    HW132852   3.947   5.918   5.931
10651SOL    HW232853   3.946   5.873   6.088
10652SOL     OW32854   1.850   0.210   6.946
10652SOL    HW132855   1.886   0.283   7.004
10652SOL    HW232856   1.776   0.247   6.890
10653SOL     OW32857   4.258   5.672   3.869
10653SOL    HW132858   4.263   5.705   3.964
10653SOL    HW232859   4.346   5.686   3.825
10654SOL     OW32860   5.948   1.788   4.161
10654SOL    HW132861   5.877   1.796   4.231
10654SOL    HW232862   6.026   1.846   4.185
10655SOL     OW32863   0.338   4.945   1.039
10655SOL    HW132864   0.240   4.960   1.037
10655SOL    HW232865   0.358   4.848   1.026
10656SOL     OW32866   6.118   2.365   3.317
10656SOL    HW132867   6.063   2.397   3.394
10656SOL    HW232868   6.079   2.398   3.232
10657SOL     OW32869   5.037   6.670   4.565
10657SOL    HW132870   5.036   6.572   4.584
10657SOL    HW232871   5.053   6.721   4.650
10658SOL     OW32872   0.654   3.135   5.538
10658SOL    HW132873   0.583   3.115   5.470
10658SOL    HW232874   0.617   3.123   5.630
10659SOL     OW32875   1.194   5.397   0.691
10659SOL    HW132876   1.179   5.495   0.674
10659SOL    HW232877   1.108   5.348   0.678
10660SOL     OW32878   5.676   3.026   5.220
10660SOL    HW132879   5.721   3.105   5.263
10660SOL    HW232880   5.745   2.971   5.173
10661SOL     OW32881   2.070   5.053   5.706
10661SOL    HW132882   2.148   5.013   5.754
10661SOL    HW232883   2.026   5.120   5.766
10662SOL     OW32884   2.629   1.198   2.732
10662SOL    HW132885   2.538   1.228   2.704
10662SOL    HW232886   2.678   1.275   2.775
10663SOL     OW32887   1.434   1.670   4.156
10663SOL    HW132888   1.465   1.762   4.180
10663SOL    HW232889   1.461   1.650   4.061
10664SOL     OW32890   0.974   5.381   4.568
10664SOL    HW132891   1.031   5.364   4.488
10664SOL    HW232892   1.004   5.322   4.643
10665SOL     OW32893   1.984   2.938   6.068
10665SOL    HW132894   1.985   3.038   6.066
10665SOL    HW232895   1.935   2.904   5.988
10666SOL     OW32896   3.291   3.610   1.875
10666SOL    HW132897   3.245   3.651   1.795
10666SOL    HW232898   3.350   3.679   1.917
10667SOL     OW32899   5.513   2.134   3.869
10667SOL    HW132900   5.545   2.046   3.832
10667SOL    HW232901   5.501   2.199   3.794
10668SOL     OW32902   3.036   2.475   5.321
10668SOL    HW132903   3.057   2.573   5.312
10668SOL    HW232904   3.099   2.422   5.265
10669SOL     OW32905   6.448   1.405   1.172
10669SOL    HW132906   6.496   1.463   1.106
10669SOL    HW232907   6.359   1.379   1.134
10670SOL     OW32908   4.861   3.536   4.219
10670SOL    HW132909   4.929   3.535   4.292
10670SOL    HW232910   4.885   3.606   4.151
10671SOL     OW32911   1.398   3.194   4.471
10671SOL    HW132912   1.413   3.121   4.403
10671SOL    HW232913   1.486   3.233   4.497
10672SOL     OW32914   5.972   3.437   1.655
10672SOL    HW132915   6.057   3.444   1.708
10672SOL    HW232916   5.990   3.387   1.570
10673SOL     OW32917   2.227   1.174   0.935
10673SOL    HW132918   2.188   1.104   0.876
10673SOL    HW232919   2.271   1.130   1.014
10674SOL     OW32920   3.409   3.935   3.852
10674SOL    HW132921   3.343   4.007   3.874
10674SOL    HW232922   3.380   3.849   3.893
10675SOL     OW32923   3.719   6.924   5.603
10675SOL    HW132924   3.812   6.949   5.575
10675SOL    HW232925   3.715   6.825   5.619
10676SOL     OW32926   2.004   6.277   5.468
10676SOL    HW132927   1.995   6.368   5.509
10676SOL    HW232928   2.041   6.214   5.537
10677SOL     OW32929   0.158   1.474   0.788
10677SOL    HW132930   0.142   1.392   0.842
10677SOL    HW232931   0.245   1.516   0.816
10678SOL     OW32932   4.273   5.387   3.468
10678SOL    HW132933   4.202   5.330   3.509
10678SOL    HW232934   4.328   5.429   3.540
10679SOL     OW32935   3.843   3.449   6.765
10679SOL    HW132936   3.857   3.500   6.850
10679SOL    HW232937   3.931   3.415   6.732
10680SOL     OW32938   4.237   0.870   3.780
10680SOL    HW132939   4.275   0.877   3.872
10680SOL    HW232940   4.309   0.888   3.712
10681SOL     OW32941   1.134   2.871   5.899
10681SOL    HW132942   1.076   2.917   5.832
10681SOL    HW232943   1.132   2.922   5.985
10682SOL     OW32944   5.202   3.027   6.395
10682SOL    HW132945   5.222   3.123   6.415
10682SOL    HW232946   5.259   2.997   6.317
10683SOL     OW32947   3.414   0.616   3.889
10683SOL    HW132948   3.410   0.716   3.895
10683SOL    HW232949   3.428   0.588   3.794
10684SOL     OW32950   4.303   4.772   1.707
10684SOL    HW132951   4.304   4.700   1.776
10684SOL    HW232952   4.337   4.857   1.747
10685SOL     OW32953   0.789   5.942   1.405
10685SOL    HW132954   0.860   5.880   1.374
10685SOL    HW232955   0.717   5.947   1.336
10686SOL     OW32956   2.363   2.944   6.689
10686SOL    HW132957   2.317   2.855   6.687
10686SOL    HW232958   2.302   3.013   6.725
10687SOL     OW32959   0.829   4.341   3.305
10687SOL    HW132960   0.844   4.434   3.340
10687SOL    HW232961   0.823   4.278   3.382
10688SOL     OW32962   5.575   1.729   2.458
10688SOL    HW132963   5.501   1.730   2.391
10688SOL    HW232964   5.551   1.789   2.535
10689SOL     OW32965   6.689   6.996   2.507
10689SOL    HW132966   6.681   6.959   2.414
10689SOL    HW232967   6.778   6.969   2.545
10690SOL     OW32968   0.145   6.764   3.992
10690SOL    HW132969   0.173   6.849   3.947
10690SOL    HW232970   0.203   6.689   3.961
10691SOL     OW32971   3.165   1.448   3.082
10691SOL    HW132972   3.135   1.521   3.143
10691SOL    HW232973   3.211   1.489   3.003
10692SOL     OW32974   2.763   0.782   4.051
10692SOL    HW132975   2.799   0.817   3.964
10692SOL    HW232976   2.771   0.854   4.120
10693SOL     OW32977   1.249   5.785   0.380
10693SOL    HW132978   1.168   5.841   0.397
10693SOL    HW232979   1.249   5.707   0.443
10694SOL     OW32980   4.770   6.289   5.672
10694SOL    HW132981   4.736   6.231   5.746
10694SOL    HW232982   4.830   6.360   5.709
10695SOL     OW32983   0.079   3.883   1.606
10695SOL    HW132984   0.107   3.920   1.695
10695SOL    HW232985   0.042   3.791   1.619
10696SOL     OW32986   0.328   4.608   4.986
10696SOL    HW132987   0.330   4.520   4.939
10696SOL    HW232988   0.269   4.671   4.935
10697SOL     OW32989   1.458   5.278   5.411
10697SOL    HW132990   1.450   5.312   5.505
10697SOL    HW232991   1.425   5.349   5.348
10698SOL     OW32992   4.646   3.572   0.030
10698SOL    HW132993   4.569   3.559   6.994
10698SOL    HW232994   4.699   3.652   0.001
10699SOL     OW32995   3.053   4.011   0.588
10699SOL    HW132996   3.136   4.034   0.638
10699SOL    HW232997   3.077   3.962   0.504
10700SOL     OW32998   5.052   0.245   0.405
10700SOL    HW132999   4.990   0.217   0.331
10700SOL    HW233000   5.110   0.168   0.430
10701SOL     OW33001   2.631   0.272   6.231
10701SOL    HW133002   2.620   0.315   6.320
10701SOL    HW233003   2.611   0.338   6.159
10702SOL     OW33004   4.888   2.525   2.222
10702SOL    HW133005   4.930   2.614   2.238
10702SOL    HW233006   4.791   2.529   2.246
10703SOL     OW33007   1.542   2.680   6.246
10703SOL    HW133008   1.546   2.760   6.186
10703SOL    HW233009   1.528   2.709   6.341
10704SOL     OW33010   7.020   6.540   2.362
10704SOL    HW133011   0.024   6.502   2.449
10704SOL    HW233012   0.065   6.598   2.323
10705SOL     OW33013   5.924   4.833   0.889
10705SOL    HW133014   5.825   4.831   0.906
10705SOL    HW233015   5.954   4.927   0.875
10706SOL     OW33016   5.218   0.289   2.318
10706SOL    HW133017   5.278   0.360   2.280
10706SOL    HW233018   5.123   0.309   2.293
10707SOL     OW33019   5.839   6.829   4.053
10707SOL    HW133020   5.914   6.782   4.100
10707SOL    HW233021   5.771   6.761   4.023
10708SOL     OW33022   4.533   2.390   2.519
10708SOL    HW133023   4.589   2.460   2.474
10708SOL    HW233024   4.523   2.412   2.616
10709SOL     OW33025   6.019   5.302   4.138
10709SOL    HW133026   6.036   5.352   4.053
10709SOL    HW233027   6.019   5.366   4.215
10710SOL     OW33028   5.176   1.124   2.937
10710SOL    HW133029   5.162   1.220   2.912
10710SOL    HW233030   5.217   1.119   3.028
10711SOL     OW33031   3.537   6.508   1.805
10711SOL    HW133032   3.482   6.424   1.808
10711SOL    HW233033   3.629   6.490   1.839
10712SOL     OW33034   3.591   0.249   3.224
10712SOL    HW133035   3.684   0.259   3.190
10712SOL    HW233036   3.531   0.314   3.177
10713SOL     OW33037   1.522   3.529   0.625
10713SOL    HW133038   1.479   3.606   0.673
10713SOL    HW233039   1.589   3.486   0.685
10714SOL     OW33040   3.752   2.965   3.943
10714SOL    HW133041   3.691   2.948   3.865
10714SOL    HW233042   3.719   2.914   4.023
10715SOL     OW33043   5.926   0.543   1.859
10715SOL    HW133044   5.830   0.537   1.830
10715SOL    HW233045   5.985   0.509   1.785
10716SOL     OW33046   6.889   2.358   2.535
10716SOL    HW133047   6.956   2.340   2.607
10716SOL    HW233048   6.903   2.450   2.498
10717SOL     OW33049   1.137   2.833   0.714
10717SOL    HW133050   1.139   2.734   0.721
10717SOL    HW233051   1.210   2.872   0.770
10718SOL     OW33052   1.234   4.544   6.148
10718SOL    HW133053   1.209   4.638   6.126
10718SOL    HW233054   1.237   4.532   6.247
10719SOL     OW33055   6.470   5.913   4.078
10719SOL    HW133056   6.569   5.920   4.065
10719SOL    HW233057   6.436   5.833   4.029
10720SOL     OW33058   5.519   5.565   4.227
10720SOL    HW133059   5.447   5.612   4.280
10720SOL    HW233060   5.568   5.502   4.287
10721SOL     OW33061   4.931   3.913   5.384
10721SOL    HW133062   4.920   3.998   5.435
10721SOL    HW233063   5.027   3.885   5.388
10722SOL     OW33064   6.589   3.633   6.363
10722SOL    HW133065   6.635   3.604   6.280
10722SOL    HW233066   6.647   3.612   6.442
10723SOL     OW33067   0.256   0.877   0.054
10723SOL    HW133068   0.279   0.963   0.100
10723SOL    HW233069   0.340   0.833   0.021
10724SOL     OW33070   0.222   6.840   0.558
10724SOL    HW133071   0.155   6.902   0.598
10724SOL    HW233072   0.220   6.752   0.605
10725SOL     OW33073   2.748   5.256   5.285
10725SOL    HW133074   2.837   5.288   5.250
10725SOL    HW233075   2.724   5.170   5.239
10726SOL     OW33076   5.422   1.125   3.761
10726SOL    HW133077   5.398   1.165   3.849
10726SOL    HW233078   5.509   1.164   3.730
10727SOL     OW33079   1.247   5.366   5.964
10727SOL    HW133080   1.208   5.285   5.920
10727SOL    HW233081   1.347   5.363   5.957
10728SOL     OW33082   6.530   5.206   0.284
10728SOL    HW133083   6.534   5.303   0.307
10728SOL    HW233084   6.493   5.155   0.362
10729SOL     OW33085   6.553   2.185   1.474
10729SOL    HW133086   6.495   2.267   1.471
10729SOL    HW233087   6.632   2.202   1.532
10730SOL     OW33088   3.811   0.475   1.715
10730SOL    HW133089   3.833   0.406   1.784
10730SOL    HW233090   3.832   0.566   1.751
10731SOL     OW33091   4.215   0.921   1.053
10731SOL    HW133092   4.268   1.006   1.044
10731SOL    HW233093   4.187   0.889   0.963
10732SOL     OW33094   0.198   5.221   5.137
10732SOL    HW133095   0.253   5.184   5.063
10732SOL    HW233096   0.121   5.159   5.155
10733SOL     OW33097   5.663   1.576   6.685
10733SOL    HW133098   5.643   1.480   6.664
10733SOL    HW233099   5.698   1.583   6.778
10734SOL     OW33100   0.895   1.439   1.052
10734SOL    HW133101   0.901   1.343   1.080
10734SOL    HW233102   0.979   1.487   1.079
10735SOL     OW33103   7.016   2.976   1.979
10735SOL    HW133104   0.009   2.894   1.925
10735SOL    HW233105   6.918   2.998   1.971
10736SOL     OW33106   2.318   0.250   3.793
10736SOL    HW133107   2.365   0.316   3.735
10736SOL    HW233108   2.271   0.298   3.868
10737SOL     OW33109   0.109   2.294   1.714
10737SOL    HW133110   0.101   2.259   1.807
10737SOL    HW233111   0.206   2.312   1.694
10738SOL     OW33112   3.763   6.236   2.832
10738SOL    HW133113   3.670   6.218   2.864
10738SOL    HW233114   3.788   6.331   2.853
10739SOL     OW33115   1.440   2.892   1.737
10739SOL    HW133116   1.472   2.805   1.700
10739SOL    HW233117   1.397   2.946   1.665
10740SOL     OW33118   5.671   4.986   5.016
10740SOL    HW133119   5.573   5.006   5.010
10740SOL    HW233120   5.714   5.050   5.079
10741SOL     OW33121   3.954   0.736   2.544
10741SOL    HW133122   4.036   0.680   2.530
10741SOL    HW233123   3.978   0.817   2.599
10742SOL     OW33124   5.922   5.459   1.069
10742SOL    HW133125   5.845   5.429   1.126
10742SOL    HW233126   5.908   5.553   1.041
10743SOL     OW33127   1.913   2.304   3.950
10743SOL    HW133128   1.878   2.387   3.993
10743SOL    HW233129   2.013   2.311   3.941
10744SOL     OW33130   3.083   1.651   1.043
10744SOL    HW133131   3.148   1.661   1.119
10744SOL    HW233132   3.111   1.709   0.967
10745SOL     OW33133   0.120   5.586   5.857
10745SOL    HW133134   0.205   5.603   5.908
10745SOL    HW233135   0.124   5.635   5.770
10746SOL     OW33136   1.165   3.797   5.854
10746SOL    HW133137   1.161   3.697   5.856
10746SOL    HW233138   1.077   3.832   5.822
10747SOL     OW33139   2.913   1.160   4.497
10747SOL    HW133140   2.886   1.197   4.408
10747SOL    HW233141   2.843   1.096   4.529
10748SOL     OW33142   6.175   1.160   2.314
10748SOL    HW133143   6.188   1.254   2.346
10748SOL    HW233144   6.264   1.115   2.308
10749SOL     OW33145   1.004   6.774   5.132
10749SOL    HW133146   0.927   6.839   5.129
10749SOL    HW233147   1.077   6.812   5.188
10750SOL     OW33148   3.603   0.694   5.310
10750SOL    HW133149   3.701   0.683   5.298
10750SOL    HW233150   3.577   0.788   5.291
10751SOL     OW33151   2.281   4.708   3.875
10751SOL    HW133152   2.379   4.716   3.891
10751SOL    HW233153   2.262   4.628   3.819
10752SOL     OW33154   5.141   4.786   5.512
10752SOL    HW133155   5.066   4.848   5.537
10752SOL    HW233156   5.195   4.826   5.439
10753SOL     OW33157   0.415   3.843   4.050
10753SOL    HW133158   0.352   3.811   3.979
10753SOL    HW233159   0.390   3.801   4.138
10754SOL     OW33160   1.092   0.127   3.025
10754SOL    HW133161   1.056   0.196   2.962
10754SOL    HW233162   1.098   0.166   3.117
10755SOL     OW33163   6.811   6.906   2.220
10755SOL    HW133164   6.858   6.855   2.148
10755SOL    HW233165   6.877   6.962   2.270
10756SOL     OW33166   6.842   5.557   5.360
10756SOL    HW133167   6.852   5.656   5.362
10756SOL    HW233168   6.898   5.516   5.433
10757SOL     OW33169   2.270   2.763   0.111
10757SOL    HW133170   2.198   2.693   0.108
10757SOL    HW233171   2.349   2.732   0.059
10758SOL     OW33172   0.515   6.386   3.242
10758SOL    HW133173   0.583   6.441   3.193
10758SOL    HW233174   0.534   6.391   3.340
10759SOL     OW33175   0.705   3.018   0.758
10759SOL    HW133176   0.771   2.946   0.777
10759SOL    HW233177   0.699   3.034   0.659
10760SOL     OW33178   5.706   1.078   3.812
10760SOL    HW133179   5.700   1.175   3.791
10760SOL    HW233180   5.691   1.025   3.728
10761SOL     OW33181   1.843   5.312   6.440
10761SOL    HW133182   1.836   5.217   6.469
10761SOL    HW233183   1.853   5.316   6.340
10762SOL     OW33184   2.959   0.258   5.231
10762SOL    HW133185   2.905   0.272   5.148
10762SOL    HW233186   2.899   0.269   5.311
10763SOL     OW33187   3.671   0.808   3.482
10763SOL    HW133188   3.661   0.891   3.427
10763SOL    HW233189   3.669   0.728   3.422
10764SOL     OW33190   4.912   1.240   4.353
10764SOL    HW133191   4.997   1.273   4.314
10764SOL    HW233192   4.836   1.299   4.324
10765SOL     OW33193   5.256   2.986   0.909
10765SOL    HW133194   5.189   2.934   0.961
10765SOL    HW233195   5.335   2.928   0.888
10766SOL     OW33196   3.739   4.213   0.816
10766SOL    HW133197   3.826   4.258   0.799
10766SOL    HW233198   3.744   4.118   0.784
10767SOL     OW33199   2.561   6.986   0.990
10767SOL    HW133200   2.526   6.905   0.944
10767SOL    HW233201   2.489   0.028   0.993
10768SOL     OW33202   6.456   4.816   0.998
10768SOL    HW133203   6.409   4.831   0.911
10768SOL    HW233204   6.533   4.880   1.006
10769SOL     OW33205   2.029   3.450   5.853
10769SOL    HW133206   2.105   3.514   5.843
10769SOL    HW233207   2.005   3.412   5.763
10770SOL     OW33208   5.065   5.384   2.968
10770SOL    HW133209   5.006   5.347   2.896
10770SOL    HW233210   5.011   5.396   3.051
10771SOL     OW33211   3.756   0.058   4.153
10771SOL    HW133212   3.710   7.000   4.127
10771SOL    HW233213   3.756   0.066   4.253
10772SOL     OW33214   6.762   5.887   4.068
10772SOL    HW133215   6.811   5.910   4.152
10772SOL    HW233216   6.814   5.918   3.989
10773SOL     OW33217   5.889   4.371   4.900
10773SOL    HW133218   5.931   4.437   4.963
10773SOL    HW233219   5.874   4.415   4.811
10774SOL     OW33220   1.336   1.309   3.950
10774SOL    HW133221   1.432   1.305   3.977
10774SOL    HW233222   1.278   1.303   4.032
10775SOL     OW33223   1.148   4.132   1.943
10775SOL    HW133224   1.164   4.150   2.040
10775SOL    HW233225   1.212   4.187   1.888
10776SOL     OW33226   1.838   1.014   6.029
10776SOL    HW133227   1.873   1.012   5.935
10776SOL    HW233228   1.866   0.931   6.076
10777SOL     OW33229   3.797   5.025   1.529
10777SOL    HW133230   3.873   4.961   1.514
10777SOL    HW233231   3.711   4.974   1.530
10778SOL     OW33232   5.289   6.253   4.132
10778SOL    HW133233   5.272   6.254   4.033
10778SOL    HW233234   5.226   6.189   4.176
10779SOL     OW33235   6.277   2.958   3.360
10779SOL    HW133236   6.214   3.033   3.339
10779SOL    HW233237   6.260   2.882   3.297
10780SOL     OW33238   1.160   0.926   3.640
10780SOL    HW133239   1.116   1.001   3.691
10780SOL    HW233240   1.211   0.868   3.704
10781SOL     OW33241   3.828   0.558   4.452
10781SOL    HW133242   3.837   0.533   4.356
10781SOL    HW233243   3.889   0.635   4.472
10782SOL     OW33244   6.127   6.730   4.023
10782SOL    HW133245   6.155   6.791   4.097
10782SOL    HW233246   6.076   6.782   3.955
10783SOL     OW33247   6.794   2.607   3.144
10783SOL    HW133248   6.832   2.517   3.167
10783SOL    HW233249   6.723   2.597   3.075
10784SOL     OW33250   2.975   1.192   4.050
10784SOL    HW133251   3.030   1.187   3.967
10784SOL    HW233252   2.917   1.111   4.057
10785SOL     OW33253   0.906   3.886   0.231
10785SOL    HW133254   0.852   3.883   0.147
10785SOL    HW233255   0.985   3.946   0.218
10786SOL     OW33256   6.248   5.767   3.072
10786SOL    HW133257   6.204   5.679   3.057
10786SOL    HW233258   6.340   5.753   3.110
10787SOL     OW33259   0.513   1.021   5.418
10787SOL    HW133260   0.502   0.950   5.487
10787SOL    HW233261   0.610   1.037   5.401
10788SOL     OW33262   0.592   3.792   6.905
10788SOL    HW133263   0.541   3.737   6.839
10788SOL    HW233264   0.574   3.889   6.888
10789SOL     OW33265   6.798   2.507   0.152
10789SOL    HW133266   6.798   2.519   0.251
10789SOL    HW233267   6.871   2.562   0.111
10790SOL     OW33268   0.499   6.761   1.872
10790SOL    HW133269   0.533   6.855   1.864
10790SOL    HW233270   0.406   6.757   1.836
10791SOL     OW33271   6.377   6.285   2.421
10791SOL    HW133272   6.315   6.241   2.358
10791SOL    HW233273   6.325   6.336   2.490
10792SOL     OW33274   3.818   3.666   5.350
10792SOL    HW133275   3.782   3.757   5.371
10792SOL    HW233276   3.917   3.665   5.362
10793SOL     OW33277   5.420   3.284   5.756
10793SOL    HW133278   5.365   3.209   5.791
10793SOL    HW233279   5.477   3.322   5.830
10794SOL     OW33280   3.458   3.620   3.864
10794SOL    HW133281   3.381   3.590   3.807
10794SOL    HW233282   3.439   3.600   3.960
10795SOL     OW33283   0.923   4.344   2.764
10795SOL    HW133284   0.980   4.413   2.808
10795SOL    HW233285   0.829   4.352   2.798
10796SOL     OW33286   0.746   6.538   5.329
10796SOL    HW133287   0.811   6.499   5.264
10796SOL    HW233288   0.794   6.596   5.394
10797SOL     OW33289   4.076   2.857   0.554
10797SOL    HW133290   4.156   2.866   0.496
10797SOL    HW233291   4.032   2.946   0.566
10798SOL     OW33292   1.764   1.300   1.004
10798SOL    HW133293   1.679   1.346   1.027
10798SOL    HW233294   1.758   1.264   0.911
10799SOL     OW33295   4.078   0.531   2.875
10799SOL    HW133296   4.089   0.621   2.834
10799SOL    HW233297   3.983   0.519   2.903
10800SOL     OW33298   0.950   6.278   7.019
10800SOL    HW133299   1.023   6.342   6.994
10800SOL    HW233300   0.985   6.184   7.011
10801SOL     OW33301   1.274   0.665   0.367
10801SOL    HW133302   1.298   0.759   0.341
10801SOL    HW233303   1.214   0.626   0.297
10802SOL     OW33304   6.133   6.655   3.741
10802SOL    HW133305   6.057   6.607   3.783
10802SOL    HW233306   6.203   6.675   3.810
10803SOL     OW33307   1.448   5.397   6.678
10803SOL    HW133308   1.438   5.390   6.777
10803SOL    HW233309   1.502   5.478   6.656
10804SOL     OW33310   0.421   3.147   3.524
10804SOL    HW133311   0.360   3.089   3.579
10804SOL    HW233312   0.417   3.241   3.559
10805SOL     OW33313   6.141   0.616   4.666
10805SOL    HW133314   6.106   0.623   4.759
10805SOL    HW233315   6.219   0.679   4.655
10806SOL     OW33316   2.757   4.815   6.822
10806SOL    HW133317   2.837   4.871   6.841
10806SOL    HW233318   2.691   4.822   6.897
10807SOL     OW33319   2.262   6.078   3.697
10807SOL    HW133320   2.234   6.029   3.614
10807SOL    HW233321   2.185   6.084   3.760
10808SOL     OW33322   0.002   2.283   5.953
10808SOL    HW133323   6.984   2.217   6.012
10808SOL    HW233324   0.090   2.310   5.994
10809SOL     OW33325   2.647   5.008   4.165
10809SOL    HW133326   2.576   5.065   4.207
10809SOL    HW233327   2.702   4.964   4.236
10810SOL     OW33328   0.479   0.693   4.267
10810SOL    HW133329   0.485   0.613   4.327
10810SOL    HW233330   0.563   0.702   4.214
10811SOL     OW33331   5.009   5.546   5.099
10811SOL    HW133332   4.953   5.507   5.173
10811SOL    HW233333   5.012   5.646   5.110
10812SOL     OW33334   0.161   3.343   6.460
10812SOL    HW133335   0.105   3.306   6.534
10812SOL    HW233336   0.169   3.275   6.387
10813SOL     OW33337   0.582   3.772   5.987
10813SOL    HW133338   0.520   3.735   5.918
10813SOL    HW233339   0.559   3.733   6.076
10814SOL     OW33340   2.320   0.247   0.328
10814SOL    HW133341   2.265   0.172   0.291
10814SOL    HW233342   2.261   0.312   0.375
10815SOL     OW33343   5.348   1.272   3.971
10815SOL    HW133344   5.387   1.363   3.957
10815SOL    HW233345   5.249   1.281   3.983
10816SOL     OW33346   3.455   3.049   3.532
10816SOL    HW133347   3.433   3.141   3.562
10816SOL    HW233348   3.388   3.019   3.464
10817SOL     OW33349   2.382   0.185   3.130
10817SOL    HW133350   2.408   0.089   3.141
10817SOL    HW233351   2.386   0.209   3.033
10818SOL     OW33352   4.592   5.282   5.869
10818SOL    HW133353   4.667   5.349   5.867
10818SOL    HW233354   4.565   5.261   5.775
10819SOL     OW33355   6.988   5.337   6.610
10819SOL    HW133356   6.956   5.420   6.565
10819SOL    HW233357   6.911   5.276   6.626
10820SOL     OW33358   1.242   5.143   5.524
10820SOL    HW133359   1.308   5.200   5.474
10820SOL    HW233360   1.242   5.051   5.484
10821SOL     OW33361   4.652   5.176   2.585
10821SOL    HW133362   4.576   5.125   2.625
10821SOL    HW233363   4.617   5.242   2.519
10822SOL     OW33364   5.850   2.396   0.704
10822SOL    HW133365   5.853   2.487   0.747
10822SOL    HW233366   5.903   2.331   0.759
10823SOL     OW33367   0.158   6.870   3.415
10823SOL    HW133368   0.159   6.772   3.434
10823SOL    HW233369   0.083   6.913   3.466
10824SOL     OW33370   1.063   1.095   4.542
10824SOL    HW133371   0.983   1.148   4.512
10824SOL    HW233372   1.059   1.083   4.641
10825SOL     OW33373   1.306   1.857   0.454
10825SOL    HW133374   1.284   1.907   0.538
10825SOL    HW233375   1.248   1.888   0.380
10826SOL     OW33376   1.854   1.995   2.350
10826SOL    HW133377   1.816   2.026   2.263
10826SOL    HW233378   1.948   2.028   2.359
10827SOL     OW33379   6.557   3.141   5.496
10827SOL    HW133380   6.469   3.178   5.526
10827SOL    HW233381   6.611   3.214   5.455
10828SOL     OW33382   6.698   3.596   6.832
10828SOL    HW133383   6.616   3.542   6.851
10828SOL    HW233384   6.672   3.679   6.782
10829SOL     OW33385   4.422   3.454   6.404
10829SOL    HW133386   4.492   3.525   6.408
10829SOL    HW233387   4.331   3.496   6.415
10830SOL     OW33388   5.257   1.356   3.270
10830SOL    HW133389   5.272   1.398   3.180
10830SOL    HW233390   5.162   1.368   3.296
10831SOL     OW33391   4.095   0.812   2.838
10831SOL    HW133392   4.171   0.846   2.783
10831SOL    HW233393   4.124   0.807   2.934
10832SOL     OW33394   6.733   3.271   0.799
10832SOL    HW133395   6.776   3.232   0.718
10832SOL    HW233396   6.698   3.362   0.779
10833SOL     OW33397   0.578   1.164   0.619
10833SOL    HW133398   0.628   1.122   0.544
10833SOL    HW233399   0.564   1.261   0.600
10834SOL     OW33400   6.517   0.021   0.718
10834SOL    HW133401   6.616   0.016   0.734
10834SOL    HW233402   6.497   0.095   0.654
10835SOL     OW33403   6.234   3.040   6.082
10835SOL    HW133404   6.227   3.138   6.102
10835SOL    HW233405   6.286   3.027   5.998
10836SOL     OW33406   0.387   1.774   3.116
10836SOL    HW133407   0.437   1.739   3.196
10836SOL    HW233408   0.295   1.800   3.144
10837SOL     OW33409   6.936   4.272   2.660
10837SOL    HW133410   0.007   4.253   2.658
10837SOL    HW233411   6.897   4.251   2.570
10838SOL     OW33412   6.136   5.571   3.643
10838SOL    HW133413   6.078   5.565   3.562
10838SOL    HW233414   6.229   5.541   3.620
10839SOL     OW33415   4.798   4.191   0.209
10839SOL    HW133416   4.812   4.272   0.152
10839SOL    HW233417   4.713   4.145   0.182
10840SOL     OW33418   3.262   0.244   0.804
10840SOL    HW133419   3.215   0.238   0.892
10840SOL    HW233420   3.200   0.216   0.731
10841SOL     OW33421   1.082   4.999   4.881
10841SOL    HW133422   1.082   5.094   4.912
10841SOL    HW233423   1.056   4.996   4.785
10842SOL     OW33424   4.572   4.130   1.134
10842SOL    HW133425   4.602   4.225   1.143
10842SOL    HW233426   4.553   4.093   1.225
10843SOL     OW33427   1.476   1.980   0.917
10843SOL    HW133428   1.452   1.886   0.893
10843SOL    HW233429   1.458   1.995   1.015
10844SOL     OW33430   0.991   5.631   4.653
10844SOL    HW133431   1.008   5.698   4.581
10844SOL    HW233432   0.981   5.540   4.612
10845SOL     OW33433   4.569   6.196   5.170
10845SOL    HW133434   4.622   6.206   5.254
10845SOL    HW233435   4.597   6.266   5.105
10846SOL     OW33436   5.480   6.522   0.656
10846SOL    HW133437   5.471   6.437   0.707
10846SOL    HW233438   5.428   6.515   0.570
10847SOL     OW33439   1.769   1.730   0.038
10847SOL    HW133440   1.816   1.779   6.992
10847SOL    HW233441   1.806   1.637   0.045
10848SOL     OW33442   1.836   4.369   0.825
10848SOL    HW133443   1.797   4.454   0.790
10848SOL    HW233444   1.798   4.292   0.775
10849SOL     OW33445   2.617   5.685   4.168
10849SOL    HW133446   2.704   5.680   4.217
10849SOL    HW233447   2.554   5.617   4.205
10850SOL     OW33448   3.851   6.378   0.506
10850SOL    HW133449   3.912   6.303   0.534
10850SOL    HW233450   3.760   6.341   0.488
10851SOL     OW33451   2.470   4.733   2.052
10851SOL    HW133452   2.567   4.734   2.079
10851SOL    HW233453   2.430   4.823   2.069
10852SOL     OW33454   1.994   1.626   1.054
10852SOL    HW133455   1.962   1.538   1.018
10852SOL    HW233456   2.077   1.612   1.108
10853SOL     OW33457   1.972   2.067   6.298
10853SOL    HW133458   2.003   2.148   6.348
10853SOL    HW233459   2.021   1.986   6.332
10854SOL     OW33460   4.212   6.015   5.399
10854SOL    HW133461   4.168   5.962   5.326
10854SOL    HW233462   4.270   6.085   5.358
10855SOL     OW33463   3.392   1.406   0.809
10855SOL    HW133464   3.376   1.410   0.908
10855SOL    HW233465   3.382   1.312   0.777
10856SOL     OW33466   0.080   0.600   6.869
10856SOL    HW133467   0.030   0.565   6.790
10856SOL    HW233468   0.025   0.586   6.952
10857SOL     OW33469   6.554   1.289   2.386
10857SOL    HW133470   6.523   1.194   2.380
10857SOL    HW233471   6.527   1.327   2.475
10858SOL     OW33472   2.178   5.491   1.724
10858SOL    HW133473   2.210   5.481   1.818
10858SOL    HW233474   2.083   5.523   1.724
10859SOL     OW33475   0.900   5.542   4.143
10859SOL    HW133476   0.972   5.513   4.206
10859SOL    HW233477   0.824   5.478   4.148
10860SOL     OW33478   6.911   2.668   2.552
10860SOL    HW133479   6.876   2.753   2.591
10860SOL    HW233480   6.994   2.640   2.601
10861SOL     OW33481   3.457   2.926   4.514
10861SOL    HW133482   3.545   2.928   4.562
10861SOL    HW233483   3.469   2.879   4.426
10862SOL     OW33484   1.604   0.315   5.137
10862SOL    HW133485   1.530   0.293   5.201
10862SOL    HW233486   1.670   0.376   5.181
10863SOL     OW33487   3.325   5.821   4.547
10863SOL    HW133488   3.362   5.770   4.625
10863SOL    HW233489   3.384   5.808   4.467
10864SOL     OW33490   3.595   6.121   2.240
10864SOL    HW133491   3.552   6.186   2.302
10864SOL    HW233492   3.690   6.147   2.225
10865SOL     OW33493   6.202   1.580   6.391
10865SOL    HW133494   6.214   1.501   6.451
10865SOL    HW233495   6.286   1.634   6.389
10866SOL     OW33496   5.415   4.852   0.377
10866SOL    HW133497   5.404   4.882   0.282
10866SOL    HW233498   5.512   4.854   0.402
10867SOL     OW33499   3.309   3.670   0.555
10867SOL    HW133500   3.232   3.619   0.593
10867SOL    HW233501   3.391   3.612   0.558
10868SOL     OW33502   3.134   1.717   3.537
10868SOL    HW133503   3.064   1.702   3.607
10868SOL    HW233504   3.223   1.729   3.580
10869NA      NA33505   5.941   2.215   5.500
10870NA      NA33506   4.344   4.586   5.266
10871NA      NA33507   2.036   3.748   1.251
10872NA      NA33508   4.801   3.822   5.223
10873NA      NA33509   4.381   2.536   5.212
10874NA      NA33510   3.837   4.556   1.651
10875NA      NA33511   6.655   5.579   5.496
10876NA      NA33512   3.662   3.580   5.177
10877NA      NA33513   4.888   6.647   6.748
10878NA      NA33514   3.605   0.068   5.714
10879NA      NA33515   6.602   4.739   2.373
10880NA      NA33516   2.198   0.587   3.391
10881NA      NA33517   3.156   4.821   1.118
10882NA      NA33518   3.506   3.685   2.758
   7.02714   7.02714   7.02714
