Generated by trjconv : CNT in water t= 141.00000
33518
    1C        C    1   2.841   2.768   4.744
    1C        C    2   2.893   2.711   4.862
    1C        C    3   2.840   2.767   4.979
    1C        C    4   2.842   2.767   4.258
    1C        C    5   2.895   2.719   4.380
    1C        C    6   2.838   2.764   4.501
    1C        C    7   3.009   2.637   4.623
    1C        C    8   2.893   2.718   4.622
    1C        C    9   3.073   2.599   4.742
    1C        C   10   3.008   2.629   4.864
    1C        C   11   3.181   2.492   4.972
    1C        C   12   3.060   2.562   4.975
    1C        C   13   2.840   2.766   3.771
    1C        C   14   2.890   2.713   3.892
    1C        C   15   2.841   2.765   4.014
    1C        C   16   3.010   2.637   4.134
    1C        C   17   2.895   2.719   4.136
    1C        C   18   3.076   2.607   4.255
    1C        C   19   3.014   2.643   4.376
    1C        C   20   3.205   2.559   4.500
    1C        C   21   3.072   2.607   4.500
    1C        C   22   3.277   2.535   4.620
    1C        C   23   3.205   2.546   4.741
    1C        C   24   3.410   2.475   4.859
    1C        C   25   3.268   2.497   4.859
    1C        C   26   3.488   2.472   4.975
    1C        C   27   2.842   2.764   3.280
    1C        C   28   2.896   2.721   3.404
    1C        C   29   2.844   2.766   3.527
    1C        C   30   3.011   2.637   3.647
    1C        C   31   2.895   2.718   3.650
    1C        C   32   3.075   2.603   3.768
    1C        C   33   3.009   2.637   3.889
    1C        C   34   3.203   2.554   4.012
    1C        C   35   3.072   2.605   4.011
    1C        C   36   3.274   2.535   4.132
    1C        C   37   3.210   2.560   4.256
    1C        C   38   3.414   2.515   4.376
    1C        C   39   3.276   2.541   4.379
    1C        C   40   3.484   2.497   4.497
    1C        C   41   3.414   2.501   4.620
    1C        C   42   3.628   2.485   4.740
    1C        C   43   3.486   2.480   4.739
    1C        C   44   3.703   2.484   4.860
    1C        C   45   3.627   2.475   4.977
    1C        C   46   2.827   2.746   2.792
    1C        C   47   2.883   2.700   2.913
    1C        C   48   2.835   2.753   3.035
    1C        C   49   3.011   2.636   3.160
    1C        C   50   2.894   2.715   3.158
    1C        C   51   3.073   2.601   3.282
    1C        C   52   3.012   2.640   3.404
    1C        C   53   3.204   2.547   3.524
    1C        C   54   3.074   2.603   3.525
    1C        C   55   3.273   2.531   3.646
    1C        C   56   3.207   2.553   3.769
    1C        C   57   3.413   2.511   3.889
    1C        C   58   3.273   2.531   3.891
    1C        C   59   3.483   2.498   4.011
    1C        C   60   3.413   2.508   4.133
    1C        C   61   3.626   2.501   4.256
    1C        C   62   3.485   2.503   4.255
    1C        C   63   3.698   2.507   4.377
    1C        C   64   3.626   2.493   4.498
    1C        C   65   3.835   2.538   4.618
    1C        C   66   3.699   2.499   4.619
    1C        C   67   3.905   2.558   4.738
    1C        C   68   3.839   2.524   4.858
    1C        C   69   4.047   2.585   4.978
    1C        C   70   3.921   2.524   4.972
    1C        C   71   2.823   2.732   2.304
    1C        C   72   2.875   2.686   2.427
    1C        C   73   2.824   2.740   2.547
    1C        C   74   2.999   2.623   2.671
    1C        C   75   2.881   2.699   2.670
    1C        C   76   3.068   2.599   2.792
    1C        C   77   3.004   2.628   2.915
    1C        C   78   3.202   2.549   3.034
    1C        C   79   3.069   2.599   3.037
    1C        C   80   3.270   2.530   3.156
    1C        C   81   3.205   2.551   3.280
    1C        C   82   3.413   2.510   3.400
    1C        C   83   3.272   2.528   3.402
    1C        C   84   3.482   2.501   3.522
    1C        C   85   3.412   2.505   3.645
    1C        C   86   3.625   2.500   3.766
    1C        C   87   3.484   2.502   3.767
    1C        C   88   3.696   2.509   3.888
    1C        C   89   3.625   2.501   4.010
    1C        C   90   3.831   2.546   4.130
    1C        C   91   3.694   2.511   4.132
    1C        C   92   3.898   2.570   4.252
    1C        C   93   3.834   2.547   4.375
    1C        C   94   4.026   2.633   4.495
    1C        C   95   3.903   2.565   4.497
    1C        C   96   4.088   2.666   4.617
    1C        C   97   4.032   2.622   4.739
    1C        C   98   4.190   2.761   4.859
    1C        C   99   4.096   2.653   4.862
    1C        C  100   4.217   2.836   4.975
    1C        C  101   2.814   2.726   2.066
    1C        C  102   2.986   2.591   2.190
    1C        C  103   2.868   2.671   2.183
    1C        C  104   3.059   2.569   2.311
    1C        C  105   2.993   2.609   2.430
    1C        C  106   3.196   2.537   2.549
    1C        C  107   3.062   2.584   2.550
    1C        C  108   3.266   2.519   2.670
    1C        C  109   3.199   2.547   2.791
    1C        C  110   3.409   2.505   2.910
    1C        C  111   3.269   2.527   2.912
    1C        C  112   3.479   2.503   3.032
    1C        C  113   3.409   2.506   3.155
    1C        C  114   3.622   2.502   3.275
    1C        C  115   3.481   2.500   3.276
    1C        C  116   3.693   2.511   3.397
    1C        C  117   3.623   2.503   3.520
    1C        C  118   3.831   2.539   3.642
    1C        C  119   3.693   2.509   3.642
    1C        C  120   3.898   2.568   3.764
    1C        C  121   3.831   2.549   3.887
    1C        C  122   4.026   2.633   4.011
    1C        C  123   3.898   2.572   4.009
    1C        C  124   4.090   2.667   4.133
    1C        C  125   4.025   2.633   4.254
    1C        C  126   4.202   2.756   4.376
    1C        C  127   4.090   2.668   4.374
    1C        C  128   4.245   2.813   4.497
    1C        C  129   4.193   2.761   4.618
    1C        C  130   4.321   2.933   4.737
    1C        C  131   4.241   2.816   4.738
    1C        C  132   4.348   3.003   4.857
    1C        C  133   4.277   2.961   4.970
    1C        C  134   3.166   2.461   2.079
    1C        C  135   3.034   2.508   2.084
    1C        C  136   3.254   2.479   2.187
    1C        C  137   3.191   2.517   2.307
    1C        C  138   3.402   2.483   2.425
    1C        C  139   3.264   2.509   2.428
    1C        C  140   3.477   2.483   2.544
    1C        C  141   3.405   2.495   2.666
    1C        C  142   3.619   2.496   2.788
    1C        C  143   3.477   2.493   2.787
    1C        C  144   3.691   2.506   2.909
    1C        C  145   3.620   2.502   3.031
    1C        C  146   3.829   2.539   3.150
    1C        C  147   3.693   2.503   3.152
    1C        C  148   3.896   2.562   3.273
    1C        C  149   3.831   2.541   3.397
    1C        C  150   4.026   2.620   3.518
    1C        C  151   3.898   2.559   3.519
    1C        C  152   4.087   2.658   3.640
    1C        C  153   4.026   2.628   3.763
    1C        C  154   4.193   2.756   3.884
    1C        C  155   4.081   2.669   3.887
    1C        C  156   4.248   2.803   4.005
    1C        C  157   4.201   2.755   4.130
    1C        C  158   4.333   2.919   4.251
    1C        C  159   4.248   2.806   4.252
    1C        C  160   4.369   2.982   4.372
    1C        C  161   4.332   2.925   4.496
    1C        C  162   4.433   3.115   4.613
    1C        C  163   4.368   2.989   4.616
    1C        C  164   4.460   3.185   4.733
    1C        C  165   4.427   3.120   4.854
    1C        C  166   4.512   3.315   4.971
    1C        C  167   4.476   3.180   4.971
    1C        C  168   3.472   2.435   2.072
    1C        C  169   3.394   2.460   2.185
    1C        C  170   3.614   2.469   2.304
    1C        C  171   3.472   2.464   2.303
    1C        C  172   3.690   2.487   2.421
    1C        C  173   3.618   2.491   2.543
    1C        C  174   3.825   2.534   2.662
    1C        C  175   3.688   2.502   2.665
    1C        C  176   3.894   2.561   2.782
    1C        C  177   3.828   2.541   2.906
    1C        C  178   4.024   2.623   3.027
    1C        C  179   3.895   2.564   3.028
    1C        C  180   4.083   2.658   3.151
    1C        C  181   4.023   2.624   3.274
    1C        C  182   4.198   2.743   3.393
    1C        C  183   4.086   2.657   3.396
    1C        C  184   4.247   2.795   3.515
    1C        C  185   4.196   2.749   3.639
    1C        C  186   4.333   2.911   3.762
    1C        C  187   4.245   2.801   3.761
    1C        C  188   4.372   2.974   3.883
    1C        C  189   4.334   2.915   4.006
    1C        C  190   4.437   3.100   4.126
    1C        C  191   4.376   2.972   4.128
    1C        C  192   4.468   3.168   4.246
    1C        C  193   4.438   3.105   4.369
    1C        C  194   4.506   3.309   4.488
    1C        C  195   4.468   3.173   4.489
    1C        C  196   4.522   3.383   4.608
    1C        C  197   4.508   3.319   4.733
    1C        C  198   4.553   3.531   4.847
    1C        C  199   4.528   3.390   4.854
    1C        C  200   4.583   3.616   4.958
    1C        C  201   3.610   2.414   2.073
    1C        C  202   3.825   2.503   2.178
    1C        C  203   3.688   2.460   2.183
    1C        C  204   3.895   2.536   2.297
    1C        C  205   3.828   2.518   2.419
    1C        C  206   4.022   2.610   2.539
    1C        C  207   3.895   2.549   2.540
    1C        C  208   4.086   2.648   2.659
    1C        C  209   4.022   2.620   2.782
    1C        C  210   4.197   2.743   2.903
    1C        C  211   4.085   2.656   2.904
    1C        C  212   4.249   2.789   3.026
    1C        C  213   4.198   2.739   3.148
    1C        C  214   4.336   2.901   3.267
    1C        C  215   4.249   2.790   3.270
    1C        C  216   4.366   2.965   3.390
    1C        C  217   4.329   2.910   3.515
    1C        C  218   4.431   3.095   3.635
    1C        C  219   4.368   2.968   3.638
    1C        C  220   4.459   3.163   3.756
    1C        C  221   4.438   3.099   3.880
    1C        C  222   4.495   3.302   4.002
    1C        C  223   4.459   3.165   4.003
    1C        C  224   4.508   3.375   4.122
    1C        C  225   4.496   3.306   4.245
    1C        C  226   4.516   3.520   4.363
    1C        C  227   4.512   3.379   4.365
    1C        C  228   4.515   3.593   4.484
    1C        C  229   4.524   3.524   4.606
    1C        C  230   4.498   3.738   4.723
    1C        C  231   4.532   3.600   4.725
    1C        C  232   4.488   3.814   4.842
    1C        C  233   4.540   3.749   4.955
    1C        C  234   4.016   2.607   2.059
    1C        C  235   3.894   2.541   2.062
    1C        C  236   4.079   2.650   2.177
    1C        C  237   4.021   2.602   2.296
    1C        C  238   4.200   2.725   2.416
    1C        C  239   4.084   2.642   2.416
    1C        C  240   4.257   2.773   2.537
    1C        C  241   4.201   2.730   2.659
    1C        C  242   4.333   2.899   2.777
    1C        C  243   4.247   2.787   2.779
    1C        C  244   4.376   2.955   2.900
    1C        C  245   4.338   2.899   3.024
    1C        C  246   4.435   3.088   3.143
    1C        C  247   4.377   2.959   3.145
    1C        C  248   4.454   3.155   3.266
    1C        C  249   4.425   3.093   3.390
    1C        C  250   4.486   3.296   3.511
    1C        C  251   4.453   3.159   3.512
    1C        C  252   4.501   3.367   3.632
    1C        C  253   4.494   3.300   3.757
    1C        C  254   4.515   3.511   3.875
    1C        C  255   4.508   3.370   3.879
    1C        C  256   4.513   3.585   3.995
    1C        C  257   4.515   3.516   4.119
    1C        C  258   4.485   3.728   4.239
    1C        C  259   4.513   3.590   4.240
    1C        C  260   4.465   3.799   4.359
    1C        C  261   4.485   3.731   4.481
    1C        C  262   4.418   3.935   4.602
    1C        C  263   4.471   3.804   4.601
    1C        C  264   4.398   4.009   4.721
    1C        C  265   4.431   3.943   4.841
    1C        C  266   4.315   4.126   4.956
    1C        C  267   4.388   4.008   4.958
    1C        C  268   4.266   2.769   2.060
    1C        C  269   4.195   2.730   2.175
    1C        C  270   4.339   2.889   2.295
    1C        C  271   4.253   2.776   2.296
    1C        C  272   4.382   2.949   2.415
    1C        C  273   4.344   2.884   2.535
    1C        C  274   4.440   3.079   2.657
    1C        C  275   4.374   2.954   2.654
    1C        C  276   4.469   3.146   2.778
    1C        C  277   4.442   3.080   2.900
    1C        C  278   4.504   3.286   3.022
    1C        C  279   4.465   3.150   3.020
    1C        C  280   4.507   3.360   3.143
    1C        C  281   4.485   3.293   3.265
    1C        C  282   4.506   3.504   3.387
    1C        C  283   4.499   3.363   3.387
    1C        C  284   4.507   3.577   3.507
    1C        C  285   4.508   3.508   3.631
    1C        C  286   4.485   3.720   3.749
    1C        C  287   4.507   3.581   3.752
    1C        C  288   4.470   3.789   3.871
    1C        C  289   4.484   3.723   3.995
    1C        C  290   4.418   3.928   4.113
    1C        C  291   4.467   3.795   4.116
    1C        C  292   4.387   3.991   4.235
    1C        C  293   4.420   3.933   4.360
    1C        C  294   4.316   4.122   4.477
    1C        C  295   4.389   4.001   4.480
    1C        C  296   4.277   4.184   4.598
    1C        C  297   4.323   4.130   4.720
    1C        C  298   4.194   4.309   4.837
    1C        C  299   4.275   4.191   4.839
    1C        C  300   4.165   4.396   4.947
    1C        C  301   4.353   2.876   2.056
    1C        C  302   4.465   3.065   2.171
    1C        C  303   4.388   2.944   2.173
    1C        C  304   4.484   3.136   2.293
    1C        C  305   4.450   3.073   2.415
    1C        C  306   4.498   3.282   2.532
    1C        C  307   4.471   3.143   2.535
    1C        C  308   4.508   3.353   2.653
    1C        C  309   4.500   3.284   2.776
    1C        C  310   4.521   3.494   2.896
    1C        C  311   4.512   3.353   2.898
    1C        C  312   4.508   3.566   3.017
    1C        C  313   4.508   3.501   3.142
    1C        C  314   4.480   3.713   3.261
    1C        C  315   4.502   3.573   3.264
    1C        C  316   4.470   3.784   3.382
    1C        C  317   4.488   3.717   3.505
    1C        C  318   4.421   3.921   3.624
    1C        C  319   4.469   3.788   3.626
    1C        C  320   4.389   3.984   3.746
    1C        C  321   4.420   3.922   3.869
    1C        C  322   4.314   4.110   3.988
    1C        C  323   4.386   3.988   3.989
    1C        C  324   4.275   4.167   4.111
    1C        C  325   4.317   4.114   4.234
    1C        C  326   4.179   4.280   4.349
    1C        C  327   4.275   4.177   4.354
    1C        C  328   4.133   4.338   4.470
    1C        C  329   4.186   4.292   4.593
    1C        C  330   4.022   4.433   4.709
    1C        C  331   4.136   4.348   4.713
    1C        C  332   3.967   4.490   4.826
    1C        C  333   4.044   4.468   4.941
    1C        C  334   4.550   3.263   2.059
    1C        C  335   4.531   3.124   2.059
    1C        C  336   4.536   3.346   2.170
    1C        C  337   4.514   3.275   2.290
    1C        C  338   4.513   3.492   2.408
    1C        C  339   4.510   3.351   2.409
    1C        C  340   4.518   3.562   2.531
    1C        C  341   4.518   3.494   2.654
    1C        C  342   4.490   3.706   2.771
    1C        C  343   4.516   3.567   2.775
    1C        C  344   4.475   3.777   2.893
    1C        C  345   4.486   3.706   3.014
    1C        C  346   4.422   3.910   3.135
    1C        C  347   4.464   3.776   3.135
    1C        C  348   4.391   3.979   3.255
    1C        C  349   4.424   3.918   3.378
    1C        C  350   4.316   4.101   3.498
    1C        C  351   4.395   3.984   3.500
    1C        C  352   4.273   4.158   3.619
    1C        C  353   4.317   4.105   3.743
    1C        C  354   4.172   4.264   3.860
    1C        C  355   4.272   4.163   3.864
    1C        C  356   4.121   4.313   3.982
    1C        C  357   4.178   4.270   4.104
    1C        C  358   4.008   4.400   4.226
    1C        C  359   4.126   4.322   4.225
    1C        C  360   3.950   4.440   4.348
    1C        C  361   4.015   4.415   4.471
    1C        C  362   3.823   4.515   4.588
    1C        C  363   3.954   4.463   4.589
    1C        C  364   3.758   4.545   4.710
    1C        C  365   3.836   4.541   4.828
    1C        C  366   3.626   4.593   4.943
    1C        C  367   3.764   4.575   4.944
    1C        C  368   4.512   3.562   2.049
    1C        C  369   4.520   3.487   2.167
    1C        C  370   4.497   3.703   2.287
    1C        C  371   4.510   3.563   2.286
    1C        C  372   4.483   3.774   2.408
    1C        C  373   4.497   3.702   2.529
    1C        C  374   4.420   3.904   2.647
    1C        C  375   4.472   3.773   2.648
    1C        C  376   4.389   3.970   2.768
    1C        C  377   4.425   3.909   2.891
    1C        C  378   4.315   4.090   3.007
    1C        C  379   4.394   3.974   3.012
    1C        C  380   4.270   4.149   3.127
    1C        C  381   4.311   4.095   3.251
    1C        C  382   4.168   4.249   3.374
    1C        C  383   4.267   4.149   3.374
    1C        C  384   4.121   4.305   3.495
    1C        C  385   4.180   4.265   3.617
    1C        C  386   4.008   4.393   3.740
    1C        C  387   4.126   4.316   3.737
    1C        C  388   3.942   4.426   3.861
    1C        C  389   4.005   4.393   3.983
    1C        C  390   3.814   4.489   4.103
    1C        C  391   3.943   4.431   4.105
    1C        C  392   3.749   4.514   4.227
    1C        C  393   3.821   4.498   4.347
    1C        C  394   3.613   4.551   4.471
    1C        C  395   3.753   4.531   4.467
    1C        C  396   3.542   4.564   4.592
    1C        C  397   3.619   4.567   4.710
    1C        C  398   3.407   4.546   4.838
    1C        C  399   3.545   4.570   4.831
    1C        C  400   3.339   4.517   4.957
    1C        C  401   4.499   3.701   2.048
    1C        C  402   4.454   3.913   2.163
    1C        C  403   4.489   3.776   2.166
    1C        C  404   4.413   3.974   2.283
    1C        C  405   4.437   3.907   2.406
    1C        C  406   4.323   4.092   2.522
    1C        C  407   4.397   3.972   2.525
    1C        C  408   4.272   4.146   2.642
    1C        C  409   4.313   4.089   2.765
    1C        C  410   4.174   4.251   2.885
    1C        C  411   4.272   4.149   2.886
    1C        C  412   4.120   4.298   3.007
    1C        C  413   4.171   4.250   3.129
    1C        C  414   4.000   4.376   3.248
    1C        C  415   4.117   4.297   3.251
    1C        C  416   3.939   4.408   3.372
    1C        C  417   4.000   4.378   3.496
    1C        C  418   3.812   4.476   3.614
    1C        C  419   3.942   4.421   3.618
    1C        C  420   3.747   4.501   3.736
    1C        C  421   3.813   4.483   3.860
    1C        C  422   3.608   4.539   3.982
    1C        C  423   3.746   4.509   3.981
    1C        C  424   3.539   4.544   4.106
    1C        C  425   3.611   4.544   4.228
    1C        C  426   3.400   4.546   4.353
    1C        C  427   3.541   4.555   4.349
    1C        C  428   3.329   4.548   4.475
    1C        C  429   3.401   4.555   4.596
    1C        C  430   3.192   4.513   4.718
    1C        C  431   3.332   4.537   4.718
    1C        C  432   3.123   4.489   4.840
    1C        C  433   3.202   4.493   4.956
    1C        C  434   4.386   4.123   2.049
    1C        C  435   4.448   3.997   2.051
    1C        C  436   4.303   4.157   2.160
    1C        C  437   4.330   4.089   2.282
    1C        C  438   4.181   4.249   2.399
    1C        C  439   4.280   4.148   2.400
    1C        C  440   4.124   4.298   2.518
    1C        C  441   4.175   4.249   2.640
    1C        C  442   4.005   4.376   2.759
    1C        C  443   4.121   4.295   2.762
    1C        C  444   3.944   4.413   2.881
    1C        C  445   4.004   4.380   3.004
    1C        C  446   3.811   4.470   3.125
    1C        C  447   3.939   4.411   3.125
    1C        C  448   3.743   4.487   3.248
    1C        C  449   3.811   4.466   3.370
    1C        C  450   3.606   4.523   3.492
    1C        C  451   3.746   4.499   3.491
    1C        C  452   3.537   4.530   3.615
    1C        C  453   3.608   4.530   3.737
    1C        C  454   3.397   4.540   3.860
    1C        C  455   3.538   4.542   3.859
    1C        C  456   3.328   4.530   3.984
    1C        C  457   3.398   4.536   4.106
    1C        C  458   3.194   4.500   4.233
    1C        C  459   3.330   4.536   4.230
    1C        C  460   3.126   4.478   4.355
    1C        C  461   3.192   4.511   4.475
    1C        C  462   2.994   4.431   4.599
    1C        C  463   3.125   4.486   4.596
    1C        C  464   2.928   4.397   4.720
    1C        C  465   2.987   4.445   4.840
    1C        C  466   2.806   4.334   4.959
    1C        C  467   2.899   4.438   4.953
    1C        C  468   4.125   4.281   2.040
    1C        C  469   4.189   4.244   2.159
    1C        C  470   4.008   4.373   2.272
    1C        C  471   4.127   4.295   2.277
    1C        C  472   3.941   4.407   2.392
    1C        C  473   4.006   4.377   2.514
    1C        C  474   3.814   4.465   2.638
    1C        C  475   3.944   4.411   2.636
    1C        C  476   3.743   4.484   2.759
    1C        C  477   3.811   4.463   2.881
    1C        C  478   3.602   4.508   3.003
    1C        C  479   3.741   4.482   3.002
    1C        C  480   3.532   4.519   3.125
    1C        C  481   3.604   4.510   3.246
    1C        C  482   3.395   4.530   3.373
    1C        C  483   3.536   4.523   3.370
    1C        C  484   3.323   4.532   3.495
    1C        C  485   3.396   4.538   3.616
    1C        C  486   3.189   4.501   3.742
    1C        C  487   3.326   4.539   3.738
    1C        C  488   3.126   4.475   3.866
    1C        C  489   3.190   4.499   3.989
    1C        C  490   3.002   4.407   4.109
    1C        C  491   3.126   4.474   4.112
    1C        C  492   2.944   4.372   4.233
    1C        C  493   3.000   4.413   4.356
    1C        C  494   2.824   4.300   4.480
    1C        C  495   2.936   4.385   4.479
    1C        C  496   2.766   4.256   4.601
    1C        C  497   2.816   4.310   4.722
    1C        C  498   2.668   4.161   4.843
    1C        C  499   2.757   4.270   4.844
    1C        C  500   2.603   4.114   4.959
    1C        C  501   4.008   4.357   2.038
    1C        C  502   3.810   4.456   2.150
    1C        C  503   3.941   4.403   2.152
    1C        C  504   3.740   4.472   2.272
    1C        C  505   3.808   4.455   2.394
    1C        C  506   3.604   4.505   2.517
    1C        C  507   3.743   4.480   2.517
    1C        C  508   3.531   4.511   2.638
    1C        C  509   3.604   4.508   2.760
    1C        C  510   3.391   4.515   2.881
    1C        C  511   3.532   4.516   2.881
    1C        C  512   3.322   4.518   3.004
    1C        C  513   3.391   4.529   3.127
    1C        C  514   3.185   4.493   3.251
    1C        C  515   3.323   4.523   3.251
    1C        C  516   3.122   4.466   3.375
    1C        C  517   3.186   4.498   3.496
    1C        C  518   3.001   4.406   3.621
    1C        C  519   3.121   4.481   3.620
    1C        C  520   2.945   4.362   3.743
    1C        C  521   3.001   4.407   3.865
    1C        C  522   2.833   4.279   3.991
    1C        C  523   2.942   4.369   3.987
    1C        C  524   2.785   4.231   4.115
    1C        C  525   2.834   4.284   4.236
    1C        C  526   2.693   4.130   4.361
    1C        C  527   2.777   4.243   4.359
    1C        C  528   2.651   4.073   4.483
    1C        C  529   2.687   4.139   4.603
    1C        C  530   2.577   3.961   4.729
    1C        C  531   2.639   4.089   4.725
    1C        C  532   2.543   3.899   4.853
    1C        C  533   2.529   3.996   4.957
    1C        C  534   3.611   4.554   2.036
    1C        C  535   3.746   4.513   2.040
    1C        C  536   3.532   4.534   2.153
    1C        C  537   3.602   4.506   2.273
    1C        C  538   3.391   4.512   2.394
    1C        C  539   3.532   4.510   2.396
    1C        C  540   3.319   4.508   2.516
    1C        C  541   3.390   4.512   2.638
    1C        C  542   3.180   4.486   2.760
    1C        C  543   3.319   4.513   2.759
    1C        C  544   3.117   4.464   2.885
    1C        C  545   3.184   4.487   3.007
    1C        C  546   2.993   4.399   3.132
    1C        C  547   3.117   4.468   3.130
    1C        C  548   2.938   4.362   3.257
    1C        C  549   2.998   4.400   3.379
    1C        C  550   2.826   4.277   3.503
    1C        C  551   2.939   4.361   3.502
    1C        C  552   2.774   4.227   3.624
    1C        C  553   2.833   4.276   3.743
    1C        C  554   2.696   4.120   3.872
    1C        C  555   2.785   4.229   3.867
    1C        C  556   2.659   4.059   3.994
    1C        C  557   2.700   4.118   4.116
    1C        C  558   2.596   3.938   4.243
    1C        C  559   2.663   4.063   4.240
    1C        C  560   2.566   3.877   4.366
    1C        C  561   2.593   3.944   4.487
    1C        C  562   2.528   3.748   4.612
    1C        C  563   2.561   3.885   4.611
    1C        C  564   2.511   3.680   4.735
    1C        C  565   2.518   3.758   4.854
    1C        C  566   2.537   3.544   4.974
    1C        C  567   2.525   3.682   4.972
    1C        C  568   3.321   4.476   2.037
    1C        C  569   3.392   4.505   2.153
    1C        C  570   3.178   4.473   2.278
    1C        C  571   3.317   4.502   2.274
    1C        C  572   3.111   4.453   2.400
    1C        C  573   3.180   4.483   2.520
    1C        C  574   2.981   4.402   2.646
    1C        C  575   3.108   4.464   2.640
    1C        C  576   2.924   4.363   2.769
    1C        C  577   2.993   4.396   2.888
    1C        C  578   2.824   4.269   3.014
    1C        C  579   2.935   4.357   3.011
    1C        C  580   2.775   4.219   3.137
    1C        C  581   2.830   4.270   3.257
    1C        C  582   2.692   4.112   3.379
    1C        C  583   2.779   4.224   3.381
    1C        C  584   2.655   4.054   3.502
    1C        C  585   2.690   4.113   3.626
    1C        C  586   2.590   3.933   3.752
    1C        C  587   2.654   4.059   3.751
    1C        C  588   2.569   3.867   3.875
    1C        C  589   2.596   3.933   3.997
    1C        C  590   2.533   3.735   4.124
    1C        C  591   2.567   3.872   4.121
    1C        C  592   2.520   3.668   4.248
    1C        C  593   2.527   3.741   4.369
    1C        C  594   2.512   3.533   4.494
    1C        C  595   2.516   3.674   4.492
    1C        C  596   2.522   3.463   4.617
    1C        C  597   2.515   3.538   4.737
    1C        C  598   2.530   3.325   4.859
    1C        C  599   2.527   3.466   4.858
    1C        C  600   2.534   3.248   4.976
    1C        C  601   3.188   4.440   2.037
    1C        C  602   2.979   4.392   2.158
    1C        C  603   3.111   4.446   2.155
    1C        C  604   2.921   4.352   2.282
    1C        C  605   2.983   4.395   2.402
    1C        C  606   2.816   4.267   2.526
    1C        C  607   2.923   4.360   2.525
    1C        C  608   2.766   4.220   2.650
    1C        C  609   2.816   4.272   2.771
    1C        C  610   2.684   4.107   2.895
    1C        C  611   2.771   4.218   2.894
    1C        C  612   2.644   4.050   3.018
    1C        C  613   2.686   4.109   3.139
    1C        C  614   2.591   3.920   3.261
    1C        C  615   2.649   4.048   3.261
    1C        C  616   2.569   3.859   3.387
    1C        C  617   2.593   3.927   3.508
    1C        C  618   2.528   3.727   3.632
    1C        C  619   2.566   3.863   3.631
    1C        C  620   2.518   3.659   3.755
    1C        C  621   2.531   3.731   3.876
    1C        C  622   2.508   3.525   4.005
    1C        C  623   2.517   3.666   4.001
    1C        C  624   2.517   3.454   4.127
    1C        C  625   2.516   3.527   4.248
    1C        C  626   2.543   3.323   4.375
    1C        C  627   2.515   3.461   4.373
    1C        C  628   2.554   3.251   4.496
    1C        C  629   2.537   3.323   4.617
    1C        C  630   2.590   3.117   4.740
    1C        C  631   2.547   3.252   4.739
    1C        C  632   2.615   3.047   4.861
    1C        C  633   2.561   3.111   4.977
    1C        C  634   2.774   4.304   2.053
    1C        C  635   2.885   4.390   2.050
    1C        C  636   2.745   4.228   2.167
    1C        C  637   2.809   4.265   2.287
    1C        C  638   2.668   4.107   2.408
    1C        C  639   2.754   4.219   2.409
    1C        C  640   2.638   4.044   2.531
    1C        C  641   2.683   4.105   2.650
    1C        C  642   2.582   3.920   2.775
    1C        C  643   2.648   4.045   2.773
    1C        C  644   2.556   3.854   2.897
    1C        C  645   2.580   3.924   3.017
    1C        C  646   2.530   3.718   3.145
    1C        C  647   2.559   3.856   3.139
    1C        C  648   2.519   3.649   3.268
    1C        C  649   2.533   3.723   3.387
    1C        C  650   2.504   3.515   3.517
    1C        C  651   2.514   3.656   3.511
    1C        C  652   2.507   3.447   3.640
    1C        C  653   2.504   3.519   3.762
    1C        C  654   2.528   3.310   3.887
    1C        C  655   2.508   3.450   3.885
    1C        C  656   2.548   3.242   4.009
    1C        C  657   2.536   3.314   4.130
    1C        C  658   2.600   3.116   4.254
    1C        C  659   2.554   3.250   4.255
    1C        C  660   2.630   3.053   4.377
    1C        C  661   2.602   3.118   4.499
    1C        C  662   2.702   2.932   4.621
    1C        C  663   2.625   3.050   4.620
    1C        C  664   2.746   2.874   4.742
    1C        C  665   2.691   2.925   4.862
    1C        C  666   2.739   2.863   4.978
    1C        C  667   2.672   4.026   2.049
    1C        C  668   2.683   4.102   2.166
    1C        C  669   2.584   3.911   2.289
    1C        C  670   2.636   4.043   2.286
    1C        C  671   2.552   3.846   2.411
    1C        C  672   2.574   3.918   2.530
    1C        C  673   2.514   3.718   2.655
    1C        C  674   2.549   3.855   2.654
    1C        C  675   2.508   3.647   2.777
    1C        C  676   2.522   3.717   2.900
    1C        C  677   2.503   3.507   3.025
    1C        C  678   2.518   3.648   3.023
    1C        C  679   2.506   3.437   3.148
    1C        C  680   2.509   3.508   3.270
    1C        C  681   2.525   3.304   3.398
    1C        C  682   2.503   3.443   3.395
    1C        C  683   2.545   3.237   3.521
    1C        C  684   2.529   3.307   3.643
    1C        C  685   2.597   3.108   3.766
    1C        C  686   2.544   3.239   3.766
    1C        C  687   2.627   3.046   3.890
    1C        C  688   2.597   3.110   4.012
    1C        C  689   2.706   2.928   4.137
    1C        C  690   2.633   3.048   4.134
    1C        C  691   2.750   2.874   4.260
    1C        C  692   2.708   2.935   4.380
    1C        C  693   2.747   2.873   4.501
    1C        C  694   2.619   3.896   2.053
    1C        C  695   2.527   3.701   2.173
    1C        C  696   2.579   3.833   2.171
    1C        C  697   2.501   3.636   2.295
    1C        C  698   2.512   3.711   2.414
    1C        C  699   2.489   3.502   2.539
    1C        C  700   2.497   3.643   2.537
    1C        C  701   2.501   3.432   2.661
    1C        C  702   2.504   3.506   2.781
    1C        C  703   2.525   3.296   2.908
    1C        C  704   2.505   3.436   2.904
    1C        C  705   2.546   3.226   3.029
    1C        C  706   2.531   3.298   3.150
    1C        C  707   2.590   3.101   3.275
    1C        C  708   2.546   3.236   3.276
    1C        C  709   2.622   3.040   3.398
    1C        C  710   2.596   3.106   3.521
    1C        C  711   2.704   2.925   3.645
    1C        C  712   2.630   3.045   3.644
    1C        C  713   2.750   2.875   3.769
    1C        C  714   2.705   2.928   3.891
    1C        C  715   2.749   2.873   4.014
    1C        C  716   2.447   3.492   2.056
    1C        C  717   2.492   3.625   2.061
    1C        C  718   2.458   3.420   2.179
    1C        C  719   2.478   3.495   2.298
    1C        C  720   2.506   3.285   2.422
    1C        C  721   2.487   3.425   2.420
    1C        C  722   2.534   3.218   2.543
    1C        C  723   2.519   3.292   2.663
    1C        C  724   2.580   3.091   2.786
    1C        C  725   2.538   3.226   2.786
    1C        C  726   2.615   3.029   2.908
    1C        C  727   2.595   3.094   3.032
    1C        C  728   2.698   2.913   3.154
    1C        C  729   2.622   3.032   3.156
    1C        C  730   2.746   2.867   3.279
    1C        C  731   2.703   2.924   3.401
    1C        C  732   2.747   2.868   3.523
    1C        C  733   2.484   3.189   2.075
    1C        C  734   2.485   3.280   2.182
    1C        C  735   2.586   3.085   2.300
    1C        C  736   2.522   3.212   2.302
    1C        C  737   2.610   3.018   2.422
    1C        C  738   2.584   3.086   2.543
    1C        C  739   2.686   2.903   2.666
    1C        C  740   2.612   3.023   2.666
    1C        C  741   2.731   2.850   2.789
    1C        C  742   2.690   2.909   2.911
    1C        C  743   2.735   2.852   3.032
    1C        C  744   2.534   3.060   2.068
    1C        C  745   2.686   2.899   2.182
    1C        C  746   2.603   3.013   2.180
    1C        C  747   2.728   2.838   2.302
    1C        C  748   2.680   2.895   2.422
    1C        C  749   2.731   2.847   2.544
    1C        C  750   2.728   2.835   2.065
    1C        C  751   3.660   2.315   1.974
    1C        O  752   3.722   2.214   2.018
    1C        O  753   3.670   2.333   1.836
    1C        C  754   4.648   3.056   2.000
    1C        O  755   4.674   3.052   1.877
    1C        O  756   4.747   3.006   2.087
    1C        C  757   4.486   4.224   2.006
    1C        O  758   4.518   4.326   2.073
    1C        O  759   4.529   4.220   1.873
    1C        C  760   3.575   4.649   1.929
    1C        O  761   3.512   4.758   1.940
    1C        O  762   3.562   4.602   1.797
    1C        C  763   2.885   4.470   1.926
    1C        O  764   2.909   4.419   1.813
    1C        O  765   2.807   4.585   1.911
    1C        C  766   2.339   3.465   1.957
    1C        O  767   2.373   3.410   1.849
    1C        O  768   2.201   3.462   1.977
    1C        C  769   4.657   3.569   5.077
    1C        O  770   4.601   3.523   5.180
    1C        O  771   4.796   3.586   5.083
    1C        C  772   4.268   4.477   5.017
    1C        O  773   4.324   4.449   5.127
    1C        O  774   4.306   4.604   4.974
    1C        C  775   4.134   2.531   5.086
    1C        O  776   4.167   2.411   5.104
    1C        O  777   4.114   2.575   5.218
    1C        C  778   2.880   4.542   5.057
    1C        O  779   2.787   4.626   5.052
    1C        O  780   2.934   4.528   5.186
    1C        C  781   2.470   3.041   5.071
    1C        O  782   2.370   2.983   5.022
    1C        O  783   2.510   3.005   5.200
    1C        C  784   2.406   4.001   5.040
    1C        O  785   2.291   4.025   4.994
    1C        O  786   2.407   4.011   5.179
    1C        C  787   2.935   2.414   2.026
    1C        O  788   2.872   2.440   1.920
    1C        O  789   2.869   2.328   2.113
    1C        C  790   3.200   2.389   5.077
    1C        O  791   3.178   2.268   5.049
    1C        O  792   3.252   2.411   5.205
    1C        H  793   4.224   3.041   5.018
    1C        H  794   4.176   2.803   5.068
    1C        H  795   4.542   3.120   5.030
    1C        H  796   4.490   3.366   5.063
    1C        H  797   4.572   3.811   5.036
    1C        H  798   4.417   3.967   5.052
    1C        H  799   4.286   4.173   5.049
    1C        H  800   4.019   4.518   5.032
    1C        H  801   3.818   4.630   5.018
    1C        H  802   3.585   4.652   5.022
    1C        H  803   3.397   4.485   5.041
    1C        H  804   3.157   4.468   5.050
    1C        H  805   3.880   2.499   5.067
    1C        H  806   3.677   2.444   5.066
    1C        H  807   2.990   2.526   5.048
    1C        H  808   3.445   2.486   5.073
    1C        H  809   2.906   2.768   5.063
    1C        H  810   2.711   2.907   5.071
    1C        H  811   2.519   3.302   5.067
    1C        H  812   2.601   3.512   5.054
    1C        H  813   2.482   3.723   5.061
    1C        H  814   2.608   4.175   5.046
    1C        H  815   2.806   4.278   5.050
    1C        H  816   2.682   2.856   1.970
    1C        H  817   2.853   2.692   1.972
    1C        H  818   3.194   2.389   2.005
    1C        H  819   3.421   2.434   1.977
    1C        H  820   3.857   2.502   1.969
    1C        H  821   4.031   2.659   1.966
    1C        H  822   4.262   2.704   1.975
    1C        H  823   4.410   2.894   1.967
    1C        H  824   4.622   3.301   1.988
    1C        H  825   4.564   3.520   1.966
    1C        H  826   4.470   3.739   1.953
    1C        H  827   3.794   4.511   1.944
    1C        H  828   3.970   4.381   1.941
    1C        H  829   4.141   4.229   1.948
    1C        H  830   4.516   3.972   1.973
    1C        H  831   2.614   3.843   1.960
    1C        H  832   2.690   4.059   1.949
    1C        H  833   2.704   4.319   1.973
    1C        H  834   3.371   4.464   1.943
    1C        H  835   3.136   4.432   1.944
    1C        H  836   2.542   3.021   1.968
    1C        H  837   2.430   3.220   1.988
    1C        H  838   2.475   3.682   1.972
    2V3OU   H29  839   2.801   3.551   1.602
    2V3OU   C27  840   2.772   3.502   1.699
    2V3OU   H27  841   2.712   3.562   1.771
    2V3OU   H28  842   2.722   3.402   1.692
    2V3OU   O11  843   2.903   3.476   1.750
    2V3OU   C15  844   2.919   3.401   1.864
    2V3OU   C13  845   3.047   3.372   1.915
    2V3OU   C14  846   3.073   3.261   1.997
    2V3OU   C16  847   2.969   3.177   2.035
    2V3OU    H6  848   2.987   3.098   2.109
    2V3OU   C12  849   3.210   3.227   2.041
    2V3OU    O2  850   3.237   3.123   2.106
    2V3OU   C10  851   3.325   3.302   1.988
    2V3OU    C8  852   3.457   3.266   2.012
    2V3OU   O10  853   3.487   3.152   2.080
    2V3OU   H26  854   3.399   3.115   2.096
    2V3OU    C6  855   3.565   3.351   1.971
    2V3OU    C5  856   3.535   3.469   1.904
    2V3OU    C4  857   3.702   3.294   1.972
    2V3OU    H4  858   3.719   3.220   2.056
    2V3OU    H5  859   3.707   3.225   1.883
    2V3OU    C2  860   3.814   3.399   1.970
    2V3OU    O6  861   3.805   3.473   2.092
    2V3OU   H21  862   3.753   3.555   2.083
    2V3OU    C3  863   3.780   3.489   1.852
    2V3OU    H2  864   3.858   3.566   1.827
    2V3OU    H3  865   3.768   3.426   1.760
    2V3OU   C25  866   3.949   3.327   1.962
    2V3OU    O7  867   3.998   3.291   1.855
    2V3OU   C26  868   4.024   3.288   2.087
    2V3OU   H22  869   4.057   3.381   2.140
    2V3OU   H23  870   4.113   3.224   2.062
    2V3OU    O8  871   3.955   3.204   2.177
    2V3OU   H24  872   3.916   3.266   2.241
    2V3OU    C1  873   3.648   3.562   1.874
    2V3OU    H1  874   3.626   3.616   1.777
    2V3OU    O3  875   3.657   3.658   1.980
    2V3OU   C19  876   3.613   3.793   1.964
    2V3OU    H9  877   3.515   3.799   1.908
    2V3OU    O4  878   3.714   3.848   1.883
    2V3OU   C20  879   3.842   3.880   1.939
    2V3OU   H10  880   3.881   3.774   1.949
    2V3OU   C24  881   3.610   3.854   2.105
    2V3OU   H16  882   3.539   3.791   2.164
    2V3OU   H17  883   3.565   3.956   2.098
    2V3OU   C23  884   3.745   3.871   2.174
    2V3OU   H15  885   3.786   3.766   2.196
    2V3OU    N1  886   3.736   3.953   2.293
    2V3OU   H19  887   3.801   3.918   2.360
    2V3OU   H20  888   3.648   3.933   2.337
    2V3OU   C21  889   3.845   3.943   2.079
    2V3OU   H11  890   3.949   3.926   2.121
    2V3OU    O5  891   3.820   4.082   2.073
    2V3OU   H18  892   3.780   4.107   2.158
    2V3OU   C22  893   3.908   3.947   1.820
    2V3OU   H12  894   3.859   4.046   1.801
    2V3OU   H13  895   3.900   3.882   1.729
    2V3OU   H14  896   4.018   3.962   1.837
    2V3OU   C11  897   3.157   3.466   1.889
    2V3OU    O1  898   3.130   3.585   1.861
    2V3OU    C9  899   3.295   3.420   1.915
    2V3OU    C7  900   3.400   3.500   1.871
    2V3OU    O9  901   3.387   3.609   1.786
    2V3OU   H25  902   3.291   3.625   1.787
    2V3OU   C17  903   2.819   3.312   1.909
    2V3OU    H7  904   2.714   3.339   1.900
    2V3OU   C18  905   2.840   3.201   1.990
    2V3OU    H8  906   2.762   3.137   2.033
    3SOL     OW  907   2.545   4.175   0.909
    3SOL    HW1  908   2.497   4.092   0.879
    3SOL    HW2  909   2.541   4.244   0.837
    4SOL     OW  910   6.758   5.467   2.189
    4SOL    HW1  911   6.756   5.388   2.128
    4SOL    HW2  912   6.760   5.551   2.135
    5SOL     OW  913   3.780   1.136   2.301
    5SOL    HW1  914   3.787   1.054   2.244
    5SOL    HW2  915   3.857   1.196   2.282
    6SOL     OW  916   3.729   2.119   2.401
    6SOL    HW1  917   3.669   2.049   2.439
    6SOL    HW2  918   3.674   2.193   2.363
    7SOL     OW  919   6.271   2.765   1.319
    7SOL    HW1  920   6.324   2.737   1.399
    7SOL    HW2  921   6.312   2.725   1.237
    8SOL     OW  922   2.364   6.453   5.053
    8SOL    HW1  923   2.454   6.486   5.027
    8SOL    HW2  924   2.326   6.510   5.126
    9SOL     OW  925   1.102   5.388   5.896
    9SOL    HW1  926   1.157   5.375   5.814
    9SOL    HW2  927   1.159   5.425   5.970
   10SOL     OW  928   0.862   4.345   5.635
   10SOL    HW1  929   0.874   4.248   5.660
   10SOL    HW2  930   0.928   4.401   5.685
   11SOL     OW  931   2.872   0.384   0.434
   11SOL    HW1  932   2.823   0.303   0.467
   11SOL    HW2  933   2.807   0.458   0.418
   12SOL     OW  934   4.441   6.095   3.776
   12SOL    HW1  935   4.376   6.036   3.824
   12SOL    HW2  936   4.424   6.091   3.678
   13SOL     OW  937   3.483   5.992   4.443
   13SOL    HW1  938   3.387   5.963   4.438
   13SOL    HW2  939   3.541   5.916   4.415
   14SOL     OW  940   4.332   5.688   6.279
   14SOL    HW1  941   4.243   5.728   6.259
   14SOL    HW2  942   4.321   5.614   6.345
   15SOL     OW  943   1.806   5.775   6.929
   15SOL    HW1  944   1.859   5.698   6.892
   15SOL    HW2  945   1.711   5.746   6.944
   16SOL     OW  946   6.049   1.976   5.565
   16SOL    HW1  947   6.055   1.892   5.511
   16SOL    HW2  948   6.085   1.960   5.656
   17SOL     OW  949   5.272   6.208   4.549
   17SOL    HW1  950   5.359   6.158   4.549
   17SOL    HW2  951   5.211   6.168   4.618
   18SOL     OW  952   2.784   1.762   6.780
   18SOL    HW1  953   2.844   1.725   6.709
   18SOL    HW2  954   2.702   1.801   6.738
   19SOL     OW  955   6.938   6.749   3.303
   19SOL    HW1  956   6.898   6.792   3.383
   19SOL    HW2  957   6.882   6.670   3.275
   20SOL     OW  958   3.447   0.871   4.378
   20SOL    HW1  959   3.449   0.825   4.290
   20SOL    HW2  960   3.539   0.876   4.416
   21SOL     OW  961   2.972   1.965   2.964
   21SOL    HW1  962   3.055   1.926   3.004
   21SOL    HW2  963   2.967   2.063   2.987
   22SOL     OW  964   2.008   0.223   6.931
   22SOL    HW1  965   1.916   0.233   6.969
   22SOL    HW2  966   2.045   0.133   6.956
   23SOL     OW  967   4.531   6.556   3.350
   23SOL    HW1  968   4.514   6.609   3.433
   23SOL    HW2  969   4.534   6.618   3.271
   24SOL     OW  970   5.238   0.742   4.145
   24SOL    HW1  971   5.211   0.801   4.221
   24SOL    HW2  972   5.226   0.791   4.059
   25SOL     OW  973   3.138   5.980   6.280
   25SOL    HW1  974   3.190   6.021   6.205
   25SOL    HW2  975   3.094   6.051   6.334
   26SOL     OW  976   5.999   1.056   1.144
   26SOL    HW1  977   6.093   1.037   1.174
   26SOL    HW2  978   5.963   1.134   1.195
   27SOL     OW  979   0.253   0.699   2.148
   27SOL    HW1  980   0.162   0.683   2.186
   27SOL    HW2  981   0.262   0.796   2.123
   28SOL     OW  982   4.396   1.158   0.149
   28SOL    HW1  983   4.455   1.094   0.099
   28SOL    HW2  984   4.423   1.252   0.127
   29SOL     OW  985   5.193   2.707   2.102
   29SOL    HW1  986   5.143   2.793   2.087
   29SOL    HW2  987   5.170   2.671   2.192
   30SOL     OW  988   2.822   6.900   5.269
   30SOL    HW1  989   2.758   6.964   5.311
   30SOL    HW2  990   2.915   6.936   5.276
   31SOL     OW  991   0.645   1.403   5.512
   31SOL    HW1  992   0.571   1.377   5.573
   31SOL    HW2  993   0.660   1.501   5.516
   32SOL     OW  994   0.647   2.408   2.826
   32SOL    HW1  995   0.558   2.451   2.813
   32SOL    HW2  996   0.642   2.347   2.906
   33SOL     OW  997   1.984   2.791   6.530
   33SOL    HW1  998   1.897   2.764   6.488
   33SOL    HW2  999   1.966   2.855   6.606
   34SOL     OW 1000   1.769   0.889   4.615
   34SOL    HW1 1001   1.838   0.924   4.551
   34SOL    HW2 1002   1.678   0.896   4.574
   35SOL     OW 1003   4.225   2.336   6.562
   35SOL    HW1 1004   4.169   2.336   6.645
   35SOL    HW2 1005   4.231   2.243   6.526
   36SOL     OW 1006   0.951   0.829   6.463
   36SOL    HW1 1007   0.965   0.801   6.558
   36SOL    HW2 1008   0.978   0.925   6.452
   37SOL     OW 1009   2.387   0.266   0.739
   37SOL    HW1 1010   2.288   0.249   0.737
   37SOL    HW2 1011   2.436   0.182   0.714
   38SOL     OW 1012   0.560   5.825   2.809
   38SOL    HW1 1013   0.468   5.812   2.772
   38SOL    HW2 1014   0.576   5.762   2.885
   39SOL     OW 1015   6.835   4.110   6.478
   39SOL    HW1 1016   6.875   4.150   6.396
   39SOL    HW2 1017   6.894   4.127   6.557
   40SOL     OW 1018   6.073   2.623   2.029
   40SOL    HW1 1019   6.051   2.635   2.125
   40SOL    HW2 1020   5.990   2.633   1.974
   41SOL     OW 1021   1.626   6.414   4.168
   41SOL    HW1 1022   1.573   6.353   4.228
   41SOL    HW2 1023   1.610   6.388   4.073
   42SOL     OW 1024   3.083   6.793   6.032
   42SOL    HW1 1025   3.081   6.693   6.038
   42SOL    HW2 1026   3.073   6.832   6.124
   43SOL     OW 1027   5.779   6.044   6.055
   43SOL    HW1 1028   5.698   5.985   6.064
   43SOL    HW2 1029   5.851   5.993   6.008
   44SOL     OW 1030   6.571   2.615   6.640
   44SOL    HW1 1031   6.473   2.611   6.656
   44SOL    HW2 1032   6.612   2.528   6.668
   45SOL     OW 1033   3.284   0.688   3.788
   45SOL    HW1 1034   3.204   0.705   3.730
   45SOL    HW2 1035   3.356   0.754   3.765
   46SOL     OW 1036   0.998   3.822   4.274
   46SOL    HW1 1037   0.920   3.781   4.227
   46SOL    HW2 1038   1.044   3.752   4.329
   47SOL     OW 1039   5.578   3.372   3.500
   47SOL    HW1 1040   5.503   3.323   3.456
   47SOL    HW2 1041   5.665   3.332   3.471
   48SOL     OW 1042   0.760   2.426   4.663
   48SOL    HW1 1043   0.815   2.452   4.584
   48SOL    HW2 1044   0.777   2.490   4.738
   49SOL     OW 1045   4.646   4.073   1.702
   49SOL    HW1 1046   4.600   4.139   1.762
   49SOL    HW2 1047   4.672   3.993   1.755
   50SOL     OW 1048   6.455   2.471   5.258
   50SOL    HW1 1049   6.547   2.483   5.294
   50SOL    HW2 1050   6.421   2.558   5.222
   51SOL     OW 1051   3.329   5.820   2.663
   51SOL    HW1 1052   3.269   5.741   2.678
   51SOL    HW2 1053   3.326   5.880   2.743
   52SOL     OW 1054   4.167   1.575   3.634
   52SOL    HW1 1055   4.124   1.644   3.574
   52SOL    HW2 1056   4.257   1.608   3.662
   53SOL     OW 1057   4.520   0.493   3.860
   53SOL    HW1 1058   4.440   0.551   3.847
   53SOL    HW2 1059   4.536   0.479   3.958
   54SOL     OW 1060   2.747   5.089   6.580
   54SOL    HW1 1061   2.779   5.166   6.525
   54SOL    HW2 1062   2.823   5.051   6.631
   55SOL     OW 1063   3.619   1.255   6.319
   55SOL    HW1 1064   3.656   1.311   6.245
   55SOL    HW2 1065   3.553   1.309   6.372
   56SOL     OW 1066   1.628   0.554   1.426
   56SOL    HW1 1067   1.699   0.487   1.403
   56SOL    HW2 1068   1.670   0.632   1.473
   57SOL     OW 1069   4.877   0.198   0.759
   57SOL    HW1 1070   4.815   0.193   0.837
   57SOL    HW2 1071   4.968   0.165   0.787
   58SOL     OW 1072   0.426   5.816   6.164
   58SOL    HW1 1073   0.486   5.780   6.235
   58SOL    HW2 1074   0.452   5.777   6.075
   59SOL     OW 1075   1.622   1.014   6.502
   59SOL    HW1 1076   1.578   0.925   6.510
   59SOL    HW2 1077   1.664   1.023   6.412
   60SOL     OW 1078   5.234   0.750   5.463
   60SOL    HW1 1079   5.241   0.727   5.560
   60SOL    HW2 1080   5.322   0.784   5.430
   61SOL     OW 1081   4.866   1.178   4.069
   61SOL    HW1 1082   4.871   1.265   4.116
   61SOL    HW2 1083   4.959   1.141   4.055
   62SOL     OW 1084   0.646   1.377   3.630
   62SOL    HW1 1085   0.740   1.361   3.599
   62SOL    HW2 1086   0.589   1.397   3.551
   63SOL     OW 1087   6.172   1.777   3.841
   63SOL    HW1 1088   6.264   1.772   3.802
   63SOL    HW2 1089   6.176   1.820   3.931
   64SOL     OW 1090   0.445   4.013   6.822
   64SOL    HW1 1091   0.449   4.109   6.848
   64SOL    HW2 1092   0.376   3.966   6.878
   65SOL     OW 1093   6.578   4.480   5.033
   65SOL    HW1 1094   6.606   4.472   5.128
   65SOL    HW2 1095   6.526   4.399   5.006
   66SOL     OW 1096   3.300   0.773   0.021
   66SOL    HW1 1097   3.317   0.820   0.108
   66SOL    HW2 1098   3.202   0.776   0.000
   67SOL     OW 1099   5.651   5.627   5.417
   67SOL    HW1 1100   5.720   5.669   5.358
   67SOL    HW2 1101   5.573   5.598   5.361
   68SOL     OW 1102   6.792   1.444   6.908
   68SOL    HW1 1103   6.770   1.410   7.000
   68SOL    HW2 1104   6.708   1.475   6.863
   69SOL     OW 1105   1.696   4.028   6.395
   69SOL    HW1 1106   1.701   3.938   6.350
   69SOL    HW2 1107   1.609   4.071   6.373
   70SOL     OW 1108   6.178   5.456   2.744
   70SOL    HW1 1109   6.160   5.431   2.839
   70SOL    HW2 1110   6.094   5.492   2.702
   71SOL     OW 1111   2.774   1.856   3.149
   71SOL    HW1 1112   2.866   1.818   3.164
   71SOL    HW2 1113   2.710   1.816   3.215
   72SOL     OW 1114   2.726   6.165   4.474
   72SOL    HW1 1115   2.807   6.167   4.534
   72SOL    HW2 1116   2.734   6.237   4.406
   73SOL     OW 1117   3.255   1.795   0.333
   73SOL    HW1 1118   3.167   1.817   0.291
   73SOL    HW2 1119   3.240   1.741   0.416
   74SOL     OW 1120   5.455   6.616   6.924
   74SOL    HW1 1121   5.378   6.604   6.987
   74SOL    HW2 1122   5.480   6.527   6.884
   75SOL     OW 1123   3.703   5.554   5.842
   75SOL    HW1 1124   3.782   5.546   5.781
   75SOL    HW2 1125   3.657   5.465   5.850
   76SOL     OW 1126   1.805   2.543   1.448
   76SOL    HW1 1127   1.777   2.595   1.529
   76SOL    HW2 1128   1.779   2.594   1.366
   77SOL     OW 1129   4.898   5.556   3.989
   77SOL    HW1 1130   4.846   5.638   4.011
   77SOL    HW2 1131   4.989   5.562   4.031
   78SOL     OW 1132   6.418   6.520   5.898
   78SOL    HW1 1133   6.453   6.439   5.944
   78SOL    HW2 1134   6.319   6.512   5.886
   79SOL     OW 1135   2.808   6.998   0.640
   79SOL    HW1 1136   2.862   6.937   0.583
   79SOL    HW2 1137   2.736   6.946   0.686
   80SOL     OW 1138   5.940   0.898   4.401
   80SOL    HW1 1139   5.956   0.922   4.306
   80SOL    HW2 1140   5.848   0.928   4.428
   81SOL     OW 1141   2.434   0.267   2.913
   81SOL    HW1 1142   2.484   0.325   2.977
   81SOL    HW2 1143   2.360   0.321   2.872
   82SOL     OW 1144   6.873   5.045   0.426
   82SOL    HW1 1145   6.890   4.951   0.396
   82SOL    HW2 1146   6.907   5.109   0.358
   83SOL     OW 1147   6.361   0.246   0.991
   83SOL    HW1 1148   6.308   0.228   0.909
   83SOL    HW2 1149   6.306   0.298   1.056
   84SOL     OW 1150   4.868   3.511   3.334
   84SOL    HW1 1151   4.918   3.498   3.420
   84SOL    HW2 1152   4.860   3.423   3.287
   85SOL     OW 1153   1.018   1.860   5.038
   85SOL    HW1 1154   1.118   1.861   5.043
   85SOL    HW2 1155   0.981   1.932   5.096
   86SOL     OW 1156   0.929   0.527   5.783
   86SOL    HW1 1157   0.969   0.548   5.872
   86SOL    HW2 1158   0.862   0.453   5.793
   87SOL     OW 1159   4.658   2.642   0.694
   87SOL    HW1 1160   4.663   2.544   0.674
   87SOL    HW2 1161   4.747   2.685   0.678
   88SOL     OW 1162   4.373   1.649   0.035
   88SOL    HW1 1163   4.279   1.671   0.006
   88SOL    HW2 1164   4.434   1.724   0.008
   89SOL     OW 1165   1.568   2.973   6.660
   89SOL    HW1 1166   1.618   3.009   6.739
   89SOL    HW2 1167   1.623   2.984   6.577
   90SOL     OW 1168   4.758   6.884   3.865
   90SOL    HW1 1169   4.682   6.829   3.899
   90SOL    HW2 1170   4.783   6.854   3.773
   91SOL     OW 1171   4.436   4.580   4.094
   91SOL    HW1 1172   4.371   4.648   4.128
   91SOL    HW2 1173   4.500   4.622   4.030
   92SOL     OW 1174   3.241   4.416   0.269
   92SOL    HW1 1175   3.271   4.510   0.249
   92SOL    HW2 1176   3.210   4.372   0.185
   93SOL     OW 1177   2.523   4.487   6.334
   93SOL    HW1 1178   2.469   4.476   6.250
   93SOL    HW2 1179   2.570   4.575   6.332
   94SOL     OW 1180   2.498   5.895   6.066
   94SOL    HW1 1181   2.429   5.965   6.050
   94SOL    HW2 1182   2.503   5.835   5.986
   95SOL     OW 1183   0.860   2.188   3.523
   95SOL    HW1 1184   0.912   2.152   3.445
   95SOL    HW2 1185   0.777   2.133   3.535
   96SOL     OW 1186   2.839   6.852   5.888
   96SOL    HW1 1187   2.922   6.889   5.931
   96SOL    HW2 1188   2.861   6.819   5.797
   97SOL     OW 1189   0.524   4.081   5.610
   97SOL    HW1 1190   0.525   4.125   5.700
   97SOL    HW2 1191   0.587   4.003   5.611
   98SOL     OW 1192   6.532   3.824   0.207
   98SOL    HW1 1193   6.587   3.818   0.291
   98SOL    HW2 1194   6.552   3.746   0.149
   99SOL     OW 1195   4.468   3.840   1.311
   99SOL    HW1 1196   4.559   3.841   1.352
   99SOL    HW2 1197   4.400   3.824   1.382
  100SOL     OW 1198   0.582   6.703   6.126
  100SOL    HW1 1199   0.499   6.746   6.162
  100SOL    HW2 1200   0.563   6.607   6.104
  101SOL     OW 1201   1.037   6.068   2.554
  101SOL    HW1 1202   1.014   6.164   2.574
  101SOL    HW2 1203   1.136   6.057   2.552
  102SOL     OW 1204   4.822   0.903   2.209
  102SOL    HW1 1205   4.787   0.813   2.182
  102SOL    HW2 1206   4.828   0.962   2.128
  103SOL     OW 1207   4.197   1.091   1.922
  103SOL    HW1 1208   4.215   1.161   1.853
  103SOL    HW2 1209   4.267   1.020   1.916
  104SOL     OW 1210   0.448   5.669   2.404
  104SOL    HW1 1211   0.351   5.680   2.385
  104SOL    HW2 1212   0.470   5.571   2.410
  105SOL     OW 1213   6.712   1.723   6.664
  105SOL    HW1 1214   6.638   1.671   6.708
  105SOL    HW2 1215   6.798   1.672   6.672
  106SOL     OW 1216   3.243   6.950   5.790
  106SOL    HW1 1217   3.225   6.863   5.742
  106SOL    HW2 1218   3.180   6.959   5.866
  107SOL     OW 1219   1.772   2.340   1.867
  107SOL    HW1 1220   1.736   2.254   1.830
  107SOL    HW2 1221   1.868   2.350   1.842
  108SOL     OW 1222   4.461   4.867   6.529
  108SOL    HW1 1223   4.373   4.841   6.487
  108SOL    HW2 1224   4.533   4.806   6.496
  109SOL     OW 1225   0.563   0.327   1.366
  109SOL    HW1 1226   0.634   0.373   1.419
  109SOL    HW2 1227   0.600   0.296   1.279
  110SOL     OW 1228   4.055   6.529   5.811
  110SOL    HW1 1229   4.053   6.532   5.711
  110SOL    HW2 1230   3.966   6.559   5.847
  111SOL     OW 1231   3.701   0.826   4.905
  111SOL    HW1 1232   3.627   0.785   4.958
  111SOL    HW2 1233   3.781   0.766   4.907
  112SOL     OW 1234   6.488   6.360   6.132
  112SOL    HW1 1235   6.518   6.267   6.151
  112SOL    HW2 1236   6.429   6.392   6.206
  113SOL     OW 1237   6.798   5.219   3.748
  113SOL    HW1 1238   6.830   5.284   3.679
  113SOL    HW2 1239   6.698   5.211   3.743
  114SOL     OW 1240   1.256   6.928   0.874
  114SOL    HW1 1241   1.166   6.894   0.899
  114SOL    HW2 1242   1.278   6.900   0.781
  115SOL     OW 1243   4.675   1.100   4.418
  115SOL    HW1 1244   4.612   1.087   4.494
  115SOL    HW2 1245   4.629   1.149   4.344
  116SOL     OW 1246   6.100   5.414   2.189
  116SOL    HW1 1247   6.198   5.414   2.208
  116SOL    HW2 1248   6.074   5.325   2.150
  117SOL     OW 1249   0.848   1.435   6.197
  117SOL    HW1 1250   0.808   1.344   6.204
  117SOL    HW2 1251   0.943   1.427   6.165
  118SOL     OW 1252   0.298   1.734   2.197
  118SOL    HW1 1253   0.279   1.829   2.223
  118SOL    HW2 1254   0.289   1.675   2.277
  119SOL     OW 1255   0.944   2.127   6.514
  119SOL    HW1 1256   1.004   2.062   6.561
  119SOL    HW2 1257   0.995   2.170   6.439
  120SOL     OW 1258   6.751   6.505   0.280
  120SOL    HW1 1259   6.773   6.559   0.198
  120SOL    HW2 1260   6.735   6.410   0.254
  121SOL     OW 1261   2.634   3.450   0.128
  121SOL    HW1 1262   2.688   3.369   0.148
  121SOL    HW2 1263   2.605   3.493   0.214
  122SOL     OW 1264   1.773   4.566   5.941
  122SOL    HW1 1265   1.693   4.507   5.953
  122SOL    HW2 1266   1.809   4.592   6.031
  123SOL     OW 1267   0.516   1.863   1.462
  123SOL    HW1 1268   0.614   1.875   1.475
  123SOL    HW2 1269   0.486   1.779   1.507
  124SOL     OW 1270   5.245   3.136   0.122
  124SOL    HW1 1271   5.275   3.231   0.133
  124SOL    HW2 1272   5.253   3.088   0.209
  125SOL     OW 1273   2.495   1.828   2.249
  125SOL    HW1 1274   2.484   1.728   2.254
  125SOL    HW2 1275   2.475   1.868   2.338
  126SOL     OW 1276   3.064   4.545   0.500
  126SOL    HW1 1277   3.039   4.473   0.435
  126SOL    HW2 1278   2.981   4.587   0.536
  127SOL     OW 1279   0.335   4.961   6.090
  127SOL    HW1 1280   0.355   5.051   6.129
  127SOL    HW2 1281   0.364   4.960   5.994
  128SOL     OW 1282   4.229   2.729   1.481
  128SOL    HW1 1283   4.183   2.740   1.393
  128SOL    HW2 1284   4.319   2.689   1.467
  129SOL     OW 1285   4.720   3.856   5.988
  129SOL    HW1 1286   4.749   3.871   5.893
  129SOL    HW2 1287   4.780   3.907   6.050
  130SOL     OW 1288   0.626   1.161   4.375
  130SOL    HW1 1289   0.675   1.247   4.391
  130SOL    HW2 1290   0.531   1.171   4.404
  131SOL     OW 1291   5.458   1.163   2.209
  131SOL    HW1 1292   5.436   1.260   2.197
  131SOL    HW2 1293   5.382   1.118   2.256
  132SOL     OW 1294   2.110   3.111   0.957
  132SOL    HW1 1295   2.068   3.030   0.916
  132SOL    HW2 1296   2.041   3.182   0.969
  133SOL     OW 1297   5.319   6.711   3.392
  133SOL    HW1 1298   5.392   6.645   3.378
  133SOL    HW2 1299   5.356   6.794   3.433
  134SOL     OW 1300   5.894   2.243   3.211
  134SOL    HW1 1301   5.975   2.283   3.251
  134SOL    HW2 1302   5.855   2.175   3.273
  135SOL     OW 1303   5.329   2.898   2.411
  135SOL    HW1 1304   5.358   2.824   2.351
  135SOL    HW2 1305   5.234   2.922   2.392
  136SOL     OW 1306   3.990   3.573   6.975
  136SOL    HW1 1307   4.088   3.587   6.981
  136SOL    HW2 1308   3.943   3.661   6.979
  137SOL     OW 1309   4.517   0.335   5.286
  137SOL    HW1 1310   4.521   0.422   5.237
  137SOL    HW2 1311   4.474   0.348   5.375
  138SOL     OW 1312   0.412   4.622   3.856
  138SOL    HW1 1313   0.418   4.524   3.877
  138SOL    HW2 1314   0.481   4.645   3.788
  139SOL     OW 1315   2.247   6.231   5.168
  139SOL    HW1 1316   2.268   6.143   5.125
  139SOL    HW2 1317   2.304   6.302   5.127
  140SOL     OW 1318   0.109   6.257   3.545
  140SOL    HW1 1319   0.039   6.186   3.543
  140SOL    HW2 1320   0.165   6.252   3.463
  141SOL     OW 1321   6.682   2.734   5.540
  141SOL    HW1 1322   6.622   2.674   5.593
  141SOL    HW2 1323   6.652   2.736   5.444
  142SOL     OW 1324   1.709   5.603   0.721
  142SOL    HW1 1325   1.785   5.546   0.752
  142SOL    HW2 1326   1.720   5.696   0.756
  143SOL     OW 1327   5.721   4.223   1.728
  143SOL    HW1 1328   5.680   4.156   1.790
  143SOL    HW2 1329   5.664   4.305   1.725
  144SOL     OW 1330   1.334   0.102   6.309
  144SOL    HW1 1331   1.412   0.068   6.257
  144SOL    HW2 1332   1.278   0.025   6.339
  145SOL     OW 1333   0.558   4.808   0.531
  145SOL    HW1 1334   0.591   4.736   0.591
  145SOL    HW2 1335   0.461   4.825   0.549
  146SOL     OW 1336   4.827   0.073   5.788
  146SOL    HW1 1337   4.867   0.001   5.732
  146SOL    HW2 1338   4.898   0.112   5.848
  147SOL     OW 1339   6.527   2.771   0.039
  147SOL    HW1 1340   6.569   2.847   7.006
  147SOL    HW2 1341   6.563   2.685   0.005
  148SOL     OW 1342   0.697   5.261   6.046
  148SOL    HW1 1343   0.681   5.186   6.110
  148SOL    HW2 1344   0.613   5.314   6.036
  149SOL     OW 1345   2.556   1.437   4.221
  149SOL    HW1 1346   2.574   1.356   4.276
  149SOL    HW2 1347   2.585   1.519   4.271
  150SOL     OW 1348   5.918   4.702   6.315
  150SOL    HW1 1349   6.004   4.741   6.283
  150SOL    HW2 1350   5.893   4.744   6.402
  151SOL     OW 1351   3.378   1.862   1.550
  151SOL    HW1 1352   3.380   1.946   1.495
  151SOL    HW2 1353   3.367   1.783   1.489
  152SOL     OW 1354   1.848   1.425   4.351
  152SOL    HW1 1355   1.761   1.436   4.303
  152SOL    HW2 1356   1.848   1.339   4.401
  153SOL     OW 1357   2.701   0.100   2.151
  153SOL    HW1 1358   2.743   0.180   2.108
  153SOL    HW2 1359   2.769   0.027   2.159
  154SOL     OW 1360   0.433   3.283   2.687
  154SOL    HW1 1361   0.494   3.348   2.735
  154SOL    HW2 1362   0.397   3.327   2.605
  155SOL     OW 1363   0.512   1.696   3.289
  155SOL    HW1 1364   0.493   1.613   3.342
  155SOL    HW2 1365   0.431   1.722   3.237
  156SOL     OW 1366   6.689   1.811   1.530
  156SOL    HW1 1367   6.637   1.882   1.577
  156SOL    HW2 1368   6.743   1.759   1.597
  157SOL     OW 1369   5.686   3.676   2.119
  157SOL    HW1 1370   5.588   3.695   2.112
  157SOL    HW2 1371   5.738   3.745   2.070
  158SOL     OW 1372   2.822   0.119   2.419
  158SOL    HW1 1373   2.740   0.122   2.362
  158SOL    HW2 1374   2.887   0.188   2.388
  159SOL     OW 1375   4.443   4.402   1.139
  159SOL    HW1 1376   4.518   4.422   1.076
  159SOL    HW2 1377   4.460   4.450   1.226
  160SOL     OW 1378   0.210   4.785   6.401
  160SOL    HW1 1379   0.281   4.714   6.392
  160SOL    HW2 1380   0.253   4.871   6.429
  161SOL     OW 1381   1.396   4.819   4.449
  161SOL    HW1 1382   1.447   4.793   4.531
  161SOL    HW2 1383   1.405   4.917   4.433
  162SOL     OW 1384   4.199   6.364   0.066
  162SOL    HW1 1385   4.233   6.375   6.990
  162SOL    HW2 1386   4.275   6.343   0.128
  163SOL     OW 1387   5.113   5.637   1.538
  163SOL    HW1 1388   5.103   5.553   1.590
  163SOL    HW2 1389   5.070   5.712   1.588
  164SOL     OW 1390   6.790   3.962   1.383
  164SOL    HW1 1391   6.707   3.918   1.420
  164SOL    HW2 1392   6.823   4.030   1.448
  165SOL     OW 1393   5.186   2.909   1.077
  165SOL    HW1 1394   5.123   2.894   1.153
  165SOL    HW2 1395   5.196   3.007   1.060
  166SOL     OW 1396   6.973   5.040   3.428
  166SOL    HW1 1397   6.978   5.026   3.527
  166SOL    HW2 1398   6.999   5.134   3.407
  167SOL     OW 1399   6.027   1.844   0.479
  167SOL    HW1 1400   5.931   1.832   0.503
  167SOL    HW2 1401   6.038   1.929   0.427
  168SOL     OW 1402   2.996   3.429   0.997
  168SOL    HW1 1403   3.092   3.424   1.025
  168SOL    HW2 1404   2.959   3.337   0.988
  169SOL     OW 1405   3.642   0.213   2.301
  169SOL    HW1 1406   3.737   0.237   2.321
  169SOL    HW2 1407   3.586   0.228   2.382
  170SOL     OW 1408   0.443   2.062   3.340
  170SOL    HW1 1409   0.385   2.014   3.273
  170SOL    HW2 1410   0.448   2.007   3.424
  171SOL     OW 1411   3.766   4.278   0.312
  171SOL    HW1 1412   3.782   4.201   0.251
  171SOL    HW2 1413   3.840   4.284   0.378
  172SOL     OW 1414   6.069   1.716   4.540
  172SOL    HW1 1415   6.157   1.682   4.574
  172SOL    HW2 1416   5.994   1.668   4.586
  173SOL     OW 1417   6.394   0.808   4.436
  173SOL    HW1 1418   6.416   0.902   4.410
  173SOL    HW2 1419   6.443   0.745   4.377
  174SOL     OW 1420   2.742   5.466   4.159
  174SOL    HW1 1421   2.783   5.378   4.135
  174SOL    HW2 1422   2.726   5.519   4.076
  175SOL     OW 1423   1.890   6.721   1.969
  175SOL    HW1 1424   1.813   6.728   2.033
  175SOL    HW2 1425   1.885   6.634   1.921
  176SOL     OW 1426   1.614   4.161   0.357
  176SOL    HW1 1427   1.668   4.223   0.414
  176SOL    HW2 1428   1.585   4.083   0.412
  177SOL     OW 1429   5.739   3.052   2.743
  177SOL    HW1 1430   5.709   3.005   2.660
  177SOL    HW2 1431   5.839   3.053   2.746
  178SOL     OW 1432   4.813   3.309   5.843
  178SOL    HW1 1433   4.734   3.367   5.824
  178SOL    HW2 1434   4.883   3.362   5.890
  179SOL     OW 1435   3.014   1.906   6.186
  179SOL    HW1 1436   3.036   1.813   6.157
  179SOL    HW2 1437   3.074   1.933   6.261
  180SOL     OW 1438   1.338   0.543   6.680
  180SOL    HW1 1439   1.286   0.503   6.604
  180SOL    HW2 1440   1.347   0.641   6.666
  181SOL     OW 1441   3.446   1.419   0.026
  181SOL    HW1 1442   3.378   1.347   0.041
  181SOL    HW2 1443   3.459   1.431   6.944
  182SOL     OW 1444   3.867   2.157   4.800
  182SOL    HW1 1445   3.819   2.098   4.866
  182SOL    HW2 1446   3.943   2.203   4.846
  183SOL     OW 1447   3.326   1.416   3.908
  183SOL    HW1 1448   3.414   1.372   3.922
  183SOL    HW2 1449   3.335   1.489   3.841
  184SOL     OW 1450   1.373   5.548   3.718
  184SOL    HW1 1451   1.279   5.538   3.750
  184SOL    HW2 1452   1.377   5.531   3.620
  185SOL     OW 1453   1.256   2.775   6.637
  185SOL    HW1 1454   1.294   2.788   6.545
  185SOL    HW2 1455   1.157   2.785   6.634
  186SOL     OW 1456   6.786   1.095   3.516
  186SOL    HW1 1457   6.697   1.105   3.560
  186SOL    HW2 1458   6.780   1.123   3.421
  187SOL     OW 1459   4.852   1.080   3.049
  187SOL    HW1 1460   4.852   1.121   3.140
  187SOL    HW2 1461   4.934   1.108   2.999
  188SOL     OW 1462   6.183   1.890   3.448
  188SOL    HW1 1463   6.155   1.964   3.509
  188SOL    HW2 1464   6.283   1.891   3.438
  189SOL     OW 1465   1.758   5.479   3.027
  189SOL    HW1 1466   1.691   5.545   3.060
  189SOL    HW2 1467   1.850   5.512   3.049
  190SOL     OW 1468   4.020   1.405   5.082
  190SOL    HW1 1469   3.990   1.493   5.120
  190SOL    HW2 1470   3.943   1.362   5.034
  191SOL     OW 1471   5.664   5.645   6.312
  191SOL    HW1 1472   5.730   5.711   6.347
  191SOL    HW2 1473   5.571   5.680   6.326
  192SOL     OW 1474   0.086   5.810   2.059
  192SOL    HW1 1475   0.003   5.778   2.104
  192SOL    HW2 1476   0.112   5.744   1.988
  193SOL     OW 1477   4.823   2.690   5.555
  193SOL    HW1 1478   4.832   2.609   5.613
  193SOL    HW2 1479   4.728   2.722   5.556
  194SOL     OW 1480   3.461   0.818   3.157
  194SOL    HW1 1481   3.461   0.737   3.099
  194SOL    HW2 1482   3.368   0.852   3.166
  195SOL     OW 1483   2.049   5.878   3.753
  195SOL    HW1 1484   2.043   5.909   3.848
  195SOL    HW2 1485   2.079   5.782   3.751
  196SOL     OW 1486   2.278   2.545   6.972
  196SOL    HW1 1487   2.193   2.546   6.920
  196SOL    HW2 1488   2.257   2.531   0.053
  197SOL     OW 1489   2.564   1.381   0.806
  197SOL    HW1 1490   2.548   1.363   0.903
  197SOL    HW2 1491   2.487   1.347   0.752
  198SOL     OW 1492   4.087   1.530   3.099
  198SOL    HW1 1493   4.134   1.510   3.184
  198SOL    HW2 1494   4.050   1.623   3.102
  199SOL     OW 1495   1.351   2.531   3.835
  199SOL    HW1 1496   1.271   2.591   3.840
  199SOL    HW2 1497   1.416   2.569   3.770
  200SOL     OW 1498   0.929   3.188   0.950
  200SOL    HW1 1499   0.846   3.241   0.966
  200SOL    HW2 1500   0.966   3.212   0.860
  201SOL     OW 1501   0.545   6.893   5.749
  201SOL    HW1 1502   0.581   6.918   5.839
  201SOL    HW2 1503   0.593   6.944   5.678
  202SOL     OW 1504   4.134   1.498   6.918
  202SOL    HW1 1505   4.202   1.513   6.846
  202SOL    HW2 1506   4.075   1.579   6.924
  203SOL     OW 1507   5.804   2.098   5.592
  203SOL    HW1 1508   5.793   2.048   5.679
  203SOL    HW2 1509   5.898   2.089   5.561
  204SOL     OW 1510   0.525   0.045   5.310
  204SOL    HW1 1511   0.548   0.094   5.226
  204SOL    HW2 1512   0.590   0.068   5.382
  205SOL     OW 1513   1.641   2.588   2.899
  205SOL    HW1 1514   1.542   2.572   2.898
  205SOL    HW2 1515   1.681   2.543   2.978
  206SOL     OW 1516   0.824   3.177   1.393
  206SOL    HW1 1517   0.860   3.265   1.360
  206SOL    HW2 1518   0.747   3.149   1.335
  207SOL     OW 1519   5.325   1.066   3.078
  207SOL    HW1 1520   5.321   1.039   3.174
  207SOL    HW2 1521   5.232   1.089   3.046
  208SOL     OW 1522   0.108   4.438   5.447
  208SOL    HW1 1523   0.062   4.355   5.475
  208SOL    HW2 1524   0.180   4.416   5.381
  209SOL     OW 1525   6.494   4.266   3.061
  209SOL    HW1 1526   6.569   4.314   3.014
  209SOL    HW2 1527   6.522   4.172   3.079
  210SOL     OW 1528   4.492   1.665   0.694
  210SOL    HW1 1529   4.465   1.717   0.775
  210SOL    HW2 1530   4.430   1.587   0.682
  211SOL     OW 1531   0.893   6.951   2.427
  211SOL    HW1 1532   0.812   6.904   2.394
  211SOL    HW2 1533   0.872   6.996   2.514
  212SOL     OW 1534   1.496   3.654   2.420
  212SOL    HW1 1535   1.581   3.704   2.403
  212SOL    HW2 1536   1.518   3.562   2.453
  213SOL     OW 1537   1.873   5.762   0.936
  213SOL    HW1 1538   1.883   5.667   0.906
  213SOL    HW2 1539   1.950   5.815   0.902
  214SOL     OW 1540   3.566   5.109   2.506
  214SOL    HW1 1541   3.515   5.104   2.420
  214SOL    HW2 1542   3.506   5.082   2.582
  215SOL     OW 1543   2.352   4.192   1.390
  215SOL    HW1 1544   2.363   4.265   1.457
  215SOL    HW2 1545   2.318   4.109   1.436
  216SOL     OW 1546   0.889   6.532   2.828
  216SOL    HW1 1547   0.816   6.529   2.896
  216SOL    HW2 1548   0.849   6.546   2.737
  217SOL     OW 1549   1.189   2.352   5.097
  217SOL    HW1 1550   1.284   2.376   5.115
  217SOL    HW2 1551   1.177   2.336   4.999
  218SOL     OW 1552   0.646   2.214   4.538
  218SOL    HW1 1553   0.590   2.148   4.589
  218SOL    HW2 1554   0.631   2.306   4.575
  219SOL     OW 1555   4.174   0.265   0.297
  219SOL    HW1 1556   4.142   0.316   0.217
  219SOL    HW2 1557   4.231   0.324   0.354
  220SOL     OW 1558   2.561   0.030   0.988
  220SOL    HW1 1559   2.643   6.989   0.980
  220SOL    HW2 1560   2.568   0.085   1.072
  221SOL     OW 1561   6.187   4.384   1.555
  221SOL    HW1 1562   6.188   4.435   1.469
  221SOL    HW2 1563   6.122   4.308   1.547
  222SOL     OW 1564   1.579   4.275   6.280
  222SOL    HW1 1565   1.580   4.333   6.361
  222SOL    HW2 1566   1.660   4.294   6.224
  223SOL     OW 1567   6.805   2.787   5.214
  223SOL    HW1 1568   6.801   2.688   5.206
  223SOL    HW2 1569   6.786   2.828   5.124
  224SOL     OW 1570   3.308   1.621   6.760
  224SOL    HW1 1571   3.344   1.622   6.853
  224SOL    HW2 1572   3.261   1.534   6.743
  225SOL     OW 1573   4.300   3.863   6.292
  225SOL    HW1 1574   4.257   3.928   6.354
  225SOL    HW2 1575   4.394   3.844   6.323
  226SOL     OW 1576   0.662   1.799   5.948
  226SOL    HW1 1577   0.695   1.862   6.017
  226SOL    HW2 1578   0.570   1.827   5.918
  227SOL     OW 1579   2.292   4.319   2.740
  227SOL    HW1 1580   2.390   4.306   2.756
  227SOL    HW2 1581   2.267   4.277   2.653
  228SOL     OW 1582   1.962   0.581   2.943
  228SOL    HW1 1583   2.028   0.576   2.868
  228SOL    HW2 1584   1.905   0.663   2.931
  229SOL     OW 1585   5.322   5.251   6.410
  229SOL    HW1 1586   5.247   5.247   6.476
  229SOL    HW2 1587   5.409   5.253   6.459
  230SOL     OW 1588   4.438   5.855   4.094
  230SOL    HW1 1589   4.403   5.772   4.138
  230SOL    HW2 1590   4.400   5.863   4.002
  231SOL     OW 1591   6.053   0.892   6.981
  231SOL    HW1 1592   5.999   0.966   6.940
  231SOL    HW2 1593   6.129   0.932   0.016
  232SOL     OW 1594   6.893   2.898   6.642
  232SOL    HW1 1595   6.860   2.813   6.685
  232SOL    HW2 1596   6.934   2.956   6.712
  233SOL     OW 1597   3.633   1.656   3.675
  233SOL    HW1 1598   3.537   1.678   3.692
  233SOL    HW2 1599   3.645   1.557   3.670
  234SOL     OW 1600   6.512   0.764   6.091
  234SOL    HW1 1601   6.468   0.697   6.152
  234SOL    HW2 1602   6.557   0.715   6.016
  235SOL     OW 1603   5.150   3.443   2.444
  235SOL    HW1 1604   5.156   3.383   2.524
  235SOL    HW2 1605   5.234   3.434   2.390
  236SOL     OW 1606   5.334   3.143   6.835
  236SOL    HW1 1607   5.249   3.196   6.839
  236SOL    HW2 1608   5.347   3.095   6.921
  237SOL     OW 1609   0.190   4.409   2.147
  237SOL    HW1 1610   0.183   4.500   2.187
  237SOL    HW2 1611   0.119   4.350   2.184
  238SOL     OW 1612   6.219   1.325   0.620
  238SOL    HW1 1613   6.281   1.259   0.579
  238SOL    HW2 1614   6.162   1.279   0.688
  239SOL     OW 1615   1.177   3.923   6.810
  239SOL    HW1 1616   1.171   3.833   6.854
  239SOL    HW2 1617   1.214   3.990   6.874
  240SOL     OW 1618   0.038   2.889   3.252
  240SOL    HW1 1619   6.992   2.956   3.292
  240SOL    HW2 1620   0.132   2.921   3.262
  241SOL     OW 1621   2.684   2.391   4.501
  241SOL    HW1 1622   2.606   2.446   4.531
  241SOL    HW2 1623   2.696   2.313   4.562
  242SOL     OW 1624   3.777   3.717   3.337
  242SOL    HW1 1625   3.764   3.801   3.390
  242SOL    HW2 1626   3.689   3.670   3.328
  243SOL     OW 1627   4.798   1.713   0.371
  243SOL    HW1 1628   4.710   1.734   0.414
  243SOL    HW2 1629   4.862   1.680   0.440
  244SOL     OW 1630   5.971   3.677   5.631
  244SOL    HW1 1631   5.972   3.770   5.593
  244SOL    HW2 1632   5.922   3.678   5.719
  245SOL     OW 1633   4.310   1.810   4.007
  245SOL    HW1 1634   4.229   1.857   3.971
  245SOL    HW2 1635   4.372   1.878   4.047
  246SOL     OW 1636   5.213   1.712   3.324
  246SOL    HW1 1637   5.133   1.771   3.312
  246SOL    HW2 1638   5.276   1.726   3.248
  247SOL     OW 1639   2.732   1.614   1.323
  247SOL    HW1 1640   2.637   1.586   1.306
  247SOL    HW2 1641   2.753   1.696   1.270
  248SOL     OW 1642   2.409   1.135   2.924
  248SOL    HW1 1643   2.366   1.225   2.919
  248SOL    HW2 1644   2.348   1.071   2.970
  249SOL     OW 1645   5.532   6.780   5.485
  249SOL    HW1 1646   5.621   6.813   5.453
  249SOL    HW2 1647   5.462   6.802   5.417
  250SOL     OW 1648   3.882   3.797   0.724
  250SOL    HW1 1649   3.956   3.752   0.674
  250SOL    HW2 1650   3.901   3.793   0.822
  251SOL     OW 1651   4.564   3.381   5.411
  251SOL    HW1 1652   4.567   3.430   5.499
  251SOL    HW2 1653   4.569   3.448   5.337
  252SOL     OW 1654   6.333   6.713   5.575
  252SOL    HW1 1655   6.261   6.703   5.506
  252SOL    HW2 1656   6.387   6.629   5.580
  253SOL     OW 1657   3.788   4.947   6.252
  253SOL    HW1 1658   3.731   4.927   6.173
  253SOL    HW2 1659   3.868   4.887   6.252
  254SOL     OW 1660   6.886   2.261   3.506
  254SOL    HW1 1661   6.935   2.220   3.429
  254SOL    HW2 1662   6.833   2.340   3.474
  255SOL     OW 1663   2.015   4.541   5.853
  255SOL    HW1 1664   2.027   4.484   5.772
  255SOL    HW2 1665   1.917   4.549   5.873
  256SOL     OW 1666   6.000   3.284   6.328
  256SOL    HW1 1667   5.970   3.369   6.372
  256SOL    HW2 1668   5.946   3.269   6.245
  257SOL     OW 1669   5.326   6.815   2.942
  257SOL    HW1 1670   5.320   6.911   2.912
  257SOL    HW2 1671   5.273   6.803   3.026
  258SOL     OW 1672   2.272   3.983   5.432
  258SOL    HW1 1673   2.214   3.906   5.402
  258SOL    HW2 1674   2.319   4.021   5.352
  259SOL     OW 1675   5.970   0.824   2.040
  259SOL    HW1 1676   5.890   0.871   2.078
  259SOL    HW2 1677   6.009   0.878   1.967
  260SOL     OW 1678   3.999   5.895   3.291
  260SOL    HW1 1679   3.978   5.799   3.305
  260SOL    HW2 1680   3.921   5.940   3.246
  261SOL     OW 1681   4.947   3.972   1.674
  261SOL    HW1 1682   4.990   3.895   1.626
  261SOL    HW2 1683   4.879   3.937   1.738
  262SOL     OW 1684   1.099   3.920   0.299
  262SOL    HW1 1685   1.180   3.883   0.254
  262SOL    HW2 1686   1.126   3.993   0.362
  263SOL     OW 1687   1.527   1.008   4.532
  263SOL    HW1 1688   1.572   1.093   4.559
  263SOL    HW2 1689   1.510   1.009   4.434
  264SOL     OW 1690   6.835   2.730   0.362
  264SOL    HW1 1691   6.825   2.638   0.324
  264SOL    HW2 1692   6.747   2.762   0.396
  265SOL     OW 1693   6.174   6.758   2.437
  265SOL    HW1 1694   6.076   6.744   2.430
  265SOL    HW2 1695   6.215   6.685   2.492
  266SOL     OW 1696   4.560   2.858   5.833
  266SOL    HW1 1697   4.471   2.894   5.857
  266SOL    HW2 1698   4.631   2.926   5.853
  267SOL     OW 1699   0.843   1.802   5.745
  267SOL    HW1 1700   0.910   1.869   5.779
  267SOL    HW2 1701   0.774   1.785   5.816
  268SOL     OW 1702   2.796   0.955   6.396
  268SOL    HW1 1703   2.784   0.996   6.486
  268SOL    HW2 1704   2.725   0.989   6.334
  269SOL     OW 1705   2.146   3.819   0.784
  269SOL    HW1 1706   2.168   3.801   0.880
  269SOL    HW2 1707   2.088   3.746   0.749
  270SOL     OW 1708   0.716   6.078   0.422
  270SOL    HW1 1709   0.640   6.037   0.371
  270SOL    HW2 1710   0.715   6.045   0.516
  271SOL     OW 1711   0.497   1.652   6.265
  271SOL    HW1 1712   0.591   1.641   6.295
  271SOL    HW2 1713   0.467   1.569   6.218
  272SOL     OW 1714   3.691   6.884   3.708
  272SOL    HW1 1715   3.639   6.917   3.629
  272SOL    HW2 1716   3.692   6.955   3.779
  273SOL     OW 1717   2.071   4.360   4.880
  273SOL    HW1 1718   2.019   4.389   4.960
  273SOL    HW2 1719   2.164   4.335   4.907
  274SOL     OW 1720   3.387   1.311   3.323
  274SOL    HW1 1721   3.290   1.329   3.305
  274SOL    HW2 1722   3.418   1.237   3.263
  275SOL     OW 1723   6.279   6.092   2.516
  275SOL    HW1 1724   6.362   6.132   2.479
  275SOL    HW2 1725   6.215   6.071   2.442
  276SOL     OW 1726   0.086   6.780   3.854
  276SOL    HW1 1727   0.062   6.753   3.761
  276SOL    HW2 1728   0.145   6.710   3.895
  277SOL     OW 1729   2.142   3.994   6.917
  277SOL    HW1 1730   2.081   4.005   6.995
  277SOL    HW2 1731   2.233   4.027   6.940
  278SOL     OW 1732   6.876   3.428   2.406
  278SOL    HW1 1733   6.928   3.441   2.491
  278SOL    HW2 1734   6.823   3.510   2.387
  279SOL     OW 1735   5.800   2.944   4.642
  279SOL    HW1 1736   5.812   2.905   4.550
  279SOL    HW2 1737   5.806   2.871   4.710
  280SOL     OW 1738   3.206   5.553   1.564
  280SOL    HW1 1739   3.160   5.557   1.476
  280SOL    HW2 1740   3.218   5.458   1.592
  281SOL     OW 1741   2.108   4.466   1.855
  281SOL    HW1 1742   2.090   4.527   1.933
  281SOL    HW2 1743   2.178   4.399   1.881
  282SOL     OW 1744   3.057   1.266   5.633
  282SOL    HW1 1745   3.123   1.284   5.560
  282SOL    HW2 1746   2.964   1.276   5.597
  283SOL     OW 1747   6.263   2.315   6.594
  283SOL    HW1 1748   6.346   2.307   6.649
  283SOL    HW2 1749   6.241   2.412   6.581
  284SOL     OW 1750   1.517   3.518   4.333
  284SOL    HW1 1751   1.508   3.442   4.397
  284SOL    HW2 1752   1.562   3.595   4.378
  285SOL     OW 1753   5.377   4.996   4.109
  285SOL    HW1 1754   5.357   4.961   4.200
  285SOL    HW2 1755   5.293   4.997   4.054
  286SOL     OW 1756   3.117   4.355   6.851
  286SOL    HW1 1757   3.026   4.336   6.815
  286SOL    HW2 1758   3.132   4.302   6.935
  287SOL     OW 1759   1.366   2.797   1.210
  287SOL    HW1 1760   1.398   2.766   1.300
  287SOL    HW2 1761   1.435   2.776   1.141
  288SOL     OW 1762   3.538   1.357   6.790
  288SOL    HW1 1763   3.546   1.263   6.824
  288SOL    HW2 1764   3.617   1.379   6.733
  289SOL     OW 1765   1.854   4.064   5.508
  289SOL    HW1 1766   1.764   4.046   5.549
  289SOL    HW2 1767   1.862   4.016   5.421
  290SOL     OW 1768   6.285   1.737   4.925
  290SOL    HW1 1769   6.366   1.763   4.977
  290SOL    HW2 1770   6.215   1.807   4.936
  291SOL     OW 1771   0.702   1.906   4.122
  291SOL    HW1 1772   0.651   1.925   4.038
  291SOL    HW2 1773   0.706   1.988   4.179
  292SOL     OW 1774   1.618   1.013   3.014
  292SOL    HW1 1775   1.660   1.043   3.100
  292SOL    HW2 1776   1.620   1.089   2.949
  293SOL     OW 1777   4.250   6.055   3.247
  293SOL    HW1 1778   4.211   6.146   3.234
  293SOL    HW2 1779   4.178   5.991   3.270
  294SOL     OW 1780   5.932   5.983   0.021
  294SOL    HW1 1781   5.893   6.074   0.012
  294SOL    HW2 1782   5.879   5.930   0.087
  295SOL     OW 1783   3.655   0.453   2.894
  295SOL    HW1 1784   3.573   0.473   2.839
  295SOL    HW2 1785   3.705   0.377   2.853
  296SOL     OW 1786   3.500   1.088   2.885
  296SOL    HW1 1787   3.535   1.159   2.824
  296SOL    HW2 1788   3.575   1.053   2.941
  297SOL     OW 1789   2.292   4.667   3.584
  297SOL    HW1 1790   2.359   4.739   3.601
  297SOL    HW2 1791   2.339   4.584   3.553
  298SOL     OW 1792   4.928   6.132   1.404
  298SOL    HW1 1793   4.829   6.145   1.393
  298SOL    HW2 1794   4.959   6.060   1.342
  299SOL     OW 1795   6.036   2.889   5.198
  299SOL    HW1 1796   5.998   2.811   5.246
  299SOL    HW2 1797   6.136   2.889   5.208
  300SOL     OW 1798   6.537   0.774   3.131
  300SOL    HW1 1799   6.447   0.770   3.087
  300SOL    HW2 1800   6.550   0.694   3.190
  301SOL     OW 1801   5.474   3.769   6.889
  301SOL    HW1 1802   5.400   3.829   6.860
  301SOL    HW2 1803   5.548   3.823   6.929
  302SOL     OW 1804   1.255   0.420   3.597
  302SOL    HW1 1805   1.272   0.476   3.679
  302SOL    HW2 1806   1.160   0.431   3.568
  303SOL     OW 1807   5.268   0.862   2.142
  303SOL    HW1 1808   5.210   0.869   2.061
  303SOL    HW2 1809   5.256   0.943   2.199
  304SOL     OW 1810   1.867   0.320   3.259
  304SOL    HW1 1811   1.776   0.318   3.300
  304SOL    HW2 1812   1.858   0.332   3.160
  305SOL     OW 1813   0.740   3.834   7.011
  305SOL    HW1 1814   0.735   3.744   6.968
  305SOL    HW2 1815   0.782   3.899   6.947
  306SOL     OW 1816   1.633   1.414   4.153
  306SOL    HW1 1817   1.572   1.492   4.163
  306SOL    HW2 1818   1.618   1.372   4.063
  307SOL     OW 1819   4.700   0.365   1.068
  307SOL    HW1 1820   4.757   0.285   1.089
  307SOL    HW2 1821   4.639   0.343   0.992
  308SOL     OW 1822   0.379   5.589   3.774
  308SOL    HW1 1823   0.370   5.664   3.840
  308SOL    HW2 1824   0.413   5.625   3.687
  309SOL     OW 1825   3.711   4.346   5.261
  309SOL    HW1 1826   3.698   4.444   5.245
  309SOL    HW2 1827   3.760   4.306   5.184
  310SOL     OW 1828   6.793   6.749   5.842
  310SOL    HW1 1829   6.865   6.720   5.904
  310SOL    HW2 1830   6.832   6.806   5.769
  311SOL     OW 1831   6.445   5.131   1.660
  311SOL    HW1 1832   6.387   5.095   1.733
  311SOL    HW2 1833   6.399   5.119   1.572
  312SOL     OW 1834   4.946   1.640   4.817
  312SOL    HW1 1835   4.903   1.615   4.904
  312SOL    HW2 1836   5.041   1.668   4.833
  313SOL     OW 1837   2.350   3.955   1.572
  313SOL    HW1 1838   2.308   3.892   1.638
  313SOL    HW2 1839   2.429   3.999   1.615
  314SOL     OW 1840   3.500   5.310   0.318
  314SOL    HW1 1841   3.581   5.254   0.302
  314SOL    HW2 1842   3.509   5.358   0.405
  315SOL     OW 1843   0.531   2.534   3.370
  315SOL    HW1 1844   0.440   2.536   3.329
  315SOL    HW2 1845   0.577   2.450   3.342
  316SOL     OW 1846   2.291   2.901   4.041
  316SOL    HW1 1847   2.345   2.918   4.123
  316SOL    HW2 1848   2.228   2.825   4.057
  317SOL     OW 1849   0.705   1.169   0.082
  317SOL    HW1 1850   0.759   1.210   0.008
  317SOL    HW2 1851   0.663   1.241   0.137
  318SOL     OW 1852   1.458   4.985   1.017
  318SOL    HW1 1853   1.469   5.080   1.046
  318SOL    HW2 1854   1.468   4.925   1.096
  319SOL     OW 1855   1.077   6.454   1.782
  319SOL    HW1 1856   1.116   6.507   1.858
  319SOL    HW2 1857   0.997   6.403   1.815
  320SOL     OW 1858   6.358   3.000   0.110
  320SOL    HW1 1859   6.274   3.001   0.165
  320SOL    HW2 1860   6.402   2.911   0.119
  321SOL     OW 1861   1.761   1.791   1.933
  321SOL    HW1 1862   1.766   1.771   1.835
  321SOL    HW2 1863   1.677   1.842   1.952
  322SOL     OW 1864   3.802   2.980   4.350
  322SOL    HW1 1865   3.825   3.028   4.435
  322SOL    HW2 1866   3.740   2.905   4.370
  323SOL     OW 1867   0.510   4.178   0.813
  323SOL    HW1 1868   0.465   4.238   0.746
  323SOL    HW2 1869   0.501   4.218   0.905
  324SOL     OW 1870   0.856   2.777   4.364
  324SOL    HW1 1871   0.835   2.848   4.430
  324SOL    HW2 1872   0.951   2.788   4.332
  325SOL     OW 1873   1.934   3.308   1.014
  325SOL    HW1 1874   1.940   3.379   0.944
  325SOL    HW2 1875   1.969   3.342   1.101
  326SOL     OW 1876   1.558   6.324   6.724
  326SOL    HW1 1877   1.587   6.333   6.629
  326SOL    HW2 1878   1.637   6.299   6.780
  327SOL     OW 1879   0.305   4.640   4.527
  327SOL    HW1 1880   0.247   4.593   4.460
  327SOL    HW2 1881   0.387   4.586   4.544
  328SOL     OW 1882   3.929   5.359   2.491
  328SOL    HW1 1883   3.866   5.437   2.486
  328SOL    HW2 1884   3.883   5.278   2.455
  329SOL     OW 1885   2.903   3.668   3.512
  329SOL    HW1 1886   2.849   3.600   3.463
  329SOL    HW2 1887   2.907   3.752   3.458
  330SOL     OW 1888   3.034   6.637   1.681
  330SOL    HW1 1889   3.066   6.721   1.639
  330SOL    HW2 1890   3.050   6.640   1.779
  331SOL     OW 1891   4.286   5.457   6.002
  331SOL    HW1 1892   4.215   5.503   6.056
  331SOL    HW2 1893   4.357   5.423   6.063
  332SOL     OW 1894   3.329   1.718   3.412
  332SOL    HW1 1895   3.235   1.732   3.382
  332SOL    HW2 1896   3.330   1.701   3.511
  333SOL     OW 1897   4.197   6.987   6.033
  333SOL    HW1 1898   4.232   0.001   5.944
  333SOL    HW2 1899   4.263   6.924   6.074
  334SOL     OW 1900   3.353   6.918   1.977
  334SOL    HW1 1901   3.253   6.909   1.984
  334SOL    HW2 1902   3.378   7.014   1.989
  335SOL     OW 1903   3.749   5.934   3.566
  335SOL    HW1 1904   3.822   5.933   3.498
  335SOL    HW2 1905   3.757   5.853   3.625
  336SOL     OW 1906   1.938   0.924   3.008
  336SOL    HW1 1907   1.906   0.898   3.100
  336SOL    HW2 1908   1.872   0.891   2.940
  337SOL     OW 1909   0.263   3.295   1.765
  337SOL    HW1 1910   0.348   3.243   1.773
  337SOL    HW2 1911   0.282   3.392   1.776
  338SOL     OW 1912   3.150   3.027   1.799
  338SOL    HW1 1913   3.196   2.982   1.723
  338SOL    HW2 1914   3.180   2.986   1.885
  339SOL     OW 1915   3.806   0.287   3.112
  339SOL    HW1 1916   3.755   0.371   3.094
  339SOL    HW2 1917   3.800   0.227   3.032
  340SOL     OW 1918   5.472   4.536   4.760
  340SOL    HW1 1919   5.499   4.632   4.748
  340SOL    HW2 1920   5.552   4.478   4.756
  341SOL     OW 1921   5.129   6.243   4.177
  341SOL    HW1 1922   5.127   6.289   4.088
  341SOL    HW2 1923   5.224   6.234   4.207
  342SOL     OW 1924   5.593   4.525   6.939
  342SOL    HW1 1925   5.690   4.516   6.960
  342SOL    HW2 1926   5.563   4.444   6.887
  343SOL     OW 1927   3.403   6.477   1.863
  343SOL    HW1 1928   3.468   6.442   1.930
  343SOL    HW2 1929   3.452   6.508   1.781
  344SOL     OW 1930   2.066   5.011   0.570
  344SOL    HW1 1931   2.149   4.990   0.622
  344SOL    HW2 1932   2.002   4.935   0.577
  345SOL     OW 1933   0.876   0.513   5.383
  345SOL    HW1 1934   0.962   0.516   5.334
  345SOL    HW2 1935   0.803   0.551   5.326
  346SOL     OW 1936   1.599   0.172   3.182
  346SOL    HW1 1937   1.658   0.182   3.101
  346SOL    HW2 1938   1.567   0.077   3.188
  347SOL     OW 1939   5.805   6.594   6.441
  347SOL    HW1 1940   5.852   6.680   6.419
  347SOL    HW2 1941   5.716   6.615   6.481
  348SOL     OW 1942   3.923   5.276   1.204
  348SOL    HW1 1943   3.870   5.243   1.282
  348SOL    HW2 1944   4.010   5.227   1.200
  349SOL     OW 1945   0.332   4.174   2.720
  349SOL    HW1 1946   0.322   4.147   2.625
  349SOL    HW2 1947   0.327   4.093   2.778
  350SOL     OW 1948   4.028   3.699   1.640
  350SOL    HW1 1949   3.941   3.701   1.688
  350SOL    HW2 1950   4.098   3.657   1.699
  351SOL     OW 1951   2.796   1.697   0.442
  351SOL    HW1 1952   2.742   1.762   0.494
  351SOL    HW2 1953   2.842   1.634   0.505
  352SOL     OW 1954   3.523   0.536   5.532
  352SOL    HW1 1955   3.491   0.477   5.458
  352SOL    HW2 1956   3.527   0.631   5.499
  353SOL     OW 1957   2.052   6.347   0.680
  353SOL    HW1 1958   2.045   6.326   0.582
  353SOL    HW2 1959   2.029   6.443   0.695
  354SOL     OW 1960   4.213   2.196   0.370
  354SOL    HW1 1961   4.192   2.220   0.465
  354SOL    HW2 1962   4.215   2.096   0.360
  355SOL     OW 1963   0.050   3.110   2.874
  355SOL    HW1 1964   0.149   3.099   2.865
  355SOL    HW2 1965   0.008   3.022   2.895
  356SOL     OW 1966   4.792   4.829   4.877
  356SOL    HW1 1967   4.717   4.881   4.836
  356SOL    HW2 1968   4.869   4.890   4.894
  357SOL     OW 1969   0.359   5.648   5.228
  357SOL    HW1 1970   0.372   5.557   5.267
  357SOL    HW2 1971   0.448   5.690   5.210
  358SOL     OW 1972   6.793   0.225   1.477
  358SOL    HW1 1973   6.832   0.133   1.486
  358SOL    HW2 1974   6.757   0.254   1.566
  359SOL     OW 1975   1.208   2.679   2.511
  359SOL    HW1 1976   1.292   2.676   2.458
  359SOL    HW2 1977   1.227   2.710   2.603
  360SOL     OW 1978   4.520   6.920   6.519
  360SOL    HW1 1979   4.594   6.855   6.500
  360SOL    HW2 1980   4.534   6.960   6.610
  361SOL     OW 1981   4.923   5.927   2.953
  361SOL    HW1 1982   4.939   5.973   3.040
  361SOL    HW2 1983   4.968   5.837   2.954
  362SOL     OW 1984   2.939   4.396   0.274
  362SOL    HW1 1985   2.994   4.450   0.210
  362SOL    HW2 1986   2.985   4.310   0.294
  363SOL     OW 1987   3.656   5.001   4.327
  363SOL    HW1 1988   3.724   5.060   4.285
  363SOL    HW2 1989   3.687   4.974   4.419
  364SOL     OW 1990   0.822   5.640   5.806
  364SOL    HW1 1991   0.838   5.542   5.811
  364SOL    HW2 1992   0.786   5.663   5.715
  365SOL     OW 1993   5.107   5.629   2.303
  365SOL    HW1 1994   5.066   5.545   2.268
  365SOL    HW2 1995   5.155   5.610   2.388
  366SOL     OW 1996   6.438   1.424   0.070
  366SOL    HW1 1997   6.493   1.349   0.032
  366SOL    HW2 1998   6.360   1.442   0.010
  367SOL     OW 1999   5.283   3.161   0.975
  367SOL    HW1 2000   5.230   3.204   0.903
  367SOL    HW2 2001   5.358   3.221   1.003
  368SOL     OW 2002   1.659   4.379   5.298
  368SOL    HW1 2003   1.633   4.359   5.203
  368SOL    HW2 2004   1.753   4.350   5.314
  369SOL     OW 2005   6.777   4.185   1.577
  369SOL    HW1 2006   6.874   4.200   1.594
  369SOL    HW2 2007   6.731   4.165   1.663
  370SOL     OW 2008   2.470   0.475   5.944
  370SOL    HW1 2009   2.405   0.401   5.957
  370SOL    HW2 2010   2.547   0.443   5.889
  371SOL     OW 2011   2.680   3.003   0.225
  371SOL    HW1 2012   2.662   3.039   0.316
  371SOL    HW2 2013   2.739   3.067   0.175
  372SOL     OW 2014   0.018   0.043   5.403
  372SOL    HW1 2015   0.033   0.121   5.465
  372SOL    HW2 2016   0.092   6.994   5.414
  373SOL     OW 2017   0.122   5.861   0.247
  373SOL    HW1 2018   0.218   5.847   0.224
  373SOL    HW2 2019   0.116   5.926   0.323
  374SOL     OW 2020   3.414   0.480   2.773
  374SOL    HW1 2021   3.366   0.542   2.711
  374SOL    HW2 2022   3.359   0.398   2.789
  375SOL     OW 2023   6.026   4.731   3.004
  375SOL    HW1 2024   6.068   4.757   2.917
  375SOL    HW2 2025   6.076   4.773   3.079
  376SOL     OW 2026   1.638   2.393   3.911
  376SOL    HW1 2027   1.584   2.448   3.846
  376SOL    HW2 2028   1.712   2.449   3.948
  377SOL     OW 2029   5.075   2.079   2.669
  377SOL    HW1 2030   5.080   2.001   2.732
  377SOL    HW2 2031   5.054   2.046   2.577
  378SOL     OW 2032   4.106   3.521   5.692
  378SOL    HW1 2033   4.143   3.428   5.703
  378SOL    HW2 2034   4.172   3.578   5.645
  379SOL     OW 2035   5.860   3.469   1.457
  379SOL    HW1 2036   5.929   3.534   1.488
  379SOL    HW2 2037   5.893   3.376   1.470
  380SOL     OW 2038   1.160   1.365   1.169
  380SOL    HW1 2039   1.132   1.284   1.118
  380SOL    HW2 2040   1.199   1.337   1.257
  381SOL     OW 2041   3.269   4.757   1.238
  381SOL    HW1 2042   3.210   4.683   1.205
  381SOL    HW2 2043   3.335   4.782   1.167
  382SOL     OW 2044   3.323   5.998   0.148
  382SOL    HW1 2045   3.254   6.062   0.113
  382SOL    HW2 2046   3.311   5.986   0.246
  383SOL     OW 2047   6.670   2.922   6.870
  383SOL    HW1 2048   6.640   2.953   6.781
  383SOL    HW2 2049   6.643   2.988   6.940
  384SOL     OW 2050   0.644   5.481   5.473
  384SOL    HW1 2051   0.551   5.486   5.437
  384SOL    HW2 2052   0.643   5.448   5.567
  385SOL     OW 2053   4.491   6.172   0.611
  385SOL    HW1 2054   4.395   6.142   0.602
  385SOL    HW2 2055   4.495   6.271   0.609
  386SOL     OW 2056   3.928   6.378   5.164
  386SOL    HW1 2057   3.932   6.294   5.109
  386SOL    HW2 2058   3.928   6.457   5.103
  387SOL     OW 2059   7.012   0.851   4.678
  387SOL    HW1 2060   6.995   0.823   4.584
  387SOL    HW2 2061   0.091   0.832   4.702
  388SOL     OW 2062   6.834   2.751   5.775
  388SOL    HW1 2063   6.925   2.783   5.804
  388SOL    HW2 2064   6.821   2.772   5.678
  389SOL     OW 2065   4.414   4.328   1.473
  389SOL    HW1 2066   4.467   4.366   1.548
  389SOL    HW2 2067   4.342   4.269   1.510
  390SOL     OW 2068   3.752   1.361   0.547
  390SOL    HW1 2069   3.772   1.345   0.451
  390SOL    HW2 2070   3.739   1.274   0.594
  391SOL     OW 2071   3.187   3.319   6.445
  391SOL    HW1 2072   3.212   3.261   6.522
  391SOL    HW2 2073   3.209   3.414   6.466
  392SOL     OW 2074   1.451   4.192   2.170
  392SOL    HW1 2075   1.443   4.136   2.252
  392SOL    HW2 2076   1.386   4.267   2.174
  393SOL     OW 2077   0.811   4.370   0.653
  393SOL    HW1 2078   0.871   4.389   0.731
  393SOL    HW2 2079   0.767   4.281   0.666
  394SOL     OW 2080   6.645   2.152   6.570
  394SOL    HW1 2081   6.613   2.182   6.481
  394SOL    HW2 2082   6.742   2.130   6.565
  395SOL     OW 2083   4.784   4.295   1.912
  395SOL    HW1 2084   4.688   4.269   1.901
  395SOL    HW2 2085   4.827   4.233   1.978
  396SOL     OW 2086   2.872   1.561   2.849
  396SOL    HW1 2087   2.821   1.646   2.860
  396SOL    HW2 2088   2.909   1.555   2.757
  397SOL     OW 2089   4.477   1.598   5.327
  397SOL    HW1 2090   4.550   1.662   5.354
  397SOL    HW2 2091   4.499   1.558   5.238
  398SOL     OW 2092   1.837   0.414   4.906
  398SOL    HW1 2093   1.739   0.400   4.913
  398SOL    HW2 2094   1.870   0.377   4.818
  399SOL     OW 2095   5.044   5.838   3.681
  399SOL    HW1 2096   5.064   5.930   3.646
  399SOL    HW2 2097   4.945   5.829   3.694
  400SOL     OW 2098   6.332   0.476   4.633
  400SOL    HW1 2099   6.329   0.506   4.538
  400SOL    HW2 2100   6.417   0.427   4.651
  401SOL     OW 2101   6.592   6.325   5.665
  401SOL    HW1 2102   6.682   6.294   5.696
  401SOL    HW2 2103   6.587   6.424   5.669
  402SOL     OW 2104   6.794   0.347   2.787
  402SOL    HW1 2105   6.703   0.341   2.746
  402SOL    HW2 2106   6.858   0.387   2.721
  403SOL     OW 2107   2.909   0.588   6.338
  403SOL    HW1 2108   2.921   0.618   6.243
  403SOL    HW2 2109   2.816   0.610   6.368
  404SOL     OW 2110   3.688   5.228   5.081
  404SOL    HW1 2111   3.735   5.211   5.168
  404SOL    HW2 2112   3.669   5.140   5.036
  405SOL     OW 2113   2.404   4.312   3.686
  405SOL    HW1 2114   2.424   4.344   3.779
  405SOL    HW2 2115   2.319   4.260   3.686
  406SOL     OW 2116   0.435   4.961   5.816
  406SOL    HW1 2117   0.458   4.948   5.719
  406SOL    HW2 2118   0.510   4.928   5.872
  407SOL     OW 2119   1.450   2.935   4.110
  407SOL    HW1 2120   1.510   2.998   4.061
  407SOL    HW2 2121   1.489   2.842   4.106
  408SOL     OW 2122   2.862   1.450   3.632
  408SOL    HW1 2123   2.851   1.358   3.595
  408SOL    HW2 2124   2.875   1.445   3.732
  409SOL     OW 2125   1.305   3.982   2.646
  409SOL    HW1 2126   1.238   4.055   2.660
  409SOL    HW2 2127   1.265   3.894   2.673
  410SOL     OW 2128   1.562   1.850   1.454
  410SOL    HW1 2129   1.612   1.921   1.503
  410SOL    HW2 2130   1.571   1.865   1.356
  411SOL     OW 2131   0.536   2.336   1.394
  411SOL    HW1 2132   0.449   2.337   1.345
  411SOL    HW2 2133   0.577   2.427   1.391
  412SOL     OW 2134   1.819   4.913   2.527
  412SOL    HW1 2135   1.817   4.818   2.497
  412SOL    HW2 2136   1.897   4.959   2.485
  413SOL     OW 2137   4.129   5.020   2.584
  413SOL    HW1 2138   4.201   5.074   2.540
  413SOL    HW2 2139   4.059   5.082   2.620
  414SOL     OW 2140   3.040   6.424   3.730
  414SOL    HW1 2141   2.979   6.352   3.701
  414SOL    HW2 2142   3.013   6.511   3.688
  415SOL     OW 2143   6.751   0.847   0.274
  415SOL    HW1 2144   6.708   0.825   0.361
  415SOL    HW2 2145   6.745   0.945   0.258
  416SOL     OW 2146   4.895   3.206   4.743
  416SOL    HW1 2147   4.891   3.162   4.833
  416SOL    HW2 2148   4.929   3.299   4.752
  417SOL     OW 2149   3.557   2.179   6.697
  417SOL    HW1 2150   3.611   2.257   6.727
  417SOL    HW2 2151   3.461   2.204   6.691
  418SOL     OW 2152   3.963   6.313   4.292
  418SOL    HW1 2153   3.927   6.268   4.374
  418SOL    HW2 2154   3.890   6.364   4.247
  419SOL     OW 2155   1.050   0.046   1.713
  419SOL    HW1 2156   1.122   0.076   1.775
  419SOL    HW2 2157   1.075   6.975   1.673
  420SOL     OW 2158   6.426   0.577   6.279
  420SOL    HW1 2159   6.439   0.595   6.376
  420SOL    HW2 2160   6.328   0.564   6.260
  421SOL     OW 2161   5.231   3.926   3.319
  421SOL    HW1 2162   5.146   3.874   3.327
  421SOL    HW2 2163   5.230   4.002   3.383
  422SOL     OW 2164   5.307   2.881   1.871
  422SOL    HW1 2165   5.273   2.793   1.837
  422SOL    HW2 2166   5.403   2.891   1.846
  423SOL     OW 2167   3.518   1.652   6.557
  423SOL    HW1 2168   3.606   1.677   6.596
  423SOL    HW2 2169   3.453   1.632   6.630
  424SOL     OW 2170   1.251   4.255   3.077
  424SOL    HW1 2171   1.173   4.232   3.018
  424SOL    HW2 2172   1.256   4.190   3.153
  425SOL     OW 2173   2.641   0.028   5.418
  425SOL    HW1 2174   2.618   0.123   5.398
  425SOL    HW2 2175   2.612   0.005   5.511
  426SOL     OW 2176   2.357   2.799   4.311
  426SOL    HW1 2177   2.336   2.897   4.315
  426SOL    HW2 2178   2.409   2.773   4.392
  427SOL     OW 2179   3.911   2.062   3.506
  427SOL    HW1 2180   3.839   2.011   3.553
  427SOL    HW2 2181   3.879   2.155   3.488
  428SOL     OW 2182   2.665   1.417   5.169
  428SOL    HW1 2183   2.628   1.422   5.077
  428SOL    HW2 2184   2.667   1.322   5.200
  429SOL     OW 2185   1.186   5.839   3.954
  429SOL    HW1 2186   1.139   5.917   3.911
  429SOL    HW2 2187   1.178   5.759   3.895
  430SOL     OW 2188   1.403   7.001   3.456
  430SOL    HW1 2189   1.492   0.021   3.483
  430SOL    HW2 2190   1.396   6.906   3.487
  431SOL     OW 2191   2.857   1.809   2.230
  431SOL    HW1 2192   2.824   1.879   2.167
  431SOL    HW2 2193   2.780   1.774   2.284
  432SOL     OW 2194   3.937   2.298   1.446
  432SOL    HW1 2195   3.911   2.276   1.540
  432SOL    HW2 2196   3.863   2.349   1.402
  433SOL     OW 2197   2.230   6.435   0.231
  433SOL    HW1 2198   2.306   6.371   0.221
  433SOL    HW2 2199   2.263   6.518   0.276
  434SOL     OW 2200   3.903   6.376   3.663
  434SOL    HW1 2201   3.903   6.431   3.746
  434SOL    HW2 2202   3.847   6.294   3.677
  435SOL     OW 2203   2.738   1.615   5.978
  435SOL    HW1 2204   2.686   1.545   5.929
  435SOL    HW2 2205   2.757   1.691   5.917
  436SOL     OW 2206   4.690   0.035   3.105
  436SOL    HW1 2207   4.703   0.115   3.046
  436SOL    HW2 2208   4.593   0.017   3.116
  437SOL     OW 2209   6.465   0.085   4.282
  437SOL    HW1 2210   6.514   7.016   4.296
  437SOL    HW2 2211   6.389   0.091   4.347
  438SOL     OW 2212   0.511   4.311   2.872
  438SOL    HW1 2213   0.481   4.217   2.855
  438SOL    HW2 2214   0.439   4.362   2.918
  439SOL     OW 2215   5.657   0.415   2.882
  439SOL    HW1 2216   5.558   0.425   2.868
  439SOL    HW2 2217   5.680   0.442   2.976
  440SOL     OW 2218   4.360   0.990   0.569
  440SOL    HW1 2219   4.380   1.027   0.660
  440SOL    HW2 2220   4.352   1.065   0.504
  441SOL     OW 2221   0.285   4.472   2.938
  441SOL    HW1 2222   0.278   4.435   2.845
  441SOL    HW2 2223   0.255   4.568   2.937
  442SOL     OW 2224   5.977   3.356   5.926
  442SOL    HW1 2225   6.063   3.313   5.896
  442SOL    HW2 2226   5.914   3.362   5.849
  443SOL     OW 2227   4.939   3.581   2.675
  443SOL    HW1 2228   4.919   3.503   2.615
  443SOL    HW2 2229   5.038   3.594   2.680
  444SOL     OW 2230   4.463   1.068   1.267
  444SOL    HW1 2231   4.418   1.155   1.285
  444SOL    HW2 2232   4.447   1.006   1.344
  445SOL     OW 2233   1.492   5.361   2.581
  445SOL    HW1 2234   1.409   5.318   2.546
  445SOL    HW2 2235   1.476   5.459   2.593
  446SOL     OW 2236   5.399   6.975   1.929
  446SOL    HW1 2237   5.486   0.000   1.901
  446SOL    HW2 2238   5.323   0.011   1.892
  447SOL     OW 2239   6.150   4.368   0.412
  447SOL    HW1 2240   6.207   4.301   0.460
  447SOL    HW2 2241   6.064   4.325   0.384
  448SOL     OW 2242   2.609   6.604   3.447
  448SOL    HW1 2243   2.658   6.663   3.383
  448SOL    HW2 2244   2.644   6.510   3.439
  449SOL     OW 2245   2.075   3.347   4.741
  449SOL    HW1 2246   2.092   3.437   4.783
  449SOL    HW2 2247   2.088   3.276   4.810
  450SOL     OW 2248   0.510   4.667   3.488
  450SOL    HW1 2249   0.551   4.591   3.538
  450SOL    HW2 2250   0.579   4.708   3.428
  451SOL     OW 2251   0.679   2.168   2.446
  451SOL    HW1 2252   0.727   2.253   2.468
  451SOL    HW2 2253   0.732   2.116   2.380
  452SOL     OW 2254   4.696   6.091   2.801
  452SOL    HW1 2255   4.749   6.051   2.876
  452SOL    HW2 2256   4.623   6.148   2.839
  453SOL     OW 2257   3.712   0.530   0.123
  453SOL    HW1 2258   3.679   0.503   0.213
  453SOL    HW2 2259   3.700   0.455   0.059
  454SOL     OW 2260   0.113   4.029   6.675
  454SOL    HW1 2261   0.112   3.932   6.649
  454SOL    HW2 2262   0.109   4.037   6.775
  455SOL     OW 2263   6.320   4.550   6.179
  455SOL    HW1 2264   6.396   4.485   6.188
  455SOL    HW2 2265   6.311   4.576   6.083
  456SOL     OW 2266   2.613   0.818   2.180
  456SOL    HW1 2267   2.639   0.822   2.084
  456SOL    HW2 2268   2.517   0.845   2.190
  457SOL     OW 2269   2.359   0.163   6.520
  457SOL    HW1 2270   2.451   0.144   6.554
  457SOL    HW2 2271   2.309   0.216   6.587
  458SOL     OW 2272   2.267   1.349   3.355
  458SOL    HW1 2273   2.322   1.266   3.350
  458SOL    HW2 2274   2.173   1.328   3.328
  459SOL     OW 2275   2.590   0.343   4.318
  459SOL    HW1 2276   2.576   0.442   4.310
  459SOL    HW2 2277   2.505   0.300   4.347
  460SOL     OW 2278   1.290   1.880   5.075
  460SOL    HW1 2279   1.377   1.856   5.032
  460SOL    HW2 2280   1.292   1.975   5.104
  461SOL     OW 2281   0.843   5.305   5.814
  461SOL    HW1 2282   0.936   5.338   5.833
  461SOL    HW2 2283   0.811   5.251   5.892
  462SOL     OW 2284   3.009   3.924   4.329
  462SOL    HW1 2285   3.047   3.972   4.408
  462SOL    HW2 2286   2.946   3.853   4.360
  463SOL     OW 2287   5.488   7.015   2.259
  463SOL    HW1 2288   5.475   0.009   2.358
  463SOL    HW2 2289   5.583   6.988   2.241
  464SOL     OW 2290   4.070   5.852   6.252
  464SOL    HW1 2291   4.064   5.946   6.218
  464SOL    HW2 2292   3.985   5.804   6.231
  465SOL     OW 2293   1.491   3.199   0.160
  465SOL    HW1 2294   1.432   3.177   0.238
  465SOL    HW2 2295   1.453   3.161   0.077
  466SOL     OW 2296   4.170   5.498   4.789
  466SOL    HW1 2297   4.163   5.567   4.861
  466SOL    HW2 2298   4.155   5.407   4.829
  467SOL     OW 2299   6.158   0.679   1.592
  467SOL    HW1 2300   6.133   0.689   1.495
  467SOL    HW2 2301   6.150   0.767   1.638
  468SOL     OW 2302   4.009   6.961   6.620
  468SOL    HW1 2303   4.099   6.930   6.649
  468SOL    HW2 2304   4.008   0.045   6.615
  469SOL     OW 2305   3.001   5.226   5.793
  469SOL    HW1 2306   3.033   5.251   5.702
  469SOL    HW2 2307   2.902   5.210   5.790
  470SOL     OW 2308   2.222   5.236   3.009
  470SOL    HW1 2309   2.263   5.166   3.066
  470SOL    HW2 2310   2.240   5.216   2.912
  471SOL     OW 2311   2.455   2.494   4.583
  471SOL    HW1 2312   2.441   2.592   4.574
  471SOL    HW2 2313   2.458   2.469   4.680
  472SOL     OW 2314   5.836   4.142   6.159
  472SOL    HW1 2315   5.853   4.054   6.115
  472SOL    HW2 2316   5.909   4.207   6.134
  473SOL     OW 2317   0.023   3.352   2.748
  473SOL    HW1 2318   0.032   3.283   2.820
  473SOL    HW2 2319   6.943   3.366   2.727
  474SOL     OW 2320   4.853   5.983   4.089
  474SOL    HW1 2321   4.778   6.045   4.067
  474SOL    HW2 2322   4.899   6.014   4.173
  475SOL     OW 2323   5.824   1.505   1.121
  475SOL    HW1 2324   5.884   1.435   1.160
  475SOL    HW2 2325   5.738   1.463   1.094
  476SOL     OW 2326   0.765   5.020   1.051
  476SOL    HW1 2327   0.685   4.960   1.065
  476SOL    HW2 2328   0.739   5.115   1.067
  477SOL     OW 2329   1.399   4.549   3.876
  477SOL    HW1 2330   1.301   4.531   3.866
  477SOL    HW2 2331   1.432   4.506   3.960
  478SOL     OW 2332   4.800   5.819   1.961
  478SOL    HW1 2333   4.788   5.819   2.060
  478SOL    HW2 2334   4.880   5.874   1.937
  479SOL     OW 2335   3.835   4.027   3.762
  479SOL    HW1 2336   3.812   4.102   3.824
  479SOL    HW2 2337   3.892   3.960   3.811
  480SOL     OW 2338   1.807   6.886   3.159
  480SOL    HW1 2339   1.717   6.863   3.197
  480SOL    HW2 2340   1.860   6.935   3.228
  481SOL     OW 2341   0.392   6.619   1.037
  481SOL    HW1 2342   0.373   6.703   0.986
  481SOL    HW2 2343   0.484   6.624   1.077
  482SOL     OW 2344   4.451   5.130   1.867
  482SOL    HW1 2345   4.398   5.046   1.855
  482SOL    HW2 2346   4.546   5.107   1.886
  483SOL     OW 2347   5.240   2.078   3.548
  483SOL    HW1 2348   5.193   2.165   3.529
  483SOL    HW2 2349   5.289   2.048   3.466
  484SOL     OW 2350   2.227   4.044   4.242
  484SOL    HW1 2351   2.294   4.088   4.303
  484SOL    HW2 2352   2.238   4.080   4.150
  485SOL     OW 2353   5.215   3.151   1.828
  485SOL    HW1 2354   5.118   3.131   1.843
  485SOL    HW2 2355   5.270   3.077   1.865
  486SOL     OW 2356   6.139   6.640   6.238
  486SOL    HW1 2357   6.170   6.555   6.196
  486SOL    HW2 2358   6.215   6.706   6.241
  487SOL     OW 2359   6.787   6.764   5.043
  487SOL    HW1 2360   6.836   6.773   4.956
  487SOL    HW2 2361   6.849   6.786   5.118
  488SOL     OW 2362   1.556   5.815   3.407
  488SOL    HW1 2363   1.494   5.743   3.439
  488SOL    HW2 2364   1.618   5.841   3.482
  489SOL     OW 2365   0.826   5.800   6.021
  489SOL    HW1 2366   0.842   5.899   6.022
  489SOL    HW2 2367   0.860   5.761   5.935
  490SOL     OW 2368   1.364   4.431   5.737
  490SOL    HW1 2369   1.413   4.452   5.652
  490SOL    HW2 2370   1.301   4.355   5.721
  491SOL     OW 2371   0.542   2.366   0.925
  491SOL    HW1 2372   0.447   2.353   0.952
  491SOL    HW2 2373   0.596   2.394   1.004
  492SOL     OW 2374   1.017   2.006   5.889
  492SOL    HW1 2375   0.952   2.052   5.950
  492SOL    HW2 2376   1.053   1.925   5.933
  493SOL     OW 2377   2.178   5.900   4.479
  493SOL    HW1 2378   2.222   5.822   4.435
  493SOL    HW2 2379   2.200   5.901   4.577
  494SOL     OW 2380   2.623   6.255   4.893
  494SOL    HW1 2381   2.693   6.247   4.823
  494SOL    HW2 2382   2.642   6.335   4.951
  495SOL     OW 2383   3.710   4.872   5.808
  495SOL    HW1 2384   3.758   4.891   5.722
  495SOL    HW2 2385   3.621   4.831   5.788
  496SOL     OW 2386   4.979   1.668   2.685
  496SOL    HW1 2387   4.902   1.728   2.708
  496SOL    HW2 2388   5.002   1.611   2.764
  497SOL     OW 2389   3.169   1.045   0.283
  497SOL    HW1 2390   3.113   0.968   0.253
  497SOL    HW2 2391   3.187   1.038   0.381
  498SOL     OW 2392   0.585   6.199   1.667
  498SOL    HW1 2393   0.673   6.199   1.621
  498SOL    HW2 2394   0.518   6.149   1.612
  499SOL     OW 2395   3.193   6.360   6.663
  499SOL    HW1 2396   3.205   6.289   6.733
  499SOL    HW2 2397   3.121   6.423   6.691
  500SOL     OW 2398   6.348   2.015   0.178
  500SOL    HW1 2399   6.438   1.989   0.142
  500SOL    HW2 2400   6.283   2.022   0.103
  501SOL     OW 2401   0.964   0.431   3.580
  501SOL    HW1 2402   0.895   0.398   3.516
  501SOL    HW2 2403   0.946   0.527   3.600
  502SOL     OW 2404   2.151   5.092   6.534
  502SOL    HW1 2405   2.143   5.010   6.590
  502SOL    HW2 2406   2.088   5.086   6.456
  503SOL     OW 2407   3.559   4.599   6.600
  503SOL    HW1 2408   3.653   4.567   6.587
  503SOL    HW2 2409   3.559   4.698   6.614
  504SOL     OW 2410   6.242   6.777   1.980
  504SOL    HW1 2411   6.302   6.747   1.906
  504SOL    HW2 2412   6.148   6.782   1.946
  505SOL     OW 2413   5.126   6.777   4.958
  505SOL    HW1 2414   5.085   6.865   4.933
  505SOL    HW2 2415   5.107   6.757   5.054
  506SOL     OW 2416   4.131   5.164   2.936
  506SOL    HW1 2417   4.227   5.144   2.913
  506SOL    HW2 2418   4.076   5.160   2.853
  507SOL     OW 2419   3.396   0.648   0.709
  507SOL    HW1 2420   3.343   0.646   0.624
  507SOL    HW2 2421   3.334   0.641   0.787
  508SOL     OW 2422   6.961   5.120   3.932
  508SOL    HW1 2423   6.881   5.127   3.873
  508SOL    HW2 2424   6.999   5.211   3.947
  509SOL     OW 2425   4.657   6.792   5.534
  509SOL    HW1 2426   4.653   6.723   5.607
  509SOL    HW2 2427   4.665   6.746   5.445
  510SOL     OW 2428   6.923   3.658   0.138
  510SOL    HW1 2429   6.969   3.747   0.143
  510SOL    HW2 2430   6.984   3.591   0.095
  511SOL     OW 2431   0.916   1.780   0.736
  511SOL    HW1 2432   0.877   1.690   0.757
  511SOL    HW2 2433   0.844   1.841   0.703
  512SOL     OW 2434   6.613   2.480   6.276
  512SOL    HW1 2435   6.629   2.536   6.194
  512SOL    HW2 2436   6.596   2.540   6.354
  513SOL     OW 2437   5.383   0.855   2.449
  513SOL    HW1 2438   5.477   0.835   2.478
  513SOL    HW2 2439   5.384   0.927   2.381
  514SOL     OW 2440   6.631   6.374   4.173
  514SOL    HW1 2441   6.676   6.379   4.084
  514SOL    HW2 2442   6.533   6.389   4.161
  515SOL     OW 2443   3.855   0.146   6.403
  515SOL    HW1 2444   3.922   0.109   6.339
  515SOL    HW2 2445   3.790   0.074   6.428
  516SOL     OW 2446   2.520   5.707   1.521
  516SOL    HW1 2447   2.432   5.691   1.567
  516SOL    HW2 2448   2.505   5.713   1.422
  517SOL     OW 2449   3.413   5.277   1.985
  517SOL    HW1 2450   3.506   5.254   1.958
  517SOL    HW2 2451   3.354   5.198   1.972
  518SOL     OW 2452   2.131   3.431   3.589
  518SOL    HW1 2453   2.134   3.333   3.570
  518SOL    HW2 2454   2.153   3.447   3.685
  519SOL     OW 2455   0.330   6.965   3.395
  519SOL    HW1 2456   0.322   6.869   3.371
  519SOL    HW2 2457   0.423   6.984   3.428
  520SOL     OW 2458   1.323   3.194   0.371
  520SOL    HW1 2459   1.265   3.114   0.387
  520SOL    HW2 2460   1.277   3.276   0.404
  521SOL     OW 2461   5.537   5.666   5.015
  521SOL    HW1 2462   5.600   5.589   4.998
  521SOL    HW2 2463   5.582   5.751   4.989
  522SOL     OW 2464   3.894   4.021   1.470
  522SOL    HW1 2465   3.873   3.982   1.381
  522SOL    HW2 2466   3.809   4.034   1.522
  523SOL     OW 2467   0.138   6.492   2.061
  523SOL    HW1 2468   0.218   6.493   2.001
  523SOL    HW2 2469   0.055   6.499   2.005
  524SOL     OW 2470   0.138   2.319   1.941
  524SOL    HW1 2471   0.120   2.406   1.896
  524SOL    HW2 2472   0.148   2.247   1.872
  525SOL     OW 2473   1.996   3.465   6.142
  525SOL    HW1 2474   1.997   3.489   6.045
  525SOL    HW2 2475   2.035   3.540   6.195
  526SOL     OW 2476   3.205   6.878   4.670
  526SOL    HW1 2477   3.232   6.874   4.574
  526SOL    HW2 2478   3.163   6.792   4.696
  527SOL     OW 2479   0.873   1.535   0.235
  527SOL    HW1 2480   0.893   1.515   0.331
  527SOL    HW2 2481   0.864   1.634   0.223
  528SOL     OW 2482   6.686   3.303   4.386
  528SOL    HW1 2483   6.642   3.370   4.327
  528SOL    HW2 2484   6.659   3.318   4.481
  529SOL     OW 2485   2.052   0.479   6.216
  529SOL    HW1 2486   1.984   0.504   6.284
  529SOL    HW2 2487   2.138   0.455   6.262
  530SOL     OW 2488   3.876   3.305   0.909
  530SOL    HW1 2489   3.931   3.269   0.834
  530SOL    HW2 2490   3.899   3.257   0.994
  531SOL     OW 2491   1.830   0.444   1.791
  531SOL    HW1 2492   1.817   0.376   1.719
  531SOL    HW2 2493   1.783   0.413   1.874
  532SOL     OW 2494   3.004   2.320   0.750
  532SOL    HW1 2495   2.928   2.285   0.693
  532SOL    HW2 2496   2.978   2.408   0.789
  533SOL     OW 2497   3.726   0.338   4.216
  533SOL    HW1 2498   3.776   0.279   4.152
  533SOL    HW2 2499   3.639   0.295   4.239
  534SOL     OW 2500   1.216   5.087   1.452
  534SOL    HW1 2501   1.130   5.086   1.401
  534SOL    HW2 2502   1.208   5.151   1.529
  535SOL     OW 2503   5.083   3.370   3.978
  535SOL    HW1 2504   5.161   3.414   3.934
  535SOL    HW2 2505   4.999   3.416   3.948
  536SOL     OW 2506   6.100   6.055   2.751
  536SOL    HW1 2507   6.146   6.085   2.667
  536SOL    HW2 2508   6.004   6.038   2.732
  537SOL     OW 2509   3.201   0.887   4.456
  537SOL    HW1 2510   3.296   0.892   4.426
  537SOL    HW2 2511   3.142   0.880   4.375
  538SOL     OW 2512   2.673   4.771   5.581
  538SOL    HW1 2513   2.584   4.732   5.555
  538SOL    HW2 2514   2.736   4.763   5.504
  539SOL     OW 2515   1.014   6.379   0.024
  539SOL    HW1 2516   1.083   6.448   0.044
  539SOL    HW2 2517   0.927   6.406   0.067
  540SOL     OW 2518   0.973   0.678   4.068
  540SOL    HW1 2519   0.901   0.608   4.075
  540SOL    HW2 2520   1.023   0.666   3.982
  541SOL     OW 2521   4.445   6.414   4.300
  541SOL    HW1 2522   4.451   6.323   4.258
  541SOL    HW2 2523   4.351   6.432   4.326
  542SOL     OW 2524   3.332   0.073   6.693
  542SOL    HW1 2525   3.288   0.017   6.763
  542SOL    HW2 2526   3.275   0.152   6.672
  543SOL     OW 2527   5.395   2.267   4.195
  543SOL    HW1 2528   5.433   2.244   4.284
  543SOL    HW2 2529   5.436   2.351   4.161
  544SOL     OW 2530   1.241   4.064   1.036
  544SOL    HW1 2531   1.225   4.127   0.960
  544SOL    HW2 2532   1.156   4.052   1.087
  545SOL     OW 2533   5.742   1.251   1.671
  545SOL    HW1 2534   5.821   1.295   1.714
  545SOL    HW2 2535   5.658   1.296   1.704
  546SOL     OW 2536   0.741   4.049   2.688
  546SOL    HW1 2537   0.755   4.119   2.758
  546SOL    HW2 2538   0.791   3.966   2.713
  547SOL     OW 2539   4.334   1.789   6.677
  547SOL    HW1 2540   4.420   1.820   6.718
  547SOL    HW2 2541   4.335   1.805   6.579
  548SOL     OW 2542   3.147   2.980   6.871
  548SOL    HW1 2543   3.075   2.973   6.802
  548SOL    HW2 2544   3.146   2.899   6.930
  549SOL     OW 2545   5.922   2.441   0.887
  549SOL    HW1 2546   5.908   2.395   0.975
  549SOL    HW2 2547   5.834   2.449   0.839
  550SOL     OW 2548   0.285   5.560   2.964
  550SOL    HW1 2549   0.260   5.592   3.056
  550SOL    HW2 2550   0.371   5.603   2.937
  551SOL     OW 2551   6.745   1.367   0.145
  551SOL    HW1 2552   6.688   1.417   0.210
  551SOL    HW2 2553   6.840   1.394   0.155
  552SOL     OW 2554   5.960   5.158   5.599
  552SOL    HW1 2555   5.918   5.247   5.583
  552SOL    HW2 2556   6.007   5.159   5.687
  553SOL     OW 2557   2.909   0.887   5.477
  553SOL    HW1 2558   2.973   0.891   5.554
  553SOL    HW2 2559   2.952   0.928   5.396
  554SOL     OW 2560   5.853   5.556   0.951
  554SOL    HW1 2561   5.911   5.567   1.033
  554SOL    HW2 2562   5.883   5.620   0.881
  555SOL     OW 2563   2.194   5.083   5.758
  555SOL    HW1 2564   2.248   5.165   5.740
  555SOL    HW2 2565   2.111   5.086   5.702
  556SOL     OW 2566   5.045   1.271   3.803
  556SOL    HW1 2567   4.982   1.243   3.731
  556SOL    HW2 2568   5.004   1.346   3.856
  557SOL     OW 2569   6.542   4.543   5.900
  557SOL    HW1 2570   6.524   4.629   5.852
  557SOL    HW2 2571   6.480   4.472   5.867
  558SOL     OW 2572   3.337   3.789   2.411
  558SOL    HW1 2573   3.269   3.790   2.484
  558SOL    HW2 2574   3.423   3.751   2.446
  559SOL     OW 2575   6.290   6.133   5.432
  559SOL    HW1 2576   6.382   6.133   5.393
  559SOL    HW2 2577   6.285   6.200   5.506
  560SOL     OW 2578   6.431   3.221   3.008
  560SOL    HW1 2579   6.484   3.139   2.987
  560SOL    HW2 2580   6.371   3.203   3.085
  561SOL     OW 2581   0.430   2.973   6.299
  561SOL    HW1 2582   0.409   2.955   6.203
  561SOL    HW2 2583   0.483   3.057   6.307
  562SOL     OW 2584   3.959   0.501   5.888
  562SOL    HW1 2585   3.885   0.497   5.822
  562SOL    HW2 2586   3.962   0.417   5.941
  563SOL     OW 2587   1.734   2.113   4.491
  563SOL    HW1 2588   1.733   2.103   4.590
  563SOL    HW2 2589   1.671   2.047   4.450
  564SOL     OW 2590   0.186   2.114   4.998
  564SOL    HW1 2591   0.208   2.167   5.080
  564SOL    HW2 2592   0.087   2.113   4.984
  565SOL     OW 2593   3.864   3.463   3.479
  565SOL    HW1 2594   3.816   3.501   3.557
  565SOL    HW2 2595   3.873   3.532   3.407
  566SOL     OW 2596   3.338   6.215   3.004
  566SOL    HW1 2597   3.389   6.282   3.058
  566SOL    HW2 2598   3.309   6.256   2.918
  567SOL     OW 2599   2.040   3.026   6.692
  567SOL    HW1 2600   1.999   3.072   6.771
  567SOL    HW2 2601   2.048   3.091   6.616
  568SOL     OW 2602   6.875   0.685   0.658
  568SOL    HW1 2603   6.966   0.721   0.674
  568SOL    HW2 2604   6.858   0.608   0.720
  569SOL     OW 2605   0.335   1.750   0.498
  569SOL    HW1 2606   0.416   1.742   0.440
  569SOL    HW2 2607   0.338   1.681   0.570
  570SOL     OW 2608   2.774   0.145   6.008
  570SOL    HW1 2609   2.861   0.100   5.988
  570SOL    HW2 2610   2.698   0.084   5.988
  571SOL     OW 2611   2.603   4.884   3.005
  571SOL    HW1 2612   2.680   4.824   3.024
  571SOL    HW2 2613   2.585   4.942   3.084
  572SOL     OW 2614   2.403   6.719   3.947
  572SOL    HW1 2615   2.441   6.811   3.961
  572SOL    HW2 2616   2.347   6.694   4.026
  573SOL     OW 2617   6.787   1.981   5.670
  573SOL    HW1 2618   6.716   2.017   5.610
  573SOL    HW2 2619   6.877   2.011   5.638
  574SOL     OW 2620   2.823   1.696   5.603
  574SOL    HW1 2621   2.748   1.760   5.619
  574SOL    HW2 2622   2.814   1.655   5.513
  575SOL     OW 2623   3.021   3.632   0.315
  575SOL    HW1 2624   3.042   3.706   0.380
  575SOL    HW2 2625   2.946   3.577   0.352
  576SOL     OW 2626   1.923   2.905   3.031
  576SOL    HW1 2627   1.823   2.913   3.032
  576SOL    HW2 2628   1.963   2.994   3.007
  577SOL     OW 2629   1.103   1.709   1.891
  577SOL    HW1 2630   1.101   1.714   1.791
  577SOL    HW2 2631   1.063   1.623   1.921
  578SOL     OW 2632   1.960   5.425   6.393
  578SOL    HW1 2633   1.996   5.351   6.336
  578SOL    HW2 2634   1.907   5.489   6.337
  579SOL     OW 2635   2.457   4.518   2.305
  579SOL    HW1 2636   2.519   4.582   2.259
  579SOL    HW2 2637   2.486   4.506   2.400
  580SOL     OW 2638   4.236   5.397   5.168
  580SOL    HW1 2639   4.248   5.342   5.085
  580SOL    HW2 2640   4.263   5.491   5.149
  581SOL     OW 2641   1.121   2.865   3.829
  581SOL    HW1 2642   1.038   2.890   3.878
  581SOL    HW2 2643   1.110   2.775   3.787
  582SOL     OW 2644   5.261   5.492   3.420
  582SOL    HW1 2645   5.215   5.404   3.424
  582SOL    HW2 2646   5.350   5.481   3.375
  583SOL     OW 2647   3.211   5.024   5.875
  583SOL    HW1 2648   3.121   5.056   5.904
  583SOL    HW2 2649   3.207   4.926   5.855
  584SOL     OW 2650   4.028   0.827   6.824
  584SOL    HW1 2651   4.040   0.728   6.821
  584SOL    HW2 2652   3.940   0.851   6.783
  585SOL     OW 2653   2.844   6.633   1.894
  585SOL    HW1 2654   2.823   6.618   1.798
  585SOL    HW2 2655   2.843   6.545   1.942
  586SOL     OW 2656   4.386   0.344   0.827
  586SOL    HW1 2657   4.481   0.376   0.822
  586SOL    HW2 2658   4.385   0.244   0.826
  587SOL     OW 2659   5.263   2.041   1.804
  587SOL    HW1 2660   5.319   2.061   1.723
  587SOL    HW2 2661   5.233   2.128   1.845
  588SOL     OW 2662   0.829   5.169   2.054
  588SOL    HW1 2663   0.921   5.140   2.079
  588SOL    HW2 2664   0.778   5.092   2.015
  589SOL     OW 2665   3.461   5.874   1.062
  589SOL    HW1 2666   3.367   5.856   1.089
  589SOL    HW2 2667   3.523   5.821   1.120
  590SOL     OW 2668   5.392   1.414   0.287
  590SOL    HW1 2669   5.351   1.409   0.378
  590SOL    HW2 2670   5.464   1.484   0.286
  591SOL     OW 2671   4.120   5.706   3.992
  591SOL    HW1 2672   4.184   5.660   4.053
  591SOL    HW2 2673   4.030   5.664   4.001
  592SOL     OW 2674   4.455   2.125   4.707
  592SOL    HW1 2675   4.376   2.082   4.750
  592SOL    HW2 2676   4.433   2.220   4.686
  593SOL     OW 2677   3.675   1.888   5.515
  593SOL    HW1 2678   3.755   1.836   5.544
  593SOL    HW2 2679   3.661   1.875   5.417
  594SOL     OW 2680   6.079   1.315   1.508
  594SOL    HW1 2681   6.025   1.273   1.580
  594SOL    HW2 2682   6.111   1.405   1.537
  595SOL     OW 2683   5.189   6.178   2.593
  595SOL    HW1 2684   5.105   6.125   2.582
  595SOL    HW2 2685   5.166   6.275   2.605
  596SOL     OW 2686   6.741   4.029   3.945
  596SOL    HW1 2687   6.788   4.026   4.033
  596SOL    HW2 2688   6.778   4.103   3.889
  597SOL     OW 2689   2.813   0.084   6.808
  597SOL    HW1 2690   2.878   0.150   6.845
  597SOL    HW2 2691   2.790   0.017   6.879
  598SOL     OW 2692   2.863   3.520   5.143
  598SOL    HW1 2693   2.936   3.451   5.140
  598SOL    HW2 2694   2.784   3.482   5.190
  599SOL     OW 2695   0.816   5.884   2.123
  599SOL    HW1 2696   0.891   5.854   2.064
  599SOL    HW2 2697   0.838   5.863   2.218
  600SOL     OW 2698   6.728   4.004   4.827
  600SOL    HW1 2699   6.811   4.057   4.806
  600SOL    HW2 2700   6.705   4.014   4.923
  601SOL     OW 2701   1.593   0.777   5.224
  601SOL    HW1 2702   1.537   0.780   5.307
  601SOL    HW2 2703   1.583   0.687   5.181
  602SOL     OW 2704   3.067   6.394   4.578
  602SOL    HW1 2705   3.114   6.309   4.602
  602SOL    HW2 2706   3.097   6.425   4.488
  603SOL     OW 2707   1.707   0.980   5.425
  603SOL    HW1 2708   1.622   1.033   5.421
  603SOL    HW2 2709   1.733   0.954   5.332
  604SOL     OW 2710   6.674   2.357   2.019
  604SOL    HW1 2711   6.592   2.330   2.069
  604SOL    HW2 2712   6.742   2.284   2.024
  605SOL     OW 2713   0.452   4.514   2.188
  605SOL    HW1 2714   0.455   4.587   2.257
  605SOL    HW2 2715   0.364   4.467   2.194
  606SOL     OW 2716   3.575   0.141   5.029
  606SOL    HW1 2717   3.517   0.222   5.017
  606SOL    HW2 2718   3.626   0.124   4.946
  607SOL     OW 2719   1.090   4.911   5.949
  607SOL    HW1 2720   1.124   4.992   5.900
  607SOL    HW2 2721   1.168   4.861   5.987
  608SOL     OW 2722   3.208   0.346   5.616
  608SOL    HW1 2723   3.200   0.258   5.571
  608SOL    HW2 2724   3.292   0.348   5.671
  609SOL     OW 2725   4.052   2.585   1.642
  609SOL    HW1 2726   4.110   2.611   1.565
  609SOL    HW2 2727   3.977   2.650   1.650
  610SOL     OW 2728   4.623   3.179   0.371
  610SOL    HW1 2729   4.571   3.116   0.429
  610SOL    HW2 2730   4.719   3.151   0.369
  611SOL     OW 2731   3.904   0.313   2.371
  611SOL    HW1 2732   3.922   0.221   2.404
  611SOL    HW2 2733   3.989   0.356   2.340
  612SOL     OW 2734   3.909   4.471   5.877
  612SOL    HW1 2735   3.861   4.383   5.885
  612SOL    HW2 2736   3.945   4.481   5.784
  613SOL     OW 2737   4.692   5.472   5.243
  613SOL    HW1 2738   4.654   5.460   5.334
  613SOL    HW2 2739   4.792   5.481   5.249
  614SOL     OW 2740   5.166   5.648   5.850
  614SOL    HW1 2741   5.088   5.699   5.813
  614SOL    HW2 2742   5.201   5.585   5.780
  615SOL     OW 2743   0.213   4.987   1.243
  615SOL    HW1 2744   0.181   4.908   1.296
  615SOL    HW2 2745   0.134   5.043   1.216
  616SOL     OW 2746   5.964   2.907   3.134
  616SOL    HW1 2747   5.961   2.921   3.233
  616SOL    HW2 2748   5.926   2.817   3.113
  617SOL     OW 2749   2.452   5.279   6.024
  617SOL    HW1 2750   2.421   5.184   6.019
  617SOL    HW2 2751   2.380   5.334   6.067
  618SOL     OW 2752   1.431   1.012   1.816
  618SOL    HW1 2753   1.387   0.922   1.818
  618SOL    HW2 2754   1.471   1.032   1.905
  619SOL     OW 2755   1.211   1.606   6.411
  619SOL    HW1 2756   1.196   1.540   6.336
  619SOL    HW2 2757   1.263   1.684   6.377
  620SOL     OW 2758   4.556   2.952   7.012
  620SOL    HW1 2759   4.474   2.927   0.048
  620SOL    HW2 2760   4.633   2.896   0.025
  621SOL     OW 2761   0.408   4.926   0.127
  621SOL    HW1 2762   0.333   4.988   0.153
  621SOL    HW2 2763   0.493   4.961   0.166
  622SOL     OW 2764   1.842   1.616   0.468
  622SOL    HW1 2765   1.891   1.693   0.428
  622SOL    HW2 2766   1.872   1.531   0.424
  623SOL     OW 2767   1.137   4.704   6.526
  623SOL    HW1 2768   1.122   4.792   6.481
  623SOL    HW2 2769   1.150   4.719   6.624
  624SOL     OW 2770   0.917   3.108   2.706
  624SOL    HW1 2771   0.896   3.179   2.773
  624SOL    HW2 2772   0.875   3.022   2.734
  625SOL     OW 2773   2.715   1.326   2.660
  625SOL    HW1 2774   2.644   1.378   2.613
  625SOL    HW2 2775   2.681   1.235   2.683
  626SOL     OW 2776   1.940   6.576   3.966
  626SOL    HW1 2777   1.918   6.664   4.007
  626SOL    HW2 2778   2.019   6.586   3.905
  627SOL     OW 2779   5.592   0.857   7.011
  627SOL    HW1 2780   5.568   0.954   0.002
  627SOL    HW2 2781   5.684   0.842   0.033
  628SOL     OW 2782   4.877   4.366   4.120
  628SOL    HW1 2783   4.957   4.394   4.173
  628SOL    HW2 2784   4.828   4.294   4.168
  629SOL     OW 2785   0.362   6.908   0.958
  629SOL    HW1 2786   0.425   6.941   0.888
  629SOL    HW2 2787   0.367   6.966   1.038
  630SOL     OW 2788   4.404   1.379   1.288
  630SOL    HW1 2789   4.410   1.466   1.338
  630SOL    HW2 2790   4.440   1.392   1.195
  631SOL     OW 2791   2.201   6.896   5.660
  631SOL    HW1 2792   2.147   6.977   5.683
  631SOL    HW2 2793   2.258   6.916   5.581
  632SOL     OW 2794   2.331   0.836   0.833
  632SOL    HW1 2795   2.347   0.922   0.883
  632SOL    HW2 2796   2.294   0.857   0.743
  633SOL     OW 2797   3.435   6.528   6.945
  633SOL    HW1 2798   3.460   6.503   6.852
  633SOL    HW2 2799   3.381   6.454   6.986
  634SOL     OW 2800   4.183   5.859   1.025
  634SOL    HW1 2801   4.180   5.875   1.123
  634SOL    HW2 2802   4.244   5.926   0.982
  635SOL     OW 2803   2.883   0.005   2.963
  635SOL    HW1 2804   2.915   0.098   2.945
  635SOL    HW2 2805   2.940   6.956   2.914
  636SOL     OW 2806   5.085   5.059   6.543
  636SOL    HW1 2807   5.160   5.071   6.607
  636SOL    HW2 2808   5.029   5.143   6.541
  637SOL     OW 2809   4.755   4.836   1.461
  637SOL    HW1 2810   4.755   4.739   1.485
  637SOL    HW2 2811   4.845   4.875   1.481
  638SOL     OW 2812   4.816   1.083   1.963
  638SOL    HW1 2813   4.726   1.122   1.984
  638SOL    HW2 2814   4.805   1.003   1.905
  639SOL     OW 2815   4.102   4.625   1.893
  639SOL    HW1 2816   4.173   4.594   1.957
  639SOL    HW2 2817   4.119   4.586   1.803
  640SOL     OW 2818   3.275   4.262   5.617
  640SOL    HW1 2819   3.189   4.247   5.569
  640SOL    HW2 2820   3.345   4.201   5.578
  641SOL     OW 2821   6.970   5.824   4.792
  641SOL    HW1 2822   6.902   5.754   4.771
  641SOL    HW2 2823   6.954   5.859   4.885
  642SOL     OW 2824   0.134   4.653   4.935
  642SOL    HW1 2825   0.143   4.673   4.838
  642SOL    HW2 2826   0.174   4.727   4.989
  643SOL     OW 2827   6.149   5.320   6.138
  643SOL    HW1 2828   6.150   5.414   6.173
  643SOL    HW2 2829   6.057   5.297   6.106
  644SOL     OW 2830   1.164   6.527   2.926
  644SOL    HW1 2831   1.125   6.619   2.916
  644SOL    HW2 2832   1.096   6.466   2.966
  645SOL     OW 2833   4.894   2.408   3.866
  645SOL    HW1 2834   4.831   2.479   3.898
  645SOL    HW2 2835   4.844   2.341   3.812
  646SOL     OW 2836   0.937   1.121   4.414
  646SOL    HW1 2837   0.892   1.041   4.374
  646SOL    HW2 2838   0.879   1.160   4.485
  647SOL     OW 2839   6.433   2.632   0.302
  647SOL    HW1 2840   6.425   2.661   0.397
  647SOL    HW2 2841   6.448   2.712   0.244
  648SOL     OW 2842   5.652   4.061   2.017
  648SOL    HW1 2843   5.610   4.016   1.939
  648SOL    HW2 2844   5.751   4.068   2.003
  649SOL     OW 2845   3.979   4.627   1.218
  649SOL    HW1 2846   3.961   4.537   1.256
  649SOL    HW2 2847   3.963   4.625   1.119
  650SOL     OW 2848   4.665   3.866   0.711
  650SOL    HW1 2849   4.678   3.903   0.803
  650SOL    HW2 2850   4.751   3.826   0.678
  651SOL     OW 2851   0.695   6.233   0.804
  651SOL    HW1 2852   0.655   6.220   0.895
  651SOL    HW2 2853   0.693   6.146   0.754
  652SOL     OW 2854   4.524   1.093   2.667
  652SOL    HW1 2855   4.526   1.098   2.766
  652SOL    HW2 2856   4.604   1.042   2.635
  653SOL     OW 2857   3.373   5.194   4.044
  653SOL    HW1 2858   3.398   5.102   4.014
  653SOL    HW2 2859   3.327   5.189   4.132
  654SOL     OW 2860   0.236   4.608   6.662
  654SOL    HW1 2861   0.335   4.590   6.661
  654SOL    HW2 2862   0.189   4.537   6.611
  655SOL     OW 2863   0.953   0.170   1.095
  655SOL    HW1 2864   1.050   0.149   1.102
  655SOL    HW2 2865   0.934   0.256   1.141
  656SOL     OW 2866   2.499   6.506   2.500
  656SOL    HW1 2867   2.411   6.498   2.453
  656SOL    HW2 2868   2.487   6.556   2.586
  657SOL     OW 2869   3.192   1.355   0.679
  657SOL    HW1 2870   3.263   1.422   0.700
  657SOL    HW2 2871   3.160   1.313   0.764
  658SOL     OW 2872   3.022   3.775   0.102
  658SOL    HW1 2873   3.014   3.719   0.185
  658SOL    HW2 2874   2.952   3.747   0.037
  659SOL     OW 2875   3.052   0.137   6.957
  659SOL    HW1 2876   3.101   0.051   6.950
  659SOL    HW2 2877   3.001   0.139   0.027
  660SOL     OW 2878   3.706   5.626   2.745
  660SOL    HW1 2879   3.622   5.585   2.709
  660SOL    HW2 2880   3.766   5.651   2.669
  661SOL     OW 2881   4.173   6.130   2.901
  661SOL    HW1 2882   4.149   6.135   2.804
  661SOL    HW2 2883   4.211   6.039   2.922
  662SOL     OW 2884   3.401   1.640   6.186
  662SOL    HW1 2885   3.439   1.579   6.255
  662SOL    HW2 2886   3.306   1.614   6.168
  663SOL     OW 2887   2.309   5.282   5.162
  663SOL    HW1 2888   2.247   5.300   5.085
  663SOL    HW2 2889   2.391   5.234   5.129
  664SOL     OW 2890   0.040   0.172   6.682
  664SOL    HW1 2891   0.101   0.104   6.722
  664SOL    HW2 2892   0.054   0.260   6.727
  665SOL     OW 2893   2.852   5.325   3.539
  665SOL    HW1 2894   2.945   5.327   3.576
  665SOL    HW2 2895   2.853   5.354   3.443
  666SOL     OW 2896   3.756   0.500   2.088
  666SOL    HW1 2897   3.843   0.460   2.115
  666SOL    HW2 2898   3.771   0.566   2.015
  667SOL     OW 2899   0.437   5.991   1.918
  667SOL    HW1 2900   0.478   5.957   2.002
  667SOL    HW2 2901   0.397   6.082   1.934
  668SOL     OW 2902   5.597   4.455   6.358
  668SOL    HW1 2903   5.574   4.365   6.321
  668SOL    HW2 2904   5.536   4.524   6.318
  669SOL     OW 2905   5.688   1.683   2.601
  669SOL    HW1 2906   5.625   1.690   2.679
  669SOL    HW2 2907   5.748   1.762   2.599
  670SOL     OW 2908   1.543   2.165   3.833
  670SOL    HW1 2909   1.568   2.257   3.860
  670SOL    HW2 2910   1.491   2.168   3.747
  671SOL     OW 2911   2.356   6.470   1.699
  671SOL    HW1 2912   2.338   6.553   1.752
  671SOL    HW2 2913   2.293   6.398   1.727
  672SOL     OW 2914   0.018   6.354   1.821
  672SOL    HW1 2915   0.021   6.267   1.871
  672SOL    HW2 2916   0.087   6.352   1.748
  673SOL     OW 2917   5.621   6.449   0.769
  673SOL    HW1 2918   5.578   6.360   0.750
  673SOL    HW2 2919   5.553   6.521   0.760
  674SOL     OW 2920   6.798   1.563   5.120
  674SOL    HW1 2921   6.752   1.533   5.036
  674SOL    HW2 2922   6.731   1.569   5.194
  675SOL     OW 2923   5.531   2.417   2.431
  675SOL    HW1 2924   5.462   2.346   2.442
  675SOL    HW2 2925   5.591   2.418   2.511
  676SOL     OW 2926   2.348   4.649   5.485
  676SOL    HW1 2927   2.309   4.655   5.577
  676SOL    HW2 2928   2.417   4.577   5.482
  677SOL     OW 2929   4.703   1.111   1.170
  677SOL    HW1 2930   4.717   1.099   1.072
  677SOL    HW2 2931   4.606   1.097   1.191
  678SOL     OW 2932   2.280   4.226   5.546
  678SOL    HW1 2933   2.371   4.248   5.511
  678SOL    HW2 2934   2.255   4.133   5.518
  679SOL     OW 2935   5.214   1.143   5.179
  679SOL    HW1 2936   5.140   1.162   5.244
  679SOL    HW2 2937   5.300   1.179   5.216
  680SOL     OW 2938   5.406   0.036   4.381
  680SOL    HW1 2939   5.438   6.969   4.425
  680SOL    HW2 2940   5.482   0.077   4.330
  681SOL     OW 2941   5.333   6.315   2.004
  681SOL    HW1 2942   5.270   6.313   2.081
  681SOL    HW2 2943   5.357   6.221   1.979
  682SOL     OW 2944   0.972   0.758   2.458
  682SOL    HW1 2945   1.004   0.798   2.372
  682SOL    HW2 2946   0.891   0.702   2.440
  683SOL     OW 2947   4.266   3.515   1.219
  683SOL    HW1 2948   4.299   3.571   1.143
  683SOL    HW2 2949   4.225   3.431   1.183
  684SOL     OW 2950   6.077   0.414   6.345
  684SOL    HW1 2951   6.118   0.486   6.289
  684SOL    HW2 2952   6.147   0.349   6.373
  685SOL     OW 2953   3.379   1.280   3.618
  685SOL    HW1 2954   3.422   1.272   3.529
  685SOL    HW2 2955   3.283   1.307   3.606
  686SOL     OW 2956   4.313   1.218   4.400
  686SOL    HW1 2957   4.316   1.133   4.452
  686SOL    HW2 2958   4.382   1.215   4.327
  687SOL     OW 2959   1.002   1.999   4.384
  687SOL    HW1 2960   0.918   2.050   4.364
  687SOL    HW2 2961   0.980   1.918   4.438
  688SOL     OW 2962   6.951   1.581   6.661
  688SOL    HW1 2963   6.961   1.572   6.561
  688SOL    HW2 2964   7.011   1.654   6.694
  689SOL     OW 2965   1.249   5.174   5.416
  689SOL    HW1 2966   1.341   5.153   5.450
  689SOL    HW2 2967   1.212   5.251   5.468
  690SOL     OW 2968   6.106   3.653   2.863
  690SOL    HW1 2969   6.174   3.635   2.792
  690SOL    HW2 2970   6.088   3.569   2.914
  691SOL     OW 2971   3.931   1.699   6.906
  691SOL    HW1 2972   3.888   1.688   6.817
  691SOL    HW2 2973   3.881   1.645   6.974
  692SOL     OW 2974   3.072   1.715   5.075
  692SOL    HW1 2975   3.148   1.774   5.103
  692SOL    HW2 2976   3.012   1.766   5.013
  693SOL     OW 2977   4.925   6.089   3.201
  693SOL    HW1 2978   4.923   6.169   3.261
  693SOL    HW2 2979   4.835   6.076   3.160
  694SOL     OW 2980   4.142   5.784   4.592
  694SOL    HW1 2981   4.171   5.798   4.687
  694SOL    HW2 2982   4.209   5.726   4.546
  695SOL     OW 2983   3.043   6.187   3.934
  695SOL    HW1 2984   2.992   6.184   4.020
  695SOL    HW2 2985   3.061   6.283   3.909
  696SOL     OW 2986   4.854   3.987   3.245
  696SOL    HW1 2987   4.812   3.979   3.336
  696SOL    HW2 2988   4.876   3.896   3.211
  697SOL     OW 2989   0.942   4.297   1.825
  697SOL    HW1 2990   0.972   4.233   1.754
  697SOL    HW2 2991   0.885   4.368   1.784
  698SOL     OW 2992   4.587   6.954   1.269
  698SOL    HW1 2993   4.615   6.883   1.205
  698SOL    HW2 2994   4.630   6.938   1.358
  699SOL     OW 2995   2.841   2.308   0.543
  699SOL    HW1 2996   2.870   2.225   0.496
  699SOL    HW2 2997   2.914   2.376   0.539
  700SOL     OW 2998   3.294   0.239   2.751
  700SOL    HW1 2999   3.323   0.158   2.802
  700SOL    HW2 3000   3.220   0.215   2.688
  701SOL     OW 3001   6.360   4.708   1.242
  701SOL    HW1 3002   6.333   4.746   1.154
  701SOL    HW2 3003   6.279   4.697   1.299
  702SOL     OW 3004   2.961   1.239   4.319
  702SOL    HW1 3005   3.038   1.264   4.377
  702SOL    HW2 3006   2.957   1.139   4.310
  703SOL     OW 3007   2.852   3.048   5.849
  703SOL    HW1 3008   2.903   3.115   5.794
  703SOL    HW2 3009   2.828   2.970   5.791
  704SOL     OW 3010   1.407   2.873   6.333
  704SOL    HW1 3011   1.381   2.849   6.240
  704SOL    HW2 3012   1.416   2.973   6.340
  705SOL     OW 3013   0.079   6.005   4.108
  705SOL    HW1 3014   0.001   6.062   4.134
  705SOL    HW2 3015   0.048   5.911   4.092
  706SOL     OW 3016   4.294   0.781   5.469
  706SOL    HW1 3017   4.222   0.793   5.537
  706SOL    HW2 3018   4.361   0.855   5.477
  707SOL     OW 3019   3.464   5.094   3.691
  707SOL    HW1 3020   3.503   5.183   3.713
  707SOL    HW2 3021   3.512   5.054   3.613
  708SOL     OW 3022   2.803   0.778   3.356
  708SOL    HW1 3023   2.708   0.770   3.326
  708SOL    HW2 3024   2.831   0.694   3.403
  709SOL     OW 3025   1.945   0.143   1.848
  709SOL    HW1 3026   1.861   0.172   1.803
  709SOL    HW2 3027   2.020   0.205   1.823
  710SOL     OW 3028   4.952   2.866   1.716
  710SOL    HW1 3029   4.855   2.845   1.730
  710SOL    HW2 3030   4.982   2.930   1.786
  711SOL     OW 3031   0.401   2.501   5.538
  711SOL    HW1 3032   0.315   2.547   5.515
  711SOL    HW2 3033   0.453   2.558   5.602
  712SOL     OW 3034   4.360   2.498   0.825
  712SOL    HW1 3035   4.427   2.449   0.769
  712SOL    HW2 3036   4.407   2.548   0.898
  713SOL     OW 3037   3.965   2.779   5.307
  713SOL    HW1 3038   4.023   2.711   5.263
  713SOL    HW2 3039   3.869   2.759   5.287
  714SOL     OW 3040   5.901   4.619   3.397
  714SOL    HW1 3041   5.987   4.593   3.440
  714SOL    HW2 3042   5.877   4.712   3.424
  715SOL     OW 3043   6.432   5.099   5.775
  715SOL    HW1 3044   6.420   5.145   5.863
  715SOL    HW2 3045   6.426   5.166   5.701
  716SOL     OW 3046   2.088   1.051   2.664
  716SOL    HW1 3047   2.144   0.982   2.710
  716SOL    HW2 3048   2.108   1.141   2.703
  717SOL     OW 3049   5.387   5.057   3.560
  717SOL    HW1 3050   5.458   5.059   3.630
  717SOL    HW2 3051   5.338   4.970   3.565
  718SOL     OW 3052   5.065   1.817   4.225
  718SOL    HW1 3053   5.012   1.733   4.213
  718SOL    HW2 3054   5.003   1.895   4.236
  719SOL     OW 3055   6.469   0.722   2.696
  719SOL    HW1 3056   6.452   0.742   2.599
  719SOL    HW2 3057   6.559   0.680   2.706
  720SOL     OW 3058   1.761   1.221   6.747
  720SOL    HW1 3059   1.754   1.134   6.699
  720SOL    HW2 3060   1.685   1.280   6.721
  721SOL     OW 3061   0.105   2.603   2.438
  721SOL    HW1 3062   0.172   2.677   2.437
  721SOL    HW2 3063   0.016   2.638   2.409
  722SOL     OW 3064   4.201   0.164   6.671
  722SOL    HW1 3065   4.216   0.225   6.750
  722SOL    HW2 3066   4.271   0.182   6.602
  723SOL     OW 3067   2.096   6.401   3.592
  723SOL    HW1 3068   2.006   6.400   3.635
  723SOL    HW2 3069   2.091   6.357   3.503
  724SOL     OW 3070   0.917   1.334   3.594
  724SOL    HW1 3071   0.953   1.398   3.526
  724SOL    HW2 3072   0.987   1.319   3.664
  725SOL     OW 3073   2.254   4.680   2.189
  725SOL    HW1 3074   2.323   4.610   2.208
  725SOL    HW2 3075   2.293   4.770   2.206
  726SOL     OW 3076   2.217   5.089   0.347
  726SOL    HW1 3077   2.136   5.063   0.399
  726SOL    HW2 3078   2.293   5.107   0.409
  727SOL     OW 3079   4.221   5.239   5.869
  727SOL    HW1 3080   4.257   5.325   5.907
  727SOL    HW2 3081   4.121   5.237   5.882
  728SOL     OW 3082   0.056   3.361   4.721
  728SOL    HW1 3083   0.119   3.332   4.793
  728SOL    HW2 3084   0.003   3.282   4.689
  729SOL     OW 3085   0.295   3.241   1.246
  729SOL    HW1 3086   0.200   3.272   1.247
  729SOL    HW2 3087   0.356   3.320   1.246
  730SOL     OW 3088   4.502   0.767   3.082
  730SOL    HW1 3089   4.591   0.796   3.119
  730SOL    HW2 3090   4.454   0.846   3.046
  731SOL     OW 3091   4.597   4.518   6.837
  731SOL    HW1 3092   4.563   4.444   6.779
  731SOL    HW2 3093   4.696   4.529   6.821
  732SOL     OW 3094   4.689   1.619   2.910
  732SOL    HW1 3095   4.746   1.674   2.971
  732SOL    HW2 3096   4.708   1.522   2.927
  733SOL     OW 3097   5.799   6.373   3.367
  733SOL    HW1 3098   5.801   6.403   3.462
  733SOL    HW2 3099   5.802   6.273   3.363
  734SOL     OW 3100   6.068   5.090   2.737
  734SOL    HW1 3101   5.969   5.081   2.744
  734SOL    HW2 3102   6.099   5.160   2.802
  735SOL     OW 3103   5.991   0.478   1.733
  735SOL    HW1 3104   6.026   0.555   1.680
  735SOL    HW2 3105   5.981   0.505   1.829
  736SOL     OW 3106   1.519   1.232   4.332
  736SOL    HW1 3107   1.561   1.294   4.266
  736SOL    HW2 3108   1.563   1.242   4.421
  737SOL     OW 3109   6.039   1.017   6.374
  737SOL    HW1 3110   6.095   0.940   6.405
  737SOL    HW2 3111   5.953   0.982   6.335
  738SOL     OW 3112   2.567   4.163   1.240
  738SOL    HW1 3113   2.555   4.137   1.144
  738SOL    HW2 3114   2.478   4.177   1.282
  739SOL     OW 3115   2.851   6.804   4.968
  739SOL    HW1 3116   2.790   6.844   5.035
  739SOL    HW2 3117   2.899   6.877   4.919
  740SOL     OW 3118   5.773   2.168   2.942
  740SOL    HW1 3119   5.801   2.162   3.038
  740SOL    HW2 3120   5.675   2.150   2.935
  741SOL     OW 3121   2.550   0.613   4.261
  741SOL    HW1 3122   2.575   0.678   4.188
  741SOL    HW2 3123   2.458   0.635   4.295
  742SOL     OW 3124   1.568   6.384   0.716
  742SOL    HW1 3125   1.586   6.292   0.683
  742SOL    HW2 3126   1.530   6.380   0.809
  743SOL     OW 3127   1.080   6.637   3.826
  743SOL    HW1 3128   1.084   6.538   3.835
  743SOL    HW2 3129   0.997   6.663   3.777
  744SOL     OW 3130   5.730   1.300   0.425
  744SOL    HW1 3131   5.682   1.215   0.403
  744SOL    HW2 3132   5.743   1.307   0.523
  745SOL     OW 3133   2.630   5.567   4.858
  745SOL    HW1 3134   2.533   5.588   4.855
  745SOL    HW2 3135   2.643   5.469   4.874
  746SOL     OW 3136   5.584   4.460   5.114
  746SOL    HW1 3137   5.535   4.411   5.042
  746SOL    HW2 3138   5.675   4.484   5.081
  747SOL     OW 3139   5.296   5.326   3.051
  747SOL    HW1 3140   5.348   5.241   3.053
  747SOL    HW2 3141   5.335   5.391   3.115
  748SOL     OW 3142   5.316   5.809   2.388
  748SOL    HW1 3143   5.265   5.857   2.459
  748SOL    HW2 3144   5.374   5.739   2.430
  749SOL     OW 3145   4.960   4.238   3.599
  749SOL    HW1 3146   5.004   4.326   3.580
  749SOL    HW2 3147   4.920   4.239   3.690
  750SOL     OW 3148   2.354   1.815   1.548
  750SOL    HW1 3149   2.314   1.770   1.627
  750SOL    HW2 3150   2.385   1.745   1.482
  751SOL     OW 3151   4.673   1.471   0.292
  751SOL    HW1 3152   4.739   1.396   0.297
  751SOL    HW2 3153   4.717   1.556   0.322
  752SOL     OW 3154   3.435   2.576   5.350
  752SOL    HW1 3155   3.398   2.664   5.381
  752SOL    HW2 3156   3.367   2.530   5.293
  753SOL     OW 3157   3.873   3.688   5.166
  753SOL    HW1 3158   3.928   3.653   5.241
  753SOL    HW2 3159   3.884   3.629   5.086
  754SOL     OW 3160   5.598   0.675   6.529
  754SOL    HW1 3161   5.574   0.627   6.444
  754SOL    HW2 3162   5.608   0.608   6.603
  755SOL     OW 3163   3.070   4.188   5.480
  755SOL    HW1 3164   2.988   4.133   5.497
  755SOL    HW2 3165   3.115   4.156   5.397
  756SOL     OW 3166   2.617   5.642   6.687
  756SOL    HW1 3167   2.694   5.638   6.623
  756SOL    HW2 3168   2.538   5.681   6.642
  757SOL     OW 3169   2.052   6.661   2.392
  757SOL    HW1 3170   2.080   6.682   2.299
  757SOL    HW2 3171   2.003   6.574   2.394
  758SOL     OW 3172   3.734   1.270   4.418
  758SOL    HW1 3173   3.795   1.262   4.497
  758SOL    HW2 3174   3.742   1.362   4.380
  759SOL     OW 3175   0.433   3.350   3.964
  759SOL    HW1 3176   0.445   3.308   4.054
  759SOL    HW2 3177   0.498   3.425   3.953
  760SOL     OW 3178   0.207   0.210   3.744
  760SOL    HW1 3179   0.122   0.178   3.787
  760SOL    HW2 3180   0.243   0.138   3.684
  761SOL     OW 3181   4.962   3.947   5.293
  761SOL    HW1 3182   4.974   4.022   5.358
  761SOL    HW2 3183   4.950   3.984   5.201
  762SOL     OW 3184   2.810   6.007   5.437
  762SOL    HW1 3185   2.735   6.072   5.448
  762SOL    HW2 3186   2.896   6.050   5.461
  763SOL     OW 3187   5.988   0.529   6.940
  763SOL    HW1 3188   5.950   0.436   6.935
  763SOL    HW2 3189   5.922   0.594   6.904
  764SOL     OW 3190   5.557   0.092   5.420
  764SOL    HW1 3191   5.486   0.066   5.355
  764SOL    HW2 3192   5.605   0.173   5.387
  765SOL     OW 3193   0.784   6.686   0.908
  765SOL    HW1 3194   0.725   6.655   0.983
  765SOL    HW2 3195   0.728   6.706   0.828
  766SOL     OW 3196   1.705   2.285   5.178
  766SOL    HW1 3197   1.746   2.345   5.109
  766SOL    HW2 3198   1.770   2.269   5.252
  767SOL     OW 3199   0.102   6.996   4.277
  767SOL    HW1 3200   0.023   7.007   4.217
  767SOL    HW2 3201   0.184   6.980   4.222
  768SOL     OW 3202   2.391   6.122   2.260
  768SOL    HW1 3203   2.479   6.161   2.286
  768SOL    HW2 3204   2.319   6.189   2.276
  769SOL     OW 3205   2.893   1.864   4.861
  769SOL    HW1 3206   2.809   1.892   4.907
  769SOL    HW2 3207   2.924   1.938   4.801
  770SOL     OW 3208   2.391   4.707   4.338
  770SOL    HW1 3209   2.440   4.622   4.357
  770SOL    HW2 3210   2.375   4.716   4.240
  771SOL     OW 3211   1.280   5.229   2.501
  771SOL    HW1 3212   1.281   5.189   2.409
  771SOL    HW2 3213   1.199   5.286   2.512
  772SOL     OW 3214   4.909   5.271   6.499
  772SOL    HW1 3215   4.951   5.340   6.440
  772SOL    HW2 3216   4.816   5.300   6.523
  773SOL     OW 3217   0.890   3.458   3.736
  773SOL    HW1 3218   0.986   3.486   3.744
  773SOL    HW2 3219   0.884   3.358   3.739
  774SOL     OW 3220   1.947   1.581   3.345
  774SOL    HW1 3221   1.965   1.484   3.333
  774SOL    HW2 3222   1.855   1.593   3.382
  775SOL     OW 3223   2.242   3.966   3.880
  775SOL    HW1 3224   2.293   3.969   3.794
  775SOL    HW2 3225   2.160   3.910   3.868
  776SOL     OW 3226   1.408   6.774   6.418
  776SOL    HW1 3227   1.468   6.759   6.497
  776SOL    HW2 3228   1.455   6.831   6.351
  777SOL     OW 3229   1.816   3.664   6.865
  777SOL    HW1 3230   1.810   3.715   6.950
  777SOL    HW2 3231   1.907   3.674   6.826
  778SOL     OW 3232   3.598   6.657   1.738
  778SOL    HW1 3233   3.609   6.725   1.810
  778SOL    HW2 3234   3.678   6.597   1.736
  779SOL     OW 3235   0.265   2.680   2.054
  779SOL    HW1 3236   0.197   2.625   2.103
  779SOL    HW2 3237   0.307   2.625   1.983
  780SOL     OW 3238   1.643   1.967   5.113
  780SOL    HW1 3239   1.638   2.063   5.138
  780SOL    HW2 3240   1.721   1.924   5.158
  781SOL     OW 3241   0.752   4.107   0.727
  781SOL    HW1 3242   0.764   4.043   0.651
  781SOL    HW2 3243   0.654   4.119   0.744
  782SOL     OW 3244   1.725   3.803   6.258
  782SOL    HW1 3245   1.752   3.715   6.297
  782SOL    HW2 3246   1.806   3.848   6.219
  783SOL     OW 3247   5.384   4.257   6.815
  783SOL    HW1 3248   5.322   4.330   6.842
  783SOL    HW2 3249   5.405   4.265   6.717
  784SOL     OW 3250   3.435   6.166   1.291
  784SOL    HW1 3251   3.525   6.150   1.252
  784SOL    HW2 3252   3.428   6.262   1.321
  785SOL     OW 3253   0.641   0.306   4.287
  785SOL    HW1 3254   0.556   0.258   4.305
  785SOL    HW2 3255   0.703   0.246   4.236
  786SOL     OW 3256   6.604   1.430   3.589
  786SOL    HW1 3257   6.648   1.431   3.499
  786SOL    HW2 3258   6.669   1.463   3.658
  787SOL     OW 3259   2.510   7.002   0.149
  787SOL    HW1 3260   2.484   0.081   0.136
  787SOL    HW2 3261   2.497   6.976   0.245
  788SOL     OW 3262   3.901   3.153   1.140
  788SOL    HW1 3263   3.965   3.083   1.171
  788SOL    HW2 3264   3.906   3.232   1.201
  789SOL     OW 3265   4.239   5.530   1.542
  789SOL    HW1 3266   4.305   5.540   1.467
  789SOL    HW2 3267   4.282   5.558   1.627
  790SOL     OW 3268   0.403   3.049   2.064
  790SOL    HW1 3269   0.464   2.972   2.083
  790SOL    HW2 3270   0.415   3.079   1.969
  791SOL     OW 3271   3.182   4.970   5.439
  791SOL    HW1 3272   3.235   5.051   5.413
  791SOL    HW2 3273   3.094   4.971   5.392
  792SOL     OW 3274   1.108   1.128   1.030
  792SOL    HW1 3275   1.069   1.083   0.950
  792SOL    HW2 3276   1.207   1.117   1.031
  793SOL     OW 3277   3.802   5.604   3.546
  793SOL    HW1 3278   3.791   5.507   3.526
  793SOL    HW2 3279   3.875   5.615   3.613
  794SOL     OW 3280   3.027   3.111   3.901
  794SOL    HW1 3281   3.090   3.060   3.842
  794SOL    HW2 3282   2.981   3.181   3.847
  795SOL     OW 3283   3.800   1.127   6.483
  795SOL    HW1 3284   3.719   1.142   6.428
  795SOL    HW2 3285   3.859   1.208   6.480
  796SOL     OW 3286   1.848   3.350   6.565
  796SOL    HW1 3287   1.828   3.328   6.660
  796SOL    HW2 3288   1.920   3.289   6.531
  797SOL     OW 3289   4.952   0.039   0.128
  797SOL    HW1 3290   4.946   0.022   0.030
  797SOL    HW2 3291   4.881   7.005   0.176
  798SOL     OW 3292   3.811   6.369   1.078
  798SOL    HW1 3293   3.716   6.396   1.092
  798SOL    HW2 3294   3.833   6.373   0.980
  799SOL     OW 3295   1.314   1.586   6.681
  799SOL    HW1 3296   1.284   1.499   6.720
  799SOL    HW2 3297   1.288   1.589   6.584
  800SOL     OW 3298   6.503   1.998   1.922
  800SOL    HW1 3299   6.445   2.075   1.950
  800SOL    HW2 3300   6.529   2.009   1.826
  801SOL     OW 3301   2.061   5.139   5.524
  801SOL    HW1 3302   2.025   5.232   5.525
  801SOL    HW2 3303   2.107   5.122   5.436
  802SOL     OW 3304   5.118   2.452   0.159
  802SOL    HW1 3305   5.158   2.363   0.180
  802SOL    HW2 3306   5.086   2.453   0.064
  803SOL     OW 3307   2.689   0.928   5.681
  803SOL    HW1 3308   2.670   0.839   5.722
  803SOL    HW2 3309   2.742   0.915   5.597
  804SOL     OW 3310   6.418   0.491   1.427
  804SOL    HW1 3311   6.463   0.479   1.516
  804SOL    HW2 3312   6.385   0.585   1.420
  805SOL     OW 3313   3.092   1.241   3.854
  805SOL    HW1 3314   3.039   1.215   3.935
  805SOL    HW2 3315   3.168   1.299   3.882
  806SOL     OW 3316   1.344   6.655   5.167
  806SOL    HW1 3317   1.318   6.614   5.255
  806SOL    HW2 3318   1.301   6.745   5.158
  807SOL     OW 3319   0.342   6.387   5.235
  807SOL    HW1 3320   0.381   6.463   5.287
  807SOL    HW2 3321   0.357   6.403   5.137
  808SOL     OW 3322   5.628   3.069   0.409
  808SOL    HW1 3323   5.548   3.010   0.399
  808SOL    HW2 3324   5.643   3.120   0.324
  809SOL     OW 3325   1.225   5.502   0.242
  809SOL    HW1 3326   1.152   5.435   0.254
  809SOL    HW2 3327   1.224   5.568   0.317
  810SOL     OW 3328   2.833   3.246   0.235
  810SOL    HW1 3329   2.819   3.282   0.327
  810SOL    HW2 3330   2.928   3.260   0.207
  811SOL     OW 3331   5.702   5.168   4.489
  811SOL    HW1 3332   5.777   5.189   4.426
  811SOL    HW2 3333   5.615   5.197   4.448
  812SOL     OW 3334   0.731   2.602   2.368
  812SOL    HW1 3335   0.710   2.539   2.293
  812SOL    HW2 3336   0.660   2.672   2.373
  813SOL     OW 3337   1.426   1.729   4.676
  813SOL    HW1 3338   1.368   1.653   4.647
  813SOL    HW2 3339   1.395   1.761   4.766
  814SOL     OW 3340   0.820   5.691   3.126
  814SOL    HW1 3341   0.840   5.668   3.031
  814SOL    HW2 3342   0.721   5.701   3.137
  815SOL     OW 3343   4.909   2.034   4.266
  815SOL    HW1 3344   4.817   1.999   4.246
  815SOL    HW2 3345   4.902   2.113   4.328
  816SOL     OW 3346   5.259   3.303   0.467
  816SOL    HW1 3347   5.298   3.216   0.437
  816SOL    HW2 3348   5.259   3.306   0.567
  817SOL     OW 3349   1.546   5.242   0.659
  817SOL    HW1 3350   1.598   5.159   0.681
  817SOL    HW2 3351   1.519   5.287   0.744
  818SOL     OW 3352   5.624   3.057   3.597
  818SOL    HW1 3353   5.534   3.019   3.616
  818SOL    HW2 3354   5.627   3.089   3.502
  819SOL     OW 3355   5.117   2.222   1.934
  819SOL    HW1 3356   5.075   2.310   1.912
  819SOL    HW2 3357   5.164   2.228   2.022
  820SOL     OW 3358   2.262   1.892   4.862
  820SOL    HW1 3359   2.165   1.868   4.866
  820SOL    HW2 3360   2.272   1.989   4.841
  821SOL     OW 3361   5.586   3.836   5.276
  821SOL    HW1 3362   5.588   3.794   5.367
  821SOL    HW2 3363   5.576   3.764   5.207
  822SOL     OW 3364   1.129   4.497   3.846
  822SOL    HW1 3365   1.095   4.459   3.759
  822SOL    HW2 3366   1.140   4.423   3.912
  823SOL     OW 3367   0.755   3.507   5.979
  823SOL    HW1 3368   0.698   3.425   5.987
  823SOL    HW2 3369   0.816   3.513   6.058
  824SOL     OW 3370   5.720   1.209   5.310
  824SOL    HW1 3371   5.718   1.224   5.409
  824SOL    HW2 3372   5.815   1.200   5.280
  825SOL     OW 3373   6.341   6.097   0.869
  825SOL    HW1 3374   6.354   6.115   0.772
  825SOL    HW2 3375   6.257   6.045   0.882
  826SOL     OW 3376   3.768   1.390   5.750
  826SOL    HW1 3377   3.727   1.344   5.671
  826SOL    HW2 3378   3.859   1.423   5.726
  827SOL     OW 3379   3.249   3.779   4.342
  827SOL    HW1 3380   3.247   3.679   4.339
  827SOL    HW2 3381   3.156   3.815   4.335
  828SOL     OW 3382   5.966   5.776   4.771
  828SOL    HW1 3383   5.883   5.720   4.764
  828SOL    HW2 3384   6.025   5.757   4.693
  829SOL     OW 3385   3.355   2.972   3.369
  829SOL    HW1 3386   3.269   2.924   3.388
  829SOL    HW2 3387   3.354   3.061   3.415
  830SOL     OW 3388   6.838   4.647   6.758
  830SOL    HW1 3389   6.883   4.683   6.840
  830SOL    HW2 3390   6.819   4.723   6.695
  831SOL     OW 3391   5.561   6.286   1.217
  831SOL    HW1 3392   5.526   6.206   1.266
  831SOL    HW2 3393   5.650   6.311   1.254
  832SOL     OW 3394   3.401   1.905   4.939
  832SOL    HW1 3395   3.369   1.844   5.011
  832SOL    HW2 3396   3.428   1.851   4.859
  833SOL     OW 3397   1.745   3.341   6.124
  833SOL    HW1 3398   1.685   3.407   6.080
  833SOL    HW2 3399   1.834   3.383   6.142
  834SOL     OW 3400   4.693   3.897   6.867
  834SOL    HW1 3401   4.718   3.894   6.770
  834SOL    HW2 3402   4.692   3.804   6.904
  835SOL     OW 3403   1.216   0.396   3.993
  835SOL    HW1 3404   1.269   0.442   4.065
  835SOL    HW2 3405   1.155   0.328   4.035
  836SOL     OW 3406   3.380   1.301   5.446
  836SOL    HW1 3407   3.384   1.218   5.501
  836SOL    HW2 3408   3.353   1.279   5.353
  837SOL     OW 3409   1.382   0.288   0.858
  837SOL    HW1 3410   1.372   0.360   0.925
  837SOL    HW2 3411   1.398   0.201   0.904
  838SOL     OW 3412   2.075   5.574   3.692
  838SOL    HW1 3413   2.165   5.552   3.655
  838SOL    HW2 3414   2.005   5.546   3.627
  839SOL     OW 3415   1.685   1.514   1.284
  839SOL    HW1 3416   1.627   1.484   1.358
  839SOL    HW2 3417   1.757   1.574   1.320
  840SOL     OW 3418   5.512   5.309   0.129
  840SOL    HW1 3419   5.531   5.259   0.044
  840SOL    HW2 3420   5.547   5.402   0.121
  841SOL     OW 3421   3.732   4.698   5.349
  841SOL    HW1 3422   3.790   4.746   5.415
  841SOL    HW2 3423   3.683   4.765   5.293
  842SOL     OW 3424   3.093   0.282   0.330
  842SOL    HW1 3425   3.021   0.334   0.375
  842SOL    HW2 3426   3.128   0.212   0.392
  843SOL     OW 3427   1.376   1.687   1.859
  843SOL    HW1 3428   1.287   1.714   1.896
  843SOL    HW2 3429   1.444   1.757   1.880
  844SOL     OW 3430   6.773   0.113   1.108
  844SOL    HW1 3431   6.684   0.079   1.077
  844SOL    HW2 3432   6.763   0.207   1.140
  845SOL     OW 3433   3.495   1.581   2.742
  845SOL    HW1 3434   3.438   1.589   2.660
  845SOL    HW2 3435   3.446   1.619   2.820
  846SOL     OW 3436   2.378   1.751   0.249
  846SOL    HW1 3437   2.443   1.820   0.215
  846SOL    HW2 3438   2.344   1.697   0.172
  847SOL     OW 3439   2.552   3.620   1.503
  847SOL    HW1 3440   2.467   3.609   1.554
  847SOL    HW2 3441   2.592   3.529   1.485
  848SOL     OW 3442   6.712   6.513   6.091
  848SOL    HW1 3443   6.686   6.607   6.070
  848SOL    HW2 3444   6.630   6.456   6.097
  849SOL     OW 3445   5.848   3.977   0.035
  849SOL    HW1 3446   5.943   3.956   0.013
  849SOL    HW2 3447   5.796   3.987   6.967
  850SOL     OW 3448   7.007   0.618   5.422
  850SOL    HW1 3449   0.036   0.678   5.356
  850SOL    HW2 3450   6.975   0.535   5.375
  851SOL     OW 3451   6.550   2.973   6.174
  851SOL    HW1 3452   6.622   3.030   6.214
  851SOL    HW2 3453   6.495   2.934   6.248
  852SOL     OW 3454   6.985   3.767   1.928
  852SOL    HW1 3455   6.936   3.797   1.847
  852SOL    HW2 3456   0.033   3.695   1.903
  853SOL     OW 3457   1.945   4.048   0.151
  853SOL    HW1 3458   1.852   4.056   0.113
  853SOL    HW2 3459   1.952   4.103   0.234
  854SOL     OW 3460   6.314   6.167   6.792
  854SOL    HW1 3461   6.357   6.082   6.763
  854SOL    HW2 3462   6.383   6.226   6.834
  855SOL     OW 3463   6.907   1.018   0.088
  855SOL    HW1 3464   6.835   1.080   0.119
  855SOL    HW2 3465   6.888   0.925   0.121
  856SOL     OW 3466   2.157   6.664   6.807
  856SOL    HW1 3467   2.061   6.636   6.808
  856SOL    HW2 3468   2.169   6.745   6.865
  857SOL     OW 3469   6.905   4.933   4.152
  857SOL    HW1 3470   6.876   4.850   4.105
  857SOL    HW2 3471   6.925   5.004   4.085
  858SOL     OW 3472   3.859   3.974   0.524
  858SOL    HW1 3473   3.875   3.913   0.602
  858SOL    HW2 3474   3.792   3.932   0.462
  859SOL     OW 3475   4.109   0.061   5.218
  859SOL    HW1 3476   4.137   0.146   5.174
  859SOL    HW2 3477   4.189   0.017   5.260
  860SOL     OW 3478   5.058   2.693   5.368
  860SOL    HW1 3479   5.156   2.681   5.386
  860SOL    HW2 3480   5.005   2.667   5.448
  861SOL     OW 3481   1.849   5.872   2.743
  861SOL    HW1 3482   1.932   5.865   2.688
  861SOL    HW2 3483   1.786   5.798   2.719
  862SOL     OW 3484   1.729   4.663   3.597
  862SOL    HW1 3485   1.754   4.685   3.691
  862SOL    HW2 3486   1.668   4.584   3.596
  863SOL     OW 3487   0.014   0.406   5.977
  863SOL    HW1 3488   7.009   0.326   6.034
  863SOL    HW2 3489   6.949   0.463   5.968
  864SOL     OW 3490   4.882   7.002   5.319
  864SOL    HW1 3491   4.944   0.024   5.251
  864SOL    HW2 3492   4.834   0.060   5.366
  865SOL     OW 3493   1.956   5.917   4.284
  865SOL    HW1 3494   1.959   5.825   4.246
  865SOL    HW2 3495   1.983   5.914   4.380
  866SOL     OW 3496   2.484   6.519   2.013
  866SOL    HW1 3497   2.456   6.515   2.109
  866SOL    HW2 3498   2.513   6.428   1.983
  867SOL     OW 3499   5.711   1.951   0.491
  867SOL    HW1 3500   5.677   1.862   0.519
  867SOL    HW2 3501   5.744   2.001   0.571
  868SOL     OW 3502   6.911   2.575   2.057
  868SOL    HW1 3503   6.912   2.614   2.149
  868SOL    HW2 3504   6.825   2.527   2.042
  869SOL     OW 3505   0.104   4.020   3.972
  869SOL    HW1 3506   0.085   4.077   4.052
  869SOL    HW2 3507   0.132   3.929   4.002
  870SOL     OW 3508   3.251   5.012   1.332
  870SOL    HW1 3509   3.281   5.001   1.427
  870SOL    HW2 3510   3.260   4.924   1.284
  871SOL     OW 3511   4.626   1.741   3.514
  871SOL    HW1 3512   4.672   1.717   3.599
  871SOL    HW2 3513   4.641   1.669   3.447
  872SOL     OW 3514   6.683   2.639   4.331
  872SOL    HW1 3515   6.759   2.692   4.368
  872SOL    HW2 3516   6.638   2.692   4.259
  873SOL     OW 3517   4.144   6.501   5.344
  873SOL    HW1 3518   4.061   6.495   5.400
  873SOL    HW2 3519   4.139   6.435   5.269
  874SOL     OW 3520   5.625   3.990   0.297
  874SOL    HW1 3521   5.694   3.925   0.267
  874SOL    HW2 3522   5.623   4.068   0.234
  875SOL     OW 3523   5.141   5.354   1.068
  875SOL    HW1 3524   5.114   5.390   1.157
  875SOL    HW2 3525   5.126   5.255   1.066
  876SOL     OW 3526   0.337   5.445   2.176
  876SOL    HW1 3527   0.362   5.536   2.144
  876SOL    HW2 3528   0.284   5.398   2.106
  877SOL     OW 3529   2.931   4.544   7.000
  877SOL    HW1 3530   2.908   4.607   0.057
  877SOL    HW2 3531   2.960   4.596   6.919
  878SOL     OW 3532   4.113   6.751   3.885
  878SOL    HW1 3533   4.185   6.701   3.837
  878SOL    HW2 3534   4.070   6.817   3.824
  879SOL     OW 3535   4.337   0.450   0.431
  879SOL    HW1 3536   4.418   0.487   0.385
  879SOL    HW2 3537   4.289   0.525   0.478
  880SOL     OW 3538   2.922   3.613   3.791
  880SOL    HW1 3539   2.910   3.663   3.705
  880SOL    HW2 3540   2.991   3.659   3.847
  881SOL     OW 3541   4.445   2.635   5.186
  881SOL    HW1 3542   4.432   2.717   5.243
  881SOL    HW2 3543   4.379   2.565   5.214
  882SOL     OW 3544   0.888   3.240   4.708
  882SOL    HW1 3545   0.970   3.277   4.751
  882SOL    HW2 3546   0.828   3.315   4.680
  883SOL     OW 3547   3.109   0.104   2.585
  883SOL    HW1 3548   3.019   0.103   2.629
  883SOL    HW2 3549   3.129   0.196   2.552
  884SOL     OW 3550   4.880   3.089   5.020
  884SOL    HW1 3551   4.837   3.167   5.066
  884SOL    HW2 3552   4.926   3.032   5.088
  885SOL     OW 3553   3.003   1.586   5.765
  885SOL    HW1 3554   2.996   1.487   5.775
  885SOL    HW2 3555   2.923   1.620   5.716
  886SOL     OW 3556   3.434   0.595   0.215
  886SOL    HW1 3557   3.433   0.694   0.208
  886SOL    HW2 3558   3.354   0.557   0.166
  887SOL     OW 3559   3.690   0.050   3.929
  887SOL    HW1 3560   3.758   0.080   3.996
  887SOL    HW2 3561   3.604   0.029   3.976
  888SOL     OW 3562   0.648   0.871   3.073
  888SOL    HW1 3563   0.613   0.913   2.989
  888SOL    HW2 3564   0.748   0.878   3.075
  889SOL     OW 3565   0.510   3.746   0.187
  889SOL    HW1 3566   0.592   3.777   0.138
  889SOL    HW2 3567   0.433   3.805   0.164
  890SOL     OW 3568   1.768   5.495   3.748
  890SOL    HW1 3569   1.782   5.495   3.649
  890SOL    HW2 3570   1.713   5.574   3.775
  891SOL     OW 3571   5.084   5.512   1.295
  891SOL    HW1 3572   5.113   5.566   1.216
  891SOL    HW2 3573   5.110   5.560   1.379
  892SOL     OW 3574   2.515   3.999   5.586
  892SOL    HW1 3575   2.420   3.971   5.598
  892SOL    HW2 3576   2.573   3.952   5.653
  893SOL     OW 3577   2.472   6.175   2.610
  893SOL    HW1 3578   2.445   6.203   2.518
  893SOL    HW2 3579   2.390   6.168   2.668
  894SOL     OW 3580   1.021   3.407   1.744
  894SOL    HW1 3581   0.961   3.486   1.730
  894SOL    HW2 3582   1.105   3.437   1.790
  895SOL     OW 3583   0.279   5.377   3.239
  895SOL    HW1 3584   0.211   5.390   3.311
  895SOL    HW2 3585   0.235   5.338   3.158
  896SOL     OW 3586   6.034   5.242   0.546
  896SOL    HW1 3587   5.953   5.262   0.601
  896SOL    HW2 3588   6.025   5.151   0.504
  897SOL     OW 3589   4.991   1.074   0.578
  897SOL    HW1 3590   5.075   1.036   0.617
  897SOL    HW2 3591   4.983   1.044   0.482
  898SOL     OW 3592   3.479   6.113   2.612
  898SOL    HW1 3593   3.492   6.064   2.698
  898SOL    HW2 3594   3.397   6.078   2.567
  899SOL     OW 3595   0.460   5.444   6.176
  899SOL    HW1 3596   0.405   5.505   6.118
  899SOL    HW2 3597   0.510   5.499   6.243
  900SOL     OW 3598   6.013   6.889   0.137
  900SOL    HW1 3599   6.021   6.792   0.160
  900SOL    HW2 3600   6.087   6.915   0.074
  901SOL     OW 3601   2.204   0.372   2.647
  901SOL    HW1 3602   2.206   0.462   2.691
  901SOL    HW2 3603   2.164   0.381   2.556
  902SOL     OW 3604   0.013   3.471   0.443
  902SOL    HW1 3605   7.014   3.414   0.362
  902SOL    HW2 3606   0.031   3.412   0.522
  903SOL     OW 3607   0.124   2.074   6.298
  903SOL    HW1 3608   0.186   2.001   6.327
  903SOL    HW2 3609   0.062   2.040   6.228
  904SOL     OW 3610   2.870   2.248   3.726
  904SOL    HW1 3611   2.892   2.208   3.637
  904SOL    HW2 3612   2.771   2.249   3.739
  905SOL     OW 3613   5.294   2.256   0.225
  905SOL    HW1 3614   5.338   2.166   0.233
  905SOL    HW2 3615   5.297   2.287   0.130
  906SOL     OW 3616   0.487   2.228   5.960
  906SOL    HW1 3617   0.461   2.323   5.980
  906SOL    HW2 3618   0.504   2.180   6.046
  907SOL     OW 3619   5.063   3.358   0.311
  907SOL    HW1 3620   5.013   3.434   0.353
  907SOL    HW2 3621   5.147   3.342   0.362
  908SOL     OW 3622   2.557   4.888   2.416
  908SOL    HW1 3623   2.639   4.855   2.371
  908SOL    HW2 3624   2.567   4.880   2.515
  909SOL     OW 3625   4.181   5.413   6.427
  909SOL    HW1 3626   4.161   5.317   6.444
  909SOL    HW2 3627   4.255   5.443   6.487
  910SOL     OW 3628   2.741   3.050   1.424
  910SOL    HW1 3629   2.726   2.970   1.367
  910SOL    HW2 3630   2.794   3.118   1.373
  911SOL     OW 3631   1.805   5.792   5.977
  911SOL    HW1 3632   1.805   5.826   5.883
  911SOL    HW2 3633   1.798   5.869   6.040
  912SOL     OW 3634   5.243   2.788   3.543
  912SOL    HW1 3635   5.233   2.711   3.606
  912SOL    HW2 3636   5.186   2.772   3.462
  913SOL     OW 3637   5.188   6.100   3.124
  913SOL    HW1 3638   5.098   6.062   3.146
  913SOL    HW2 3639   5.181   6.153   3.039
  914SOL     OW 3640   2.400   0.416   6.741
  914SOL    HW1 3641   2.431   0.470   6.820
  914SOL    HW2 3642   2.477   0.401   6.679
  915SOL     OW 3643   5.871   4.569   0.358
  915SOL    HW1 3644   5.911   4.548   0.447
  915SOL    HW2 3645   5.895   4.497   0.293
  916SOL     OW 3646   1.373   2.474   2.218
  916SOL    HW1 3647   1.437   2.487   2.142
  916SOL    HW2 3648   1.413   2.510   2.302
  917SOL     OW 3649   0.062   6.296   0.532
  917SOL    HW1 3650   0.129   6.370   0.531
  917SOL    HW2 3651   6.988   6.333   0.555
  918SOL     OW 3652   2.358   6.809   1.018
  918SOL    HW1 3653   2.432   6.870   1.046
  918SOL    HW2 3654   2.394   6.717   1.004
  919SOL     OW 3655   5.750   1.339   3.748
  919SOL    HW1 3656   5.663   1.331   3.700
  919SOL    HW2 3657   5.810   1.403   3.701
  920SOL     OW 3658   2.292   4.627   1.389
  920SOL    HW1 3659   2.196   4.656   1.393
  920SOL    HW2 3660   2.339   4.659   1.471
  921SOL     OW 3661   5.233   5.746   4.521
  921SOL    HW1 3662   5.166   5.675   4.540
  921SOL    HW2 3663   5.209   5.828   4.573
  922SOL     OW 3664   3.679   3.637   4.332
  922SOL    HW1 3665   3.742   3.561   4.349
  922SOL    HW2 3666   3.672   3.654   4.234
  923SOL     OW 3667   2.480   3.030   5.740
  923SOL    HW1 3668   2.540   3.039   5.820
  923SOL    HW2 3669   2.489   2.938   5.702
  924SOL     OW 3670   6.583   3.752   2.549
  924SOL    HW1 3671   6.555   3.664   2.511
  924SOL    HW2 3672   6.503   3.805   2.577
  925SOL     OW 3673   6.900   1.719   0.341
  925SOL    HW1 3674   6.837   1.653   0.384
  925SOL    HW2 3675   6.978   1.734   0.401
  926SOL     OW 3676   0.105   1.312   1.546
  926SOL    HW1 3677   0.169   1.262   1.487
  926SOL    HW2 3678   0.109   1.410   1.524
  927SOL     OW 3679   5.838   3.711   4.286
  927SOL    HW1 3680   5.889   3.629   4.314
  927SOL    HW2 3681   5.818   3.767   4.367
  928SOL     OW 3682   3.171   6.158   6.829
  928SOL    HW1 3683   3.177   6.181   6.927
  928SOL    HW2 3684   3.085   6.111   6.811
  929SOL     OW 3685   6.547   1.288   6.395
  929SOL    HW1 3686   6.637   1.331   6.391
  929SOL    HW2 3687   6.557   1.191   6.416
  930SOL     OW 3688   3.939   4.843   5.939
  930SOL    HW1 3689   3.975   4.753   5.966
  930SOL    HW2 3690   3.846   4.833   5.905
  931SOL     OW 3691   6.015   2.700   3.788
  931SOL    HW1 3692   6.030   2.791   3.750
  931SOL    HW2 3693   6.067   2.690   3.873
  932SOL     OW 3694   3.610   0.786   3.408
  932SOL    HW1 3695   3.676   0.848   3.450
  932SOL    HW2 3696   3.555   0.837   3.341
  933SOL     OW 3697   1.329   5.080   2.793
  933SOL    HW1 3698   1.389   5.150   2.832
  933SOL    HW2 3699   1.333   5.084   2.693
  934SOL     OW 3700   2.261   5.507   6.054
  934SOL    HW1 3701   2.224   5.591   6.015
  934SOL    HW2 3702   2.266   5.516   6.153
  935SOL     OW 3703   5.187   4.106   3.544
  935SOL    HW1 3704   5.256   4.170   3.508
  935SOL    HW2 3705   5.106   4.158   3.572
  936SOL     OW 3706   1.359   0.650   5.964
  936SOL    HW1 3707   1.280   0.597   5.931
  936SOL    HW2 3708   1.333   0.704   6.044
  937SOL     OW 3709   4.245   1.025   5.251
  937SOL    HW1 3710   4.215   1.120   5.262
  937SOL    HW2 3711   4.342   1.018   5.277
  938SOL     OW 3712   6.652   5.608   3.795
  938SOL    HW1 3713   6.593   5.667   3.851
  938SOL    HW2 3714   6.697   5.541   3.853
  939SOL     OW 3715   6.735   6.457   4.765
  939SOL    HW1 3716   6.737   6.545   4.716
  939SOL    HW2 3717   6.794   6.463   4.846
  940SOL     OW 3718   1.195   4.989   0.634
  940SOL    HW1 3719   1.213   5.015   0.728
  940SOL    HW2 3720   1.278   4.999   0.579
  941SOL     OW 3721   4.155   0.688   6.228
  941SOL    HW1 3722   4.111   0.600   6.216
  941SOL    HW2 3723   4.107   0.741   6.298
  942SOL     OW 3724   6.795   5.744   0.966
  942SOL    HW1 3725   6.827   5.838   0.978
  942SOL    HW2 3726   6.724   5.742   0.895
  943SOL     OW 3727   2.928   4.901   2.655
  943SOL    HW1 3728   2.870   4.823   2.682
  943SOL    HW2 3729   2.940   4.900   2.556
  944SOL     OW 3730   0.417   6.347   4.403
  944SOL    HW1 3731   0.437   6.264   4.351
  944SOL    HW2 3732   0.379   6.322   4.492
  945SOL     OW 3733   0.353   5.689   5.799
  945SOL    HW1 3734   0.319   5.606   5.844
  945SOL    HW2 3735   0.453   5.682   5.789
  946SOL     OW 3736   4.925   5.063   4.091
  946SOL    HW1 3737   4.961   5.012   4.169
  946SOL    HW2 3738   4.836   5.024   4.064
  947SOL     OW 3739   3.869   3.584   3.821
  947SOL    HW1 3740   3.805   3.659   3.803
  947SOL    HW2 3741   3.825   3.497   3.798
  948SOL     OW 3742   4.842   1.345   2.209
  948SOL    HW1 3743   4.807   1.427   2.254
  948SOL    HW2 3744   4.788   1.266   2.238
  949SOL     OW 3745   3.068   6.528   0.053
  949SOL    HW1 3746   3.161   6.564   0.062
  949SOL    HW2 3747   3.032   6.503   0.143
  950SOL     OW 3748   6.461   5.862   2.100
  950SOL    HW1 3749   6.386   5.806   2.065
  950SOL    HW2 3750   6.428   5.956   2.115
  951SOL     OW 3751   1.496   0.293   3.609
  951SOL    HW1 3752   1.483   0.205   3.656
  951SOL    HW2 3753   1.421   0.354   3.633
  952SOL     OW 3754   4.176   2.221   2.503
  952SOL    HW1 3755   4.250   2.158   2.528
  952SOL    HW2 3756   4.172   2.229   2.403
  953SOL     OW 3757   6.981   5.461   4.798
  953SOL    HW1 3758   6.887   5.479   4.766
  953SOL    HW2 3759   0.014   5.547   4.805
  954SOL     OW 3760   5.096   5.355   2.250
  954SOL    HW1 3761   5.077   5.257   2.255
  954SOL    HW2 3762   5.194   5.370   2.257
  955SOL     OW 3763   1.348   4.365   6.660
  955SOL    HW1 3764   1.267   4.333   6.611
  955SOL    HW2 3765   1.380   4.293   6.722
  956SOL     OW 3766   0.494   0.411   0.767
  956SOL    HW1 3767   0.476   0.508   0.782
  956SOL    HW2 3768   0.593   0.395   0.768
  957SOL     OW 3769   6.381   2.379   3.570
  957SOL    HW1 3770   6.473   2.368   3.606
  957SOL    HW2 3771   6.364   2.309   3.500
  958SOL     OW 3772   5.151   6.902   2.428
  958SOL    HW1 3773   5.167   6.809   2.461
  958SOL    HW2 3774   5.054   6.925   2.441
  959SOL     OW 3775   3.452   0.039   4.036
  959SOL    HW1 3776   3.403   0.068   3.953
  959SOL    HW2 3777   3.422   6.963   4.061
  960SOL     OW 3778   1.014   0.384   0.047
  960SOL    HW1 3779   1.019   0.425   6.973
  960SOL    HW2 3780   1.068   0.439   0.111
  961SOL     OW 3781   3.279   6.338   3.286
  961SOL    HW1 3782   3.251   6.392   3.365
  961SOL    HW2 3783   3.346   6.389   3.231
  962SOL     OW 3784   6.651   0.053   4.733
  962SOL    HW1 3785   6.664   7.001   4.805
  962SOL    HW2 3786   6.702   0.026   4.651
  963SOL     OW 3787   4.715   2.187   1.256
  963SOL    HW1 3788   4.728   2.094   1.291
  963SOL    HW2 3789   4.618   2.203   1.238
  964SOL     OW 3790   4.892   4.380   4.895
  964SOL    HW1 3791   4.979   4.342   4.925
  964SOL    HW2 3792   4.905   4.477   4.873
  965SOL     OW 3793   5.504   2.129   2.921
  965SOL    HW1 3794   5.436   2.129   2.848
  965SOL    HW2 3795   5.459   2.151   3.008
  966SOL     OW 3796   5.215   1.882   3.723
  966SOL    HW1 3797   5.209   1.918   3.816
  966SOL    HW2 3798   5.184   1.952   3.658
  967SOL     OW 3799   4.712   4.270   6.240
  967SOL    HW1 3800   4.775   4.227   6.305
  967SOL    HW2 3801   4.756   4.274   6.150
  968SOL     OW 3802   3.850   0.253   1.959
  968SOL    HW1 3803   3.923   0.321   1.959
  968SOL    HW2 3804   3.771   0.290   2.008
  969SOL     OW 3805   3.503   4.608   5.426
  969SOL    HW1 3806   3.589   4.638   5.384
  969SOL    HW2 3807   3.428   4.664   5.391
  970SOL     OW 3808   6.238   6.978   5.444
  970SOL    HW1 3809   6.335   6.962   5.460
  970SOL    HW2 3810   6.226   0.009   5.357
  971SOL     OW 3811   6.873   4.330   3.334
  971SOL    HW1 3812   6.943   4.305   3.401
  971SOL    HW2 3813   6.832   4.417   3.361
  972SOL     OW 3814   6.948   2.327   1.132
  972SOL    HW1 3815   6.905   2.407   1.174
  972SOL    HW2 3816   6.983   2.266   1.204
  973SOL     OW 3817   0.585   4.346   6.038
  973SOL    HW1 3818   0.511   4.354   5.970
  973SOL    HW2 3819   0.550   4.299   6.119
  974SOL     OW 3820   0.119   4.819   4.595
  974SOL    HW1 3821   0.189   4.748   4.583
  974SOL    HW2 3822   0.108   4.869   4.509
  975SOL     OW 3823   2.142   6.711   2.126
  975SOL    HW1 3824   2.072   6.691   2.058
  975SOL    HW2 3825   2.190   6.795   2.101
  976SOL     OW 3826   6.365   4.324   2.302
  976SOL    HW1 3827   6.453   4.351   2.264
  976SOL    HW2 3828   6.377   4.242   2.358
  977SOL     OW 3829   0.542   1.359   2.276
  977SOL    HW1 3830   0.635   1.361   2.312
  977SOL    HW2 3831   0.493   1.442   2.303
  978SOL     OW 3832   5.168   2.371   2.268
  978SOL    HW1 3833   5.095   2.432   2.237
  978SOL    HW2 3834   5.181   2.383   2.366
  979SOL     OW 3835   0.261   3.356   0.136
  979SOL    HW1 3836   0.175   3.316   0.170
  979SOL    HW2 3837   0.247   3.389   0.042
  980SOL     OW 3838   3.914   1.649   5.151
  980SOL    HW1 3839   3.819   1.617   5.158
  980SOL    HW2 3840   3.936   1.706   5.230
  981SOL     OW 3841   0.014   0.282   4.783
  981SOL    HW1 3842   0.068   0.336   4.718
  981SOL    HW2 3843   0.002   0.189   4.746
  982SOL     OW 3844   0.670   1.652   5.159
  982SOL    HW1 3845   0.754   1.599   5.170
  982SOL    HW2 3846   0.679   1.739   5.208
  983SOL     OW 3847   0.486   3.760   3.779
  983SOL    HW1 3848   0.498   3.731   3.874
  983SOL    HW2 3849   0.406   3.714   3.740
  984SOL     OW 3850   1.701   2.081   2.966
  984SOL    HW1 3851   1.781   2.130   3.000
  984SOL    HW2 3852   1.721   1.984   2.958
  985SOL     OW 3853   6.270   3.675   4.410
  985SOL    HW1 3854   6.253   3.765   4.369
  985SOL    HW2 3855   6.218   3.666   4.494
  986SOL     OW 3856   5.370   4.222   1.186
  986SOL    HW1 3857   5.412   4.284   1.252
  986SOL    HW2 3858   5.279   4.255   1.163
  987SOL     OW 3859   5.812   5.271   3.551
  987SOL    HW1 3860   5.829   5.188   3.604
  987SOL    HW2 3861   5.726   5.261   3.501
  988SOL     OW 3862   3.567   3.983   1.497
  988SOL    HW1 3863   3.562   3.925   1.579
  988SOL    HW2 3864   3.543   4.077   1.522
  989SOL     OW 3865   0.139   2.186   0.773
  989SOL    HW1 3866   0.211   2.133   0.727
  989SOL    HW2 3867   0.108   2.260   0.714
  990SOL     OW 3868   3.489   0.527   3.097
  990SOL    HW1 3869   3.539   0.498   3.179
  990SOL    HW2 3870   3.519   0.474   3.018
  991SOL     OW 3871   6.849   3.903   4.190
  991SOL    HW1 3872   6.799   3.891   4.276
  991SOL    HW2 3873   6.946   3.914   4.210
  992SOL     OW 3874   0.566   2.619   1.367
  992SOL    HW1 3875   0.655   2.662   1.384
  992SOL    HW2 3876   0.502   2.687   1.332
  993SOL     OW 3877   1.829   4.877   1.068
  993SOL    HW1 3878   1.761   4.804   1.056
  993SOL    HW2 3879   1.798   4.959   1.020
  994SOL     OW 3880   3.469   6.375   1.498
  994SOL    HW1 3881   3.564   6.401   1.476
  994SOL    HW2 3882   3.407   6.427   1.439
  995SOL     OW 3883   5.116   3.792   5.542
  995SOL    HW1 3884   5.051   3.780   5.466
  995SOL    HW2 3885   5.110   3.886   5.575
  996SOL     OW 3886   3.826   6.284   5.381
  996SOL    HW1 3887   3.877   6.328   5.306
  996SOL    HW2 3888   3.843   6.333   5.466
  997SOL     OW 3889   1.275   6.183   4.130
  997SOL    HW1 3890   1.357   6.155   4.080
  997SOL    HW2 3891   1.301   6.216   4.221
  998SOL     OW 3892   5.871   0.509   6.180
  998SOL    HW1 3893   5.929   0.479   6.256
  998SOL    HW2 3894   5.924   0.511   6.096
  999SOL     OW 3895   4.824   3.243   1.551
  999SOL    HW1 3896   4.906   3.197   1.584
  999SOL    HW2 3897   4.783   3.296   1.625
 1000SOL     OW 3898   3.775   1.522   1.716
 1000SOL    HW1 3899   3.843   1.580   1.761
 1000SOL    HW2 3900   3.725   1.575   1.647
 1001SOL     OW 3901   2.967   6.663   2.277
 1001SOL    HW1 3902   2.875   6.648   2.241
 1001SOL    HW2 3903   2.981   6.760   2.295
 1002SOL     OW 3904   5.079   2.684   1.561
 1002SOL    HW1 3905   5.176   2.702   1.544
 1002SOL    HW2 3906   5.036   2.766   1.598
 1003SOL     OW 3907   1.351   6.399   2.364
 1003SOL    HW1 3908   1.302   6.486   2.356
 1003SOL    HW2 3909   1.344   6.348   2.278
 1004SOL     OW 3910   5.742   1.542   3.575
 1004SOL    HW1 3911   5.833   1.579   3.593
 1004SOL    HW2 3912   5.709   1.574   3.486
 1005SOL     OW 3913   1.842   4.550   4.779
 1005SOL    HW1 3914   1.910   4.601   4.832
 1005SOL    HW2 3915   1.842   4.584   4.685
 1006SOL     OW 3916   2.260   4.073   0.385
 1006SOL    HW1 3917   2.274   3.989   0.438
 1006SOL    HW2 3918   2.290   4.057   0.291
 1007SOL     OW 3919   4.574   1.855   6.759
 1007SOL    HW1 3920   4.614   1.765   6.779
 1007SOL    HW2 3921   4.640   1.927   6.781
 1008SOL     OW 3922   0.462   4.696   5.267
 1008SOL    HW1 3923   0.535   4.660   5.325
 1008SOL    HW2 3924   0.434   4.626   5.201
 1009SOL     OW 3925   5.801   5.048   5.064
 1009SOL    HW1 3926   5.840   4.980   5.126
 1009SOL    HW2 3927   5.862   5.060   4.986
 1010SOL     OW 3928   2.151   3.115   1.502
 1010SOL    HW1 3929   2.183   3.193   1.555
 1010SOL    HW2 3930   2.219   3.093   1.432
 1011SOL     OW 3931   0.714   5.051   2.484
 1011SOL    HW1 3932   0.783   5.123   2.488
 1011SOL    HW2 3933   0.733   4.992   2.405
 1012SOL     OW 3934   5.896   0.563   2.365
 1012SOL    HW1 3935   5.808   0.518   2.355
 1012SOL    HW2 3936   5.966   0.512   2.315
 1013SOL     OW 3937   6.939   0.658   5.860
 1013SOL    HW1 3938   6.898   0.643   5.770
 1013SOL    HW2 3939   6.888   0.729   5.909
 1014SOL     OW 3940   1.695   4.993   4.067
 1014SOL    HW1 3941   1.726   5.037   3.982
 1014SOL    HW2 3942   1.639   4.913   4.044
 1015SOL     OW 3943   3.457   0.110   6.007
 1015SOL    HW1 3944   3.402   0.030   5.984
 1015SOL    HW2 3945   3.478   0.109   6.105
 1016SOL     OW 3946   5.220   4.070   1.620
 1016SOL    HW1 3947   5.151   4.042   1.687
 1016SOL    HW2 3948   5.177   4.127   1.549
 1017SOL     OW 3949   1.787   1.462   1.922
 1017SOL    HW1 3950   1.815   1.420   2.008
 1017SOL    HW2 3951   1.746   1.552   1.940
 1018SOL     OW 3952   0.289   5.389   3.627
 1018SOL    HW1 3953   0.289   5.476   3.676
 1018SOL    HW2 3954   0.277   5.314   3.693
 1019SOL     OW 3955   6.953   4.964   0.694
 1019SOL    HW1 3956   6.902   4.880   0.711
 1019SOL    HW2 3957   6.926   5.002   0.606
 1020SOL     OW 3958   0.066   0.328   1.215
 1020SOL    HW1 3959   0.145   0.335   1.154
 1020SOL    HW2 3960   0.091   0.363   1.306
 1021SOL     OW 3961   6.274   5.953   1.877
 1021SOL    HW1 3962   6.227   6.026   1.928
 1021SOL    HW2 3963   6.266   5.971   1.779
 1022SOL     OW 3964   2.508   6.408   6.440
 1022SOL    HW1 3965   2.475   6.316   6.460
 1022SOL    HW2 3966   2.530   6.415   6.343
 1023SOL     OW 3967   0.181   1.633   3.052
 1023SOL    HW1 3968   0.158   1.561   2.988
 1023SOL    HW2 3969   0.234   1.704   3.005
 1024SOL     OW 3970   1.283   1.963   4.742
 1024SOL    HW1 3971   1.322   1.931   4.655
 1024SOL    HW2 3972   1.353   2.013   4.793
 1025SOL     OW 3973   5.125   3.776   6.777
 1025SOL    HW1 3974   5.126   3.676   6.769
 1025SOL    HW2 3975   5.112   3.801   6.873
 1026SOL     OW 3976   2.994   2.532   1.388
 1026SOL    HW1 3977   3.029   2.602   1.326
 1026SOL    HW2 3978   2.990   2.569   1.481
 1027SOL     OW 3979   1.248   6.035   1.385
 1027SOL    HW1 3980   1.255   6.073   1.478
 1027SOL    HW2 3981   1.152   6.030   1.358
 1028SOL     OW 3982   0.819   6.171   3.155
 1028SOL    HW1 3983   0.734   6.135   3.194
 1028SOL    HW2 3984   0.828   6.268   3.179
 1029SOL     OW 3985   1.245   2.116   5.756
 1029SOL    HW1 3986   1.163   2.069   5.786
 1029SOL    HW2 3987   1.247   2.121   5.656
 1030SOL     OW 3988   3.057   3.318   1.490
 1030SOL    HW1 3989   3.005   3.307   1.405
 1030SOL    HW2 3990   3.076   3.415   1.504
 1031SOL     OW 3991   3.568   3.405   1.332
 1031SOL    HW1 3992   3.533   3.487   1.376
 1031SOL    HW2 3993   3.668   3.405   1.334
 1032SOL     OW 3994   2.533   1.385   5.940
 1032SOL    HW1 3995   2.521   1.381   6.039
 1032SOL    HW2 3996   2.500   1.473   5.906
 1033SOL     OW 3997   0.534   6.219   2.441
 1033SOL    HW1 3998   0.513   6.121   2.434
 1033SOL    HW2 3999   0.450   6.272   2.438
 1034SOL     OW 4000   3.659   6.906   4.604
 1034SOL    HW1 4001   3.642   6.928   4.508
 1034SOL    HW2 4002   3.637   6.810   4.620
 1035SOL     OW 4003   0.755   1.548   5.881
 1035SOL    HW1 4004   0.689   1.613   5.916
 1035SOL    HW2 4005   0.840   1.596   5.859
 1036SOL     OW 4006   5.437   1.304   1.304
 1036SOL    HW1 4007   5.451   1.351   1.216
 1036SOL    HW2 4008   5.343   1.318   1.335
 1037SOL     OW 4009   1.918   2.539   2.576
 1037SOL    HW1 4010   1.989   2.557   2.644
 1037SOL    HW2 4011   1.829   2.538   2.622
 1038SOL     OW 4012   2.839   0.514   0.164
 1038SOL    HW1 4013   2.906   0.494   0.093
 1038SOL    HW2 4014   2.761   0.561   0.124
 1039SOL     OW 4015   3.313   3.229   3.559
 1039SOL    HW1 4016   3.251   3.170   3.610
 1039SOL    HW2 4017   3.260   3.295   3.506
 1040SOL     OW 4018   4.245   1.174   2.624
 1040SOL    HW1 4019   4.167   1.180   2.687
 1040SOL    HW2 4020   4.311   1.108   2.660
 1041SOL     OW 4021   6.541   5.919   4.738
 1041SOL    HW1 4022   6.519   5.883   4.828
 1041SOL    HW2 4023   6.457   5.948   4.692
 1042SOL     OW 4024   4.899   4.555   2.209
 1042SOL    HW1 4025   4.831   4.483   2.216
 1042SOL    HW2 4026   4.927   4.586   2.300
 1043SOL     OW 4027   3.417   1.019   3.488
 1043SOL    HW1 4028   3.502   1.068   3.468
 1043SOL    HW2 4029   3.397   1.025   3.586
 1044SOL     OW 4030   5.828   4.181   0.985
 1044SOL    HW1 4031   5.822   4.276   0.952
 1044SOL    HW2 4032   5.739   4.152   1.019
 1045SOL     OW 4033   2.082   0.829   3.883
 1045SOL    HW1 4034   2.139   0.900   3.843
 1045SOL    HW2 4035   1.986   0.846   3.860
 1046SOL     OW 4036   3.020   1.423   1.243
 1046SOL    HW1 4037   3.080   1.345   1.260
 1046SOL    HW2 4038   2.954   1.432   1.318
 1047SOL     OW 4039   2.992   0.033   3.646
 1047SOL    HW1 4040   3.036   6.969   3.686
 1047SOL    HW2 4041   3.008   0.112   3.706
 1048SOL     OW 4042   2.003   5.900   2.159
 1048SOL    HW1 4043   1.974   5.815   2.116
 1048SOL    HW2 4044   2.063   5.951   2.097
 1049SOL     OW 4045   3.834   6.996   4.806
 1049SOL    HW1 4046   3.913   6.936   4.795
 1049SOL    HW2 4047   3.768   6.977   4.733
 1050SOL     OW 4048   3.860   4.984   3.755
 1050SOL    HW1 4049   3.906   5.072   3.748
 1050SOL    HW2 4050   3.790   4.989   3.826
 1051SOL     OW 4051   6.865   6.768   0.370
 1051SOL    HW1 4052   6.885   6.816   0.456
 1051SOL    HW2 4053   6.816   6.683   0.391
 1052SOL     OW 4054   3.957   0.874   6.366
 1052SOL    HW1 4055   3.892   0.821   6.421
 1052SOL    HW2 4056   3.928   0.969   6.361
 1053SOL     OW 4057   5.760   3.424   2.172
 1053SOL    HW1 4058   5.728   3.436   2.266
 1053SOL    HW2 4059   5.740   3.506   2.119
 1054SOL     OW 4060   3.547   4.397   0.421
 1054SOL    HW1 4061   3.619   4.347   0.372
 1054SOL    HW2 4062   3.584   4.434   0.506
 1055SOL     OW 4063   4.557   5.697   0.007
 1055SOL    HW1 4064   4.471   5.682   0.056
 1055SOL    HW2 4065   4.539   5.752   6.942
 1056SOL     OW 4066   2.153   4.298   0.132
 1056SOL    HW1 4067   2.172   4.243   0.213
 1056SOL    HW2 4068   2.054   4.302   0.117
 1057SOL     OW 4069   3.528   1.934   1.770
 1057SOL    HW1 4070   3.489   1.899   1.686
 1057SOL    HW2 4071   3.475   2.012   1.802
 1058SOL     OW 4072   3.519   1.955   2.757
 1058SOL    HW1 4073   3.448   2.022   2.778
 1058SOL    HW2 4074   3.521   1.885   2.829
 1059SOL     OW 4075   2.230   5.997   1.992
 1059SOL    HW1 4076   2.293   6.069   2.024
 1059SOL    HW2 4077   2.259   5.966   1.902
 1060SOL     OW 4078   0.173   5.652   4.777
 1060SOL    HW1 4079   0.203   5.692   4.864
 1060SOL    HW2 4080   0.139   5.724   4.717
 1061SOL     OW 4081   6.517   4.113   0.320
 1061SOL    HW1 4082   6.555   4.021   0.332
 1061SOL    HW2 4083   6.548   4.150   0.232
 1062SOL     OW 4084   3.930   6.275   4.759
 1062SOL    HW1 4085   4.027   6.276   4.781
 1062SOL    HW2 4086   3.894   6.369   4.762
 1063SOL     OW 4087   1.239   7.011   5.482
 1063SOL    HW1 4088   1.303   0.015   5.408
 1063SOL    HW2 4089   1.205   0.080   5.521
 1064SOL     OW 4090   0.513   4.339   1.032
 1064SOL    HW1 4091   0.540   4.350   1.127
 1064SOL    HW2 4092   0.466   4.422   1.001
 1065SOL     OW 4093   3.688   0.522   4.448
 1065SOL    HW1 4094   3.733   0.462   4.382
 1065SOL    HW2 4095   3.655   0.468   4.525
 1066SOL     OW 4096   4.329   0.840   2.072
 1066SOL    HW1 4097   4.248   0.799   2.030
 1066SOL    HW2 4098   4.383   0.769   2.117
 1067SOL     OW 4099   2.874   1.077   0.615
 1067SOL    HW1 4100   2.896   1.118   0.527
 1067SOL    HW2 4101   2.939   1.004   0.635
 1068SOL     OW 4102   6.140   3.248   1.007
 1068SOL    HW1 4103   6.130   3.160   0.961
 1068SOL    HW2 4104   6.053   3.273   1.049
 1069SOL     OW 4105   5.920   4.467   0.650
 1069SOL    HW1 4106   5.989   4.451   0.720
 1069SOL    HW2 4107   5.832   4.433   0.681
 1070SOL     OW 4108   2.292   0.629   2.405
 1070SOL    HW1 4109   2.367   0.571   2.372
 1070SOL    HW2 4110   2.209   0.574   2.415
 1071SOL     OW 4111   6.668   2.653   4.889
 1071SOL    HW1 4112   6.609   2.580   4.923
 1071SOL    HW2 4113   6.632   2.687   4.802
 1072SOL     OW 4114   3.290   0.949   1.931
 1072SOL    HW1 4115   3.233   1.031   1.939
 1072SOL    HW2 4116   3.234   0.868   1.947
 1073SOL     OW 4117   5.479   1.786   3.200
 1073SOL    HW1 4118   5.423   1.852   3.249
 1073SOL    HW2 4119   5.516   1.829   3.118
 1074SOL     OW 4120   3.261   4.918   1.620
 1074SOL    HW1 4121   3.210   4.985   1.674
 1074SOL    HW2 4122   3.247   4.827   1.658
 1075SOL     OW 4123   5.882   2.115   5.046
 1075SOL    HW1 4124   5.862   2.029   5.093
 1075SOL    HW2 4125   5.797   2.166   5.033
 1076SOL     OW 4126   2.127   3.791   5.107
 1076SOL    HW1 4127   2.202   3.854   5.088
 1076SOL    HW2 4128   2.040   3.840   5.101
 1077SOL     OW 4129   6.796   0.420   0.014
 1077SOL    HW1 4130   6.740   0.380   6.958
 1077SOL    HW2 4131   6.778   0.371   0.100
 1078SOL     OW 4132   6.695   6.602   3.961
 1078SOL    HW1 4133   6.727   6.638   3.874
 1078SOL    HW2 4134   6.769   6.603   4.028
 1079SOL     OW 4135   1.274   6.002   2.306
 1079SOL    HW1 4136   1.275   5.977   2.403
 1079SOL    HW2 4137   1.252   5.921   2.251
 1080SOL     OW 4138   2.105   5.361   4.992
 1080SOL    HW1 4139   2.098   5.461   4.990
 1080SOL    HW2 4140   2.032   5.321   4.937
 1081SOL     OW 4141   6.557   5.591   4.498
 1081SOL    HW1 4142   6.583   5.577   4.403
 1081SOL    HW2 4143   6.523   5.685   4.510
 1082SOL     OW 4144   5.667   0.032   5.935
 1082SOL    HW1 4145   5.648   0.013   5.839
 1082SOL    HW2 4146   5.658   6.964   5.988
 1083SOL     OW 4147   5.003   3.983   0.982
 1083SOL    HW1 4148   5.081   3.967   1.042
 1083SOL    HW2 4149   4.929   4.026   1.033
 1084SOL     OW 4150   6.926   6.840   6.546
 1084SOL    HW1 4151   0.008   6.850   6.562
 1084SOL    HW2 4152   6.879   6.835   6.634
 1085SOL     OW 4153   1.677   3.794   4.160
 1085SOL    HW1 4154   1.726   3.847   4.229
 1085SOL    HW2 4155   1.579   3.814   4.166
 1086SOL     OW 4156   6.601   4.477   6.187
 1086SOL    HW1 4157   6.699   4.458   6.199
 1086SOL    HW2 4158   6.581   4.492   6.090
 1087SOL     OW 4159   1.796   0.274   5.793
 1087SOL    HW1 4160   1.802   0.364   5.751
 1087SOL    HW2 4161   1.767   0.282   5.888
 1088SOL     OW 4162   0.041   5.009   3.685
 1088SOL    HW1 4163   0.088   4.921   3.680
 1088SOL    HW2 4164   0.015   5.028   3.780
 1089SOL     OW 4165   6.864   5.080   4.588
 1089SOL    HW1 4166   6.893   4.998   4.638
 1089SOL    HW2 4167   6.941   5.116   4.536
 1090SOL     OW 4168   5.700   1.810   4.529
 1090SOL    HW1 4169   5.752   1.762   4.600
 1090SOL    HW2 4170   5.663   1.744   4.465
 1091SOL     OW 4171   2.145   3.445   3.922
 1091SOL    HW1 4172   2.166   3.347   3.918
 1091SOL    HW2 4173   2.164   3.479   4.014
 1092SOL     OW 4174   1.018   4.946   1.115
 1092SOL    HW1 4175   1.056   5.036   1.097
 1092SOL    HW2 4176   0.918   4.951   1.114
 1093SOL     OW 4177   2.714   6.621   1.506
 1093SOL    HW1 4178   2.683   6.554   1.573
 1093SOL    HW2 4179   2.639   6.681   1.481
 1094SOL     OW 4180   0.777   0.037   2.665
 1094SOL    HW1 4181   0.745   6.979   2.723
 1094SOL    HW2 4182   0.698   0.089   2.632
 1095SOL     OW 4183   0.078   2.741   6.898
 1095SOL    HW1 4184   0.107   2.815   6.959
 1095SOL    HW2 4185   6.995   2.738   6.894
 1096SOL     OW 4186   2.995   5.666   0.938
 1096SOL    HW1 4187   2.932   5.626   1.004
 1096SOL    HW2 4188   2.959   5.653   0.845
 1097SOL     OW 4189   2.102   5.203   3.644
 1097SOL    HW1 4190   2.115   5.108   3.671
 1097SOL    HW2 4191   2.073   5.257   3.723
 1098SOL     OW 4192   5.926   4.360   0.186
 1098SOL    HW1 4193   5.963   4.267   0.192
 1098SOL    HW2 4194   5.945   4.398   0.096
 1099SOL     OW 4195   4.494   1.437   6.389
 1099SOL    HW1 4196   4.549   1.470   6.466
 1099SOL    HW2 4197   4.467   1.514   6.332
 1100SOL     OW 4198   4.168   1.034   3.907
 1100SOL    HW1 4199   4.127   1.125   3.918
 1100SOL    HW2 4200   4.102   0.973   3.863
 1101SOL     OW 4201   5.993   3.159   5.610
 1101SOL    HW1 4202   5.938   3.153   5.527
 1101SOL    HW2 4203   5.973   3.245   5.657
 1102SOL     OW 4204   2.422   0.766   4.560
 1102SOL    HW1 4205   2.469   0.751   4.647
 1102SOL    HW2 4206   2.382   0.680   4.529
 1103SOL     OW 4207   3.025   0.834   6.482
 1103SOL    HW1 4208   2.957   0.899   6.448
 1103SOL    HW2 4209   3.003   0.742   6.448
 1104SOL     OW 4210   0.675   4.529   3.301
 1104SOL    HW1 4211   0.621   4.573   3.229
 1104SOL    HW2 4212   0.674   4.430   3.288
 1105SOL     OW 4213   5.561   1.719   5.071
 1105SOL    HW1 4214   5.506   1.703   5.152
 1105SOL    HW2 4215   5.532   1.656   4.998
 1106SOL     OW 4216   0.690   0.876   0.321
 1106SOL    HW1 4217   0.764   0.813   0.295
 1106SOL    HW2 4218   0.634   0.895   0.240
 1107SOL     OW 4219   1.117   1.045   6.511
 1107SOL    HW1 4220   1.088   1.095   6.429
 1107SOL    HW2 4221   1.161   1.108   6.575
 1108SOL     OW 4222   3.309   6.235   4.251
 1108SOL    HW1 4223   3.403   6.200   4.253
 1108SOL    HW2 4224   3.303   6.308   4.183
 1109SOL     OW 4225   5.316   1.303   4.097
 1109SOL    HW1 4226   5.276   1.230   4.041
 1109SOL    HW2 4227   5.309   1.390   4.049
 1110SOL     OW 4228   3.356   0.886   2.765
 1110SOL    HW1 4229   3.386   0.977   2.791
 1110SOL    HW2 4230   3.312   0.841   2.843
 1111SOL     OW 4231   4.944   3.864   6.200
 1111SOL    HW1 4232   4.995   3.840   6.117
 1111SOL    HW2 4233   4.941   3.786   6.262
 1112SOL     OW 4234   6.549   0.482   2.531
 1112SOL    HW1 4235   6.608   0.403   2.514
 1112SOL    HW2 4236   6.458   0.452   2.557
 1113SOL     OW 4237   6.317   3.993   2.967
 1113SOL    HW1 4238   6.368   4.033   2.890
 1113SOL    HW2 4239   6.381   3.966   3.038
 1114SOL     OW 4240   4.316   2.632   6.153
 1114SOL    HW1 4241   4.382   2.707   6.152
 1114SOL    HW2 4242   4.261   2.634   6.069
 1115SOL     OW 4243   3.433   3.950   5.757
 1115SOL    HW1 4244   3.421   3.855   5.729
 1115SOL    HW2 4245   3.422   4.011   5.678
 1116SOL     OW 4246   5.145   1.007   6.923
 1116SOL    HW1 4247   5.186   1.098   6.920
 1116SOL    HW2 4248   5.195   0.946   6.860
 1117SOL     OW 4249   1.103   2.489   1.875
 1117SOL    HW1 4250   1.112   2.438   1.790
 1117SOL    HW2 4251   1.136   2.433   1.951
 1118SOL     OW 4252   2.894   5.459   6.852
 1118SOL    HW1 4253   2.962   5.420   6.914
 1118SOL    HW2 4254   2.912   5.428   6.759
 1119SOL     OW 4255   4.116   4.817   3.515
 1119SOL    HW1 4256   4.133   4.912   3.542
 1119SOL    HW2 4257   4.182   4.757   3.559
 1120SOL     OW 4258   6.469   5.279   1.151
 1120SOL    HW1 4259   6.504   5.368   1.122
 1120SOL    HW2 4260   6.492   5.263   1.247
 1121SOL     OW 4261   0.901   5.220   4.437
 1121SOL    HW1 4262   0.920   5.161   4.515
 1121SOL    HW2 4263   0.966   5.200   4.364
 1122SOL     OW 4264   5.417   2.645   2.291
 1122SOL    HW1 4265   5.344   2.597   2.243
 1122SOL    HW2 4266   5.478   2.579   2.335
 1123SOL     OW 4267   4.098   2.260   3.181
 1123SOL    HW1 4268   3.999   2.249   3.185
 1123SOL    HW2 4269   4.133   2.278   3.273
 1124SOL     OW 4270   1.997   2.925   4.883
 1124SOL    HW1 4271   1.945   2.925   4.968
 1124SOL    HW2 4272   1.999   2.833   4.845
 1125SOL     OW 4273   1.631   3.706   4.481
 1125SOL    HW1 4274   1.700   3.711   4.552
 1125SOL    HW2 4275   1.584   3.794   4.474
 1126SOL     OW 4276   4.111   6.038   5.592
 1126SOL    HW1 4277   4.073   6.036   5.685
 1126SOL    HW2 4278   4.188   6.101   5.589
 1127SOL     OW 4279   5.394   5.798   4.056
 1127SOL    HW1 4280   5.456   5.735   4.009
 1127SOL    HW2 4281   5.308   5.805   4.005
 1128SOL     OW 4282   6.363   1.412   3.705
 1128SOL    HW1 4283   6.294   1.432   3.636
 1128SOL    HW2 4284   6.453   1.404   3.661
 1129SOL     OW 4285   1.767   0.006   1.344
 1129SOL    HW1 4286   1.788   6.965   1.265
 1129SOL    HW2 4287   1.849   0.016   1.401
 1130SOL     OW 4288   1.807   5.222   3.113
 1130SOL    HW1 4289   1.859   5.199   3.031
 1130SOL    HW2 4290   1.787   5.320   3.115
 1131SOL     OW 4291   0.956   7.012   3.788
 1131SOL    HW1 4292   0.963   6.994   3.886
 1131SOL    HW2 4293   1.044   0.030   3.755
 1132SOL     OW 4294   4.117   1.115   3.001
 1132SOL    HW1 4295   4.050   1.046   3.029
 1132SOL    HW2 4296   4.077   1.173   2.931
 1133SOL     OW 4297   1.224   6.894   5.118
 1133SOL    HW1 4298   1.144   6.943   5.153
 1133SOL    HW2 4299   1.294   6.961   5.092
 1134SOL     OW 4300   4.725   6.923   1.540
 1134SOL    HW1 4301   4.671   6.839   1.548
 1134SOL    HW2 4302   4.799   6.921   1.608
 1135SOL     OW 4303   2.305   6.548   3.525
 1135SOL    HW1 4304   2.380   6.545   3.591
 1135SOL    HW2 4305   2.234   6.483   3.552
 1136SOL     OW 4306   2.913   6.055   2.661
 1136SOL    HW1 4307   2.829   6.104   2.684
 1136SOL    HW2 4308   2.890   5.965   2.625
 1137SOL     OW 4309   0.217   5.979   6.274
 1137SOL    HW1 4310   0.299   5.943   6.230
 1137SOL    HW2 4311   0.222   5.964   6.373
 1138SOL     OW 4312   2.309   2.912   5.340
 1138SOL    HW1 4313   2.383   2.948   5.283
 1138SOL    HW2 4314   2.302   2.813   5.328
 1139SOL     OW 4315   2.665   4.590   3.974
 1139SOL    HW1 4316   2.758   4.567   3.945
 1139SOL    HW2 4317   2.661   4.687   3.997
 1140SOL     OW 4318   2.324   1.272   1.866
 1140SOL    HW1 4319   2.256   1.318   1.807
 1140SOL    HW2 4320   2.408   1.326   1.867
 1141SOL     OW 4321   5.549   4.945   6.238
 1141SOL    HW1 4322   5.558   4.945   6.138
 1141SOL    HW2 4323   5.460   4.984   6.263
 1142SOL     OW 4324   2.645   6.831   3.301
 1142SOL    HW1 4325   2.718   6.881   3.255
 1142SOL    HW2 4326   2.626   6.874   3.389
 1143SOL     OW 4327   1.023   3.690   1.505
 1143SOL    HW1 4328   1.032   3.786   1.479
 1143SOL    HW2 4329   0.946   3.679   1.568
 1144SOL     OW 4330   5.421   4.415   2.352
 1144SOL    HW1 4331   5.495   4.481   2.334
 1144SOL    HW2 4332   5.460   4.323   2.356
 1145SOL     OW 4333   1.103   1.983   0.711
 1145SOL    HW1 4334   1.044   1.911   0.748
 1145SOL    HW2 4335   1.198   1.955   0.718
 1146SOL     OW 4336   0.744   1.156   1.777
 1146SOL    HW1 4337   0.764   1.234   1.837
 1146SOL    HW2 4338   0.826   1.101   1.765
 1147SOL     OW 4339   3.274   6.151   1.040
 1147SOL    HW1 4340   3.190   6.113   1.078
 1147SOL    HW2 4341   3.331   6.186   1.114
 1148SOL     OW 4342   3.840   6.247   1.971
 1148SOL    HW1 4343   3.758   6.300   1.992
 1148SOL    HW2 4344   3.915   6.309   1.949
 1149SOL     OW 4345   6.001   2.367   1.553
 1149SOL    HW1 4346   6.009   2.326   1.462
 1149SOL    HW2 4347   6.091   2.391   1.588
 1150SOL     OW 4348   1.425   4.094   6.778
 1150SOL    HW1 4349   1.505   4.047   6.740
 1150SOL    HW2 4350   1.342   4.056   6.738
 1151SOL     OW 4351   6.497   5.026   3.602
 1151SOL    HW1 4352   6.526   5.068   3.516
 1151SOL    HW2 4353   6.498   4.927   3.594
 1152SOL     OW 4354   4.799   0.603   0.014
 1152SOL    HW1 4355   4.890   0.565   0.026
 1152SOL    HW2 4356   4.804   0.703   0.008
 1153SOL     OW 4357   6.796   6.919   1.269
 1153SOL    HW1 4358   6.894   6.901   1.282
 1153SOL    HW2 4359   6.784   7.008   1.226
 1154SOL     OW 4360   1.245   3.536   2.674
 1154SOL    HW1 4361   1.235   3.442   2.644
 1154SOL    HW2 4362   1.312   3.583   2.616
 1155SOL     OW 4363   2.149   6.811   4.973
 1155SOL    HW1 4364   2.185   6.773   4.888
 1155SOL    HW2 4365   2.110   6.902   4.955
 1156SOL     OW 4366   3.918   1.598   4.775
 1156SOL    HW1 4367   3.863   1.518   4.798
 1156SOL    HW2 4368   3.944   1.594   4.678
 1157SOL     OW 4369   4.089   0.466   5.357
 1157SOL    HW1 4370   4.170   0.412   5.374
 1157SOL    HW2 4371   4.029   0.464   5.437
 1158SOL     OW 4372   5.400   5.739   3.534
 1158SOL    HW1 4373   5.355   5.820   3.497
 1158SOL    HW2 4374   5.331   5.677   3.572
 1159SOL     OW 4375   6.551   6.023   3.009
 1159SOL    HW1 4376   6.506   5.985   2.929
 1159SOL    HW2 4377   6.602   6.105   2.983
 1160SOL     OW 4378   4.214   6.878   0.916
 1160SOL    HW1 4379   4.238   6.973   0.938
 1160SOL    HW2 4380   4.118   6.875   0.886
 1161SOL     OW 4381   6.860   5.353   6.598
 1161SOL    HW1 4382   6.956   5.326   6.586
 1161SOL    HW2 4383   6.800   5.284   6.560
 1162SOL     OW 4384   2.237   3.017   5.585
 1162SOL    HW1 4385   2.316   3.019   5.647
 1162SOL    HW2 4386   2.268   2.990   5.493
 1163SOL     OW 4387   5.920   4.073   2.024
 1163SOL    HW1 4388   6.006   4.067   2.075
 1163SOL    HW2 4389   5.929   4.139   1.950
 1164SOL     OW 4390   5.534   2.186   4.417
 1164SOL    HW1 4391   5.541   2.219   4.511
 1164SOL    HW2 4392   5.624   2.184   4.375
 1165SOL     OW 4393   4.362   6.069   3.503
 1165SOL    HW1 4394   4.315   6.143   3.551
 1165SOL    HW2 4395   4.311   6.047   3.419
 1166SOL     OW 4396   2.065   6.593   6.426
 1166SOL    HW1 4397   2.101   6.511   6.472
 1166SOL    HW2 4398   2.140   6.640   6.380
 1167SOL     OW 4399   4.882   3.998   2.045
 1167SOL    HW1 4400   4.904   3.937   2.121
 1167SOL    HW2 4401   4.948   4.073   2.043
 1168SOL     OW 4402   5.890   2.506   2.694
 1168SOL    HW1 4403   5.961   2.543   2.633
 1168SOL    HW2 4404   5.804   2.553   2.677
 1169SOL     OW 4405   5.807   0.928   5.725
 1169SOL    HW1 4406   5.728   0.885   5.769
 1169SOL    HW2 4407   5.777   1.011   5.678
 1170SOL     OW 4408   5.152   0.017   3.124
 1170SOL    HW1 4409   5.241   0.059   3.107
 1170SOL    HW2 4410   5.085   0.052   3.058
 1171SOL     OW 4411   1.492   0.025   0.624
 1171SOL    HW1 4412   1.590   0.030   0.644
 1171SOL    HW2 4413   1.441   0.070   0.697
 1172SOL     OW 4414   6.060   3.675   0.643
 1172SOL    HW1 4415   5.962   3.677   0.661
 1172SOL    HW2 4416   6.107   3.627   0.717
 1173SOL     OW 4417   2.893   1.161   1.104
 1173SOL    HW1 4418   2.968   1.131   1.044
 1173SOL    HW2 4419   2.930   1.185   1.193
 1174SOL     OW 4420   3.715   3.915   1.255
 1174SOL    HW1 4421   3.647   3.901   1.183
 1174SOL    HW2 4422   3.669   3.922   1.343
 1175SOL     OW 4423   4.219   3.102   5.568
 1175SOL    HW1 4424   4.250   3.130   5.659
 1175SOL    HW2 4425   4.125   3.070   5.573
 1176SOL     OW 4426   4.991   3.495   5.955
 1176SOL    HW1 4427   5.007   3.593   5.949
 1176SOL    HW2 4428   4.971   3.470   6.050
 1177SOL     OW 4429   6.052   2.539   4.690
 1177SOL    HW1 4430   6.109   2.499   4.762
 1177SOL    HW2 4431   6.033   2.635   4.712
 1178SOL     OW 4432   3.224   3.917   0.881
 1178SOL    HW1 4433   3.243   3.856   0.957
 1178SOL    HW2 4434   3.294   3.988   0.876
 1179SOL     OW 4435   2.477   6.063   0.615
 1179SOL    HW1 4436   2.401   6.087   0.675
 1179SOL    HW2 4437   2.442   6.040   0.524
 1180SOL     OW 4438   3.473   5.610   1.424
 1180SOL    HW1 4439   3.374   5.621   1.412
 1180SOL    HW2 4440   3.497   5.628   1.519
 1181SOL     OW 4441   0.341   5.223   6.741
 1181SOL    HW1 4442   0.356   5.242   6.644
 1181SOL    HW2 4443   0.409   5.158   6.773
 1182SOL     OW 4444   3.366   5.366   2.894
 1182SOL    HW1 4445   3.286   5.413   2.931
 1182SOL    HW2 4446   3.399   5.298   2.960
 1183SOL     OW 4447   2.038   4.558   6.917
 1183SOL    HW1 4448   2.088   4.571   6.832
 1183SOL    HW2 4449   2.098   4.516   6.985
 1184SOL     OW 4450   0.709   0.580   4.432
 1184SOL    HW1 4451   0.674   0.627   4.351
 1184SOL    HW2 4452   0.713   0.482   4.415
 1185SOL     OW 4453   6.978   1.082   6.201
 1185SOL    HW1 4454   6.986   1.021   6.280
 1185SOL    HW2 4455   6.887   1.122   6.198
 1186SOL     OW 4456   4.871   5.439   4.455
 1186SOL    HW1 4457   4.964   5.474   4.466
 1186SOL    HW2 4458   4.864   5.348   4.494
 1187SOL     OW 4459   6.847   6.826   6.818
 1187SOL    HW1 4460   6.917   6.864   6.879
 1187SOL    HW2 4461   6.812   6.741   6.856
 1188SOL     OW 4462   2.870   6.291   4.731
 1188SOL    HW1 4463   2.932   6.282   4.809
 1188SOL    HW2 4464   2.917   6.337   4.656
 1189SOL     OW 4465   6.550   3.325   2.641
 1189SOL    HW1 4466   6.568   3.277   2.556
 1189SOL    HW2 4467   6.494   3.406   2.623
 1190SOL     OW 4468   2.289   5.887   3.332
 1190SOL    HW1 4469   2.262   5.847   3.244
 1190SOL    HW2 4470   2.208   5.919   3.380
 1191SOL     OW 4471   4.020   5.088   3.170
 1191SOL    HW1 4472   4.096   5.095   3.106
 1191SOL    HW2 4473   3.997   4.992   3.186
 1192SOL     OW 4474   3.675   5.896   3.259
 1192SOL    HW1 4475   3.610   5.908   3.335
 1192SOL    HW2 4476   3.626   5.868   3.177
 1193SOL     OW 4477   5.887   4.563   4.260
 1193SOL    HW1 4478   5.825   4.627   4.306
 1193SOL    HW2 4479   5.952   4.615   4.205
 1194SOL     OW 4480   5.355   0.234   1.716
 1194SOL    HW1 4481   5.373   0.211   1.621
 1194SOL    HW2 4482   5.304   0.319   1.722
 1195SOL     OW 4483   5.980   4.574   1.808
 1195SOL    HW1 4484   6.007   4.670   1.805
 1195SOL    HW2 4485   6.061   4.518   1.826
 1196SOL     OW 4486   0.505   6.202   3.141
 1196SOL    HW1 4487   0.514   6.189   3.043
 1196SOL    HW2 4488   0.417   6.165   3.172
 1197SOL     OW 4489   3.554   0.619   6.850
 1197SOL    HW1 4490   3.501   0.642   6.931
 1197SOL    HW2 4491   3.640   0.670   6.850
 1198SOL     OW 4492   1.071   2.819   1.493
 1198SOL    HW1 4493   1.084   2.887   1.420
 1198SOL    HW2 4494   1.069   2.865   1.582
 1199SOL     OW 4495   4.725   5.007   1.886
 1199SOL    HW1 4496   4.696   4.914   1.860
 1199SOL    HW2 4497   4.759   5.054   1.805
 1200SOL     OW 4498   3.594   3.252   2.690
 1200SOL    HW1 4499   3.603   3.154   2.709
 1200SOL    HW2 4500   3.681   3.297   2.708
 1201SOL     OW 4501   1.020   1.033   4.828
 1201SOL    HW1 4502   1.007   0.934   4.826
 1201SOL    HW2 4503   1.105   1.057   4.781
 1202SOL     OW 4504   1.058   6.199   6.372
 1202SOL    HW1 4505   1.005   6.181   6.455
 1202SOL    HW2 4506   1.093   6.113   6.336
 1203SOL     OW 4507   5.297   6.149   6.769
 1203SOL    HW1 4508   5.295   6.175   6.672
 1203SOL    HW2 4509   5.358   6.070   6.781
 1204SOL     OW 4510   2.561   0.542   1.300
 1204SOL    HW1 4511   2.512   0.501   1.378
 1204SOL    HW2 4512   2.529   0.499   1.215
 1205SOL     OW 4513   4.824   4.254   1.617
 1205SOL    HW1 4514   4.846   4.305   1.700
 1205SOL    HW2 4515   4.782   4.166   1.641
 1206SOL     OW 4516   3.294   2.893   5.116
 1206SOL    HW1 4517   3.306   2.809   5.064
 1206SOL    HW2 4518   3.224   2.879   5.186
 1207SOL     OW 4519   2.537   0.230   1.445
 1207SOL    HW1 4520   2.577   0.242   1.354
 1207SOL    HW2 4521   2.609   0.238   1.514
 1208SOL     OW 4522   3.342   4.116   0.185
 1208SOL    HW1 4523   3.416   4.166   0.140
 1208SOL    HW2 4524   3.319   4.161   0.271
 1209SOL     OW 4525   3.787   0.527   5.646
 1209SOL    HW1 4526   3.834   0.612   5.621
 1209SOL    HW2 4527   3.702   0.519   5.594
 1210SOL     OW 4528   2.334   0.071   3.343
 1210SOL    HW1 4529   2.372   0.059   3.252
 1210SOL    HW2 4530   2.346   7.004   3.396
 1211SOL     OW 4531   1.538   3.658   1.100
 1211SOL    HW1 4532   1.592   3.594   1.155
 1211SOL    HW2 4533   1.547   3.633   1.003
 1212SOL     OW 4534   0.543   0.696   5.997
 1212SOL    HW1 4535   0.484   0.750   6.057
 1212SOL    HW2 4536   0.509   0.603   5.990
 1213SOL     OW 4537   5.601   2.621   0.404
 1213SOL    HW1 4538   5.656   2.669   0.471
 1213SOL    HW2 4539   5.604   2.522   0.422
 1214SOL     OW 4540   6.949   2.112   0.962
 1214SOL    HW1 4541   7.012   2.126   0.886
 1214SOL    HW2 4542   6.945   2.196   1.017
 1215SOL     OW 4543   1.905   4.533   4.247
 1215SOL    HW1 4544   1.893   4.625   4.210
 1215SOL    HW2 4545   1.834   4.473   4.209
 1216SOL     OW 4546   4.062   0.481   0.125
 1216SOL    HW1 4547   4.043   0.526   0.213
 1216SOL    HW2 4548   4.005   0.522   0.054
 1217SOL     OW 4549   1.621   5.027   0.275
 1217SOL    HW1 4550   1.567   5.016   0.358
 1217SOL    HW2 4551   1.617   5.122   0.245
 1218SOL     OW 4552   1.488   4.670   4.232
 1218SOL    HW1 4553   1.543   4.702   4.155
 1218SOL    HW2 4554   1.491   4.739   4.305
 1219SOL     OW 4555   5.395   6.046   1.914
 1219SOL    HW1 4556   5.363   5.988   1.838
 1219SOL    HW2 4557   5.438   5.989   1.983
 1220SOL     OW 4558   1.027   5.183   3.045
 1220SOL    HW1 4559   0.955   5.251   3.031
 1220SOL    HW2 4560   0.987   5.097   3.074
 1221SOL     OW 4561   5.299   2.889   5.545
 1221SOL    HW1 4562   5.368   2.874   5.615
 1221SOL    HW2 4563   5.315   2.977   5.500
 1222SOL     OW 4564   5.955   6.741   6.748
 1222SOL    HW1 4565   6.054   6.756   6.751
 1222SOL    HW2 4566   5.928   6.718   6.655
 1223SOL     OW 4567   3.675   0.608   0.491
 1223SOL    HW1 4568   3.732   0.657   0.556
 1223SOL    HW2 4569   3.626   0.534   0.538
 1224SOL     OW 4570   2.462   6.739   1.448
 1224SOL    HW1 4571   2.459   6.829   1.405
 1224SOL    HW2 4572   2.396   6.736   1.524
 1225SOL     OW 4573   3.190   4.299   6.173
 1225SOL    HW1 4574   3.180   4.372   6.105
 1225SOL    HW2 4575   3.107   4.243   6.174
 1226SOL     OW 4576   2.422   4.390   1.563
 1226SOL    HW1 4577   2.443   4.485   1.541
 1226SOL    HW2 4578   2.333   4.385   1.609
 1227SOL     OW 4579   6.722   3.140   6.570
 1227SOL    HW1 4580   6.689   3.048   6.592
 1227SOL    HW2 4581   6.644   3.202   6.563
 1228SOL     OW 4582   3.927   2.940   6.606
 1228SOL    HW1 4583   3.901   2.949   6.510
 1228SOL    HW2 4584   3.898   2.850   6.640
 1229SOL     OW 4585   4.684   4.741   6.158
 1229SOL    HW1 4586   4.675   4.840   6.167
 1229SOL    HW2 4587   4.621   4.708   6.088
 1230SOL     OW 4588   4.218   0.330   4.199
 1230SOL    HW1 4589   4.146   0.361   4.136
 1230SOL    HW2 4590   4.203   0.234   4.223
 1231SOL     OW 4591   1.720   3.721   4.951
 1231SOL    HW1 4592   1.621   3.734   4.955
 1231SOL    HW2 4593   1.766   3.807   4.972
 1232SOL     OW 4594   0.946   2.449   5.186
 1232SOL    HW1 4595   1.040   2.427   5.160
 1232SOL    HW2 4596   0.930   2.423   5.281
 1233SOL     OW 4597   1.676   2.884   5.569
 1233SOL    HW1 4598   1.643   2.978   5.558
 1233SOL    HW2 4599   1.775   2.882   5.557
 1234SOL     OW 4600   6.765   4.314   4.206
 1234SOL    HW1 4601   6.676   4.270   4.197
 1234SOL    HW2 4602   6.761   4.380   4.281
 1235SOL     OW 4603   0.016   5.702   2.629
 1235SOL    HW1 4604   0.072   5.782   2.609
 1235SOL    HW2 4605   0.008   5.646   2.547
 1236SOL     OW 4606   5.240   0.827   6.159
 1236SOL    HW1 4607   5.170   0.808   6.090
 1236SOL    HW2 4608   5.199   0.873   6.237
 1237SOL     OW 4609   2.600   4.825   5.937
 1237SOL    HW1 4610   2.560   4.878   5.862
 1237SOL    HW2 4611   2.618   4.732   5.905
 1238SOL     OW 4612   1.841   1.003   1.199
 1238SOL    HW1 4613   1.850   0.986   1.101
 1238SOL    HW2 4614   1.746   0.986   1.227
 1239SOL     OW 4615   0.027   6.251   6.644
 1239SOL    HW1 4616   0.025   6.240   6.743
 1239SOL    HW2 4617   0.121   6.243   6.611
 1240SOL     OW 4618   5.538   6.438   1.701
 1240SOL    HW1 4619   5.473   6.474   1.767
 1240SOL    HW2 4620   5.619   6.497   1.699
 1241SOL     OW 4621   6.623   3.473   4.176
 1241SOL    HW1 4622   6.683   3.505   4.104
 1241SOL    HW2 4623   6.573   3.550   4.215
 1242SOL     OW 4624   1.799   3.354   6.845
 1242SOL    HW1 4625   1.862   3.424   6.879
 1242SOL    HW2 4626   1.706   3.391   6.840
 1243SOL     OW 4627   1.715   5.091   5.155
 1243SOL    HW1 4628   1.747   5.186   5.158
 1243SOL    HW2 4629   1.754   5.041   5.232
 1244SOL     OW 4630   0.155   0.614   2.955
 1244SOL    HW1 4631   0.236   0.568   2.991
 1244SOL    HW2 4632   0.179   0.664   2.872
 1245SOL     OW 4633   2.931   3.298   6.654
 1245SOL    HW1 4634   2.908   3.395   6.661
 1245SOL    HW2 4635   2.867   3.245   6.709
 1246SOL     OW 4636   2.303   6.489   2.222
 1246SOL    HW1 4637   2.244   6.414   2.252
 1246SOL    HW2 4638   2.246   6.563   2.185
 1247SOL     OW 4639   2.665   0.117   6.409
 1247SOL    HW1 4640   2.749   0.171   6.403
 1247SOL    HW2 4641   2.637   0.090   6.317
 1248SOL     OW 4642   1.499   6.331   3.651
 1248SOL    HW1 4643   1.458   6.410   3.605
 1248SOL    HW2 4644   1.523   6.262   3.583
 1249SOL     OW 4645   5.493   3.171   2.768
 1249SOL    HW1 4646   5.466   3.165   2.864
 1249SOL    HW2 4647   5.587   3.141   2.757
 1250SOL     OW 4648   1.391   4.599   4.657
 1250SOL    HW1 4649   1.323   4.526   4.657
 1250SOL    HW2 4650   1.441   4.598   4.743
 1251SOL     OW 4651   3.959   0.736   4.595
 1251SOL    HW1 4652   4.024   0.715   4.523
 1251SOL    HW2 4653   3.873   0.686   4.578
 1252SOL     OW 4654   3.625   3.880   5.967
 1252SOL    HW1 4655   3.560   3.885   5.891
 1252SOL    HW2 4656   3.578   3.902   6.052
 1253SOL     OW 4657   3.629   5.303   2.251
 1253SOL    HW1 4658   3.564   5.229   2.268
 1253SOL    HW2 4659   3.652   5.349   2.338
 1254SOL     OW 4660   6.088   2.325   3.396
 1254SOL    HW1 4661   6.123   2.418   3.405
 1254SOL    HW2 4662   6.068   2.287   3.487
 1255SOL     OW 4663   0.233   0.282   5.279
 1255SOL    HW1 4664   0.238   0.184   5.262
 1255SOL    HW2 4665   0.181   0.326   5.206
 1256SOL     OW 4666   6.859   0.334   2.345
 1256SOL    HW1 4667   6.811   0.247   2.357
 1256SOL    HW2 4668   6.950   0.317   2.308
 1257SOL     OW 4669   6.922   0.883   3.155
 1257SOL    HW1 4670   6.847   0.890   3.089
 1257SOL    HW2 4671   6.938   0.788   3.179
 1258SOL     OW 4672   0.965   5.687   3.377
 1258SOL    HW1 4673   0.907   5.654   3.302
 1258SOL    HW2 4674   0.942   5.782   3.398
 1259SOL     OW 4675   4.163   1.960   5.087
 1259SOL    HW1 4676   4.083   1.925   5.038
 1259SOL    HW2 4677   4.188   1.896   5.161
 1260SOL     OW 4678   0.893   1.282   6.902
 1260SOL    HW1 4679   0.969   1.230   6.942
 1260SOL    HW2 4680   0.906   1.379   6.922
 1261SOL     OW 4681   0.203   5.083   0.221
 1261SOL    HW1 4682   0.187   5.140   0.140
 1261SOL    HW2 4683   0.127   5.021   0.233
 1262SOL     OW 4684   5.620   5.588   1.886
 1262SOL    HW1 4685   5.559   5.534   1.943
 1262SOL    HW2 4686   5.714   5.560   1.902
 1263SOL     OW 4687   0.816   2.039   2.257
 1263SOL    HW1 4688   0.789   1.945   2.281
 1263SOL    HW2 4689   0.791   2.057   2.162
 1264SOL     OW 4690   1.190   3.651   5.235
 1264SOL    HW1 4691   1.259   3.579   5.222
 1264SOL    HW2 4692   1.134   3.659   5.152
 1265SOL     OW 4693   6.154   5.590   5.486
 1265SOL    HW1 4694   6.085   5.567   5.555
 1265SOL    HW2 4695   6.199   5.676   5.511
 1266SOL     OW 4696   1.385   1.185   4.953
 1266SOL    HW1 4697   1.443   1.107   4.976
 1266SOL    HW2 4698   1.304   1.185   5.012
 1267SOL     OW 4699   5.049   0.669   1.811
 1267SOL    HW1 4700   5.119   0.600   1.830
 1267SOL    HW2 4701   5.022   0.664   1.715
 1268SOL     OW 4702   4.278   2.424   5.343
 1268SOL    HW1 4703   4.238   2.337   5.368
 1268SOL    HW2 4704   4.217   2.473   5.281
 1269SOL     OW 4705   5.292   2.587   4.052
 1269SOL    HW1 4706   5.271   2.646   3.974
 1269SOL    HW2 4707   5.385   2.552   4.042
 1270SOL     OW 4708   1.417   4.621   2.454
 1270SOL    HW1 4709   1.324   4.590   2.434
 1270SOL    HW2 4710   1.476   4.602   2.375
 1271SOL     OW 4711   1.660   1.329   1.501
 1271SOL    HW1 4712   1.692   1.240   1.468
 1271SOL    HW2 4713   1.562   1.324   1.520
 1272SOL     OW 4714   6.603   4.014   0.049
 1272SOL    HW1 4715   6.702   3.998   0.044
 1272SOL    HW2 4716   6.562   3.946   0.110
 1273SOL     OW 4717   1.521   4.341   5.052
 1273SOL    HW1 4718   1.477   4.427   5.025
 1273SOL    HW2 4719   1.473   4.265   5.010
 1274SOL     OW 4720   0.371   4.818   2.104
 1274SOL    HW1 4721   0.326   4.784   2.186
 1274SOL    HW2 4722   0.306   4.820   2.028
 1275SOL     OW 4723   2.958   0.982   3.268
 1275SOL    HW1 4724   2.899   0.910   3.305
 1275SOL    HW2 4725   3.040   0.989   3.324
 1276SOL     OW 4726   5.725   4.738   4.370
 1276SOL    HW1 4727   5.741   4.826   4.325
 1276SOL    HW2 4728   5.749   4.745   4.467
 1277SOL     OW 4729   0.506   5.814   6.649
 1277SOL    HW1 4730   0.523   5.724   6.610
 1277SOL    HW2 4731   0.502   5.806   6.749
 1278SOL     OW 4732   1.193   6.758   3.427
 1278SOL    HW1 4733   1.138   6.755   3.511
 1278SOL    HW2 4734   1.133   6.779   3.350
 1279SOL     OW 4735   2.927   2.651   6.310
 1279SOL    HW1 4736   2.904   2.560   6.276
 1279SOL    HW2 4737   2.874   2.671   6.393
 1280SOL     OW 4738   3.110   1.316   3.268
 1280SOL    HW1 4739   3.019   1.344   3.239
 1280SOL    HW2 4740   3.166   1.296   3.187
 1281SOL     OW 4741   3.516   6.465   3.854
 1281SOL    HW1 4742   3.559   6.379   3.880
 1281SOL    HW2 4743   3.456   6.450   3.776
 1282SOL     OW 4744   0.031   3.083   0.832
 1282SOL    HW1 4745   0.085   3.000   0.845
 1282SOL    HW2 4746   7.013   3.114   0.920
 1283SOL     OW 4747   6.009   3.839   5.221
 1283SOL    HW1 4748   5.914   3.830   5.192
 1283SOL    HW2 4749   6.069   3.829   5.142
 1284SOL     OW 4750   3.603   1.341   1.261
 1284SOL    HW1 4751   3.540   1.418   1.251
 1284SOL    HW2 4752   3.666   1.339   1.182
 1285SOL     OW 4753   3.441   1.753   4.413
 1285SOL    HW1 4754   3.536   1.726   4.397
 1285SOL    HW2 4755   3.432   1.852   4.405
 1286SOL     OW 4756   4.905   2.243   1.697
 1286SOL    HW1 4757   4.956   2.206   1.620
 1286SOL    HW2 4758   4.933   2.338   1.713
 1287SOL     OW 4759   6.722   4.804   4.614
 1287SOL    HW1 4760   6.765   4.802   4.525
 1287SOL    HW2 4761   6.786   4.841   4.682
 1288SOL     OW 4762   4.468   4.133   6.280
 1288SOL    HW1 4763   4.540   4.202   6.275
 1288SOL    HW2 4764   4.383   4.170   6.243
 1289SOL     OW 4765   6.156   0.480   1.054
 1289SOL    HW1 4766   6.157   0.405   1.120
 1289SOL    HW2 4767   6.073   0.534   1.065
 1290SOL     OW 4768   1.528   0.536   0.015
 1290SOL    HW1 4769   1.457   0.605   0.023
 1290SOL    HW2 4770   1.500   0.453   0.065
 1291SOL     OW 4771   6.608   4.695   3.189
 1291SOL    HW1 4772   6.640   4.752   3.265
 1291SOL    HW2 4773   6.566   4.611   3.226
 1292SOL     OW 4774   0.359   6.019   2.224
 1292SOL    HW1 4775   0.453   5.993   2.202
 1292SOL    HW2 4776   0.352   6.119   2.228
 1293SOL     OW 4777   2.308   1.415   0.066
 1293SOL    HW1 4778   2.348   1.493   0.018
 1293SOL    HW2 4779   2.214   1.436   0.093
 1294SOL     OW 4780   1.959   4.069   5.902
 1294SOL    HW1 4781   1.994   4.048   5.811
 1294SOL    HW2 4782   2.013   4.143   5.942
 1295SOL     OW 4783   6.950   3.578   1.279
 1295SOL    HW1 4784   6.931   3.639   1.202
 1295SOL    HW2 4785   0.017   3.609   1.325
 1296SOL     OW 4786   5.337   6.686   5.941
 1296SOL    HW1 4787   5.357   6.771   5.893
 1296SOL    HW2 4788   5.403   6.616   5.914
 1297SOL     OW 4789   0.776   0.531   2.638
 1297SOL    HW1 4790   0.834   0.605   2.673
 1297SOL    HW2 4791   0.729   0.487   2.715
 1298SOL     OW 4792   5.673   5.420   2.606
 1298SOL    HW1 4793   5.656   5.339   2.550
 1298SOL    HW2 4794   5.638   5.404   2.698
 1299SOL     OW 4795   2.054   3.311   4.277
 1299SOL    HW1 4796   1.964   3.351   4.261
 1299SOL    HW2 4797   2.086   3.267   4.193
 1300SOL     OW 4798   2.192   4.227   1.171
 1300SOL    HW1 4799   2.126   4.301   1.169
 1300SOL    HW2 4800   2.239   4.226   1.259
 1301SOL     OW 4801   1.043   0.798   1.669
 1301SOL    HW1 4802   1.034   0.781   1.570
 1301SOL    HW2 4803   0.998   0.724   1.719
 1302SOL     OW 4804   5.651   6.443   6.131
 1302SOL    HW1 4805   5.677   6.398   6.217
 1302SOL    HW2 4806   5.626   6.538   6.150
 1303SOL     OW 4807   4.369   6.844   1.843
 1303SOL    HW1 4808   4.291   6.893   1.882
 1303SOL    HW2 4809   4.454   6.887   1.872
 1304SOL     OW 4810   1.040   1.227   1.477
 1304SOL    HW1 4811   1.021   1.173   1.559
 1304SOL    HW2 4812   1.036   1.324   1.499
 1305SOL     OW 4813   5.099   4.788   6.525
 1305SOL    HW1 4814   5.024   4.768   6.588
 1305SOL    HW2 4815   5.085   4.879   6.485
 1306SOL     OW 4816   1.276   5.459   5.123
 1306SOL    HW1 4817   1.358   5.412   5.155
 1306SOL    HW2 4818   1.295   5.503   5.036
 1307SOL     OW 4819   1.868   3.193   3.787
 1307SOL    HW1 4820   1.851   3.244   3.703
 1307SOL    HW2 4821   1.861   3.095   3.768
 1308SOL     OW 4822   6.488   5.420   6.783
 1308SOL    HW1 4823   6.506   5.342   6.723
 1308SOL    HW2 4824   6.471   5.388   6.876
 1309SOL     OW 4825   5.231   4.516   6.244
 1309SOL    HW1 4826   5.315   4.569   6.255
 1309SOL    HW2 4827   5.154   4.568   6.281
 1310SOL     OW 4828   1.403   3.662   4.122
 1310SOL    HW1 4829   1.452   3.624   4.200
 1310SOL    HW2 4830   1.440   3.624   4.037
 1311SOL     OW 4831   6.634   5.636   0.556
 1311SOL    HW1 4832   6.685   5.663   0.475
 1311SOL    HW2 4833   6.563   5.571   0.531
 1312SOL     OW 4834   1.456   0.798   5.465
 1312SOL    HW1 4835   1.432   0.894   5.451
 1312SOL    HW2 4836   1.374   0.742   5.456
 1313SOL     OW 4837   6.590   5.128   3.349
 1313SOL    HW1 4838   6.579   5.224   3.321
 1313SOL    HW2 4839   6.664   5.086   3.296
 1314SOL     OW 4840   2.375   1.608   5.031
 1314SOL    HW1 4841   2.447   1.644   5.089
 1314SOL    HW2 4842   2.402   1.615   4.935
 1315SOL     OW 4843   6.165   0.492   3.993
 1315SOL    HW1 4844   6.183   0.569   4.054
 1315SOL    HW2 4845   6.097   0.519   3.925
 1316SOL     OW 4846   3.917   0.675   4.992
 1316SOL    HW1 4847   4.008   0.656   4.955
 1316SOL    HW2 4848   3.919   0.662   5.091
 1317SOL     OW 4849   2.815   3.571   5.826
 1317SOL    HW1 4850   2.914   3.559   5.821
 1317SOL    HW2 4851   2.789   3.594   5.920
 1318SOL     OW 4852   1.979   2.677   0.132
 1318SOL    HW1 4853   2.037   2.597   0.150
 1318SOL    HW2 4854   2.034   2.748   0.087
 1319SOL     OW 4855   6.901   5.919   0.152
 1319SOL    HW1 4856   6.995   5.904   0.182
 1319SOL    HW2 4857   6.886   5.869   0.067
 1320SOL     OW 4858   3.665   2.867   6.378
 1320SOL    HW1 4859   3.735   2.927   6.339
 1320SOL    HW2 4860   3.588   2.921   6.411
 1321SOL     OW 4861   5.723   2.029   6.738
 1321SOL    HW1 4862   5.659   2.034   6.815
 1321SOL    HW2 4863   5.713   1.940   6.693
 1322SOL     OW 4864   2.986   1.211   6.467
 1322SOL    HW1 4865   2.905   1.189   6.521
 1322SOL    HW2 4866   2.961   1.217   6.370
 1323SOL     OW 4867   3.405   0.227   0.542
 1323SOL    HW1 4868   3.489   0.198   0.589
 1323SOL    HW2 4869   3.429   0.294   0.471
 1324SOL     OW 4870   1.334   3.657   0.283
 1324SOL    HW1 4871   1.339   3.679   0.186
 1324SOL    HW2 4872   1.338   3.742   0.336
 1325SOL     OW 4873   2.089   5.821   6.026
 1325SOL    HW1 4874   2.112   5.797   5.932
 1325SOL    HW2 4875   1.990   5.812   6.040
 1326SOL     OW 4876   4.829   3.990   4.467
 1326SOL    HW1 4877   4.858   4.033   4.553
 1326SOL    HW2 4878   4.784   3.903   4.486
 1327SOL     OW 4879   0.269   6.395   0.888
 1327SOL    HW1 4880   0.263   6.483   0.936
 1327SOL    HW2 4881   0.307   6.410   0.797
 1328SOL     OW 4882   1.020   3.284   5.635
 1328SOL    HW1 4883   0.982   3.201   5.594
 1328SOL    HW2 4884   1.007   3.361   5.572
 1329SOL     OW 4885   0.414   2.703   3.125
 1329SOL    HW1 4886   0.338   2.714   3.061
 1329SOL    HW2 4887   0.427   2.605   3.145
 1330SOL     OW 4888   6.634   2.233   1.170
 1330SOL    HW1 4889   6.696   2.239   1.248
 1330SOL    HW2 4890   6.646   2.145   1.124
 1331SOL     OW 4891   4.355   2.423   2.595
 1331SOL    HW1 4892   4.273   2.372   2.569
 1331SOL    HW2 4893   4.347   2.452   2.690
 1332SOL     OW 4894   1.648   0.411   1.107
 1332SOL    HW1 4895   1.582   0.456   1.167
 1332SOL    HW2 4896   1.657   0.463   1.023
 1333SOL     OW 4897   3.908   3.908   3.043
 1333SOL    HW1 4898   3.861   3.977   3.098
 1333SOL    HW2 4899   3.982   3.867   3.096
 1334SOL     OW 4900   6.686   1.658   2.570
 1334SOL    HW1 4901   6.747   1.583   2.544
 1334SOL    HW2 4902   6.594   1.641   2.533
 1335SOL     OW 4903   2.069   4.055   1.414
 1335SOL    HW1 4904   2.122   3.974   1.437
 1335SOL    HW2 4905   2.029   4.044   1.322
 1336SOL     OW 4906   3.562   0.857   5.681
 1336SOL    HW1 4907   3.658   0.880   5.698
 1336SOL    HW2 4908   3.532   0.787   5.746
 1337SOL     OW 4909   6.072   1.701   3.595
 1337SOL    HW1 4910   6.084   1.722   3.692
 1337SOL    HW2 4911   6.116   1.773   3.541
 1338SOL     OW 4912   6.213   3.906   4.249
 1338SOL    HW1 4913   6.228   3.988   4.303
 1338SOL    HW2 4914   6.250   3.919   4.157
 1339SOL     OW 4915   0.004   0.343   6.904
 1339SOL    HW1 4916   0.052   0.278   6.964
 1339SOL    HW2 4917   6.931   0.365   6.944
 1340SOL     OW 4918   5.103   0.924   1.929
 1340SOL    HW1 4919   5.010   0.962   1.934
 1340SOL    HW2 4920   5.097   0.825   1.914
 1341SOL     OW 4921   4.552   6.991   6.779
 1341SOL    HW1 4922   4.560   0.064   6.822
 1341SOL    HW2 4923   4.512   6.926   6.844
 1342SOL     OW 4924   3.378   5.532   0.527
 1342SOL    HW1 4925   3.308   5.549   0.458
 1342SOL    HW2 4926   3.386   5.612   0.587
 1343SOL     OW 4927   5.019   5.003   3.071
 1343SOL    HW1 4928   5.081   5.043   3.138
 1343SOL    HW2 4929   5.071   4.947   3.006
 1344SOL     OW 4930   0.072   0.073   4.540
 1344SOL    HW1 4931   0.117   0.162   4.547
 1344SOL    HW2 4932   0.105   0.025   4.459
 1345SOL     OW 4933   0.484   5.463   1.879
 1345SOL    HW1 4934   0.488   5.365   1.896
 1345SOL    HW2 4935   0.543   5.511   1.945
 1346SOL     OW 4936   2.315   5.323   5.701
 1346SOL    HW1 4937   2.403   5.348   5.742
 1346SOL    HW2 4938   2.325   5.315   5.602
 1347SOL     OW 4939   1.805   0.506   6.364
 1347SOL    HW1 4940   1.832   0.412   6.386
 1347SOL    HW2 4941   1.759   0.545   6.444
 1348SOL     OW 4942   6.840   5.889   5.022
 1348SOL    HW1 4943   6.787   5.973   5.014
 1348SOL    HW2 4944   6.778   5.811   5.028
 1349SOL     OW 4945   5.608   3.303   4.014
 1349SOL    HW1 4946   5.573   3.351   3.932
 1349SOL    HW2 4947   5.541   3.235   4.043
 1350SOL     OW 4948   3.668   3.753   0.433
 1350SOL    HW1 4949   3.642   3.679   0.372
 1350SOL    HW2 4950   3.589   3.811   0.450
 1351SOL     OW 4951   6.232   2.298   4.186
 1351SOL    HW1 4952   6.241   2.321   4.089
 1351SOL    HW2 4953   6.145   2.332   4.221
 1352SOL     OW 4954   6.577   6.974   2.195
 1352SOL    HW1 4955   6.496   6.920   2.219
 1352SOL    HW2 4956   6.642   6.916   2.146
 1353SOL     OW 4957   0.218   1.671   1.089
 1353SOL    HW1 4958   0.124   1.695   1.066
 1353SOL    HW2 4959   0.247   1.593   1.033
 1354SOL     OW 4960   6.310   4.143   2.546
 1354SOL    HW1 4961   6.227   4.193   2.572
 1354SOL    HW2 4962   6.350   4.100   2.627
 1355SOL     OW 4963   5.931   3.454   4.581
 1355SOL    HW1 4964   5.859   3.386   4.570
 1355SOL    HW2 4965   5.890   3.544   4.597
 1356SOL     OW 4966   3.643   2.978   2.230
 1356SOL    HW1 4967   3.676   2.932   2.148
 1356SOL    HW2 4968   3.639   3.077   2.213
 1357SOL     OW 4969   6.434   3.760   5.654
 1357SOL    HW1 4970   6.466   3.691   5.590
 1357SOL    HW2 4971   6.353   3.805   5.617
 1358SOL     OW 4972   0.973   6.709   6.819
 1358SOL    HW1 4973   1.018   6.798   6.811
 1358SOL    HW2 4974   0.975   6.663   6.730
 1359SOL     OW 4975   6.396   4.086   1.571
 1359SOL    HW1 4976   6.432   4.176   1.547
 1359SOL    HW2 4977   6.341   4.050   1.496
 1360SOL     OW 4978   3.434   2.997   6.470
 1360SOL    HW1 4979   3.382   3.031   6.548
 1360SOL    HW2 4980   3.373   2.988   6.391
 1361SOL     OW 4981   0.448   4.065   4.701
 1361SOL    HW1 4982   0.406   4.156   4.699
 1361SOL    HW2 4983   0.383   3.998   4.667
 1362SOL     OW 4984   3.661   2.948   2.717
 1362SOL    HW1 4985   3.742   2.974   2.771
 1362SOL    HW2 4986   3.602   2.889   2.773
 1363SOL     OW 4987   6.870   5.423   5.332
 1363SOL    HW1 4988   6.824   5.368   5.262
 1363SOL    HW2 4989   6.927   5.492   5.287
 1364SOL     OW 4990   4.499   4.360   0.304
 1364SOL    HW1 4991   4.575   4.423   0.321
 1364SOL    HW2 4992   4.482   4.355   0.205
 1365SOL     OW 4993   0.535   3.605   6.542
 1365SOL    HW1 4994   0.522   3.508   6.522
 1365SOL    HW2 4995   0.521   3.621   6.640
 1366SOL     OW 4996   1.543   0.275   4.931
 1366SOL    HW1 4997   1.593   0.213   4.871
 1366SOL    HW2 4998   1.467   0.316   4.880
 1367SOL     OW 4999   1.954   1.163   2.409
 1367SOL    HW1 5000   1.913   1.252   2.386
 1367SOL    HW2 5001   2.007   1.171   2.493
 1368SOL     OW 5002   5.772   0.074   4.037
 1368SOL    HW1 5003   5.855   0.019   4.052
 1368SOL    HW2 5004   5.742   0.114   4.124
 1369SOL     OW 5005   0.556   0.619   3.176
 1369SOL    HW1 5006   0.596   0.705   3.143
 1369SOL    HW2 5007   0.596   0.596   3.265
 1370SOL     OW 5008   3.184   0.531   1.767
 1370SOL    HW1 5009   3.180   0.472   1.686
 1370SOL    HW2 5010   3.271   0.516   1.815
 1371SOL     OW 5011   3.430   0.251   5.754
 1371SOL    HW1 5012   3.493   0.212   5.686
 1371SOL    HW2 5013   3.448   0.211   5.843
 1372SOL     OW 5014   2.320   2.193   2.150
 1372SOL    HW1 5015   2.260   2.222   2.076
 1372SOL    HW2 5016   2.413   2.184   2.115
 1373SOL     OW 5017   0.793   5.390   1.268
 1373SOL    HW1 5018   0.787   5.453   1.346
 1373SOL    HW2 5019   0.701   5.365   1.238
 1374SOL     OW 5020   4.401   2.244   1.158
 1374SOL    HW1 5021   4.336   2.176   1.124
 1374SOL    HW2 5022   4.397   2.325   1.101
 1375SOL     OW 5023   0.361   4.691   6.073
 1375SOL    HW1 5024   0.335   4.785   6.095
 1375SOL    HW2 5025   0.394   4.645   6.156
 1376SOL     OW 5026   4.850   2.982   3.272
 1376SOL    HW1 5027   4.913   2.974   3.349
 1376SOL    HW2 5028   4.757   2.960   3.303
 1377SOL     OW 5029   6.780   4.999   5.395
 1377SOL    HW1 5030   6.788   5.078   5.333
 1377SOL    HW2 5031   6.716   5.021   5.468
 1378SOL     OW 5032   1.288   2.378   0.106
 1378SOL    HW1 5033   1.305   2.293   0.056
 1378SOL    HW2 5034   1.190   2.393   0.114
 1379SOL     OW 5035   3.891   6.942   2.636
 1379SOL    HW1 5036   3.822   6.893   2.582
 1379SOL    HW2 5037   3.867   6.935   2.733
 1380SOL     OW 5038   6.563   0.209   2.373
 1380SOL    HW1 5039   6.624   0.130   2.371
 1380SOL    HW2 5040   6.469   0.178   2.389
 1381SOL     OW 5041   6.355   2.178   0.394
 1381SOL    HW1 5042   6.347   2.111   0.319
 1381SOL    HW2 5043   6.448   2.176   0.430
 1382SOL     OW 5044   5.284   4.974   6.301
 1382SOL    HW1 5045   5.263   5.059   6.349
 1382SOL    HW2 5046   5.225   4.901   6.335
 1383SOL     OW 5047   2.092   0.147   0.758
 1383SOL    HW1 5048   2.011   0.182   0.712
 1383SOL    HW2 5049   2.138   0.082   0.697
 1384SOL     OW 5050   3.061   2.122   2.609
 1384SOL    HW1 5051   3.061   2.155   2.514
 1384SOL    HW2 5052   3.037   2.025   2.610
 1385SOL     OW 5053   6.780   3.270   3.236
 1385SOL    HW1 5054   6.793   3.197   3.168
 1385SOL    HW2 5055   6.700   3.249   3.292
 1386SOL     OW 5056   2.280   3.047   4.304
 1386SOL    HW1 5057   2.274   3.110   4.227
 1386SOL    HW2 5058   2.254   3.093   4.388
 1387SOL     OW 5059   2.639   0.222   5.175
 1387SOL    HW1 5060   2.619   0.318   5.191
 1387SOL    HW2 5061   2.710   0.213   5.105
 1388SOL     OW 5062   6.369   0.950   3.959
 1388SOL    HW1 5063   6.395   0.853   3.948
 1388SOL    HW2 5064   6.274   0.962   3.931
 1389SOL     OW 5065   5.902   6.978   4.498
 1389SOL    HW1 5066   5.961   6.996   4.577
 1389SOL    HW2 5067   5.906   6.880   4.475
 1390SOL     OW 5068   4.769   2.414   2.083
 1390SOL    HW1 5069   4.704   2.474   2.131
 1390SOL    HW2 5070   4.807   2.348   2.148
 1391SOL     OW 5071   5.442   0.588   4.473
 1391SOL    HW1 5072   5.419   0.582   4.570
 1391SOL    HW2 5073   5.412   0.504   4.427
 1392SOL     OW 5074   5.354   5.877   6.766
 1392SOL    HW1 5075   5.348   5.820   6.848
 1392SOL    HW2 5076   5.411   5.831   6.698
 1393SOL     OW 5077   6.692   1.040   6.434
 1393SOL    HW1 5078   6.736   1.074   6.351
 1393SOL    HW2 5079   6.656   0.948   6.417
 1394SOL     OW 5080   4.542   6.741   3.959
 1394SOL    HW1 5081   4.599   6.659   3.960
 1394SOL    HW2 5082   4.495   6.749   4.047
 1395SOL     OW 5083   1.598   5.045   2.119
 1395SOL    HW1 5084   1.582   5.082   2.210
 1395SOL    HW2 5085   1.655   4.963   2.126
 1396SOL     OW 5086   1.822   1.098   3.983
 1396SOL    HW1 5087   1.839   1.053   4.071
 1396SOL    HW2 5088   1.874   1.183   3.978
 1397SOL     OW 5089   0.506   5.516   4.319
 1397SOL    HW1 5090   0.571   5.481   4.386
 1397SOL    HW2 5091   0.513   5.462   4.235
 1398SOL     OW 5092   0.750   0.774   0.973
 1398SOL    HW1 5093   0.836   0.764   0.924
 1398SOL    HW2 5094   0.746   0.865   1.015
 1399SOL     OW 5095   3.879   0.118   0.129
 1399SOL    HW1 5096   3.887   0.024   0.096
 1399SOL    HW2 5097   3.810   0.122   0.201
 1400SOL     OW 5098   6.001   0.434   4.965
 1400SOL    HW1 5099   6.003   0.500   4.890
 1400SOL    HW2 5100   6.092   0.429   5.007
 1401SOL     OW 5101   5.230   0.522   3.218
 1401SOL    HW1 5102   5.325   0.491   3.209
 1401SOL    HW2 5103   5.178   0.492   3.139
 1402SOL     OW 5104   6.385   4.667   1.897
 1402SOL    HW1 5105   6.303   4.662   1.954
 1402SOL    HW2 5106   6.397   4.580   1.849
 1403SOL     OW 5107   2.932   2.912   6.731
 1403SOL    HW1 5108   2.973   2.925   6.641
 1403SOL    HW2 5109   2.851   2.969   6.739
 1404SOL     OW 5110   4.490   6.816   0.438
 1404SOL    HW1 5111   4.429   6.857   0.506
 1404SOL    HW2 5112   4.444   6.737   0.397
 1405SOL     OW 5113   1.680   3.116   0.654
 1405SOL    HW1 5114   1.649   3.133   0.748
 1405SOL    HW2 5115   1.647   3.188   0.594
 1406SOL     OW 5116   2.375   2.990   1.255
 1406SOL    HW1 5117   2.423   2.904   1.273
 1406SOL    HW2 5118   2.440   3.060   1.228
 1407SOL     OW 5119   0.547   3.042   0.851
 1407SOL    HW1 5120   0.456   3.005   0.872
 1407SOL    HW2 5121   0.554   3.134   0.887
 1408SOL     OW 5122   6.102   6.005   0.410
 1408SOL    HW1 5123   6.103   5.913   0.370
 1408SOL    HW2 5124   6.008   6.036   0.419
 1409SOL     OW 5125   7.012   1.770   5.938
 1409SOL    HW1 5126   6.954   1.709   5.884
 1409SOL    HW2 5127   0.092   1.749   5.921
 1410SOL     OW 5128   3.711   1.927   6.098
 1410SOL    HW1 5129   3.790   1.876   6.065
 1410SOL    HW2 5130   3.728   2.025   6.087
 1411SOL     OW 5131   4.221   5.101   0.100
 1411SOL    HW1 5132   4.213   5.008   0.065
 1411SOL    HW2 5133   4.135   5.150   0.087
 1412SOL     OW 5134   1.773   2.521   0.397
 1412SOL    HW1 5135   1.771   2.543   0.495
 1412SOL    HW2 5136   1.794   2.604   0.345
 1413SOL     OW 5137   1.936   1.700   5.529
 1413SOL    HW1 5138   1.893   1.613   5.554
 1413SOL    HW2 5139   1.871   1.775   5.544
 1414SOL     OW 5140   1.242   4.344   2.267
 1414SOL    HW1 5141   1.193   4.431   2.269
 1414SOL    HW2 5142   1.197   4.278   2.327
 1415SOL     OW 5143   1.994   2.047   4.605
 1415SOL    HW1 5144   1.965   2.117   4.540
 1415SOL    HW2 5145   1.971   1.957   4.569
 1416SOL     OW 5146   3.838   0.167   5.232
 1416SOL    HW1 5147   3.786   0.082   5.236
 1416SOL    HW2 5148   3.932   0.149   5.204
 1417SOL     OW 5149   3.730   3.352   6.118
 1417SOL    HW1 5150   3.652   3.290   6.110
 1417SOL    HW2 5151   3.715   3.432   6.059
 1418SOL     OW 5152   3.091   4.012   6.553
 1418SOL    HW1 5153   3.136   4.094   6.519
 1418SOL    HW2 5154   3.157   3.937   6.560
 1419SOL     OW 5155   1.818   4.628   2.434
 1419SOL    HW1 5156   1.912   4.645   2.404
 1419SOL    HW2 5157   1.791   4.536   2.408
 1420SOL     OW 5158   2.984   6.132   3.203
 1420SOL    HW1 5159   3.082   6.117   3.188
 1420SOL    HW2 5160   2.971   6.220   3.249
 1421SOL     OW 5161   1.419   5.033   5.973
 1421SOL    HW1 5162   1.395   5.123   6.008
 1421SOL    HW2 5163   1.501   5.040   5.916
 1422SOL     OW 5164   2.212   4.297   5.871
 1422SOL    HW1 5165   2.143   4.320   5.802
 1422SOL    HW2 5166   2.289   4.249   5.827
 1423SOL     OW 5167   4.023   0.722   5.255
 1423SOL    HW1 5168   4.076   0.641   5.276
 1423SOL    HW2 5169   4.051   0.797   5.316
 1424SOL     OW 5170   6.270   3.092   6.599
 1424SOL    HW1 5171   6.269   3.014   6.662
 1424SOL    HW2 5172   6.202   3.160   6.628
 1425SOL     OW 5173   4.974   6.358   3.591
 1425SOL    HW1 5174   5.025   6.438   3.559
 1425SOL    HW2 5175   4.888   6.387   3.631
 1426SOL     OW 5176   3.281   2.261   6.692
 1426SOL    HW1 5177   3.307   2.355   6.713
 1426SOL    HW2 5178   3.190   2.260   6.651
 1427SOL     OW 5179   1.611   1.134   3.790
 1427SOL    HW1 5180   1.525   1.172   3.823
 1427SOL    HW2 5181   1.675   1.125   3.865
 1428SOL     OW 5182   0.741   3.998   4.044
 1428SOL    HW1 5183   0.766   3.904   4.018
 1428SOL    HW2 5184   0.729   4.004   4.143
 1429SOL     OW 5185   6.033   0.804   0.665
 1429SOL    HW1 5186   6.045   0.842   0.756
 1429SOL    HW2 5187   6.068   0.868   0.597
 1430SOL     OW 5188   1.595   4.162   3.558
 1430SOL    HW1 5189   1.653   4.095   3.604
 1430SOL    HW2 5190   1.522   4.191   3.620
 1431SOL     OW 5191   2.460   1.000   5.889
 1431SOL    HW1 5192   2.543   1.032   5.842
 1431SOL    HW2 5193   2.381   1.012   5.828
 1432SOL     OW 5194   2.472   1.566   2.276
 1432SOL    HW1 5195   2.493   1.469   2.278
 1432SOL    HW2 5196   2.448   1.597   2.368
 1433SOL     OW 5197   2.790   0.063   4.094
 1433SOL    HW1 5198   2.730   0.138   4.067
 1433SOL    HW2 5199   2.869   0.100   4.144
 1434SOL     OW 5200   0.280   3.137   0.474
 1434SOL    HW1 5201   0.366   3.187   0.487
 1434SOL    HW2 5202   0.300   3.043   0.448
 1435SOL     OW 5203   1.169   6.991   4.170
 1435SOL    HW1 5204   1.214   6.951   4.091
 1435SOL    HW2 5205   1.201   6.945   4.253
 1436SOL     OW 5206   5.554   2.093   6.967
 1436SOL    HW1 5207   5.466   2.110   7.010
 1436SOL    HW2 5208   5.594   2.180   6.938
 1437SOL     OW 5209   4.138   0.413   6.150
 1437SOL    HW1 5210   4.077   0.359   6.091
 1437SOL    HW2 5211   4.233   0.389   6.129
 1438SOL     OW 5212   2.510   0.181   2.318
 1438SOL    HW1 5213   2.437   0.113   2.330
 1438SOL    HW2 5214   2.572   0.150   2.246
 1439SOL     OW 5215   0.552   5.185   0.057
 1439SOL    HW1 5216   0.628   5.176   0.122
 1439SOL    HW2 5217   0.495   5.103   0.062
 1440SOL     OW 5218   3.130   3.007   3.668
 1440SOL    HW1 5219   3.085   3.013   3.579
 1440SOL    HW2 5220   3.208   2.945   3.661
 1441SOL     OW 5221   6.045   2.975   3.728
 1441SOL    HW1 5222   6.045   2.967   3.828
 1441SOL    HW2 5223   5.993   3.056   3.700
 1442SOL     OW 5224   5.085   4.543   0.219
 1442SOL    HW1 5225   5.109   4.623   0.273
 1442SOL    HW2 5226   5.160   4.477   0.222
 1443SOL     OW 5227   0.419   2.562   2.786
 1443SOL    HW1 5228   0.377   2.547   2.697
 1443SOL    HW2 5229   0.349   2.550   2.857
 1444SOL     OW 5230   4.612   1.188   3.675
 1444SOL    HW1 5231   4.607   1.285   3.699
 1444SOL    HW2 5232   4.620   1.178   3.576
 1445SOL     OW 5233   6.070   1.831   1.538
 1445SOL    HW1 5234   6.080   1.854   1.442
 1445SOL    HW2 5235   6.070   1.915   1.593
 1446SOL     OW 5236   4.244   0.519   1.345
 1446SOL    HW1 5237   4.306   0.536   1.268
 1446SOL    HW2 5238   4.206   0.427   1.339
 1447SOL     OW 5239   6.586   0.691   5.311
 1447SOL    HW1 5240   6.632   0.739   5.385
 1447SOL    HW2 5241   6.607   0.734   5.224
 1448SOL     OW 5242   5.371   0.857   6.524
 1448SOL    HW1 5243   5.351   0.877   6.620
 1448SOL    HW2 5244   5.459   0.809   6.518
 1449SOL     OW 5245   5.065   5.697   0.949
 1449SOL    HW1 5246   5.118   5.705   1.034
 1449SOL    HW2 5247   5.083   5.777   0.891
 1450SOL     OW 5248   5.380   2.976   3.267
 1450SOL    HW1 5249   5.308   2.918   3.306
 1450SOL    HW2 5250   5.390   2.956   3.170
 1451SOL     OW 5251   1.262   6.170   3.145
 1451SOL    HW1 5252   1.171   6.131   3.130
 1451SOL    HW2 5253   1.308   6.121   3.219
 1452SOL     OW 5254   4.525   1.243   5.318
 1452SOL    HW1 5255   4.524   1.260   5.417
 1452SOL    HW2 5256   4.512   1.330   5.270
 1453SOL     OW 5257   5.338   4.874   5.355
 1453SOL    HW1 5258   5.401   4.798   5.342
 1453SOL    HW2 5259   5.388   4.953   5.390
 1454SOL     OW 5260   4.108   3.903   1.066
 1454SOL    HW1 5261   4.181   3.936   1.006
 1454SOL    HW2 5262   4.087   3.808   1.043
 1455SOL     OW 5263   1.820   2.251   1.524
 1455SOL    HW1 5264   1.790   2.346   1.535
 1455SOL    HW2 5265   1.744   2.190   1.544
 1456SOL     OW 5266   6.162   6.123   3.598
 1456SOL    HW1 5267   6.081   6.182   3.601
 1456SOL    HW2 5268   6.159   6.060   3.676
 1457SOL     OW 5269   1.390   0.618   2.982
 1457SOL    HW1 5270   1.342   0.559   3.047
 1457SOL    HW2 5271   1.395   0.711   3.019
 1458SOL     OW 5272   5.628   5.341   6.835
 1458SOL    HW1 5273   5.607   5.249   6.870
 1458SOL    HW2 5274   5.716   5.371   6.871
 1459SOL     OW 5275   2.166   7.005   6.845
 1459SOL    HW1 5276   2.241   6.969   6.900
 1459SOL    HW2 5277   2.189   0.080   6.812
 1460SOL     OW 5278   1.481   0.166   6.890
 1460SOL    HW1 5279   1.384   0.177   6.871
 1460SOL    HW2 5280   1.497   0.074   6.927
 1461SOL     OW 5281   5.532   4.359   1.375
 1461SOL    HW1 5282   5.518   4.405   1.463
 1461SOL    HW2 5283   5.575   4.423   1.311
 1462SOL     OW 5284   5.853   0.986   6.170
 1462SOL    HW1 5285   5.816   1.079   6.179
 1462SOL    HW2 5286   5.792   0.921   6.216
 1463SOL     OW 5287   0.825   1.432   4.763
 1463SOL    HW1 5288   0.836   1.350   4.706
 1463SOL    HW2 5289   0.875   1.508   4.722
 1464SOL     OW 5290   0.360   6.136   0.996
 1464SOL    HW1 5291   0.451   6.158   1.032
 1464SOL    HW2 5292   0.319   6.218   0.958
 1465SOL     OW 5293   6.971   6.720   4.736
 1465SOL    HW1 5294   0.030   6.765   4.785
 1465SOL    HW2 5295   7.009   6.659   4.667
 1466SOL     OW 5296   5.584   5.211   3.409
 1466SOL    HW1 5297   5.514   5.176   3.473
 1466SOL    HW2 5298   5.619   5.135   3.355
 1467SOL     OW 5299   0.869   2.432   3.073
 1467SOL    HW1 5300   0.808   2.361   3.037
 1467SOL    HW2 5301   0.927   2.392   3.144
 1468SOL     OW 5302   5.635   5.820   3.677
 1468SOL    HW1 5303   5.552   5.782   3.636
 1468SOL    HW2 5304   5.687   5.868   3.606
 1469SOL     OW 5305   0.711   1.449   2.958
 1469SOL    HW1 5306   0.754   1.372   3.005
 1469SOL    HW2 5307   0.765   1.532   2.972
 1470SOL     OW 5308   0.426   1.615   2.918
 1470SOL    HW1 5309   0.431   1.516   2.932
 1470SOL    HW2 5310   0.485   1.661   2.985
 1471SOL     OW 5311   0.324   6.931   0.004
 1471SOL    HW1 5312   0.348   6.981   0.087
 1471SOL    HW2 5313   0.398   6.867   6.997
 1472SOL     OW 5314   4.159   0.839   5.699
 1472SOL    HW1 5315   4.122   0.931   5.689
 1472SOL    HW2 5316   4.124   0.798   5.783
 1473SOL     OW 5317   6.343   4.138   3.705
 1473SOL    HW1 5318   6.328   4.047   3.668
 1473SOL    HW2 5319   6.258   4.191   3.696
 1474SOL     OW 5320   4.737   5.465   3.738
 1474SOL    HW1 5321   4.810   5.481   3.805
 1474SOL    HW2 5322   4.774   5.477   3.645
 1475SOL     OW 5323   0.709   0.940   2.255
 1475SOL    HW1 5324   0.634   0.928   2.320
 1475SOL    HW2 5325   0.672   0.953   2.163
 1476SOL     OW 5326   6.512   1.892   2.251
 1476SOL    HW1 5327   6.577   1.855   2.184
 1476SOL    HW2 5328   6.557   1.903   2.339
 1477SOL     OW 5329   2.504   5.771   3.917
 1477SOL    HW1 5330   2.441   5.792   3.842
 1477SOL    HW2 5331   2.474   5.817   4.000
 1478SOL     OW 5332   6.405   4.277   1.227
 1478SOL    HW1 5333   6.324   4.220   1.235
 1478SOL    HW2 5334   6.452   4.283   1.315
 1479SOL     OW 5335   1.696   5.028   0.686
 1479SOL    HW1 5336   1.699   5.021   0.786
 1479SOL    HW2 5337   1.764   4.966   0.646
 1480SOL     OW 5338   2.656   1.110   0.113
 1480SOL    HW1 5339   2.557   1.120   0.127
 1480SOL    HW2 5340   2.700   1.198   0.128
 1481SOL     OW 5341   6.089   2.382   6.380
 1481SOL    HW1 5342   5.995   2.358   6.402
 1481SOL    HW2 5343   6.147   2.301   6.391
 1482SOL     OW 5344   6.324   0.266   6.442
 1482SOL    HW1 5345   6.336   0.194   6.509
 1482SOL    HW2 5346   6.332   0.355   6.487
 1483SOL     OW 5347   6.009   1.868   0.170
 1483SOL    HW1 5348   6.057   1.860   0.082
 1483SOL    HW2 5349   6.056   1.934   0.228
 1484SOL     OW 5350   6.408   5.382   2.373
 1484SOL    HW1 5351   6.378   5.477   2.374
 1484SOL    HW2 5352   6.336   5.324   2.413
 1485SOL     OW 5353   5.014   2.759   4.100
 1485SOL    HW1 5354   4.916   2.768   4.115
 1485SOL    HW2 5355   5.037   2.793   4.008
 1486SOL     OW 5356   4.828   1.798   2.247
 1486SOL    HW1 5357   4.745   1.851   2.265
 1486SOL    HW2 5358   4.849   1.800   2.149
 1487SOL     OW 5359   6.385   1.283   5.571
 1487SOL    HW1 5360   6.377   1.188   5.603
 1487SOL    HW2 5361   6.420   1.284   5.478
 1488SOL     OW 5362   4.260   2.016   3.154
 1488SOL    HW1 5363   4.278   1.995   3.058
 1488SOL    HW2 5364   4.193   2.090   3.160
 1489SOL     OW 5365   3.964   5.752   5.228
 1489SOL    HW1 5366   3.982   5.719   5.320
 1489SOL    HW2 5367   3.980   5.850   5.223
 1490SOL     OW 5368   1.802   2.825   0.280
 1490SOL    HW1 5369   1.850   2.776   0.208
 1490SOL    HW2 5370   1.721   2.870   0.242
 1491SOL     OW 5371   0.460   3.270   4.232
 1491SOL    HW1 5372   0.381   3.209   4.237
 1491SOL    HW2 5373   0.527   3.244   4.302
 1492SOL     OW 5374   4.990   1.988   1.868
 1492SOL    HW1 5375   5.047   1.948   1.797
 1492SOL    HW2 5376   5.020   2.082   1.887
 1493SOL     OW 5377   5.156   0.954   4.999
 1493SOL    HW1 5378   5.143   0.859   5.027
 1493SOL    HW2 5379   5.184   1.009   5.078
 1494SOL     OW 5380   4.893   2.757   5.885
 1494SOL    HW1 5381   4.897   2.848   5.843
 1494SOL    HW2 5382   4.857   2.765   5.977
 1495SOL     OW 5383   1.834   3.072   2.411
 1495SOL    HW1 5384   1.893   3.153   2.405
 1495SOL    HW2 5385   1.882   2.999   2.460
 1496SOL     OW 5386   0.497   0.099   2.445
 1496SOL    HW1 5387   0.397   0.093   2.452
 1496SOL    HW2 5388   0.528   0.044   2.368
 1497SOL     OW 5389   6.103   5.417   4.712
 1497SOL    HW1 5390   6.115   5.444   4.808
 1497SOL    HW2 5391   6.007   5.402   4.693
 1498SOL     OW 5392   2.473   6.266   0.243
 1498SOL    HW1 5393   2.522   6.257   0.156
 1498SOL    HW2 5394   2.431   6.178   0.267
 1499SOL     OW 5395   1.048   4.053   5.544
 1499SOL    HW1 5396   1.073   3.971   5.494
 1499SOL    HW2 5397   0.962   4.090   5.509
 1500SOL     OW 5398   4.913   0.507   6.151
 1500SOL    HW1 5399   4.949   0.518   6.243
 1500SOL    HW2 5400   4.894   0.410   6.134
 1501SOL     OW 5401   4.228   6.514   6.160
 1501SOL    HW1 5402   4.267   6.541   6.248
 1501SOL    HW2 5403   4.158   6.580   6.133
 1502SOL     OW 5404   6.254   6.215   0.356
 1502SOL    HW1 5405   6.187   6.146   0.382
 1502SOL    HW2 5406   6.252   6.228   0.257
 1503SOL     OW 5407   4.019   3.001   6.065
 1503SOL    HW1 5408   4.041   3.098   6.054
 1503SOL    HW2 5409   3.993   2.963   5.977
 1504SOL     OW 5410   3.151   5.962   5.016
 1504SOL    HW1 5411   3.076   5.909   4.977
 1504SOL    HW2 5412   3.185   5.916   5.098
 1505SOL     OW 5413   5.252   5.613   0.234
 1505SOL    HW1 5414   5.308   5.650   0.159
 1505SOL    HW2 5415   5.278   5.657   0.320
 1506SOL     OW 5416   0.913   6.195   4.537
 1506SOL    HW1 5417   0.854   6.248   4.598
 1506SOL    HW2 5418   0.941   6.253   4.461
 1507SOL     OW 5419   1.617   1.743   6.009
 1507SOL    HW1 5420   1.621   1.825   6.066
 1507SOL    HW2 5421   1.653   1.665   6.061
 1508SOL     OW 5422   5.189   6.872   0.153
 1508SOL    HW1 5423   5.099   6.914   0.143
 1508SOL    HW2 5424   5.253   6.940   0.189
 1509SOL     OW 5425   4.802   2.028   0.560
 1509SOL    HW1 5426   4.787   2.124   0.585
 1509SOL    HW2 5427   4.715   1.987   0.532
 1510SOL     OW 5428   6.695   1.987   4.004
 1510SOL    HW1 5429   6.707   1.919   4.077
 1510SOL    HW2 5430   6.707   1.942   3.915
 1511SOL     OW 5431   1.771   2.638   0.632
 1511SOL    HW1 5432   1.730   2.729   0.629
 1511SOL    HW2 5433   1.863   2.644   0.672
 1512SOL     OW 5434   6.943   0.916   2.033
 1512SOL    HW1 5435   0.026   0.925   2.038
 1512SOL    HW2 5436   6.918   0.870   1.947
 1513SOL     OW 5437   3.646   0.709   2.789
 1513SOL    HW1 5438   3.596   0.627   2.760
 1513SOL    HW2 5439   3.690   0.691   2.877
 1514SOL     OW 5440   5.064   1.436   5.066
 1514SOL    HW1 5441   5.108   1.406   4.982
 1514SOL    HW2 5442   4.973   1.396   5.073
 1515SOL     OW 5443   0.104   4.499   4.377
 1515SOL    HW1 5444   0.089   4.419   4.319
 1515SOL    HW2 5445   0.146   4.572   4.322
 1516SOL     OW 5446   0.847   1.040   0.468
 1516SOL    HW1 5447   0.918   0.988   0.515
 1516SOL    HW2 5448   0.785   0.976   0.422
 1517SOL     OW 5449   4.166   5.679   3.463
 1517SOL    HW1 5450   4.185   5.608   3.531
 1517SOL    HW2 5451   4.090   5.650   3.405
 1518SOL     OW 5452   0.655   4.383   1.367
 1518SOL    HW1 5453   0.679   4.401   1.462
 1518SOL    HW2 5454   0.738   4.368   1.313
 1519SOL     OW 5455   6.311   4.582   0.462
 1519SOL    HW1 5456   6.233   4.522   0.443
 1519SOL    HW2 5457   6.278   4.671   0.492
 1520SOL     OW 5458   1.471   3.854   3.074
 1520SOL    HW1 5459   1.487   3.855   3.172
 1520SOL    HW2 5460   1.465   3.947   3.039
 1521SOL     OW 5461   2.788   3.807   6.769
 1521SOL    HW1 5462   2.695   3.835   6.743
 1521SOL    HW2 5463   2.785   3.759   6.856
 1522SOL     OW 5464   6.267   2.385   0.182
 1522SOL    HW1 5465   6.341   2.448   0.201
 1522SOL    HW2 5466   6.268   2.311   0.250
 1523SOL     OW 5467   0.651   2.132   1.211
 1523SOL    HW1 5468   0.635   2.222   1.252
 1523SOL    HW2 5469   0.567   2.100   1.166
 1524SOL     OW 5470   0.007   0.673   2.255
 1524SOL    HW1 5471   6.949   0.669   2.189
 1524SOL    HW2 5472   7.010   0.749   2.317
 1525SOL     OW 5473   4.430   2.136   6.267
 1525SOL    HW1 5474   4.373   2.160   6.345
 1525SOL    HW2 5475   4.384   2.163   6.182
 1526SOL     OW 5476   6.814   2.327   1.766
 1526SOL    HW1 5477   6.891   2.392   1.767
 1526SOL    HW2 5478   6.801   2.290   1.858
 1527SOL     OW 5479   3.316   1.963   5.876
 1527SOL    HW1 5480   3.394   1.964   5.814
 1527SOL    HW2 5481   3.348   1.973   5.970
 1528SOL     OW 5482   4.883   6.308   3.350
 1528SOL    HW1 5483   4.793   6.350   3.341
 1528SOL    HW2 5484   4.917   6.319   3.443
 1529SOL     OW 5485   3.231   0.382   6.236
 1529SOL    HW1 5486   3.198   0.381   6.142
 1529SOL    HW2 5487   3.323   0.342   6.239
 1530SOL     OW 5488   3.796   6.519   1.999
 1530SOL    HW1 5489   3.875   6.555   2.048
 1530SOL    HW2 5490   3.719   6.582   2.009
 1531SOL     OW 5491   6.850   6.976   4.586
 1531SOL    HW1 5492   6.863   6.886   4.627
 1531SOL    HW2 5493   6.939   7.016   4.564
 1532SOL     OW 5494   3.187   2.066   5.246
 1532SOL    HW1 5495   3.197   2.097   5.341
 1532SOL    HW2 5496   3.149   2.140   5.191
 1533SOL     OW 5497   6.065   2.631   6.789
 1533SOL    HW1 5498   6.074   2.549   6.846
 1533SOL    HW2 5499   6.003   2.613   6.713
 1534SOL     OW 5500   6.920   5.981   1.288
 1534SOL    HW1 5501   6.928   6.018   1.195
 1534SOL    HW2 5502   6.839   5.922   1.293
 1535SOL     OW 5503   4.091   5.264   4.153
 1535SOL    HW1 5504   4.118   5.236   4.245
 1535SOL    HW2 5505   4.172   5.275   4.096
 1536SOL     OW 5506   2.779   6.400   5.137
 1536SOL    HW1 5507   2.866   6.380   5.092
 1536SOL    HW2 5508   2.769   6.498   5.149
 1537SOL     OW 5509   1.679   5.686   4.454
 1537SOL    HW1 5510   1.727   5.644   4.530
 1537SOL    HW2 5511   1.694   5.632   4.371
 1538SOL     OW 5512   2.104   5.691   6.518
 1538SOL    HW1 5513   2.112   5.785   6.554
 1538SOL    HW2 5514   2.008   5.670   6.501
 1539SOL     OW 5515   3.504   4.873   1.671
 1539SOL    HW1 5516   3.410   4.906   1.678
 1539SOL    HW2 5517   3.518   4.799   1.737
 1540SOL     OW 5518   0.476   6.727   4.889
 1540SOL    HW1 5519   0.515   6.765   4.804
 1540SOL    HW2 5520   0.471   6.627   4.881
 1541SOL     OW 5521   5.129   2.320   0.983
 1541SOL    HW1 5522   5.143   2.372   0.899
 1541SOL    HW2 5523   5.118   2.223   0.961
 1542SOL     OW 5524   1.042   6.781   0.929
 1542SOL    HW1 5525   1.062   6.745   1.020
 1542SOL    HW2 5526   0.944   6.795   0.919
 1543SOL     OW 5527   3.079   4.030   4.067
 1543SOL    HW1 5528   3.032   4.012   4.154
 1543SOL    HW2 5529   3.166   4.077   4.086
 1544SOL     OW 5530   3.320   4.077   2.736
 1544SOL    HW1 5531   3.268   4.088   2.651
 1544SOL    HW2 5532   3.416   4.101   2.720
 1545SOL     OW 5533   5.893   0.208   4.904
 1545SOL    HW1 5534   5.932   0.287   4.950
 1545SOL    HW2 5535   5.833   0.158   4.968
 1546SOL     OW 5536   0.529   6.423   6.093
 1546SOL    HW1 5537   0.627   6.406   6.102
 1546SOL    HW2 5538   0.481   6.336   6.082
 1547SOL     OW 5539   3.598   6.158   0.804
 1547SOL    HW1 5540   3.570   6.253   0.803
 1547SOL    HW2 5541   3.603   6.126   0.899
 1548SOL     OW 5542   5.493   4.216   4.573
 1548SOL    HW1 5543   5.573   4.268   4.603
 1548SOL    HW2 5544   5.508   4.180   4.482
 1549SOL     OW 5545   6.736   1.656   1.111
 1549SOL    HW1 5546   6.823   1.656   1.062
 1549SOL    HW2 5547   6.748   1.609   1.199
 1550SOL     OW 5548   2.491   5.992   4.413
 1550SOL    HW1 5549   2.575   6.046   4.418
 1550SOL    HW2 5550   2.412   6.051   4.428
 1551SOL     OW 5551   1.778   1.999   0.871
 1551SOL    HW1 5552   1.822   2.033   0.954
 1551SOL    HW2 5553   1.712   2.067   0.838
 1552SOL     OW 5554   0.911   0.366   0.571
 1552SOL    HW1 5555   0.998   0.366   0.619
 1552SOL    HW2 5556   0.869   0.275   0.578
 1553SOL     OW 5557   6.035   1.298   6.376
 1553SOL    HW1 5558   6.022   1.206   6.340
 1553SOL    HW2 5559   6.127   1.330   6.354
 1554SOL     OW 5560   3.514   1.712   1.927
 1554SOL    HW1 5561   3.548   1.777   1.859
 1554SOL    HW2 5562   3.585   1.643   1.945
 1555SOL     OW 5563   4.062   1.351   5.736
 1555SOL    HW1 5564   4.160   1.333   5.730
 1555SOL    HW2 5565   4.033   1.341   5.831
 1556SOL     OW 5566   3.360   1.447   1.198
 1556SOL    HW1 5567   3.304   1.476   1.121
 1556SOL    HW2 5568   3.340   1.351   1.219
 1557SOL     OW 5569   2.019   1.921   0.737
 1557SOL    HW1 5570   1.990   1.997   0.679
 1557SOL    HW2 5571   1.950   1.904   0.808
 1558SOL     OW 5572   6.667   3.391   6.271
 1558SOL    HW1 5573   6.679   3.292   6.279
 1558SOL    HW2 5574   6.596   3.410   6.204
 1559SOL     OW 5575   1.750   4.713   2.925
 1559SOL    HW1 5576   1.696   4.796   2.927
 1559SOL    HW2 5577   1.765   4.680   3.019
 1560SOL     OW 5578   3.927   1.422   1.510
 1560SOL    HW1 5579   3.976   1.337   1.531
 1560SOL    HW2 5580   3.856   1.437   1.579
 1561SOL     OW 5581   6.316   5.857   1.247
 1561SOL    HW1 5582   6.383   5.920   1.208
 1561SOL    HW2 5583   6.353   5.764   1.248
 1562SOL     OW 5584   3.613   6.613   2.362
 1562SOL    HW1 5585   3.568   6.679   2.302
 1562SOL    HW2 5586   3.620   6.525   2.316
 1563SOL     OW 5587   3.967   2.169   4.547
 1563SOL    HW1 5588   4.044   2.232   4.542
 1563SOL    HW2 5589   3.912   2.191   4.628
 1564SOL     OW 5590   1.347   2.288   2.668
 1564SOL    HW1 5591   1.336   2.366   2.731
 1564SOL    HW2 5592   1.342   2.321   2.574
 1565SOL     OW 5593   3.881   0.939   5.154
 1565SOL    HW1 5594   3.940   0.863   5.182
 1565SOL    HW2 5595   3.809   0.906   5.094
 1566SOL     OW 5596   4.494   4.858   3.126
 1566SOL    HW1 5597   4.398   4.843   3.148
 1566SOL    HW2 5598   4.515   4.814   3.038
 1567SOL     OW 5599   5.024   6.540   4.814
 1567SOL    HW1 5600   4.936   6.567   4.775
 1567SOL    HW2 5601   5.050   6.604   4.887
 1568SOL     OW 5602   2.806   5.532   2.641
 1568SOL    HW1 5603   2.856   5.464   2.589
 1568SOL    HW2 5604   2.744   5.486   2.705
 1569SOL     OW 5605   2.982   0.119   3.400
 1569SOL    HW1 5606   2.916   0.194   3.387
 1569SOL    HW2 5607   2.976   0.086   3.494
 1570SOL     OW 5608   3.308   6.755   0.019
 1570SOL    HW1 5609   3.353   6.679   6.989
 1570SOL    HW2 5610   3.377   6.814   0.062
 1571SOL     OW 5611   0.545   2.537   4.255
 1571SOL    HW1 5612   0.561   2.573   4.346
 1571SOL    HW2 5613   0.523   2.611   4.192
 1572SOL     OW 5614   1.782   5.183   1.834
 1572SOL    HW1 5615   1.689   5.175   1.869
 1572SOL    HW2 5616   1.801   5.108   1.771
 1573SOL     OW 5617   4.921   5.047   0.156
 1573SOL    HW1 5618   4.956   4.974   0.215
 1573SOL    HW2 5619   4.822   5.038   0.148
 1574SOL     OW 5620   6.778   3.436   2.795
 1574SOL    HW1 5621   6.707   3.377   2.758
 1574SOL    HW2 5622   6.763   3.450   2.893
 1575SOL     OW 5623   0.396   0.957   0.564
 1575SOL    HW1 5624   0.333   1.031   0.588
 1575SOL    HW2 5625   0.368   0.917   0.477
 1576SOL     OW 5626   0.216   0.203   2.478
 1576SOL    HW1 5627   0.160   0.217   2.560
 1576SOL    HW2 5628   0.215   0.286   2.422
 1577SOL     OW 5629   4.886   6.395   5.300
 1577SOL    HW1 5630   4.858   6.414   5.206
 1577SOL    HW2 5631   4.955   6.323   5.301
 1578SOL     OW 5632   4.937   0.859   7.015
 1578SOL    HW1 5633   4.975   0.774   0.034
 1578SOL    HW2 5634   5.011   0.919   6.986
 1579SOL     OW 5635   1.559   2.158   1.502
 1579SOL    HW1 5636   1.479   2.098   1.503
 1579SOL    HW2 5637   1.536   2.242   1.451
 1580SOL     OW 5638   3.230   3.576   2.716
 1580SOL    HW1 5639   3.234   3.614   2.624
 1580SOL    HW2 5640   3.280   3.636   2.778
 1581SOL     OW 5641   6.537   4.425   5.527
 1581SOL    HW1 5642   6.466   4.469   5.582
 1581SOL    HW2 5643   6.613   4.397   5.585
 1582SOL     OW 5644   4.656   6.547   5.309
 1582SOL    HW1 5645   4.669   6.632   5.257
 1582SOL    HW2 5646   4.736   6.488   5.297
 1583SOL     OW 5647   0.970   5.979   5.118
 1583SOL    HW1 5648   1.041   5.908   5.113
 1583SOL    HW2 5649   0.918   5.967   5.203
 1584SOL     OW 5650   0.494   4.973   6.816
 1584SOL    HW1 5651   0.544   4.921   6.885
 1584SOL    HW2 5652   0.409   4.926   6.793
 1585SOL     OW 5653   4.030   0.211   3.287
 1585SOL    HW1 5654   4.043   0.154   3.205
 1585SOL    HW2 5655   3.952   0.272   3.272
 1586SOL     OW 5656   2.599   4.638   3.653
 1586SOL    HW1 5657   2.575   4.582   3.573
 1586SOL    HW2 5658   2.627   4.579   3.728
 1587SOL     OW 5659   1.951   5.987   5.588
 1587SOL    HW1 5660   1.996   5.897   5.584
 1587SOL    HW2 5661   1.907   6.005   5.501
 1588SOL     OW 5662   6.167   0.808   2.547
 1588SOL    HW1 5663   6.145   0.727   2.601
 1588SOL    HW2 5664   6.104   0.814   2.469
 1589SOL     OW 5665   6.289   4.700   4.161
 1589SOL    HW1 5666   6.365   4.635   4.152
 1589SOL    HW2 5667   6.319   4.777   4.217
 1590SOL     OW 5668   6.398   2.484   3.888
 1590SOL    HW1 5669   6.335   2.528   3.952
 1590SOL    HW2 5670   6.465   2.430   3.939
 1591SOL     OW 5671   0.849   6.329   1.863
 1591SOL    HW1 5672   0.875   6.235   1.884
 1591SOL    HW2 5673   0.757   6.330   1.823
 1592SOL     OW 5674   0.686   3.967   6.715
 1592SOL    HW1 5675   0.749   4.045   6.714
 1592SOL    HW2 5676   0.610   3.987   6.777
 1593SOL     OW 5677   2.224   0.396   0.055
 1593SOL    HW1 5678   2.146   0.337   0.033
 1593SOL    HW2 5679   2.196   0.492   0.053
 1594SOL     OW 5680   6.416   0.464   1.906
 1594SOL    HW1 5681   6.462   0.386   1.949
 1594SOL    HW2 5682   6.349   0.502   1.969
 1595SOL     OW 5683   0.958   4.441   6.534
 1595SOL    HW1 5684   0.905   4.387   6.468
 1595SOL    HW2 5685   0.960   4.537   6.505
 1596SOL     OW 5686   5.071   4.615   2.395
 1596SOL    HW1 5687   5.137   4.584   2.463
 1596SOL    HW2 5688   5.117   4.674   2.328
 1597SOL     OW 5689   3.978   6.460   6.812
 1597SOL    HW1 5690   3.966   6.557   6.835
 1597SOL    HW2 5691   4.059   6.450   6.754
 1598SOL     OW 5692   1.965   5.512   0.176
 1598SOL    HW1 5693   2.058   5.491   0.205
 1598SOL    HW2 5694   1.957   5.610   0.159
 1599SOL     OW 5695   4.511   4.998   4.299
 1599SOL    HW1 5696   4.503   5.096   4.281
 1599SOL    HW2 5697   4.543   4.984   4.392
 1600SOL     OW 5698   4.208   0.491   2.809
 1600SOL    HW1 5699   4.138   0.561   2.798
 1600SOL    HW2 5700   4.253   0.502   2.897
 1601SOL     OW 5701   6.086   6.555   4.165
 1601SOL    HW1 5702   6.022   6.562   4.088
 1601SOL    HW2 5703   6.088   6.641   4.215
 1602SOL     OW 5704   3.988   5.197   3.766
 1602SOL    HW1 5705   4.074   5.155   3.739
 1602SOL    HW2 5706   3.988   5.213   3.865
 1603SOL     OW 5707   2.856   5.502   3.273
 1603SOL    HW1 5708   2.775   5.542   3.316
 1603SOL    HW2 5709   2.840   5.491   3.175
 1604SOL     OW 5710   3.876   5.144   2.110
 1604SOL    HW1 5711   3.835   5.169   2.198
 1604SOL    HW2 5712   3.819   5.074   2.066
 1605SOL     OW 5713   4.813   5.402   1.333
 1605SOL    HW1 5714   4.904   5.443   1.322
 1605SOL    HW2 5715   4.819   5.304   1.315
 1606SOL     OW 5716   4.222   6.241   4.796
 1606SOL    HW1 5717   4.237   6.168   4.729
 1606SOL    HW2 5718   4.228   6.330   4.750
 1607SOL     OW 5719   4.353   5.754   2.563
 1607SOL    HW1 5720   4.419   5.811   2.515
 1607SOL    HW2 5721   4.262   5.797   2.559
 1608SOL     OW 5722   6.521   0.994   3.334
 1608SOL    HW1 5723   6.614   1.031   3.338
 1608SOL    HW2 5724   6.519   0.918   3.270
 1609SOL     OW 5725   3.784   6.435   0.620
 1609SOL    HW1 5726   3.822   6.392   0.702
 1609SOL    HW2 5727   3.856   6.483   0.570
 1610SOL     OW 5728   4.699   0.264   0.173
 1610SOL    HW1 5729   4.726   0.276   0.269
 1610SOL    HW2 5730   4.774   0.222   0.122
 1611SOL     OW 5731   1.401   4.033   1.235
 1611SOL    HW1 5732   1.357   4.042   1.145
 1611SOL    HW2 5733   1.418   4.124   1.273
 1612SOL     OW 5734   3.829   6.992   2.072
 1612SOL    HW1 5735   3.802   6.981   2.168
 1612SOL    HW2 5736   3.797   0.064   2.039
 1613SOL     OW 5737   6.995   5.534   2.405
 1613SOL    HW1 5738   0.026   5.449   2.423
 1613SOL    HW2 5739   6.909   5.515   2.358
 1614SOL     OW 5740   6.423   2.110   6.066
 1614SOL    HW1 5741   6.381   2.159   5.989
 1614SOL    HW2 5742   6.388   2.016   6.068
 1615SOL     OW 5743   1.269   5.210   6.211
 1615SOL    HW1 5744   1.214   5.262   6.276
 1615SOL    HW2 5745   1.305   5.128   6.257
 1616SOL     OW 5746   2.020   1.325   4.790
 1616SOL    HW1 5747   2.020   1.280   4.880
 1616SOL    HW2 5748   2.018   1.424   4.803
 1617SOL     OW 5749   5.348   5.866   3.108
 1617SOL    HW1 5750   5.312   5.956   3.132
 1617SOL    HW2 5751   5.290   5.795   3.149
 1618SOL     OW 5752   3.055   5.490   2.914
 1618SOL    HW1 5753   3.098   5.464   3.001
 1618SOL    HW2 5754   2.978   5.429   2.896
 1619SOL     OW 5755   1.273   5.479   6.995
 1619SOL    HW1 5756   1.209   5.408   6.967
 1619SOL    HW2 5757   1.270   5.491   0.077
 1620SOL     OW 5758   3.765   5.386   6.509
 1620SOL    HW1 5759   3.821   5.468   6.495
 1620SOL    HW2 5760   3.809   5.307   6.466
 1621SOL     OW 5761   5.228   6.312   0.273
 1621SOL    HW1 5762   5.168   6.238   0.303
 1621SOL    HW2 5763   5.174   6.379   0.221
 1622SOL     OW 5764   0.681   4.115   4.323
 1622SOL    HW1 5765   0.681   4.098   4.421
 1622SOL    HW2 5766   0.591   4.148   4.294
 1623SOL     OW 5767   0.750   2.118   4.305
 1623SOL    HW1 5768   0.750   2.199   4.248
 1623SOL    HW2 5769   0.723   2.142   4.398
 1624SOL     OW 5770   4.144   1.145   0.941
 1624SOL    HW1 5771   4.192   1.215   0.888
 1624SOL    HW2 5772   4.208   1.098   1.001
 1625SOL     OW 5773   1.750   5.484   1.278
 1625SOL    HW1 5774   1.715   5.501   1.370
 1625SOL    HW2 5775   1.778   5.388   1.270
 1626SOL     OW 5776   3.260   1.514   1.646
 1626SOL    HW1 5777   3.231   1.567   1.726
 1626SOL    HW2 5778   3.345   1.466   1.667
 1627SOL     OW 5779   4.620   1.485   4.579
 1627SOL    HW1 5780   4.549   1.500   4.510
 1627SOL    HW2 5781   4.579   1.479   4.669
 1628SOL     OW 5782   5.701   6.490   6.759
 1628SOL    HW1 5783   5.743   6.554   6.823
 1628SOL    HW2 5784   5.627   6.535   6.710
 1629SOL     OW 5785   1.879   0.830   3.264
 1629SOL    HW1 5786   1.957   0.773   3.240
 1629SOL    HW2 5787   1.819   0.779   3.327
 1630SOL     OW 5788   0.751   3.609   6.915
 1630SOL    HW1 5789   0.756   3.509   6.920
 1630SOL    HW2 5790   0.762   3.638   6.820
 1631SOL     OW 5791   0.305   3.258   0.828
 1631SOL    HW1 5792   0.379   3.291   0.886
 1631SOL    HW2 5793   0.295   3.160   0.839
 1632SOL     OW 5794   6.639   4.770   2.755
 1632SOL    HW1 5795   6.611   4.709   2.680
 1632SOL    HW2 5796   6.561   4.784   2.816
 1633SOL     OW 5797   5.071   2.962   3.906
 1633SOL    HW1 5798   5.109   3.045   3.867
 1633SOL    HW2 5799   4.973   2.974   3.923
 1634SOL     OW 5800   5.361   0.303   4.485
 1634SOL    HW1 5801   5.375   0.223   4.426
 1634SOL    HW2 5802   5.266   0.304   4.517
 1635SOL     OW 5803   3.226   5.546   4.389
 1635SOL    HW1 5804   3.169   5.471   4.423
 1635SOL    HW2 5805   3.317   5.512   4.367
 1636SOL     OW 5806   5.740   6.622   1.751
 1636SOL    HW1 5807   5.730   6.674   1.667
 1636SOL    HW2 5808   5.831   6.638   1.789
 1637SOL     OW 5809   6.910   0.150   2.000
 1637SOL    HW1 5810   6.963   0.136   2.084
 1637SOL    HW2 5811   6.855   0.069   1.980
 1638SOL     OW 5812   0.149   2.943   2.132
 1638SOL    HW1 5813   0.161   2.845   2.143
 1638SOL    HW2 5814   0.237   2.986   2.112
 1639SOL     OW 5815   4.793   2.959   2.788
 1639SOL    HW1 5816   4.781   2.927   2.694
 1639SOL    HW2 5817   4.890   2.965   2.809
 1640SOL     OW 5818   6.240   6.970   7.010
 1640SOL    HW1 5819   6.242   0.046   0.031
 1640SOL    HW2 5820   6.292   6.909   0.052
 1641SOL     OW 5821   6.352   2.343   3.165
 1641SOL    HW1 5822   6.262   2.300   3.175
 1641SOL    HW2 5823   6.358   2.388   3.076
 1642SOL     OW 5824   5.605   1.899   5.468
 1642SOL    HW1 5825   5.699   1.932   5.483
 1642SOL    HW2 5826   5.552   1.970   5.421
 1643SOL     OW 5827   2.891   5.637   4.317
 1643SOL    HW1 5828   2.834   5.582   4.256
 1643SOL    HW2 5829   2.979   5.655   4.273
 1644SOL     OW 5830   5.761   2.743   0.602
 1644SOL    HW1 5831   5.705   2.757   0.684
 1644SOL    HW2 5832   5.852   2.711   0.629
 1645SOL     OW 5833   2.289   0.753   5.452
 1645SOL    HW1 5834   2.205   0.803   5.474
 1645SOL    HW2 5835   2.337   0.799   5.377
 1646SOL     OW 5836   0.876   5.440   0.786
 1646SOL    HW1 5837   0.922   5.424   0.698
 1646SOL    HW2 5838   0.801   5.504   0.774
 1647SOL     OW 5839   6.699   2.984   4.491
 1647SOL    HW1 5840   6.749   3.071   4.498
 1647SOL    HW2 5841   6.764   2.910   4.473
 1648SOL     OW 5842   5.413   6.127   1.004
 1648SOL    HW1 5843   5.428   6.210   1.057
 1648SOL    HW2 5844   5.335   6.141   0.942
 1649SOL     OW 5845   2.827   0.520   3.457
 1649SOL    HW1 5846   2.758   0.466   3.505
 1649SOL    HW2 5847   2.917   0.503   3.499
 1650SOL     OW 5848   2.799   4.911   6.332
 1650SOL    HW1 5849   2.893   4.944   6.341
 1650SOL    HW2 5850   2.735   4.987   6.342
 1651SOL     OW 5851   0.689   2.973   3.891
 1651SOL    HW1 5852   0.705   2.876   3.878
 1651SOL    HW2 5853   0.606   3.001   3.841
 1652SOL     OW 5854   0.398   2.763   1.149
 1652SOL    HW1 5855   0.487   2.803   1.128
 1652SOL    HW2 5856   0.342   2.830   1.198
 1653SOL     OW 5857   6.794   4.887   3.307
 1653SOL    HW1 5858   6.767   4.925   3.219
 1653SOL    HW2 5859   6.853   4.952   3.354
 1654SOL     OW 5860   0.703   3.177   1.980
 1654SOL    HW1 5861   0.718   3.082   2.008
 1654SOL    HW2 5862   0.765   3.200   1.905
 1655SOL     OW 5863   0.255   6.968   4.739
 1655SOL    HW1 5864   0.299   6.914   4.668
 1655SOL    HW2 5865   0.172   7.011   4.703
 1656SOL     OW 5866   2.126   4.958   3.957
 1656SOL    HW1 5867   2.136   4.937   3.859
 1656SOL    HW2 5868   2.117   5.056   3.970
 1657SOL     OW 5869   1.188   0.540   5.486
 1657SOL    HW1 5870   1.139   0.621   5.516
 1657SOL    HW2 5871   1.163   0.462   5.543
 1658SOL     OW 5872   6.904   7.009   6.293
 1658SOL    HW1 5873   6.943   6.973   6.377
 1658SOL    HW2 5874   6.822   6.956   6.270
 1659SOL     OW 5875   4.989   6.801   6.212
 1659SOL    HW1 5876   5.021   6.806   6.117
 1659SOL    HW2 5877   4.911   6.863   6.224
 1660SOL     OW 5878   1.956   6.879   1.770
 1660SOL    HW1 5879   1.912   6.834   1.848
 1660SOL    HW2 5880   1.964   6.977   1.789
 1661SOL     OW 5881   3.727   4.900   2.641
 1661SOL    HW1 5882   3.815   4.854   2.654
 1661SOL    HW2 5883   3.744   4.996   2.618
 1662SOL     OW 5884   0.250   0.795   4.752
 1662SOL    HW1 5885   0.321   0.821   4.818
 1662SOL    HW2 5886   0.293   0.768   4.666
 1663SOL     OW 5887   4.694   4.747   1.196
 1663SOL    HW1 5888   4.667   4.658   1.231
 1663SOL    HW2 5889   4.707   4.811   1.271
 1664SOL     OW 5890   0.902   0.245   5.444
 1664SOL    HW1 5891   0.985   0.215   5.491
 1664SOL    HW2 5892   0.891   0.344   5.456
 1665SOL     OW 5893   2.269   4.159   0.668
 1665SOL    HW1 5894   2.327   4.112   0.601
 1665SOL    HW2 5895   2.237   4.094   0.736
 1666SOL     OW 5896   5.698   6.884   6.416
 1666SOL    HW1 5897   5.655   6.972   6.399
 1666SOL    HW2 5898   5.794   6.887   6.386
 1667SOL     OW 5899   0.481   6.287   1.338
 1667SOL    HW1 5900   0.560   6.346   1.321
 1667SOL    HW2 5901   0.409   6.306   1.271
 1668SOL     OW 5902   5.207   4.289   3.912
 1668SOL    HW1 5903   5.168   4.338   3.990
 1668SOL    HW2 5904   5.207   4.348   3.831
 1669SOL     OW 5905   6.813   4.025   5.534
 1669SOL    HW1 5906   6.851   3.955   5.474
 1669SOL    HW2 5907   6.750   3.982   5.599
 1670SOL     OW 5908   1.844   4.784   5.760
 1670SOL    HW1 5909   1.813   4.708   5.817
 1670SOL    HW2 5910   1.903   4.749   5.687
 1671SOL     OW 5911   5.790   1.589   1.563
 1671SOL    HW1 5912   5.785   1.523   1.488
 1671SOL    HW2 5913   5.851   1.553   1.634
 1672SOL     OW 5914   1.078   3.034   6.996
 1672SOL    HW1 5915   1.023   2.951   6.999
 1672SOL    HW2 5916   1.026   3.110   0.018
 1673SOL     OW 5917   2.577   1.785   4.523
 1673SOL    HW1 5918   2.578   1.771   4.424
 1673SOL    HW2 5919   2.487   1.760   4.560
 1674SOL     OW 5920   4.947   2.549   2.866
 1674SOL    HW1 5921   4.966   2.572   2.961
 1674SOL    HW2 5922   4.852   2.517   2.857
 1675SOL     OW 5923   5.104   0.959   1.015
 1675SOL    HW1 5924   5.182   0.928   1.069
 1675SOL    HW2 5925   5.082   1.053   1.038
 1676SOL     OW 5926   1.654   1.821   2.784
 1676SOL    HW1 5927   1.677   1.803   2.880
 1676SOL    HW2 5928   1.716   1.891   2.747
 1677SOL     OW 5929   3.794   4.080   3.270
 1677SOL    HW1 5930   3.838   4.168   3.291
 1677SOL    HW2 5931   3.786   4.026   3.353
 1678SOL     OW 5932   0.435   6.403   0.668
 1678SOL    HW1 5933   0.525   6.414   0.711
 1678SOL    HW2 5934   0.446   6.354   0.582
 1679SOL     OW 5935   1.703   1.679   5.773
 1679SOL    HW1 5936   1.679   1.721   5.861
 1679SOL    HW2 5937   1.771   1.607   5.789
 1680SOL     OW 5938   4.725   2.577   4.031
 1680SOL    HW1 5939   4.730   2.671   4.066
 1680SOL    HW2 5940   4.748   2.513   4.104
 1681SOL     OW 5941   1.853   6.423   3.704
 1681SOL    HW1 5942   1.866   6.520   3.724
 1681SOL    HW2 5943   1.766   6.393   3.742
 1682SOL     OW 5944   2.368   6.953   5.448
 1682SOL    HW1 5945   2.432   6.909   5.385
 1682SOL    HW2 5946   2.340   0.025   5.411
 1683SOL     OW 5947   6.022   4.662   2.434
 1683SOL    HW1 5948   6.106   4.610   2.451
 1683SOL    HW2 5949   5.977   4.681   2.522
 1684SOL     OW 5950   2.562   4.630   1.547
 1684SOL    HW1 5951   2.588   4.692   1.621
 1684SOL    HW2 5952   2.635   4.563   1.532
 1685SOL     OW 5953   0.578   1.074   5.807
 1685SOL    HW1 5954   0.610   0.993   5.757
 1685SOL    HW2 5955   0.656   1.125   5.842
 1686SOL     OW 5956   4.436   5.972   3.025
 1686SOL    HW1 5957   4.354   5.991   3.078
 1686SOL    HW2 5958   4.453   5.873   3.025
 1687SOL     OW 5959   6.519   4.065   2.793
 1687SOL    HW1 5960   6.614   4.039   2.808
 1687SOL    HW2 5961   6.515   4.153   2.745
 1688SOL     OW 5962   2.233   2.066   3.555
 1688SOL    HW1 5963   2.177   2.004   3.501
 1688SOL    HW2 5964   2.294   2.013   3.614
 1689SOL     OW 5965   5.576   0.765   1.436
 1689SOL    HW1 5966   5.515   0.814   1.374
 1689SOL    HW2 5967   5.549   0.782   1.531
 1690SOL     OW 5968   0.949   4.187   4.072
 1690SOL    HW1 5969   0.929   4.234   4.158
 1690SOL    HW2 5970   0.878   4.120   4.054
 1691SOL     OW 5971   4.932   2.620   5.133
 1691SOL    HW1 5972   4.988   2.646   5.213
 1691SOL    HW2 5973   4.842   2.661   5.141
 1692SOL     OW 5974   5.866   5.173   1.539
 1692SOL    HW1 5975   5.865   5.267   1.575
 1692SOL    HW2 5976   5.916   5.171   1.453
 1693SOL     OW 5977   5.975   0.269   5.332
 1693SOL    HW1 5978   6.046   0.274   5.262
 1693SOL    HW2 5979   5.997   0.198   5.397
 1694SOL     OW 5980   5.139   0.662   5.033
 1694SOL    HW1 5981   5.186   0.593   5.087
 1694SOL    HW2 5982   5.049   0.628   5.005
 1695SOL     OW 5983   3.820   0.739   6.137
 1695SOL    HW1 5984   3.882   0.711   6.063
 1695SOL    HW2 5985   3.841   0.833   6.165
 1696SOL     OW 5986   4.371   6.141   6.961
 1696SOL    HW1 5987   4.439   6.076   6.994
 1696SOL    HW2 5988   4.414   6.231   6.948
 1697SOL     OW 5989   6.037   2.228   1.337
 1697SOL    HW1 5990   6.137   2.229   1.334
 1697SOL    HW2 5991   6.005   2.134   1.322
 1698SOL     OW 5992   3.579   0.573   1.656
 1698SOL    HW1 5993   3.493   0.570   1.707
 1698SOL    HW2 5994   3.568   0.632   1.576
 1699SOL     OW 5995   2.432   0.129   0.398
 1699SOL    HW1 5996   2.380   0.204   0.358
 1699SOL    HW2 5997   2.374   0.048   0.405
 1700SOL     OW 5998   5.919   3.687   3.541
 1700SOL    HW1 5999   5.981   3.737   3.480
 1700SOL    HW2 6000   5.911   3.737   3.628
 1701SOL     OW 6001   0.239   5.245   4.850
 1701SOL    HW1 6002   0.180   5.325   4.859
 1701SOL    HW2 6003   0.260   5.209   4.941
 1702SOL     OW 6004   1.909   2.740   5.903
 1702SOL    HW1 6005   1.829   2.781   5.860
 1702SOL    HW2 6006   1.932   2.654   5.857
 1703SOL     OW 6007   3.210   1.978   0.021
 1703SOL    HW1 6008   3.300   1.934   0.030
 1703SOL    HW2 6009   3.158   1.966   0.105
 1704SOL     OW 6010   2.220   1.735   1.034
 1704SOL    HW1 6011   2.243   1.643   1.003
 1704SOL    HW2 6012   2.304   1.786   1.052
 1705SOL     OW 6013   4.327   1.273   0.703
 1705SOL    HW1 6014   4.344   1.361   0.746
 1705SOL    HW2 6015   4.249   1.280   0.641
 1706SOL     OW 6016   4.073   2.186   0.870
 1706SOL    HW1 6017   4.082   2.285   0.862
 1706SOL    HW2 6018   3.989   2.156   0.824
 1707SOL     OW 6019   4.384   1.869   2.290
 1707SOL    HW1 6020   4.408   1.780   2.250
 1707SOL    HW2 6021   4.347   1.855   2.382
 1708SOL     OW 6022   2.936   5.099   1.270
 1708SOL    HW1 6023   2.907   5.180   1.219
 1708SOL    HW2 6024   3.033   5.107   1.294
 1709SOL     OW 6025   4.430   5.698   0.570
 1709SOL    HW1 6026   4.359   5.630   0.552
 1709SOL    HW2 6027   4.429   5.767   0.498
 1710SOL     OW 6028   3.948   5.429   3.075
 1710SOL    HW1 6029   3.942   5.432   2.975
 1710SOL    HW2 6030   3.860   5.399   3.113
 1711SOL     OW 6031   3.690   5.220   6.103
 1711SOL    HW1 6032   3.629   5.275   6.045
 1711SOL    HW2 6033   3.646   5.203   6.191
 1712SOL     OW 6034   6.963   1.810   4.109
 1712SOL    HW1 6035   6.954   1.778   4.204
 1712SOL    HW2 6036   6.899   1.759   4.051
 1713SOL     OW 6037   3.954   0.810   2.544
 1713SOL    HW1 6038   3.990   0.881   2.484
 1713SOL    HW2 6039   3.863   0.836   2.576
 1714SOL     OW 6040   3.289   2.748   0.141
 1714SOL    HW1 6041   3.335   2.661   0.159
 1714SOL    HW2 6042   3.266   2.792   0.228
 1715SOL     OW 6043   1.552   6.529   2.991
 1715SOL    HW1 6044   1.634   6.551   3.044
 1715SOL    HW2 6045   1.502   6.455   3.035
 1716SOL     OW 6046   4.302   0.404   3.634
 1716SOL    HW1 6047   4.287   0.336   3.706
 1716SOL    HW2 6048   4.290   0.361   3.545
 1717SOL     OW 6049   3.847   6.024   5.485
 1717SOL    HW1 6050   3.822   6.111   5.442
 1717SOL    HW2 6051   3.945   6.010   5.477
 1718SOL     OW 6052   1.317   2.701   1.506
 1718SOL    HW1 6053   1.364   2.726   1.591
 1718SOL    HW2 6054   1.230   2.750   1.500
 1719SOL     OW 6055   0.886   5.133   1.718
 1719SOL    HW1 6056   0.831   5.214   1.702
 1719SOL    HW2 6057   0.983   5.159   1.725
 1720SOL     OW 6058   6.485   2.584   5.667
 1720SOL    HW1 6059   6.385   2.582   5.675
 1720SOL    HW2 6060   6.526   2.571   5.757
 1721SOL     OW 6061   1.524   1.914   1.869
 1721SOL    HW1 6062   1.528   1.900   1.770
 1721SOL    HW2 6063   1.504   2.010   1.888
 1722SOL     OW 6064   2.998   2.247   2.836
 1722SOL    HW1 6065   3.030   2.211   2.749
 1722SOL    HW2 6066   3.070   2.302   2.879
 1723SOL     OW 6067   5.648   3.195   0.153
 1723SOL    HW1 6068   5.557   3.235   0.165
 1723SOL    HW2 6069   5.673   3.199   0.056
 1724SOL     OW 6070   6.821   2.534   1.305
 1724SOL    HW1 6071   6.789   2.451   1.351
 1724SOL    HW2 6072   6.742   2.588   1.274
 1725SOL     OW 6073   2.097   6.237   6.793
 1725SOL    HW1 6074   2.119   6.309   6.859
 1725SOL    HW2 6075   2.150   6.155   6.814
 1726SOL     OW 6076   5.552   3.873   4.257
 1726SOL    HW1 6077   5.486   3.944   4.234
 1726SOL    HW2 6078   5.624   3.912   4.315
 1727SOL     OW 6079   3.363   3.296   3.164
 1727SOL    HW1 6080   3.314   3.363   3.109
 1727SOL    HW2 6081   3.310   3.211   3.168
 1728SOL     OW 6082   4.618   2.332   4.601
 1728SOL    HW1 6083   4.648   2.411   4.655
 1728SOL    HW2 6084   4.610   2.252   4.661
 1729SOL     OW 6085   1.890   3.893   1.868
 1729SOL    HW1 6086   1.953   3.817   1.882
 1729SOL    HW2 6087   1.941   3.974   1.839
 1730SOL     OW 6088   2.961   5.420   5.514
 1730SOL    HW1 6089   3.054   5.455   5.525
 1730SOL    HW2 6090   2.954   5.371   5.427
 1731SOL     OW 6091   6.020   4.315   4.329
 1731SOL    HW1 6092   6.038   4.409   4.356
 1731SOL    HW2 6093   5.999   4.311   4.231
 1732SOL     OW 6094   2.071   4.480   6.205
 1732SOL    HW1 6095   2.130   4.402   6.183
 1732SOL    HW2 6096   2.088   4.509   6.299
 1733SOL     OW 6097   2.986   4.131   0.352
 1733SOL    HW1 6098   2.996   4.051   0.411
 1733SOL    HW2 6099   2.961   4.102   0.260
 1734SOL     OW 6100   6.915   3.157   1.080
 1734SOL    HW1 6101   6.871   3.068   1.091
 1734SOL    HW2 6102   6.849   3.224   1.045
 1735SOL     OW 6103   3.600   4.851   6.053
 1735SOL    HW1 6104   3.538   4.926   6.074
 1735SOL    HW2 6105   3.642   4.865   5.964
 1736SOL     OW 6106   4.477   3.255   0.883
 1736SOL    HW1 6107   4.498   3.220   0.974
 1736SOL    HW2 6108   4.437   3.183   0.827
 1737SOL     OW 6109   4.799   1.317   5.017
 1737SOL    HW1 6110   4.714   1.365   4.998
 1737SOL    HW2 6111   4.856   1.313   4.935
 1738SOL     OW 6112   1.321   3.137   4.583
 1738SOL    HW1 6113   1.259   3.203   4.627
 1738SOL    HW2 6114   1.284   3.045   4.594
 1739SOL     OW 6115   5.379   0.241   4.142
 1739SOL    HW1 6116   5.423   0.313   4.087
 1739SOL    HW2 6117   5.300   0.280   4.190
 1740SOL     OW 6118   6.508   3.055   4.294
 1740SOL    HW1 6119   6.514   3.121   4.219
 1740SOL    HW2 6120   6.571   3.082   4.367
 1741SOL     OW 6121   1.217   2.155   4.416
 1741SOL    HW1 6122   1.255   2.187   4.329
 1741SOL    HW2 6123   1.144   2.089   4.398
 1742SOL     OW 6124   6.055   5.993   6.794
 1742SOL    HW1 6125   6.044   6.030   6.886
 1742SOL    HW2 6126   6.135   6.034   6.750
 1743SOL     OW 6127   1.367   0.884   3.053
 1743SOL    HW1 6128   1.440   0.945   3.020
 1743SOL    HW2 6129   1.279   0.918   3.020
 1744SOL     OW 6130   3.712   1.824   3.971
 1744SOL    HW1 6131   3.800   1.792   3.936
 1744SOL    HW2 6132   3.721   1.920   3.998
 1745SOL     OW 6133   6.897   6.486   1.462
 1745SOL    HW1 6134   6.800   6.464   1.472
 1745SOL    HW2 6135   6.912   6.583   1.483
 1746SOL     OW 6136   2.014   4.275   3.986
 1746SOL    HW1 6137   2.009   4.248   3.890
 1746SOL    HW2 6138   2.101   4.244   4.024
 1747SOL     OW 6139   3.644   0.697   2.275
 1747SOL    HW1 6140   3.665   0.663   2.367
 1747SOL    HW2 6141   3.675   0.630   2.208
 1748SOL     OW 6142   6.740   2.292   4.576
 1748SOL    HW1 6143   6.701   2.363   4.518
 1748SOL    HW2 6144   6.836   2.278   4.551
 1749SOL     OW 6145   1.726   5.097   0.955
 1749SOL    HW1 6146   1.626   5.108   0.955
 1749SOL    HW2 6147   1.767   5.172   1.006
 1750SOL     OW 6148   4.669   6.837   5.230
 1750SOL    HW1 6149   4.575   6.867   5.218
 1750SOL    HW2 6150   4.728   6.917   5.240
 1751SOL     OW 6151   5.555   2.470   5.166
 1751SOL    HW1 6152   5.562   2.485   5.265
 1751SOL    HW2 6153   5.479   2.525   5.130
 1752SOL     OW 6154   6.227   0.739   1.137
 1752SOL    HW1 6155   6.202   0.805   1.065
 1752SOL    HW2 6156   6.243   0.650   1.096
 1753SOL     OW 6157   6.602   1.495   1.795
 1753SOL    HW1 6158   6.596   1.425   1.865
 1753SOL    HW2 6159   6.693   1.495   1.754
 1754SOL     OW 6160   3.293   5.199   5.369
 1754SOL    HW1 6161   3.229   5.268   5.336
 1754SOL    HW2 6162   3.386   5.234   5.361
 1755SOL     OW 6163   6.729   6.477   5.158
 1755SOL    HW1 6164   6.731   6.574   5.131
 1755SOL    HW2 6165   6.756   6.421   5.080
 1756SOL     OW 6166   5.329   0.197   5.994
 1756SOL    HW1 6167   5.354   0.157   6.082
 1756SOL    HW2 6168   5.348   0.131   5.921
 1757SOL     OW 6169   2.466   4.848   5.315
 1757SOL    HW1 6170   2.494   4.815   5.225
 1757SOL    HW2 6171   2.437   4.771   5.372
 1758SOL     OW 6172   2.356   6.457   4.509
 1758SOL    HW1 6173   2.342   6.359   4.498
 1758SOL    HW2 6174   2.417   6.491   4.438
 1759SOL     OW 6175   1.454   6.561   6.809
 1759SOL    HW1 6176   1.489   6.620   6.737
 1759SOL    HW2 6177   1.482   6.466   6.791
 1760SOL     OW 6178   6.345   1.371   5.283
 1760SOL    HW1 6179   6.251   1.403   5.270
 1760SOL    HW2 6180   6.388   1.358   5.194
 1761SOL     OW 6181   6.040   1.837   2.445
 1761SOL    HW1 6182   6.028   1.766   2.514
 1761SOL    HW2 6183   5.952   1.855   2.400
 1762SOL     OW 6184   0.034   1.456   5.122
 1762SOL    HW1 6185   6.954   1.481   5.113
 1762SOL    HW2 6186   0.044   1.357   5.114
 1763SOL     OW 6187   0.908   3.709   4.026
 1763SOL    HW1 6188   0.914   3.749   3.935
 1763SOL    HW2 6189   0.997   3.671   4.051
 1764SOL     OW 6190   0.916   5.215   2.595
 1764SOL    HW1 6191   0.983   5.289   2.603
 1764SOL    HW2 6192   0.964   5.127   2.593
 1765SOL     OW 6193   5.434   3.470   2.736
 1765SOL    HW1 6194   5.396   3.378   2.727
 1765SOL    HW2 6195   5.459   3.505   2.645
 1766SOL     OW 6196   4.800   5.150   4.758
 1766SOL    HW1 6197   4.839   5.135   4.667
 1766SOL    HW2 6198   4.867   5.197   4.816
 1767SOL     OW 6199   0.669   4.949   1.981
 1767SOL    HW1 6200   0.728   4.881   1.937
 1767SOL    HW2 6201   0.579   4.909   1.997
 1768SOL     OW 6202   5.077   6.568   2.371
 1768SOL    HW1 6203   4.993   6.614   2.400
 1768SOL    HW2 6204   5.089   6.485   2.425
 1769SOL     OW 6205   5.049   0.675   6.584
 1769SOL    HW1 6206   5.035   0.712   6.492
 1769SOL    HW2 6207   5.133   0.620   6.584
 1770SOL     OW 6208   2.312   5.279   6.408
 1770SOL    HW1 6209   2.253   5.242   6.480
 1770SOL    HW2 6210   2.405   5.246   6.420
 1771SOL     OW 6211   0.859   3.515   6.245
 1771SOL    HW1 6212   0.870   3.510   6.345
 1771SOL    HW2 6213   0.933   3.569   6.206
 1772SOL     OW 6214   2.498   4.471   3.472
 1772SOL    HW1 6215   2.478   4.394   3.533
 1772SOL    HW2 6216   2.475   4.445   3.378
 1773SOL     OW 6217   0.697   6.546   4.958
 1773SOL    HW1 6218   0.706   6.644   4.975
 1773SOL    HW2 6219   0.773   6.497   5.000
 1774SOL     OW 6220   5.354   5.044   1.045
 1774SOL    HW1 6221   5.424   5.093   0.994
 1774SOL    HW2 6222   5.354   5.074   1.140
 1775SOL     OW 6223   2.466   5.699   6.446
 1775SOL    HW1 6224   2.396   5.641   6.405
 1775SOL    HW2 6225   2.525   5.737   6.374
 1776SOL     OW 6226   4.939   1.315   6.226
 1776SOL    HW1 6227   4.962   1.411   6.243
 1776SOL    HW2 6228   5.024   1.263   6.211
 1777SOL     OW 6229   4.945   6.704   6.448
 1777SOL    HW1 6230   4.950   6.718   6.349
 1777SOL    HW2 6231   4.964   6.789   6.495
 1778SOL     OW 6232   5.915   6.819   4.132
 1778SOL    HW1 6233   5.996   6.876   4.119
 1778SOL    HW2 6234   5.889   6.776   4.045
 1779SOL     OW 6235   5.572   5.972   3.940
 1779SOL    HW1 6236   5.591   5.931   3.850
 1779SOL    HW2 6237   5.492   5.928   3.980
 1780SOL     OW 6238   2.201   5.520   4.576
 1780SOL    HW1 6239   2.250   5.548   4.494
 1780SOL    HW2 6240   2.250   5.552   4.658
 1781SOL     OW 6241   3.967   0.896   3.751
 1781SOL    HW1 6242   4.011   0.815   3.712
 1781SOL    HW2 6243   3.952   0.881   3.848
 1782SOL     OW 6244   0.980   1.633   2.639
 1782SOL    HW1 6245   1.001   1.713   2.696
 1782SOL    HW2 6246   1.062   1.579   2.625
 1783SOL     OW 6247   2.169   4.158   6.432
 1783SOL    HW1 6248   2.197   4.230   6.496
 1783SOL    HW2 6249   2.194   4.185   6.339
 1784SOL     OW 6250   2.712   6.978   1.290
 1784SOL    HW1 6251   2.762   0.048   1.294
 1784SOL    HW2 6252   2.778   6.902   1.289
 1785SOL     OW 6253   0.943   6.371   4.333
 1785SOL    HW1 6254   0.966   6.468   4.324
 1785SOL    HW2 6255   0.997   6.318   4.268
 1786SOL     OW 6256   1.128   6.006   0.680
 1786SOL    HW1 6257   1.220   5.978   0.654
 1786SOL    HW2 6258   1.121   6.106   0.675
 1787SOL     OW 6259   2.866   3.917   5.937
 1787SOL    HW1 6260   2.960   3.931   5.907
 1787SOL    HW2 6261   2.862   3.842   6.003
 1788SOL     OW 6262   4.674   3.648   0.966
 1788SOL    HW1 6263   4.644   3.599   0.884
 1788SOL    HW2 6264   4.594   3.681   1.017
 1789SOL     OW 6265   6.501   3.754   2.182
 1789SOL    HW1 6266   6.420   3.695   2.186
 1789SOL    HW2 6267   6.570   3.720   2.246
 1790SOL     OW 6268   2.440   2.509   4.879
 1790SOL    HW1 6269   2.532   2.491   4.914
 1790SOL    HW2 6270   2.398   2.583   4.932
 1791SOL     OW 6271   5.135   6.453   3.173
 1791SOL    HW1 6272   5.134   6.548   3.142
 1791SOL    HW2 6273   5.132   6.451   3.273
 1792SOL     OW 6274   0.164   1.443   5.368
 1792SOL    HW1 6275   0.080   1.464   5.316
 1792SOL    HW2 6276   0.242   1.486   5.323
 1793SOL     OW 6277   0.027   1.535   6.141
 1793SOL    HW1 6278   6.983   1.610   6.165
 1793SOL    HW2 6279   0.026   1.521   6.042
 1794SOL     OW 6280   1.114   6.907   6.482
 1794SOL    HW1 6281   1.020   6.923   6.451
 1794SOL    HW2 6282   1.139   6.812   6.467
 1795SOL     OW 6283   6.124   4.246   1.032
 1795SOL    HW1 6284   6.138   4.275   1.127
 1795SOL    HW2 6285   6.027   4.247   1.011
 1796SOL     OW 6286   1.101   0.228   6.399
 1796SOL    HW1 6287   1.034   0.160   6.369
 1796SOL    HW2 6288   1.190   0.207   6.359
 1797SOL     OW 6289   2.462   5.342   5.431
 1797SOL    HW1 6290   2.488   5.250   5.462
 1797SOL    HW2 6291   2.400   5.334   5.353
 1798SOL     OW 6292   2.920   3.285   4.459
 1798SOL    HW1 6293   2.895   3.209   4.399
 1798SOL    HW2 6294   2.941   3.366   4.403
 1799SOL     OW 6295   3.282   1.020   0.540
 1799SOL    HW1 6296   3.358   0.955   0.549
 1799SOL    HW2 6297   3.298   1.098   0.600
 1800SOL     OW 6298   5.523   3.492   4.905
 1800SOL    HW1 6299   5.474   3.505   4.819
 1800SOL    HW2 6300   5.600   3.431   4.890
 1801SOL     OW 6301   1.443   1.278   1.788
 1801SOL    HW1 6302   1.451   1.285   1.887
 1801SOL    HW2 6303   1.412   1.186   1.763
 1802SOL     OW 6304   6.755   4.829   3.711
 1802SOL    HW1 6305   6.762   4.769   3.632
 1802SOL    HW2 6306   6.730   4.921   3.681
 1803SOL     OW 6307   0.874   6.763   3.406
 1803SOL    HW1 6308   0.844   6.850   3.446
 1803SOL    HW2 6309   0.909   6.779   3.314
 1804SOL     OW 6310   2.175   3.351   5.687
 1804SOL    HW1 6311   2.160   3.352   5.588
 1804SOL    HW2 6312   2.109   3.290   5.730
 1805SOL     OW 6313   0.241   5.851   6.521
 1805SOL    HW1 6314   0.184   5.828   6.601
 1805SOL    HW2 6315   0.337   5.851   6.548
 1806SOL     OW 6316   6.837   1.669   1.927
 1806SOL    HW1 6317   6.911   1.681   1.993
 1806SOL    HW2 6318   6.872   1.678   1.834
 1807SOL     OW 6319   0.129   3.327   2.224
 1807SOL    HW1 6320   0.221   3.300   2.249
 1807SOL    HW2 6321   0.077   3.350   2.306
 1808SOL     OW 6322   4.880   1.957   6.062
 1808SOL    HW1 6323   4.870   2.037   6.002
 1808SOL    HW2 6324   4.850   1.981   6.154
 1809SOL     OW 6325   3.963   1.254   5.968
 1809SOL    HW1 6326   4.006   1.190   6.032
 1809SOL    HW2 6327   3.866   1.262   5.990
 1810SOL     OW 6328   0.353   0.252   4.273
 1810SOL    HW1 6329   0.257   0.274   4.255
 1810SOL    HW2 6330   0.402   0.242   4.187
 1811SOL     OW 6331   4.138   5.794   1.670
 1811SOL    HW1 6332   4.066   5.759   1.730
 1811SOL    HW2 6333   4.148   5.732   1.592
 1812SOL     OW 6334   4.375   6.693   5.253
 1812SOL    HW1 6335   4.296   6.633   5.265
 1812SOL    HW2 6336   4.457   6.637   5.243
 1813SOL     OW 6337   4.286   4.807   2.753
 1813SOL    HW1 6338   4.197   4.853   2.752
 1813SOL    HW2 6339   4.294   4.749   2.672
 1814SOL     OW 6340   0.134   5.774   0.611
 1814SOL    HW1 6341   0.129   5.683   0.650
 1814SOL    HW2 6342   0.042   5.807   0.589
 1815SOL     OW 6343   5.645   6.562   1.397
 1815SOL    HW1 6344   5.553   6.543   1.431
 1815SOL    HW2 6345   5.692   6.476   1.377
 1816SOL     OW 6346   4.032   5.135   5.645
 1816SOL    HW1 6347   4.105   5.176   5.700
 1816SOL    HW2 6348   4.072   5.096   5.561
 1817SOL     OW 6349   0.722   1.627   3.821
 1817SOL    HW1 6350   0.755   1.556   3.758
 1817SOL    HW2 6351   0.622   1.625   3.824
 1818SOL     OW 6352   2.133   6.902   1.155
 1818SOL    HW1 6353   2.127   6.992   1.198
 1818SOL    HW2 6354   2.229   6.875   1.144
 1819SOL     OW 6355   2.089   4.932   3.659
 1819SOL    HW1 6356   1.994   4.908   3.641
 1819SOL    HW2 6357   2.137   4.944   3.572
 1820SOL     OW 6358   3.668   0.318   4.685
 1820SOL    HW1 6359   3.589   0.258   4.694
 1820SOL    HW2 6360   3.660   0.394   4.749
 1821SOL     OW 6361   3.274   2.114   2.775
 1821SOL    HW1 6362   3.198   2.116   2.711
 1821SOL    HW2 6363   3.242   2.140   2.867
 1822SOL     OW 6364   6.809   2.895   2.516
 1822SOL    HW1 6365   6.760   2.951   2.449
 1822SOL    HW2 6366   6.907   2.909   2.505
 1823SOL     OW 6367   3.777   6.346   2.272
 1823SOL    HW1 6368   3.854   6.338   2.208
 1823SOL    HW2 6369   3.812   6.369   2.363
 1824SOL     OW 6370   3.910   2.846   1.434
 1824SOL    HW1 6371   3.890   2.812   1.527
 1824SOL    HW2 6372   3.956   2.934   1.440
 1825SOL     OW 6373   2.376   1.447   5.260
 1825SOL    HW1 6374   2.361   1.357   5.219
 1825SOL    HW2 6375   2.373   1.517   5.189
 1826SOL     OW 6376   3.418   2.222   1.804
 1826SOL    HW1 6377   3.503   2.274   1.799
 1826SOL    HW2 6378   3.350   2.264   1.744
 1827SOL     OW 6379   5.754   4.101   1.324
 1827SOL    HW1 6380   5.679   4.035   1.326
 1827SOL    HW2 6381   5.798   4.098   1.234
 1828SOL     OW 6382   1.610   2.917   5.058
 1828SOL    HW1 6383   1.592   2.943   4.963
 1828SOL    HW2 6384   1.709   2.915   5.074
 1829SOL     OW 6385   3.332   0.439   3.571
 1829SOL    HW1 6386   3.405   0.373   3.549
 1829SOL    HW2 6387   3.367   0.507   3.635
 1830SOL     OW 6388   4.559   6.784   4.669
 1830SOL    HW1 6389   4.502   6.858   4.634
 1830SOL    HW2 6390   4.618   6.749   4.596
 1831SOL     OW 6391   4.091   5.687   1.332
 1831SOL    HW1 6392   4.158   5.615   1.318
 1831SOL    HW2 6393   4.001   5.655   1.303
 1832SOL     OW 6394   2.248   3.450   0.377
 1832SOL    HW1 6395   2.159   3.408   0.363
 1832SOL    HW2 6396   2.291   3.469   0.289
 1833SOL     OW 6397   5.213   0.381   0.398
 1833SOL    HW1 6398   5.221   0.481   0.399
 1833SOL    HW2 6399   5.116   0.356   0.393
 1834SOL     OW 6400   1.922   2.188   5.977
 1834SOL    HW1 6401   1.973   2.103   5.965
 1834SOL    HW2 6402   1.963   2.241   6.051
 1835SOL     OW 6403   6.493   6.081   1.127
 1835SOL    HW1 6404   6.583   6.106   1.093
 1835SOL    HW2 6405   6.429   6.076   1.050
 1836SOL     OW 6406   5.012   2.520   1.751
 1836SOL    HW1 6407   5.022   2.593   1.684
 1836SOL    HW2 6408   4.953   2.551   1.825
 1837SOL     OW 6409   3.555   2.722   6.129
 1837SOL    HW1 6410   3.608   2.745   6.210
 1837SOL    HW2 6411   3.594   2.768   6.049
 1838SOL     OW 6412   6.390   1.026   0.446
 1838SOL    HW1 6413   6.433   1.112   0.421
 1838SOL    HW2 6414   6.394   0.963   0.369
 1839SOL     OW 6415   0.346   1.057   6.607
 1839SOL    HW1 6416   0.330   0.959   6.598
 1839SOL    HW2 6417   0.404   1.074   6.687
 1840SOL     OW 6418   4.589   6.416   3.049
 1840SOL    HW1 6419   4.675   6.465   3.058
 1840SOL    HW2 6420   4.579   6.353   3.126
 1841SOL     OW 6421   2.414   1.064   2.447
 1841SOL    HW1 6422   2.410   1.149   2.500
 1841SOL    HW2 6423   2.339   1.063   2.381
 1842SOL     OW 6424   1.613   5.603   0.006
 1842SOL    HW1 6425   1.611   5.660   0.088
 1842SOL    HW2 6426   1.653   5.514   0.029
 1843SOL     OW 6427   3.219   1.575   4.820
 1843SOL    HW1 6428   3.154   1.557   4.893
 1843SOL    HW2 6429   3.174   1.562   4.731
 1844SOL     OW 6430   5.590   2.687   6.702
 1844SOL    HW1 6431   5.598   2.748   6.781
 1844SOL    HW2 6432   5.500   2.645   6.701
 1845SOL     OW 6433   1.317   1.928   3.159
 1845SOL    HW1 6434   1.368   1.908   3.076
 1845SOL    HW2 6435   1.272   1.844   3.191
 1846SOL     OW 6436   4.200   1.575   2.085
 1846SOL    HW1 6437   4.223   1.668   2.056
 1846SOL    HW2 6438   4.259   1.549   2.162
 1847SOL     OW 6439   2.221   6.578   5.460
 1847SOL    HW1 6440   2.289   6.595   5.531
 1847SOL    HW2 6441   2.245   6.630   5.377
 1848SOL     OW 6442   2.747   5.797   3.579
 1848SOL    HW1 6443   2.826   5.828   3.527
 1848SOL    HW2 6444   2.718   5.707   3.545
 1849SOL     OW 6445   4.687   2.798   1.780
 1849SOL    HW1 6446   4.602   2.745   1.782
 1849SOL    HW2 6447   4.669   2.891   1.812
 1850SOL     OW 6448   5.393   1.243   1.006
 1850SOL    HW1 6449   5.303   1.227   1.048
 1850SOL    HW2 6450   5.392   1.333   0.961
 1851SOL     OW 6451   0.084   3.858   5.123
 1851SOL    HW1 6452   0.133   3.787   5.172
 1851SOL    HW2 6453   0.132   3.945   5.132
 1852SOL     OW 6454   0.805   6.647   2.593
 1852SOL    HW1 6455   0.719   6.604   2.563
 1852SOL    HW2 6456   0.875   6.633   2.524
 1853SOL     OW 6457   0.189   2.939   4.468
 1853SOL    HW1 6458   0.121   2.876   4.433
 1853SOL    HW2 6459   0.211   2.916   4.563
 1854SOL     OW 6460   0.458   0.318   3.431
 1854SOL    HW1 6461   0.379   0.293   3.376
 1854SOL    HW2 6462   0.518   0.239   3.444
 1855SOL     OW 6463   4.522   2.490   4.408
 1855SOL    HW1 6464   4.567   2.424   4.467
 1855SOL    HW2 6465   4.591   2.549   4.366
 1856SOL     OW 6466   3.439   2.809   0.389
 1856SOL    HW1 6467   3.350   2.780   0.424
 1856SOL    HW2 6468   3.484   2.732   0.344
 1857SOL     OW 6469   4.213   1.712   1.234
 1857SOL    HW1 6470   4.280   1.670   1.296
 1857SOL    HW2 6471   4.121   1.683   1.260
 1858SOL     OW 6472   4.505   2.319   3.988
 1858SOL    HW1 6473   4.462   2.338   3.900
 1858SOL    HW2 6474   4.580   2.383   4.004
 1859SOL     OW 6475   6.227   2.035   4.273
 1859SOL    HW1 6476   6.152   2.031   4.338
 1859SOL    HW2 6477   6.223   2.120   4.221
 1860SOL     OW 6478   1.238   1.496   4.636
 1860SOL    HW1 6479   1.243   1.498   4.736
 1860SOL    HW2 6480   1.143   1.510   4.608
 1861SOL     OW 6481   6.810   6.919   3.480
 1861SOL    HW1 6482   6.723   6.950   3.441
 1861SOL    HW2 6483   6.817   6.951   3.575
 1862SOL     OW 6484   2.803   5.624   6.447
 1862SOL    HW1 6485   2.844   5.689   6.383
 1862SOL    HW2 6486   2.740   5.564   6.397
 1863SOL     OW 6487   0.864   2.864   0.605
 1863SOL    HW1 6488   0.849   2.767   0.586
 1863SOL    HW2 6489   0.776   2.909   0.623
 1864SOL     OW 6490   4.108   5.529   2.681
 1864SOL    HW1 6491   4.121   5.502   2.585
 1864SOL    HW2 6492   4.194   5.516   2.731
 1865SOL     OW 6493   5.599   1.820   6.164
 1865SOL    HW1 6494   5.530   1.750   6.147
 1865SOL    HW2 6495   5.662   1.789   6.235
 1866SOL     OW 6496   0.834   5.006   3.558
 1866SOL    HW1 6497   0.849   4.942   3.482
 1866SOL    HW2 6498   0.735   5.018   3.571
 1867SOL     OW 6499   1.715   2.622   1.774
 1867SOL    HW1 6500   1.729   2.546   1.838
 1867SOL    HW2 6501   1.778   2.696   1.798
 1868SOL     OW 6502   5.994   3.914   5.538
 1868SOL    HW1 6503   6.060   3.984   5.564
 1868SOL    HW2 6504   5.922   3.955   5.482
 1869SOL     OW 6505   4.374   1.366   3.903
 1869SOL    HW1 6506   4.472   1.348   3.896
 1869SOL    HW2 6507   4.345   1.358   3.998
 1870SOL     OW 6508   6.987   5.404   4.484
 1870SOL    HW1 6509   0.021   5.349   4.552
 1870SOL    HW2 6510   0.029   5.480   4.454
 1871SOL     OW 6511   0.364   6.133   0.422
 1871SOL    HW1 6512   0.391   6.048   0.468
 1871SOL    HW2 6513   0.415   6.209   0.462
 1872SOL     OW 6514   2.738   2.396   1.541
 1872SOL    HW1 6515   2.769   2.478   1.590
 1872SOL    HW2 6516   2.662   2.420   1.481
 1873SOL     OW 6517   0.238   1.444   0.880
 1873SOL    HW1 6518   0.211   1.359   0.833
 1873SOL    HW2 6519   0.286   1.503   0.815
 1874SOL     OW 6520   0.361   6.352   0.029
 1874SOL    HW1 6521   0.336   6.351   6.949
 1874SOL    HW2 6522   0.286   6.314   0.083
 1875SOL     OW 6523   6.431   5.196   0.305
 1875SOL    HW1 6524   6.391   5.112   0.340
 1875SOL    HW2 6525   6.523   5.209   0.343
 1876SOL     OW 6526   6.917   5.767   6.888
 1876SOL    HW1 6527   6.906   5.827   6.809
 1876SOL    HW2 6528   6.849   5.694   6.885
 1877SOL     OW 6529   0.883   1.129   2.443
 1877SOL    HW1 6530   0.838   1.077   2.371
 1877SOL    HW2 6531   0.962   1.078   2.477
 1878SOL     OW 6532   6.687   3.849   3.551
 1878SOL    HW1 6533   6.749   3.812   3.620
 1878SOL    HW2 6534   6.666   3.944   3.573
 1879SOL     OW 6535   4.400   5.912   4.412
 1879SOL    HW1 6536   4.429   5.917   4.316
 1879SOL    HW2 6537   4.425   5.823   4.449
 1880SOL     OW 6538   0.321   1.962   3.798
 1880SOL    HW1 6539   0.264   2.033   3.757
 1880SOL    HW2 6540   0.263   1.896   3.846
 1881SOL     OW 6541   1.150   1.559   4.278
 1881SOL    HW1 6542   1.156   1.648   4.234
 1881SOL    HW2 6543   1.219   1.498   4.240
 1882SOL     OW 6544   1.868   5.546   6.623
 1882SOL    HW1 6545   1.906   5.482   6.556
 1882SOL    HW2 6546   1.933   5.557   6.699
 1883SOL     OW 6547   1.590   2.964   2.473
 1883SOL    HW1 6548   1.676   3.014   2.461
 1883SOL    HW2 6549   1.582   2.936   2.569
 1884SOL     OW 6550   2.933   1.186   0.370
 1884SOL    HW1 6551   3.018   1.139   0.345
 1884SOL    HW2 6552   2.903   1.243   0.295
 1885SOL     OW 6553   0.406   2.068   1.088
 1885SOL    HW1 6554   0.365   1.991   1.136
 1885SOL    HW2 6555   0.336   2.136   1.067
 1886SOL     OW 6556   3.091   2.752   6.122
 1886SOL    HW1 6557   3.168   2.687   6.126
 1886SOL    HW2 6558   3.022   2.725   6.188
 1887SOL     OW 6559   0.324   6.876   5.257
 1887SOL    HW1 6560   0.287   6.861   5.349
 1887SOL    HW2 6561   0.415   6.918   5.264
 1888SOL     OW 6562   2.256   2.191   5.703
 1888SOL    HW1 6563   2.281   2.177   5.799
 1888SOL    HW2 6564   2.181   2.129   5.678
 1889SOL     OW 6565   3.415   3.051   0.263
 1889SOL    HW1 6566   3.449   2.980   0.325
 1889SOL    HW2 6567   3.326   3.082   0.294
 1890SOL     OW 6568   6.260   5.299   6.492
 1890SOL    HW1 6569   6.356   5.293   6.520
 1890SOL    HW2 6570   6.254   5.298   6.392
 1891SOL     OW 6571   5.824   4.190   5.113
 1891SOL    HW1 6572   5.741   4.157   5.158
 1891SOL    HW2 6573   5.815   4.178   5.014
 1892SOL     OW 6574   4.186   6.255   1.265
 1892SOL    HW1 6575   4.198   6.336   1.207
 1892SOL    HW2 6576   4.266   6.196   1.256
 1893SOL     OW 6577   3.823   2.073   4.334
 1893SOL    HW1 6578   3.755   2.032   4.395
 1893SOL    HW2 6579   3.884   2.133   4.386
 1894SOL     OW 6580   3.865   4.046   1.080
 1894SOL    HW1 6581   3.946   3.991   1.061
 1894SOL    HW2 6582   3.810   4.001   1.150
 1895SOL     OW 6583   5.090   0.651   2.988
 1895SOL    HW1 6584   5.159   0.708   3.032
 1895SOL    HW2 6585   5.043   0.703   2.917
 1896SOL     OW 6586   6.636   1.010   5.866
 1896SOL    HW1 6587   6.717   0.956   5.892
 1896SOL    HW2 6588   6.572   1.013   5.943
 1897SOL     OW 6589   5.771   4.899   3.523
 1897SOL    HW1 6590   5.701   4.855   3.466
 1897SOL    HW2 6591   5.758   4.872   3.618
 1898SOL     OW 6592   5.980   4.933   6.910
 1898SOL    HW1 6593   5.911   4.875   6.953
 1898SOL    HW2 6594   6.016   4.887   6.828
 1899SOL     OW 6595   1.058   3.453   3.004
 1899SOL    HW1 6596   1.145   3.483   2.965
 1899SOL    HW2 6597   1.025   3.373   2.954
 1900SOL     OW 6598   2.799   5.795   0.344
 1900SOL    HW1 6599   2.783   5.705   0.304
 1900SOL    HW2 6600   2.731   5.812   0.416
 1901SOL     OW 6601   1.540   1.418   6.934
 1901SOL    HW1 6602   1.620   1.469   6.903
 1901SOL    HW2 6603   1.536   1.420   0.018
 1902SOL     OW 6604   1.187   2.805   4.990
 1902SOL    HW1 6605   1.180   2.713   4.951
 1902SOL    HW2 6606   1.244   2.803   5.072
 1903SOL     OW 6607   6.215   3.326   4.037
 1903SOL    HW1 6608   6.124   3.288   4.018
 1903SOL    HW2 6609   6.228   3.336   4.135
 1904SOL     OW 6610   6.826   0.070   3.748
 1904SOL    HW1 6611   6.910   0.055   3.798
 1904SOL    HW2 6612   6.839   0.145   3.683
 1905SOL     OW 6613   6.599   2.992   3.843
 1905SOL    HW1 6614   6.506   3.027   3.837
 1905SOL    HW2 6615   6.656   3.035   3.773
 1906SOL     OW 6616   2.478   7.012   0.729
 1906SOL    HW1 6617   2.521   6.923   0.714
 1906SOL    HW2 6618   2.497   0.025   0.823
 1907SOL     OW 6619   3.559   6.286   3.417
 1907SOL    HW1 6620   3.619   6.257   3.342
 1907SOL    HW2 6621   3.528   6.379   3.400
 1908SOL     OW 6622   4.864   1.372   6.532
 1908SOL    HW1 6623   4.902   1.429   6.459
 1908SOL    HW2 6624   4.870   1.276   6.506
 1909SOL     OW 6625   2.944   4.877   4.703
 1909SOL    HW1 6626   3.037   4.852   4.677
 1909SOL    HW2 6627   2.885   4.797   4.698
 1910SOL     OW 6628   5.034   1.580   5.680
 1910SOL    HW1 6629   5.102   1.576   5.608
 1910SOL    HW2 6630   5.033   1.672   5.720
 1911SOL     OW 6631   6.412   3.739   5.951
 1911SOL    HW1 6632   6.314   3.733   5.966
 1911SOL    HW2 6633   6.430   3.772   5.858
 1912SOL     OW 6634   3.723   0.129   3.312
 1912SOL    HW1 6635   3.757   0.184   3.236
 1912SOL    HW2 6636   3.790   0.058   3.334
 1913SOL     OW 6637   1.366   4.304   5.354
 1913SOL    HW1 6638   1.450   4.320   5.304
 1913SOL    HW2 6639   1.310   4.387   5.353
 1914SOL     OW 6640   3.898   1.773   5.599
 1914SOL    HW1 6641   3.928   1.678   5.589
 1914SOL    HW2 6642   3.969   1.827   5.643
 1915SOL     OW 6643   2.870   0.261   5.424
 1915SOL    HW1 6644   2.926   0.334   5.462
 1915SOL    HW2 6645   2.916   0.173   5.436
 1916SOL     OW 6646   3.699   6.458   1.401
 1916SOL    HW1 6647   3.789   6.416   1.394
 1916SOL    HW2 6648   3.708   6.555   1.422
 1917SOL     OW 6649   3.193   2.973   4.246
 1917SOL    HW1 6650   3.243   2.945   4.164
 1917SOL    HW2 6651   3.111   3.023   4.219
 1918SOL     OW 6652   5.756   6.758   4.355
 1918SOL    HW1 6653   5.822   6.781   4.284
 1918SOL    HW2 6654   5.667   6.740   4.312
 1919SOL     OW 6655   6.614   6.827   1.488
 1919SOL    HW1 6656   6.679   6.878   1.432
 1919SOL    HW2 6657   6.602   6.735   1.450
 1920SOL     OW 6658   6.850   5.677   4.186
 1920SOL    HW1 6659   6.906   5.684   4.104
 1920SOL    HW2 6660   6.885   5.738   4.256
 1921SOL     OW 6661   1.016   6.988   0.035
 1921SOL    HW1 6662   1.074   6.910   0.061
 1921SOL    HW2 6663   1.019   7.000   6.952
 1922SOL     OW 6664   3.292   4.305   0.505
 1922SOL    HW1 6665   3.389   4.315   0.481
 1922SOL    HW2 6666   3.235   4.336   0.429
 1923SOL     OW 6667   1.594   1.752   0.869
 1923SOL    HW1 6668   1.617   1.682   0.801
 1923SOL    HW2 6669   1.665   1.823   0.869
 1924SOL     OW 6670   0.468   4.722   1.504
 1924SOL    HW1 6671   0.441   4.626   1.500
 1924SOL    HW2 6672   0.449   4.758   1.596
 1925SOL     OW 6673   3.035   4.046   1.108
 1925SOL    HW1 6674   3.059   3.997   1.024
 1925SOL    HW2 6675   2.952   4.100   1.092
 1926SOL     OW 6676   1.207   0.084   3.690
 1926SOL    HW1 6677   1.225   0.101   3.593
 1926SOL    HW2 6678   1.266   0.143   3.745
 1927SOL     OW 6679   4.049   3.122   0.078
 1927SOL    HW1 6680   4.102   3.180   0.140
 1927SOL    HW2 6681   4.004   3.179   0.009
 1928SOL     OW 6682   6.195   4.486   5.942
 1928SOL    HW1 6683   6.268   4.418   5.938
 1928SOL    HW2 6684   6.114   4.445   5.985
 1929SOL     OW 6685   1.568   6.915   2.017
 1929SOL    HW1 6686   1.613   6.917   2.106
 1929SOL    HW2 6687   1.471   6.935   2.029
 1930SOL     OW 6688   5.637   3.874   6.152
 1930SOL    HW1 6689   5.716   3.896   6.096
 1930SOL    HW2 6690   5.594   3.790   6.120
 1931SOL     OW 6691   0.370   2.431   4.798
 1931SOL    HW1 6692   0.415   2.348   4.830
 1931SOL    HW2 6693   0.273   2.427   4.821
 1932SOL     OW 6694   6.026   3.678   1.508
 1932SOL    HW1 6695   5.978   3.766   1.506
 1932SOL    HW2 6696   6.123   3.693   1.486
 1933SOL     OW 6697   3.092   4.260   1.342
 1933SOL    HW1 6698   3.057   4.337   1.395
 1933SOL    HW2 6699   3.022   4.228   1.278
 1934SOL     OW 6700   0.846   5.906   5.363
 1934SOL    HW1 6701   0.935   5.877   5.398
 1934SOL    HW2 6702   0.828   6.000   5.391
 1935SOL     OW 6703   2.091   1.226   3.654
 1935SOL    HW1 6704   2.042   1.290   3.713
 1935SOL    HW2 6705   2.050   1.227   3.563
 1936SOL     OW 6706   6.099   5.519   5.218
 1936SOL    HW1 6707   6.138   5.429   5.239
 1936SOL    HW2 6708   6.093   5.573   5.301
 1937SOL     OW 6709   3.835   6.494   1.723
 1937SOL    HW1 6710   3.860   6.408   1.678
 1937SOL    HW2 6711   3.867   6.493   1.817
 1938SOL     OW 6712   4.811   0.827   3.665
 1938SOL    HW1 6713   4.801   0.729   3.679
 1938SOL    HW2 6714   4.802   0.874   3.753
 1939SOL     OW 6715   1.919   1.039   3.470
 1939SOL    HW1 6716   1.848   1.011   3.535
 1939SOL    HW2 6717   1.936   0.966   3.404
 1940SOL     OW 6718   0.173   5.456   6.930
 1940SOL    HW1 6719   0.159   5.375   6.873
 1940SOL    HW2 6720   0.260   5.447   6.979
 1941SOL     OW 6721   4.669   4.241   3.152
 1941SOL    HW1 6722   4.698   4.336   3.160
 1941SOL    HW2 6723   4.732   4.183   3.203
 1942SOL     OW 6724   6.271   4.869   2.666
 1942SOL    HW1 6725   6.193   4.918   2.627
 1942SOL    HW2 6726   6.311   4.923   2.740
 1943SOL     OW 6727   2.620   4.941   2.729
 1943SOL    HW1 6728   2.594   5.030   2.692
 1943SOL    HW2 6729   2.608   4.941   2.828
 1944SOL     OW 6730   6.905   1.115   1.089
 1944SOL    HW1 6731   6.960   1.198   1.103
 1944SOL    HW2 6732   6.878   1.078   1.178
 1945SOL     OW 6733   3.141   4.929   3.953
 1945SOL    HW1 6734   3.062   4.867   3.955
 1945SOL    HW2 6735   3.177   4.939   4.046
 1946SOL     OW 6736   1.296   0.695   0.041
 1946SOL    HW1 6737   1.278   0.748   6.974
 1946SOL    HW2 6738   1.348   0.752   0.105
 1947SOL     OW 6739   5.919   5.495   3.460
 1947SOL    HW1 6740   5.839   5.548   3.432
 1947SOL    HW2 6741   5.889   5.417   3.516
 1948SOL     OW 6742   6.188   5.188   4.568
 1948SOL    HW1 6743   6.143   5.260   4.620
 1948SOL    HW2 6744   6.132   5.105   4.570
 1949SOL     OW 6745   4.228   4.058   6.496
 1949SOL    HW1 6746   4.141   4.031   6.455
 1949SOL    HW2 6747   4.259   4.144   6.454
 1950SOL     OW 6748   2.921   3.594   6.687
 1950SOL    HW1 6749   2.872   3.678   6.707
 1950SOL    HW2 6750   3.019   3.607   6.703
 1951SOL     OW 6751   6.346   1.740   6.923
 1951SOL    HW1 6752   6.341   1.819   6.862
 1951SOL    HW2 6753   6.282   1.670   6.893
 1952SOL     OW 6754   3.635   2.001   6.893
 1952SOL    HW1 6755   3.601   2.019   6.800
 1952SOL    HW2 6756   3.729   2.032   6.900
 1953SOL     OW 6757   6.783   2.681   6.468
 1953SOL    HW1 6758   6.801   2.779   6.458
 1953SOL    HW2 6759   6.712   2.666   6.536
 1954SOL     OW 6760   3.228   2.165   4.099
 1954SOL    HW1 6761   3.152   2.171   4.034
 1954SOL    HW2 6762   3.204   2.214   4.183
 1955SOL     OW 6763   0.265   6.705   3.036
 1955SOL    HW1 6764   0.191   6.760   2.999
 1955SOL    HW2 6765   0.275   6.724   3.134
 1956SOL     OW 6766   5.951   5.530   2.618
 1956SOL    HW1 6767   5.952   5.561   2.523
 1956SOL    HW2 6768   5.862   5.489   2.639
 1957SOL     OW 6769   0.156   6.539   5.492
 1957SOL    HW1 6770   0.060   6.537   5.519
 1957SOL    HW2 6771   0.209   6.479   5.552
 1958SOL     OW 6772   5.582   3.269   5.976
 1958SOL    HW1 6773   5.494   3.248   5.934
 1958SOL    HW2 6774   5.649   3.199   5.951
 1959SOL     OW 6775   1.486   2.148   6.143
 1959SOL    HW1 6776   1.401   2.146   6.090
 1959SOL    HW2 6777   1.551   2.210   6.098
 1960SOL     OW 6778   5.360   5.493   1.106
 1960SOL    HW1 6779   5.277   5.439   1.093
 1960SOL    HW2 6780   5.437   5.448   1.061
 1961SOL     OW 6781   5.653   4.143   3.700
 1961SOL    HW1 6782   5.579   4.171   3.761
 1961SOL    HW2 6783   5.698   4.062   3.737
 1962SOL     OW 6784   1.010   6.334   3.895
 1962SOL    HW1 6785   1.077   6.295   3.831
 1962SOL    HW2 6786   1.002   6.274   3.975
 1963SOL     OW 6787   0.972   0.425   3.196
 1963SOL    HW1 6788   0.940   0.337   3.162
 1963SOL    HW2 6789   0.916   0.453   3.274
 1964SOL     OW 6790   5.127   3.330   2.925
 1964SOL    HW1 6791   5.117   3.412   2.981
 1964SOL    HW2 6792   5.095   3.348   2.833
 1965SOL     OW 6793   1.500   3.965   3.357
 1965SOL    HW1 6794   1.578   4.027   3.350
 1965SOL    HW2 6795   1.487   3.938   3.452
 1966SOL     OW 6796   6.440   5.301   5.580
 1966SOL    HW1 6797   6.441   5.380   5.642
 1966SOL    HW2 6798   6.432   5.332   5.486
 1967SOL     OW 6799   4.772   2.916   5.348
 1967SOL    HW1 6800   4.716   2.874   5.276
 1967SOL    HW2 6801   4.795   2.847   5.417
 1968SOL     OW 6802   3.537   6.164   6.389
 1968SOL    HW1 6803   3.482   6.244   6.414
 1968SOL    HW2 6804   3.480   6.082   6.392
 1969SOL     OW 6805   0.264   2.401   1.320
 1969SOL    HW1 6806   0.239   2.436   1.230
 1969SOL    HW2 6807   0.242   2.470   1.390
 1970SOL     OW 6808   1.709   0.726   4.274
 1970SOL    HW1 6809   1.722   0.634   4.312
 1970SOL    HW2 6810   1.616   0.757   4.293
 1971SOL     OW 6811   0.157   6.779   6.682
 1971SOL    HW1 6812   0.250   6.759   6.649
 1971SOL    HW2 6813   0.155   6.870   6.723
 1972SOL     OW 6814   0.816   4.447   4.042
 1972SOL    HW1 6815   0.832   4.354   4.010
 1972SOL    HW2 6816   0.904   4.488   4.068
 1973SOL     OW 6817   3.251   3.219   1.651
 1973SOL    HW1 6818   3.212   3.156   1.717
 1973SOL    HW2 6819   3.178   3.263   1.599
 1974SOL     OW 6820   5.317   0.503   4.052
 1974SOL    HW1 6821   5.397   0.509   3.991
 1974SOL    HW2 6822   5.295   0.594   4.086
 1975SOL     OW 6823   3.493   0.205   4.256
 1975SOL    HW1 6824   3.474   0.166   4.165
 1975SOL    HW2 6825   3.417   0.264   4.283
 1976SOL     OW 6826   0.346   5.601   0.508
 1976SOL    HW1 6827   0.280   5.667   0.545
 1976SOL    HW2 6828   0.322   5.580   0.414
 1977SOL     OW 6829   0.928   2.207   4.693
 1977SOL    HW1 6830   0.937   2.110   4.670
 1977SOL    HW2 6831   0.847   2.245   4.648
 1978SOL     OW 6832   6.372   1.810   4.109
 1978SOL    HW1 6833   6.306   1.868   4.157
 1978SOL    HW2 6834   6.453   1.798   4.166
 1979SOL     OW 6835   6.039   4.684   4.082
 1979SOL    HW1 6836   6.013   4.764   4.028
 1979SOL    HW2 6837   6.136   4.691   4.107
 1980SOL     OW 6838   3.987   0.383   1.332
 1980SOL    HW1 6839   4.009   0.347   1.241
 1980SOL    HW2 6840   3.979   0.482   1.327
 1981SOL     OW 6841   4.979   2.903   2.019
 1981SOL    HW1 6842   4.955   2.811   1.989
 1981SOL    HW2 6843   4.896   2.960   2.023
 1982SOL     OW 6844   5.763   5.554   4.476
 1982SOL    HW1 6845   5.756   5.484   4.547
 1982SOL    HW2 6846   5.713   5.636   4.504
 1983SOL     OW 6847   1.030   3.636   3.390
 1983SOL    HW1 6848   1.005   3.546   3.354
 1983SOL    HW2 6849   1.129   3.650   3.380
 1984SOL     OW 6850   4.080   1.848   6.368
 1984SOL    HW1 6851   3.992   1.865   6.414
 1984SOL    HW2 6852   4.096   1.750   6.361
 1985SOL     OW 6853   1.417   0.640   1.607
 1985SOL    HW1 6854   1.513   0.617   1.625
 1985SOL    HW2 6855   1.401   0.639   1.508
 1986SOL     OW 6856   1.748   1.877   6.692
 1986SOL    HW1 6857   1.841   1.871   6.656
 1986SOL    HW2 6858   1.752   1.898   6.790
 1987SOL     OW 6859   2.354   3.438   0.781
 1987SOL    HW1 6860   2.282   3.372   0.758
 1987SOL    HW2 6861   2.324   3.497   0.855
 1988SOL     OW 6862   4.450   4.032   0.652
 1988SOL    HW1 6863   4.533   3.976   0.651
 1988SOL    HW2 6864   4.399   4.014   0.736
 1989SOL     OW 6865   2.317   0.247   4.014
 1989SOL    HW1 6866   2.416   0.257   4.016
 1989SOL    HW2 6867   2.290   0.201   3.929
 1990SOL     OW 6868   3.061   0.876   1.544
 1990SOL    HW1 6869   3.043   0.974   1.556
 1990SOL    HW2 6870   3.159   0.861   1.534
 1991SOL     OW 6871   3.050   5.350   4.042
 1991SOL    HW1 6872   3.035   5.270   3.983
 1991SOL    HW2 6873   3.068   5.430   3.985
 1992SOL     OW 6874   2.226   6.319   5.690
 1992SOL    HW1 6875   2.194   6.346   5.780
 1992SOL    HW2 6876   2.321   6.347   5.678
 1993SOL     OW 6877   3.819   3.366   5.659
 1993SOL    HW1 6878   3.896   3.429   5.660
 1993SOL    HW2 6879   3.735   3.415   5.637
 1994SOL     OW 6880   6.381   2.115   2.304
 1994SOL    HW1 6881   6.333   2.076   2.383
 1994SOL    HW2 6882   6.434   2.044   2.259
 1995SOL     OW 6883   5.674   2.038   1.926
 1995SOL    HW1 6884   5.643   2.130   1.903
 1995SOL    HW2 6885   5.664   1.978   1.847
 1996SOL     OW 6886   3.509   4.296   0.056
 1996SOL    HW1 6887   3.532   4.359   6.998
 1996SOL    HW2 6888   3.555   4.325   0.140
 1997SOL     OW 6889   4.985   0.546   3.886
 1997SOL    HW1 6890   4.898   0.528   3.839
 1997SOL    HW2 6891   5.061   0.522   3.826
 1998SOL     OW 6892   2.825   4.308   5.679
 1998SOL    HW1 6893   2.807   4.364   5.598
 1998SOL    HW2 6894   2.823   4.211   5.654
 1999SOL     OW 6895   2.394   6.968   2.625
 1999SOL    HW1 6896   2.482   6.991   2.667
 1999SOL    HW2 6897   2.362   0.028   2.571
 2000SOL     OW 6898   4.235   1.352   4.911
 2000SOL    HW1 6899   4.209   1.353   4.815
 2000SOL    HW2 6900   4.155   1.375   4.967
 2001SOL     OW 6901   2.677   1.280   1.267
 2001SOL    HW1 6902   2.744   1.242   1.204
 2001SOL    HW2 6903   2.724   1.325   1.343
 2002SOL     OW 6904   1.967   5.404   5.501
 2002SOL    HW1 6905   1.993   5.397   5.597
 2002SOL    HW2 6906   1.931   5.496   5.483
 2003SOL     OW 6907   5.908   5.947   3.627
 2003SOL    HW1 6908   5.882   5.920   3.720
 2003SOL    HW2 6909   5.980   5.886   3.593
 2004SOL     OW 6910   3.069   0.830   5.714
 2004SOL    HW1 6911   3.093   0.908   5.772
 2004SOL    HW2 6912   3.152   0.792   5.673
 2005SOL     OW 6913   1.818   5.618   5.609
 2005SOL    HW1 6914   1.880   5.663   5.545
 2005SOL    HW2 6915   1.797   5.680   5.684
 2006SOL     OW 6916   4.178   5.194   4.385
 2006SOL    HW1 6917   4.168   5.192   4.484
 2006SOL    HW2 6918   4.274   5.183   4.360
 2007SOL     OW 6919   5.370   5.700   0.827
 2007SOL    HW1 6920   5.290   5.643   0.843
 2007SOL    HW2 6921   5.417   5.668   0.744
 2008SOL     OW 6922   0.055   6.518   3.710
 2008SOL    HW1 6923   0.092   6.480   3.794
 2008SOL    HW2 6924   0.043   6.445   3.643
 2009SOL     OW 6925   6.937   0.402   1.889
 2009SOL    HW1 6926   6.910   0.466   1.961
 2009SOL    HW2 6927   6.961   0.314   1.930
 2010SOL     OW 6928   0.577   0.061   0.505
 2010SOL    HW1 6929   0.605   0.052   0.601
 2010SOL    HW2 6930   0.525   0.145   0.494
 2011SOL     OW 6931   6.653   1.941   4.793
 2011SOL    HW1 6932   6.750   1.944   4.769
 2011SOL    HW2 6933   6.615   2.033   4.787
 2012SOL     OW 6934   1.805   4.480   0.845
 2012SOL    HW1 6935   1.858   4.565   0.845
 2012SOL    HW2 6936   1.856   4.409   0.797
 2013SOL     OW 6937   5.710   2.018   2.474
 2013SOL    HW1 6938   5.733   1.955   2.400
 2013SOL    HW2 6939   5.643   2.085   2.442
 2014SOL     OW 6940   1.905   5.494   3.500
 2014SOL    HW1 6941   1.913   5.574   3.439
 2014SOL    HW2 6942   1.866   5.418   3.449
 2015SOL     OW 6943   3.193   0.452   0.154
 2015SOL    HW1 6944   3.117   0.474   0.091
 2015SOL    HW2 6945   3.163   0.383   0.219
 2016SOL     OW 6946   0.754   5.481   4.459
 2016SOL    HW1 6947   0.769   5.524   4.548
 2016SOL    HW2 6948   0.806   5.395   4.455
 2017SOL     OW 6949   2.675   5.807   3.063
 2017SOL    HW1 6950   2.722   5.895   3.052
 2017SOL    HW2 6951   2.738   5.740   3.102
 2018SOL     OW 6952   0.437   5.212   5.941
 2018SOL    HW1 6953   0.353   5.260   5.916
 2018SOL    HW2 6954   0.437   5.120   5.901
 2019SOL     OW 6955   5.871   2.169   2.194
 2019SOL    HW1 6956   5.827   2.083   2.216
 2019SOL    HW2 6957   5.804   2.243   2.197
 2020SOL     OW 6958   2.229   5.496   3.150
 2020SOL    HW1 6959   2.225   5.411   3.203
 2020SOL    HW2 6960   2.263   5.476   3.058
 2021SOL     OW 6961   2.049   0.778   2.516
 2021SOL    HW1 6962   2.083   0.872   2.512
 2021SOL    HW2 6963   2.032   0.745   2.423
 2022SOL     OW 6964   2.310   3.583   1.654
 2022SOL    HW1 6965   2.281   3.672   1.690
 2022SOL    HW2 6966   2.335   3.523   1.730
 2023SOL     OW 6967   6.478   1.025   6.083
 2023SOL    HW1 6968   6.489   0.927   6.095
 2023SOL    HW2 6969   6.388   1.044   6.044
 2024SOL     OW 6970   5.987   0.872   3.528
 2024SOL    HW1 6971   5.998   0.792   3.469
 2024SOL    HW2 6972   6.036   0.949   3.488
 2025SOL     OW 6973   0.102   1.400   2.013
 2025SOL    HW1 6974   0.123   1.323   2.073
 2025SOL    HW2 6975   0.056   1.472   2.065
 2026SOL     OW 6976   2.382   1.737   5.593
 2026SOL    HW1 6977   2.308   1.726   5.526
 2026SOL    HW2 6978   2.448   1.663   5.581
 2027SOL     OW 6979   1.133   1.139   2.210
 2027SOL    HW1 6980   1.147   1.211   2.278
 2027SOL    HW2 6981   1.158   1.050   2.248
 2028SOL     OW 6982   3.516   2.573   0.199
 2028SOL    HW1 6983   3.505   2.506   0.272
 2028SOL    HW2 6984   3.598   2.552   0.146
 2029SOL     OW 6985   0.769   1.291   6.659
 2029SOL    HW1 6986   0.798   1.289   6.754
 2029SOL    HW2 6987   0.850   1.301   6.600
 2030SOL     OW 6988   2.045   2.081   3.317
 2030SOL    HW1 6989   2.006   2.140   3.388
 2030SOL    HW2 6990   2.108   2.134   3.260
 2031SOL     OW 6991   5.640   6.806   2.037
 2031SOL    HW1 6992   5.672   6.714   2.056
 2031SOL    HW2 6993   5.694   6.846   1.962
 2032SOL     OW 6994   4.789   5.945   0.876
 2032SOL    HW1 6995   4.852   5.945   0.799
 2032SOL    HW2 6996   4.791   5.855   0.921
 2033SOL     OW 6997   5.166   4.512   6.557
 2033SOL    HW1 6998   5.161   4.612   6.548
 2033SOL    HW2 6999   5.113   4.470   6.483
 2034SOL     OW 7000   2.149   6.903   3.202
 2034SOL    HW1 7001   2.159   6.989   3.153
 2034SOL    HW2 7002   2.226   6.843   3.181
 2035SOL     OW 7003   0.701   1.752   2.265
 2035SOL    HW1 7004   0.653   1.720   2.183
 2035SOL    HW2 7005   0.789   1.705   2.272
 2036SOL     OW 7006   0.694   5.267   0.575
 2036SOL    HW1 7007   0.704   5.192   0.640
 2036SOL    HW2 7008   0.636   5.338   0.615
 2037SOL     OW 7009   6.954   2.442   5.772
 2037SOL    HW1 7010   0.021   2.388   5.758
 2037SOL    HW2 7011   6.921   2.474   5.683
 2038SOL     OW 7012   0.211   1.371   4.324
 2038SOL    HW1 7013   0.270   1.436   4.372
 2038SOL    HW2 7014   0.188   1.296   4.386
 2039SOL     OW 7015   6.918   5.660   3.287
 2039SOL    HW1 7016   6.906   5.561   3.285
 2039SOL    HW2 7017   7.014   5.683   3.269
 2040SOL     OW 7018   4.013   3.173   4.605
 2040SOL    HW1 7019   4.001   3.210   4.513
 2040SOL    HW2 7020   3.982   3.240   4.672
 2041SOL     OW 7021   5.802   4.734   5.460
 2041SOL    HW1 7022   5.711   4.761   5.492
 2041SOL    HW2 7023   5.800   4.638   5.430
 2042SOL     OW 7024   4.751   5.315   0.340
 2042SOL    HW1 7025   4.716   5.236   0.391
 2042SOL    HW2 7026   4.818   5.364   0.396
 2043SOL     OW 7027   5.525   4.304   2.071
 2043SOL    HW1 7028   5.578   4.220   2.085
 2043SOL    HW2 7029   5.569   4.380   2.118
 2044SOL     OW 7030   6.066   0.141   1.549
 2044SOL    HW1 7031   6.132   0.099   1.610
 2044SOL    HW2 7032   5.992   0.183   1.603
 2045SOL     OW 7033   2.407   4.694   5.757
 2045SOL    HW1 7034   2.342   4.692   5.832
 2045SOL    HW2 7035   2.479   4.626   5.773
 2046SOL     OW 7036   6.130   0.263   4.147
 2046SOL    HW1 7037   6.111   0.266   4.245
 2046SOL    HW2 7038   6.133   0.356   4.111
 2047SOL     OW 7039   5.111   2.504   0.775
 2047SOL    HW1 7040   5.056   2.544   0.703
 2047SOL    HW2 7041   5.177   2.572   0.809
 2048SOL     OW 7042   4.490   0.708   6.603
 2048SOL    HW1 7043   4.503   0.684   6.700
 2048SOL    HW2 7044   4.565   0.768   6.574
 2049SOL     OW 7045   4.104   1.541   0.372
 2049SOL    HW1 7046   4.086   1.491   0.288
 2049SOL    HW2 7047   4.182   1.601   0.360
 2050SOL     OW 7048   6.063   2.962   4.011
 2050SOL    HW1 7049   6.011   3.045   3.991
 2050SOL    HW2 7050   6.123   2.978   4.089
 2051SOL     OW 7051   1.346   6.053   0.187
 2051SOL    HW1 7052   1.273   5.991   0.157
 2051SOL    HW2 7053   1.306   6.131   0.235
 2052SOL     OW 7054   0.984   2.825   6.650
 2052SOL    HW1 7055   0.956   2.778   6.566
 2052SOL    HW2 7056   0.908   2.825   6.715
 2053SOL     OW 7057   6.315   0.918   6.738
 2053SOL    HW1 7058   6.218   0.931   6.719
 2053SOL    HW2 7059   6.334   0.820   6.745
 2054SOL     OW 7060   5.615   2.336   0.389
 2054SOL    HW1 7061   5.532   2.305   0.342
 2054SOL    HW2 7062   5.668   2.257   0.417
 2055SOL     OW 7063   5.261   2.520   3.620
 2055SOL    HW1 7064   5.338   2.460   3.598
 2055SOL    HW2 7065   5.221   2.492   3.707
 2056SOL     OW 7066   2.238   0.948   3.034
 2056SOL    HW1 7067   2.279   0.918   3.120
 2056SOL    HW2 7068   2.141   0.922   3.033
 2057SOL     OW 7069   6.547   2.807   4.161
 2057SOL    HW1 7070   6.522   2.793   4.065
 2057SOL    HW2 7071   6.549   2.905   4.181
 2058SOL     OW 7072   6.890   2.166   2.680
 2058SOL    HW1 7073   6.953   2.231   2.636
 2058SOL    HW2 7074   6.928   2.074   2.675
 2059SOL     OW 7075   2.346   1.140   0.070
 2059SOL    HW1 7076   2.290   1.087   0.006
 2059SOL    HW2 7077   2.328   1.238   0.057
 2060SOL     OW 7078   7.010   4.546   1.871
 2060SOL    HW1 7079   0.048   4.524   1.790
 2060SOL    HW2 7080   7.010   4.468   1.934
 2061SOL     OW 7081   6.830   1.446   2.418
 2061SOL    HW1 7082   6.787   1.472   2.331
 2061SOL    HW2 7083   6.845   1.348   2.419
 2062SOL     OW 7084   4.836   0.371   2.492
 2062SOL    HW1 7085   4.839   0.417   2.402
 2062SOL    HW2 7086   4.897   0.419   2.555
 2063SOL     OW 7087   1.741   3.077   6.449
 2063SOL    HW1 7088   1.835   3.073   6.417
 2063SOL    HW2 7089   1.679   3.090   6.371
 2064SOL     OW 7090   0.721   2.373   6.192
 2064SOL    HW1 7091   0.631   2.329   6.194
 2064SOL    HW2 7092   0.782   2.327   6.256
 2065SOL     OW 7093   6.281   3.456   2.382
 2065SOL    HW1 7094   6.206   3.487   2.440
 2065SOL    HW2 7095   6.252   3.459   2.286
 2066SOL     OW 7096   0.211   6.732   4.931
 2066SOL    HW1 7097   0.309   6.749   4.933
 2066SOL    HW2 7098   0.162   6.818   4.916
 2067SOL     OW 7099   6.053   6.630   0.644
 2067SOL    HW1 7100   6.070   6.653   0.548
 2067SOL    HW2 7101   6.141   6.616   0.691
 2068SOL     OW 7102   2.159   1.324   5.331
 2068SOL    HW1 7103   2.237   1.387   5.324
 2068SOL    HW2 7104   2.132   1.314   5.427
 2069SOL     OW 7105   0.924   2.960   2.116
 2069SOL    HW1 7106   0.969   2.876   2.147
 2069SOL    HW2 7107   0.984   3.010   2.054
 2070SOL     OW 7108   1.654   1.159   2.435
 2070SOL    HW1 7109   1.707   1.117   2.509
 2070SOL    HW2 7110   1.676   1.256   2.429
 2071SOL     OW 7111   0.285   6.974   4.083
 2071SOL    HW1 7112   0.342   0.039   4.080
 2071SOL    HW2 7113   0.311   6.912   4.009
 2072SOL     OW 7114   4.765   6.181   1.822
 2072SOL    HW1 7115   4.815   6.133   1.750
 2072SOL    HW2 7116   4.667   6.170   1.808
 2073SOL     OW 7117   3.195   6.729   5.639
 2073SOL    HW1 7118   3.210   6.639   5.599
 2073SOL    HW2 7119   3.098   6.754   5.631
 2074SOL     OW 7120   6.737   1.416   0.944
 2074SOL    HW1 7121   6.720   1.499   0.998
 2074SOL    HW2 7122   6.829   1.382   0.963
 2075SOL     OW 7123   4.069   3.210   0.720
 2075SOL    HW1 7124   4.149   3.187   0.775
 2075SOL    HW2 7125   4.058   3.143   0.647
 2076SOL     OW 7126   5.065   5.898   0.539
 2076SOL    HW1 7127   5.111   5.919   0.453
 2076SOL    HW2 7128   5.013   5.978   0.569
 2077SOL     OW 7129   5.831   1.906   2.687
 2077SOL    HW1 7130   5.860   1.964   2.763
 2077SOL    HW2 7131   5.799   1.963   2.612
 2078SOL     OW 7132   3.029   5.503   6.599
 2078SOL    HW1 7133   3.081   5.584   6.628
 2078SOL    HW2 7134   2.950   5.532   6.545
 2079SOL     OW 7135   6.069   1.102   3.407
 2079SOL    HW1 7136   6.159   1.127   3.372
 2079SOL    HW2 7137   6.019   1.185   3.434
 2080SOL     OW 7138   2.643   2.289   4.972
 2080SOL    HW1 7139   2.616   2.358   5.039
 2080SOL    HW2 7140   2.743   2.282   4.969
 2081SOL     OW 7141   1.469   6.482   4.960
 2081SOL    HW1 7142   1.471   6.396   5.011
 2081SOL    HW2 7143   1.429   6.554   5.017
 2082SOL     OW 7144   5.791   0.700   0.681
 2082SOL    HW1 7145   5.773   0.652   0.595
 2082SOL    HW2 7146   5.888   0.724   0.687
 2083SOL     OW 7147   3.637   5.031   6.487
 2083SOL    HW1 7148   3.695   4.975   6.428
 2083SOL    HW2 7149   3.603   5.110   6.436
 2084SOL     OW 7150   0.099   2.421   2.950
 2084SOL    HW1 7151   0.001   2.407   2.934
 2084SOL    HW2 7152   0.131   2.356   3.019
 2085SOL     OW 7153   4.867   0.776   5.767
 2085SOL    HW1 7154   4.842   0.754   5.673
 2085SOL    HW2 7155   4.784   0.795   5.820
 2086SOL     OW 7156   3.300   4.924   0.077
 2086SOL    HW1 7157   3.297   4.968   7.004
 2086SOL    HW2 7158   3.395   4.910   0.104
 2087SOL     OW 7159   5.759   7.005   2.301
 2087SOL    HW1 7160   5.839   6.977   2.247
 2087SOL    HW2 7161   5.790   0.038   2.382
 2088SOL     OW 7162   3.299   6.603   0.814
 2088SOL    HW1 7163   3.251   6.685   0.784
 2088SOL    HW2 7164   3.277   6.585   0.910
 2089SOL     OW 7165   5.110   1.417   0.068
 2089SOL    HW1 7166   5.206   1.393   0.055
 2089SOL    HW2 7167   5.103   1.515   0.084
 2090SOL     OW 7168   3.708   3.592   4.692
 2090SOL    HW1 7169   3.737   3.665   4.630
 2090SOL    HW2 7170   3.785   3.561   4.747
 2091SOL     OW 7171   0.477   5.861   0.568
 2091SOL    HW1 7172   0.437   5.773   0.540
 2091SOL    HW2 7173   0.417   5.906   0.633
 2092SOL     OW 7174   6.162   6.305   1.175
 2092SOL    HW1 7175   6.179   6.401   1.198
 2092SOL    HW2 7176   6.129   6.299   1.081
 2093SOL     OW 7177   1.148   2.923   1.719
 2093SOL    HW1 7178   1.184   2.851   1.778
 2093SOL    HW2 7179   1.178   3.013   1.752
 2094SOL     OW 7180   6.160   0.183   1.857
 2094SOL    HW1 7181   6.223   0.206   1.783
 2094SOL    HW2 7182   6.076   0.237   1.847
 2095SOL     OW 7183   6.062   5.992   4.061
 2095SOL    HW1 7184   6.128   6.066   4.057
 2095SOL    HW2 7185   6.020   5.989   4.152
 2096SOL     OW 7186   4.820   4.004   2.725
 2096SOL    HW1 7187   4.734   4.052   2.741
 2096SOL    HW2 7188   4.827   3.981   2.628
 2097SOL     OW 7189   0.119   2.427   0.091
 2097SOL    HW1 7190   0.179   2.360   0.136
 2097SOL    HW2 7191   0.025   2.393   0.091
 2098SOL     OW 7192   4.344   6.641   3.749
 2098SOL    HW1 7193   4.368   6.546   3.730
 2098SOL    HW2 7194   4.404   6.677   3.821
 2099SOL     OW 7195   2.788   1.418   4.515
 2099SOL    HW1 7196   2.871   1.364   4.501
 2099SOL    HW2 7197   2.813   1.511   4.542
 2100SOL     OW 7198   4.225   4.172   6.759
 2100SOL    HW1 7199   4.224   4.107   6.682
 2100SOL    HW2 7200   4.219   4.122   6.845
 2101SOL     OW 7201   0.380   0.473   3.049
 2101SOL    HW1 7202   0.440   0.419   2.990
 2101SOL    HW2 7203   0.435   0.529   3.111
 2102SOL     OW 7204   0.115   5.483   2.741
 2102SOL    HW1 7205   0.059   5.560   2.710
 2102SOL    HW2 7206   0.179   5.514   2.810
 2103SOL     OW 7207   3.373   3.088   7.009
 2103SOL    HW1 7208   3.395   3.074   0.089
 2103SOL    HW2 7209   3.276   3.071   6.994
 2104SOL     OW 7210   1.653   3.292   5.752
 2104SOL    HW1 7211   1.654   3.349   5.835
 2104SOL    HW2 7212   1.702   3.207   5.770
 2105SOL     OW 7213   5.421   5.098   2.984
 2105SOL    HW1 7214   5.491   5.088   2.913
 2105SOL    HW2 7215   5.334   5.064   2.950
 2106SOL     OW 7216   4.673   5.357   6.653
 2106SOL    HW1 7217   4.592   5.360   6.711
 2106SOL    HW2 7218   4.742   5.420   6.689
 2107SOL     OW 7219   3.980   4.196   5.549
 2107SOL    HW1 7220   3.890   4.177   5.589
 2107SOL    HW2 7221   3.972   4.196   5.449
 2108SOL     OW 7222   6.087   5.453   5.864
 2108SOL    HW1 7223   6.023   5.466   5.788
 2108SOL    HW2 7224   6.080   5.530   5.927
 2109SOL     OW 7225   5.803   5.712   2.880
 2109SOL    HW1 7226   5.792   5.750   2.788
 2109SOL    HW2 7227   5.792   5.785   2.948
 2110SOL     OW 7228   2.819   4.352   6.325
 2110SOL    HW1 7229   2.723   4.375   6.315
 2110SOL    HW2 7230   2.875   4.434   6.310
 2111SOL     OW 7231   0.979   2.668   6.407
 2111SOL    HW1 7232   1.017   2.666   6.314
 2111SOL    HW2 7233   0.880   2.665   6.403
 2112SOL     OW 7234   4.265   2.432   1.638
 2112SOL    HW1 7235   4.182   2.482   1.664
 2112SOL    HW2 7236   4.254   2.394   1.546
 2113SOL     OW 7237   1.386   0.318   2.911
 2113SOL    HW1 7238   1.340   0.333   2.998
 2113SOL    HW2 7239   1.336   0.366   2.838
 2114SOL     OW 7240   1.374   4.423   0.097
 2114SOL    HW1 7241   1.277   4.439   0.111
 2114SOL    HW2 7242   1.409   4.487   0.029
 2115SOL     OW 7243   2.212   4.973   2.820
 2115SOL    HW1 7244   2.115   4.950   2.807
 2115SOL    HW2 7245   2.248   4.923   2.898
 2116SOL     OW 7246   0.049   3.806   2.669
 2116SOL    HW1 7247   6.973   3.768   2.663
 2116SOL    HW2 7248   0.084   3.795   2.762
 2117SOL     OW 7249   0.122   4.579   1.611
 2117SOL    HW1 7250   0.190   4.522   1.566
 2117SOL    HW2 7251   0.033   4.565   1.567
 2118SOL     OW 7252   6.804   3.689   2.671
 2118SOL    HW1 7253   6.715   3.715   2.634
 2118SOL    HW2 7254   6.795   3.605   2.724
 2119SOL     OW 7255   2.360   5.757   1.297
 2119SOL    HW1 7256   2.287   5.804   1.346
 2119SOL    HW2 7257   2.342   5.658   1.296
 2120SOL     OW 7258   6.184   4.370   1.986
 2120SOL    HW1 7259   6.117   4.322   1.930
 2120SOL    HW2 7260   6.273   4.324   1.981
 2121SOL     OW 7261   0.541   5.178   5.249
 2121SOL    HW1 7262   0.527   5.081   5.226
 2121SOL    HW2 7263   0.606   5.185   5.324
 2122SOL     OW 7264   5.197   4.527   5.404
 2122SOL    HW1 7265   5.179   4.434   5.373
 2122SOL    HW2 7266   5.122   4.587   5.374
 2123SOL     OW 7267   6.838   4.508   2.707
 2123SOL    HW1 7268   6.878   4.600   2.711
 2123SOL    HW2 7269   6.909   4.440   2.727
 2124SOL     OW 7270   2.100   1.451   1.347
 2124SOL    HW1 7271   2.022   1.513   1.356
 2124SOL    HW2 7272   2.066   1.358   1.331
 2125SOL     OW 7273   2.263   0.723   0.246
 2125SOL    HW1 7274   2.217   0.811   0.258
 2125SOL    HW2 7275   2.246   0.666   0.326
 2126SOL     OW 7276   2.921   0.762   6.824
 2126SOL    HW1 7277   2.928   0.780   6.725
 2126SOL    HW2 7278   2.910   0.848   6.873
 2127SOL     OW 7279   6.008   3.165   4.310
 2127SOL    HW1 7280   6.101   3.134   4.291
 2127SOL    HW2 7281   6.003   3.265   4.302
 2128SOL     OW 7282   0.452   4.484   5.073
 2128SOL    HW1 7283   0.368   4.438   5.043
 2128SOL    HW2 7284   0.523   4.473   5.003
 2129SOL     OW 7285   4.762   3.176   5.412
 2129SOL    HW1 7286   4.765   3.080   5.384
 2129SOL    HW2 7287   4.667   3.203   5.428
 2130SOL     OW 7288   5.037   6.906   2.732
 2130SOL    HW1 7289   4.991   6.942   2.650
 2130SOL    HW2 7290   4.968   6.883   2.801
 2131SOL     OW 7291   0.244   0.574   0.615
 2131SOL    HW1 7292   0.194   0.659   0.624
 2131SOL    HW2 7293   0.339   0.593   0.591
 2132SOL     OW 7294   2.712   2.856   1.250
 2132SOL    HW1 7295   2.671   2.847   1.160
 2132SOL    HW2 7296   2.811   2.843   1.243
 2133SOL     OW 7297   3.129   2.301   6.082
 2133SOL    HW1 7298   3.181   2.349   6.153
 2133SOL    HW2 7299   3.183   2.299   5.997
 2134SOL     OW 7300   6.958   1.386   1.143
 2134SOL    HW1 7301   0.033   1.402   1.180
 2134SOL    HW2 7302   6.890   1.403   1.214
 2135SOL     OW 7303   1.198   3.974   4.675
 2135SOL    HW1 7304   1.262   4.048   4.654
 2135SOL    HW2 7305   1.127   3.970   4.604
 2136SOL     OW 7306   2.462   5.213   2.025
 2136SOL    HW1 7307   2.548   5.230   1.978
 2136SOL    HW2 7308   2.389   5.199   1.957
 2137SOL     OW 7309   3.210   5.608   5.049
 2137SOL    HW1 7310   3.265   5.680   5.007
 2137SOL    HW2 7311   3.117   5.642   5.065
 2138SOL     OW 7312   6.096   1.301   2.703
 2138SOL    HW1 7313   6.150   1.217   2.704
 2138SOL    HW2 7314   6.075   1.326   2.608
 2139SOL     OW 7315   3.267   0.733   5.541
 2139SOL    HW1 7316   3.191   0.717   5.479
 2139SOL    HW2 7317   3.352   0.743   5.488
 2140SOL     OW 7318   2.843   0.916   4.530
 2140SOL    HW1 7319   2.750   0.942   4.503
 2140SOL    HW2 7320   2.887   0.869   4.453
 2141SOL     OW 7321   6.076   4.245   2.215
 2141SOL    HW1 7322   6.080   4.292   2.126
 2141SOL    HW2 7323   6.167   4.247   2.257
 2142SOL     OW 7324   1.923   2.918   3.773
 2142SOL    HW1 7325   1.938   2.840   3.833
 2142SOL    HW2 7326   1.965   2.900   3.684
 2143SOL     OW 7327   2.578   5.066   1.503
 2143SOL    HW1 7328   2.524   4.991   1.465
 2143SOL    HW2 7329   2.674   5.037   1.509
 2144SOL     OW 7330   6.564   5.605   4.198
 2144SOL    HW1 7331   6.513   5.549   4.134
 2144SOL    HW2 7332   6.660   5.608   4.171
 2145SOL     OW 7333   4.164   6.636   4.210
 2145SOL    HW1 7334   4.228   6.684   4.151
 2145SOL    HW2 7335   4.195   6.640   4.305
 2146SOL     OW 7336   2.638   3.054   0.915
 2146SOL    HW1 7337   2.617   2.958   0.936
 2146SOL    HW2 7338   2.553   3.103   0.896
 2147SOL     OW 7339   6.845   1.601   5.720
 2147SOL    HW1 7340   6.810   1.517   5.678
 2147SOL    HW2 7341   6.769   1.652   5.760
 2148SOL     OW 7342   6.934   3.120   6.798
 2148SOL    HW1 7343   6.891   3.140   6.887
 2148SOL    HW2 7344   6.886   3.169   6.726
 2149SOL     OW 7345   0.645   0.196   0.170
 2149SOL    HW1 7346   0.742   0.176   0.182
 2149SOL    HW2 7347   0.631   0.240   0.081
 2150SOL     OW 7348   2.406   2.850   1.667
 2150SOL    HW1 7349   2.323   2.905   1.676
 2150SOL    HW2 7350   2.393   2.762   1.712
 2151SOL     OW 7351   0.756   6.435   0.092
 2151SOL    HW1 7352   0.744   6.485   0.006
 2151SOL    HW2 7353   0.667   6.424   0.136
 2152SOL     OW 7354   4.097   5.951   2.117
 2152SOL    HW1 7355   4.112   6.034   2.170
 2152SOL    HW2 7356   4.085   5.975   2.020
 2153SOL     OW 7357   4.419   0.965   2.447
 2153SOL    HW1 7358   4.444   1.018   2.528
 2153SOL    HW2 7359   4.399   1.028   2.371
 2154SOL     OW 7360   3.536   6.554   3.382
 2154SOL    HW1 7361   3.517   6.593   3.292
 2154SOL    HW2 7362   3.498   6.614   3.453
 2155SOL     OW 7363   4.343   6.617   0.311
 2155SOL    HW1 7364   4.380   6.535   0.267
 2155SOL    HW2 7365   4.293   6.671   0.244
 2156SOL     OW 7366   5.293   1.596   4.039
 2156SOL    HW1 7367   5.287   1.661   4.115
 2156SOL    HW2 7368   5.346   1.637   3.965
 2157SOL     OW 7369   4.313   4.952   3.929
 2157SOL    HW1 7370   4.274   5.035   3.968
 2157SOL    HW2 7371   4.240   4.884   3.917
 2158SOL     OW 7372   3.196   0.431   0.664
 2158SOL    HW1 7373   3.226   0.482   0.583
 2158SOL    HW2 7374   3.201   0.333   0.646
 2159SOL     OW 7375   1.653   0.357   6.062
 2159SOL    HW1 7376   1.664   0.454   6.040
 2159SOL    HW2 7377   1.555   0.334   6.063
 2160SOL     OW 7378   4.990   6.147   0.231
 2160SOL    HW1 7379   4.901   6.102   0.228
 2160SOL    HW2 7380   5.043   6.123   0.149
 2161SOL     OW 7381   1.390   3.991   2.382
 2161SOL    HW1 7382   1.355   3.921   2.320
 2161SOL    HW2 7383   1.369   3.966   2.477
 2162SOL     OW 7384   1.722   6.739   3.435
 2162SOL    HW1 7385   1.805   6.790   3.417
 2162SOL    HW2 7386   1.645   6.802   3.445
 2163SOL     OW 7387   1.403   3.361   0.903
 2163SOL    HW1 7388   1.331   3.421   0.936
 2163SOL    HW2 7389   1.485   3.372   0.960
 2164SOL     OW 7390   2.150   2.825   1.356
 2164SOL    HW1 7391   2.195   2.737   1.339
 2164SOL    HW2 7392   2.211   2.899   1.329
 2165SOL     OW 7393   0.185   2.168   3.675
 2165SOL    HW1 7394   0.089   2.185   3.694
 2165SOL    HW2 7395   0.236   2.254   3.681
 2166SOL     OW 7396   0.859   4.382   3.696
 2166SOL    HW1 7397   0.829   4.317   3.766
 2166SOL    HW2 7398   0.910   4.334   3.625
 2167SOL     OW 7399   1.811   2.799   4.109
 2167SOL    HW1 7400   1.828   2.761   4.018
 2167SOL    HW2 7401   1.734   2.750   4.151
 2168SOL     OW 7402   1.565   2.475   3.155
 2168SOL    HW1 7403   1.530   2.394   3.202
 2168SOL    HW2 7404   1.658   2.457   3.123
 2169SOL     OW 7405   0.330   0.467   1.325
 2169SOL    HW1 7406   0.421   0.432   1.305
 2169SOL    HW2 7407   0.304   0.442   1.419
 2170SOL     OW 7408   0.946   4.032   5.804
 2170SOL    HW1 7409   1.012   4.024   5.730
 2170SOL    HW2 7410   0.865   3.976   5.783
 2171SOL     OW 7411   0.279   5.355   1.307
 2171SOL    HW1 7412   0.320   5.281   1.360
 2171SOL    HW2 7413   0.249   5.428   1.368
 2172SOL     OW 7414   6.927   1.922   4.819
 2172SOL    HW1 7415   6.968   1.841   4.861
 2172SOL    HW2 7416   6.966   2.004   4.862
 2173SOL     OW 7417   5.914   0.577   5.223
 2173SOL    HW1 7418   5.822   0.593   5.186
 2173SOL    HW2 7419   5.907   0.522   5.306
 2174SOL     OW 7420   6.913   6.103   4.802
 2174SOL    HW1 7421   6.832   6.091   4.858
 2174SOL    HW2 7422   6.943   6.014   4.767
 2175SOL     OW 7423   2.911   3.044   5.451
 2175SOL    HW1 7424   2.982   3.086   5.395
 2175SOL    HW2 7425   2.938   3.046   5.547
 2176SOL     OW 7426   5.240   2.741   1.320
 2176SOL    HW1 7427   5.146   2.751   1.287
 2176SOL    HW2 7428   5.301   2.797   1.264
 2177SOL     OW 7429   0.023   1.116   3.265
 2177SOL    HW1 7430   0.010   1.031   3.215
 2177SOL    HW2 7431   0.091   1.102   3.338
 2178SOL     OW 7432   0.648   1.557   1.989
 2178SOL    HW1 7433   0.684   1.578   1.898
 2178SOL    HW2 7434   0.682   1.467   2.018
 2179SOL     OW 7435   2.269   4.294   6.740
 2179SOL    HW1 7436   2.173   4.312   6.722
 2179SOL    HW2 7437   2.316   4.272   6.654
 2180SOL     OW 7438   1.256   4.750   1.960
 2180SOL    HW1 7439   1.267   4.651   1.960
 2180SOL    HW2 7440   1.327   4.791   2.018
 2181SOL     OW 7441   4.984   4.911   4.338
 2181SOL    HW1 7442   5.081   4.888   4.328
 2181SOL    HW2 7443   4.948   4.869   4.421
 2182SOL     OW 7444   0.496   5.118   3.385
 2182SOL    HW1 7445   0.541   5.171   3.457
 2182SOL    HW2 7446   0.563   5.057   3.342
 2183SOL     OW 7447   3.222   3.538   0.112
 2183SOL    HW1 7448   3.309   3.491   0.130
 2183SOL    HW2 7449   3.181   3.566   0.198
 2184SOL     OW 7450   6.452   0.004   0.342
 2184SOL    HW1 7451   6.385   0.054   0.397
 2184SOL    HW2 7452   6.528   6.992   0.401
 2185SOL     OW 7453   0.673   1.569   6.614
 2185SOL    HW1 7454   0.703   1.596   6.523
 2185SOL    HW2 7455   0.713   1.480   6.638
 2186SOL     OW 7456   6.549   5.381   4.832
 2186SOL    HW1 7457   6.617   5.370   4.759
 2186SOL    HW2 7458   6.490   5.459   4.812
 2187SOL     OW 7459   0.818   5.672   2.837
 2187SOL    HW1 7460   0.752   5.627   2.777
 2187SOL    HW2 7461   0.869   5.740   2.785
 2188SOL     OW 7462   1.982   6.559   0.184
 2188SOL    HW1 7463   1.959   6.648   0.145
 2188SOL    HW2 7464   2.080   6.555   0.203
 2189SOL     OW 7465   2.177   1.593   2.143
 2189SOL    HW1 7466   2.210   1.670   2.197
 2189SOL    HW2 7467   2.183   1.509   2.198
 2190SOL     OW 7468   6.520   4.337   2.707
 2190SOL    HW1 7469   6.580   4.371   2.779
 2190SOL    HW2 7470   6.449   4.404   2.688
 2191SOL     OW 7471   2.077   0.938   5.539
 2191SOL    HW1 7472   2.018   1.017   5.525
 2191SOL    HW2 7473   2.033   0.873   5.602
 2192SOL     OW 7474   5.556   0.760   2.149
 2192SOL    HW1 7475   5.470   0.810   2.142
 2192SOL    HW2 7476   5.632   0.822   2.132
 2193SOL     OW 7477   6.871   6.686   6.339
 2193SOL    HW1 7478   6.911   6.596   6.354
 2193SOL    HW2 7479   6.872   6.737   6.425
 2194SOL     OW 7480   0.599   4.226   5.239
 2194SOL    HW1 7481   0.666   4.169   5.287
 2194SOL    HW2 7482   0.614   4.322   5.264
 2195SOL     OW 7483   0.675   5.332   6.661
 2195SOL    HW1 7484   0.706   5.307   6.752
 2195SOL    HW2 7485   0.704   5.262   6.596
 2196SOL     OW 7486   2.331   5.866   5.614
 2196SOL    HW1 7487   2.428   5.867   5.587
 2196SOL    HW2 7488   2.294   5.774   5.600
 2197SOL     OW 7489   3.224   3.384   5.696
 2197SOL    HW1 7490   3.275   3.373   5.611
 2197SOL    HW2 7491   3.285   3.365   5.773
 2198SOL     OW 7492   0.245   0.346   6.299
 2198SOL    HW1 7493   0.220   0.443   6.307
 2198SOL    HW2 7494   0.305   0.322   6.375
 2199SOL     OW 7495   4.910   6.759   4.080
 2199SOL    HW1 7496   4.935   6.667   4.050
 2199SOL    HW2 7497   4.870   6.809   4.003
 2200SOL     OW 7498   3.007   0.823   4.261
 2200SOL    HW1 7499   3.058   0.745   4.225
 2200SOL    HW2 7500   2.915   0.825   4.220
 2201SOL     OW 7501   6.620   2.758   3.301
 2201SOL    HW1 7502   6.686   2.705   3.249
 2201SOL    HW2 7503   6.527   2.737   3.270
 2202SOL     OW 7504   3.368   5.055   2.722
 2202SOL    HW1 7505   3.339   5.130   2.781
 2202SOL    HW2 7506   3.449   5.012   2.761
 2203SOL     OW 7507   2.405   3.928   0.885
 2203SOL    HW1 7508   2.331   3.922   0.952
 2203SOL    HW2 7509   2.464   3.848   0.895
 2204SOL     OW 7510   4.324   2.995   1.185
 2204SOL    HW1 7511   4.398   2.928   1.178
 2204SOL    HW2 7512   4.236   2.948   1.190
 2205SOL     OW 7513   1.325   6.442   0.613
 2205SOL    HW1 7514   1.423   6.434   0.596
 2205SOL    HW2 7515   1.309   6.487   0.701
 2206SOL     OW 7516   3.030   2.947   6.471
 2206SOL    HW1 7517   2.943   2.971   6.428
 2206SOL    HW2 7518   3.105   2.971   6.410
 2207SOL     OW 7519   4.209   5.584   0.955
 2207SOL    HW1 7520   4.125   5.546   0.994
 2207SOL    HW2 7521   4.212   5.682   0.972
 2208SOL     OW 7522   1.105   5.589   3.848
 2208SOL    HW1 7523   1.015   5.614   3.812
 2208SOL    HW2 7524   1.093   5.528   3.927
 2209SOL     OW 7525   2.862   5.328   5.130
 2209SOL    HW1 7526   2.811   5.324   5.044
 2209SOL    HW2 7527   2.802   5.301   5.206
 2210SOL     OW 7528   5.940   6.173   1.507
 2210SOL    HW1 7529   6.021   6.119   1.484
 2210SOL    HW2 7530   5.887   6.125   1.576
 2211SOL     OW 7531   6.207   0.174   0.779
 2211SOL    HW1 7532   6.143   0.250   0.766
 2211SOL    HW2 7533   6.259   0.159   0.695
 2212SOL     OW 7534   2.495   6.340   6.796
 2212SOL    HW1 7535   2.546   6.299   6.871
 2212SOL    HW2 7536   2.464   6.432   6.822
 2213SOL     OW 7537   4.346   2.373   4.241
 2213SOL    HW1 7538   4.401   2.419   4.310
 2213SOL    HW2 7539   4.398   2.367   4.156
 2214SOL     OW 7540   4.302   2.989   5.918
 2214SOL    HW1 7541   4.261   3.077   5.941
 2214SOL    HW2 7542   4.237   2.936   5.863
 2215SOL     OW 7543   5.428   1.178   6.550
 2215SOL    HW1 7544   5.344   1.159   6.499
 2215SOL    HW2 7545   5.446   1.276   6.549
 2216SOL     OW 7546   0.618   5.634   6.274
 2216SOL    HW1 7547   0.607   5.607   6.370
 2216SOL    HW2 7548   0.706   5.679   6.262
 2217SOL     OW 7549   4.322   0.772   3.588
 2217SOL    HW1 7550   4.262   0.716   3.646
 2217SOL    HW2 7551   4.356   0.849   3.641
 2218SOL     OW 7552   0.788   5.397   6.953
 2218SOL    HW1 7553   0.804   5.428   0.031
 2218SOL    HW2 7554   0.690   5.384   6.939
 2219SOL     OW 7555   6.054   1.676   0.684
 2219SOL    HW1 7556   6.119   1.716   0.749
 2219SOL    HW2 7557   6.073   1.711   0.592
 2220SOL     OW 7558   1.725   6.231   5.286
 2220SOL    HW1 7559   1.803   6.281   5.250
 2220SOL    HW2 7560   1.726   6.235   5.386
 2221SOL     OW 7561   6.413   1.397   4.533
 2221SOL    HW1 7562   6.360   1.330   4.481
 2221SOL    HW2 7563   6.353   1.471   4.563
 2222SOL     OW 7564   6.134   6.747   0.412
 2222SOL    HW1 7565   6.047   6.792   0.394
 2222SOL    HW2 7566   6.157   6.687   0.335
 2223SOL     OW 7567   6.822   0.958   5.604
 2223SOL    HW1 7568   6.841   0.862   5.623
 2223SOL    HW2 7569   6.737   0.984   5.649
 2224SOL     OW 7570   5.687   3.626   1.808
 2224SOL    HW1 7571   5.725   3.714   1.779
 2224SOL    HW2 7572   5.656   3.633   1.903
 2225SOL     OW 7573   0.258   6.581   3.979
 2225SOL    HW1 7574   0.301   6.530   4.053
 2225SOL    HW2 7575   0.322   6.586   3.901
 2226SOL     OW 7576   3.604   5.091   0.568
 2226SOL    HW1 7577   3.579   5.181   0.604
 2226SOL    HW2 7578   3.543   5.022   0.606
 2227SOL     OW 7579   4.226   2.362   1.376
 2227SOL    HW1 7580   4.128   2.345   1.367
 2227SOL    HW2 7581   4.277   2.279   1.353
 2228SOL     OW 7582   4.486   5.283   0.266
 2228SOL    HW1 7583   4.484   5.249   0.172
 2228SOL    HW2 7584   4.563   5.346   0.277
 2229SOL     OW 7585   3.167   3.694   4.805
 2229SOL    HW1 7586   3.069   3.684   4.786
 2229SOL    HW2 7587   3.216   3.616   4.767
 2230SOL     OW 7588   5.067   6.348   1.363
 2230SOL    HW1 7589   5.029   6.270   1.313
 2230SOL    HW2 7590   5.095   6.318   1.454
 2231SOL     OW 7591   0.572   1.132   6.810
 2231SOL    HW1 7592   0.574   1.100   6.905
 2231SOL    HW2 7593   0.569   1.232   6.808
 2232SOL     OW 7594   1.265   0.807   5.065
 2232SOL    HW1 7595   1.182   0.811   5.121
 2232SOL    HW2 7596   1.313   0.894   5.071
 2233SOL     OW 7597   3.065   2.920   0.743
 2233SOL    HW1 7598   3.154   2.942   0.783
 2233SOL    HW2 7599   3.074   2.841   0.683
 2234SOL     OW 7600   3.633   1.748   0.766
 2234SOL    HW1 7601   3.690   1.670   0.742
 2234SOL    HW2 7602   3.632   1.760   0.866
 2235SOL     OW 7603   2.514   0.403   2.601
 2235SOL    HW1 7604   2.550   0.339   2.669
 2235SOL    HW2 7605   2.417   0.382   2.584
 2236SOL     OW 7606   1.937   3.951   6.163
 2236SOL    HW1 7607   1.953   3.990   6.072
 2236SOL    HW2 7608   2.023   3.918   6.201
 2237SOL     OW 7609   6.065   5.374   4.990
 2237SOL    HW1 7610   6.151   5.323   4.983
 2237SOL    HW2 7611   6.077   5.450   5.054
 2238SOL     OW 7612   4.619   4.788   2.872
 2238SOL    HW1 7613   4.596   4.883   2.855
 2238SOL    HW2 7614   4.541   4.730   2.848
 2239SOL     OW 7615   3.752   5.561   3.868
 2239SOL    HW1 7616   3.715   5.498   3.799
 2239SOL    HW2 7617   3.850   5.570   3.856
 2240SOL     OW 7618   3.706   5.866   2.886
 2240SOL    HW1 7619   3.614   5.877   2.924
 2240SOL    HW2 7620   3.717   5.774   2.851
 2241SOL     OW 7621   6.858   6.917   1.800
 2241SOL    HW1 7622   6.920   6.991   1.771
 2241SOL    HW2 7623   6.874   6.837   1.742
 2242SOL     OW 7624   5.376   3.192   3.012
 2242SOL    HW1 7625   5.435   3.238   3.077
 2242SOL    HW2 7626   5.298   3.251   2.988
 2243SOL     OW 7627   2.745   5.968   7.006
 2243SOL    HW1 7628   2.722   5.882   6.962
 2243SOL    HW2 7629   2.807   5.952   0.066
 2244SOL     OW 7630   3.112   0.156   1.262
 2244SOL    HW1 7631   3.147   0.225   1.199
 2244SOL    HW2 7632   3.164   0.071   1.251
 2245SOL     OW 7633   0.587   1.395   0.609
 2245SOL    HW1 7634   0.621   1.301   0.611
 2245SOL    HW2 7635   0.540   1.412   0.522
 2246SOL     OW 7636   1.931   0.437   4.003
 2246SOL    HW1 7637   1.920   0.396   3.912
 2246SOL    HW2 7638   1.885   0.526   4.005
 2247SOL     OW 7639   3.212   4.076   2.480
 2247SOL    HW1 7640   3.156   3.996   2.502
 2247SOL    HW2 7641   3.222   4.085   2.381
 2248SOL     OW 7642   6.529   4.231   4.213
 2248SOL    HW1 7643   6.489   4.201   4.126
 2248SOL    HW2 7644   6.474   4.195   4.288
 2249SOL     OW 7645   3.374   6.649   3.597
 2249SOL    HW1 7646   3.335   6.560   3.620
 2249SOL    HW2 7647   3.381   6.704   3.680
 2250SOL     OW 7648   3.726   3.761   5.542
 2250SOL    HW1 7649   3.801   3.805   5.590
 2250SOL    HW2 7650   3.719   3.798   5.450
 2251SOL     OW 7651   5.336   6.614   6.296
 2251SOL    HW1 7652   5.294   6.530   6.261
 2251SOL    HW2 7653   5.385   6.660   6.222
 2252SOL     OW 7654   5.563   1.639   2.876
 2252SOL    HW1 7655   5.626   1.581   2.928
 2252SOL    HW2 7656   5.574   1.734   2.905
 2253SOL     OW 7657   0.648   3.249   0.190
 2253SOL    HW1 7658   0.604   3.336   0.216
 2253SOL    HW2 7659   0.583   3.194   0.139
 2254SOL     OW 7660   3.541   4.024   3.147
 2254SOL    HW1 7661   3.560   4.038   3.050
 2254SOL    HW2 7662   3.624   4.039   3.200
 2255SOL     OW 7663   3.101   3.969   5.814
 2255SOL    HW1 7664   3.092   3.938   5.719
 2255SOL    HW2 7665   3.183   4.025   5.824
 2256SOL     OW 7666   4.471   6.489   2.268
 2256SOL    HW1 7667   4.383   6.514   2.228
 2256SOL    HW2 7668   4.486   6.390   2.256
 2257SOL     OW 7669   0.473   2.018   4.662
 2257SOL    HW1 7670   0.412   2.060   4.595
 2257SOL    HW2 7671   0.431   2.018   4.752
 2258SOL     OW 7672   2.486   6.401   4.098
 2258SOL    HW1 7673   2.529   6.328   4.045
 2258SOL    HW2 7674   2.398   6.370   4.132
 2259SOL     OW 7675   5.916   2.751   4.819
 2259SOL    HW1 7676   5.923   2.692   4.899
 2259SOL    HW2 7677   5.911   2.847   4.849
 2260SOL     OW 7678   0.959   3.366   1.236
 2260SOL    HW1 7679   0.989   3.343   1.143
 2260SOL    HW2 7680   1.017   3.438   1.273
 2261SOL     OW 7681   6.219   3.999   0.971
 2261SOL    HW1 7682   6.180   4.086   1.002
 2261SOL    HW2 7683   6.288   4.017   0.901
 2262SOL     OW 7684   6.346   0.602   3.421
 2262SOL    HW1 7685   6.308   0.689   3.453
 2262SOL    HW2 7686   6.445   0.607   3.421
 2263SOL     OW 7687   1.682   5.696   1.112
 2263SOL    HW1 7688   1.759   5.737   1.062
 2263SOL    HW2 7689   1.715   5.614   1.159
 2264SOL     OW 7690   2.481   6.833   6.774
 2264SOL    HW1 7691   2.542   6.913   6.774
 2264SOL    HW2 7692   2.435   6.827   6.685
 2265SOL     OW 7693   1.384   0.545   4.162
 2265SOL    HW1 7694   1.413   0.630   4.204
 2265SOL    HW2 7695   1.461   0.503   4.114
 2266SOL     OW 7696   5.226   1.212   6.148
 2266SOL    HW1 7697   5.243   1.168   6.060
 2266SOL    HW2 7698   5.247   1.310   6.141
 2267SOL     OW 7699   4.555   2.592   4.658
 2267SOL    HW1 7700   4.584   2.683   4.629
 2267SOL    HW2 7701   4.514   2.545   4.580
 2268SOL     OW 7702   6.311   3.727   6.366
 2268SOL    HW1 7703   6.261   3.805   6.404
 2268SOL    HW2 7704   6.370   3.759   6.292
 2269SOL     OW 7705   0.347   3.401   5.218
 2269SOL    HW1 7706   0.277   3.391   5.289
 2269SOL    HW2 7707   0.424   3.341   5.238
 2270SOL     OW 7708   4.329   3.299   6.236
 2270SOL    HW1 7709   4.304   3.339   6.148
 2270SOL    HW2 7710   4.323   3.369   6.307
 2271SOL     OW 7711   5.760   4.302   6.899
 2271SOL    HW1 7712   5.739   4.265   6.809
 2271SOL    HW2 7713   5.858   4.323   6.904
 2272SOL     OW 7714   6.773   1.416   6.316
 2272SOL    HW1 7715   6.742   1.508   6.342
 2272SOL    HW2 7716   6.867   1.403   6.344
 2273SOL     OW 7717   1.702   2.359   2.195
 2273SOL    HW1 7718   1.742   2.283   2.247
 2273SOL    HW2 7719   1.721   2.345   2.097
 2274SOL     OW 7720   0.578   1.873   0.116
 2274SOL    HW1 7721   0.487   1.877   0.076
 2274SOL    HW2 7722   0.646   1.887   0.043
 2275SOL     OW 7723   5.845   5.019   2.447
 2275SOL    HW1 7724   5.917   4.962   2.408
 2275SOL    HW2 7725   5.866   5.040   2.542
 2276SOL     OW 7726   1.520   6.475   1.339
 2276SOL    HW1 7727   1.598   6.525   1.299
 2276SOL    HW2 7728   1.465   6.538   1.393
 2277SOL     OW 7729   3.442   3.887   4.147
 2277SOL    HW1 7730   3.504   3.809   4.152
 2277SOL    HW2 7731   3.352   3.860   4.180
 2278SOL     OW 7732   6.716   3.101   4.064
 2278SOL    HW1 7733   6.690   3.057   3.978
 2278SOL    HW2 7734   6.654   3.177   4.083
 2279SOL     OW 7735   6.760   5.893   5.893
 2279SOL    HW1 7736   6.700   5.887   5.813
 2279SOL    HW2 7737   6.741   5.977   5.943
 2280SOL     OW 7738   6.447   0.611   4.922
 2280SOL    HW1 7739   6.450   0.674   4.845
 2280SOL    HW2 7740   6.378   0.642   4.988
 2281SOL     OW 7741   4.299   0.413   2.017
 2281SOL    HW1 7742   4.319   0.417   1.919
 2281SOL    HW2 7743   4.385   0.405   2.068
 2282SOL     OW 7744   4.502   6.003   5.118
 2282SOL    HW1 7745   4.440   5.968   5.188
 2282SOL    HW2 7746   4.451   6.064   5.057
 2283SOL     OW 7747   1.441   0.542   2.547
 2283SOL    HW1 7748   1.491   0.515   2.465
 2283SOL    HW2 7749   1.493   0.612   2.596
 2284SOL     OW 7750   0.718   3.532   5.577
 2284SOL    HW1 7751   0.659   3.465   5.532
 2284SOL    HW2 7752   0.807   3.533   5.532
 2285SOL     OW 7753   1.200   3.641   6.876
 2285SOL    HW1 7754   1.119   3.621   6.933
 2285SOL    HW2 7755   1.191   3.595   6.788
 2286SOL     OW 7756   5.178   6.747   3.167
 2286SOL    HW1 7757   5.231   6.744   3.252
 2286SOL    HW2 7758   5.149   6.841   3.148
 2287SOL     OW 7759   2.596   1.240   3.616
 2287SOL    HW1 7760   2.514   1.296   3.620
 2287SOL    HW2 7761   2.647   1.248   3.702
 2288SOL     OW 7762   0.605   5.247   3.857
 2288SOL    HW1 7763   0.515   5.256   3.899
 2288SOL    HW2 7764   0.668   5.202   3.920
 2289SOL     OW 7765   6.913   4.729   1.230
 2289SOL    HW1 7766   6.859   4.713   1.312
 2289SOL    HW2 7767   6.994   4.784   1.253
 2290SOL     OW 7768   1.157   4.238   0.844
 2290SOL    HW1 7769   1.199   4.217   0.755
 2290SOL    HW2 7770   1.122   4.332   0.842
 2291SOL     OW 7771   3.045   2.051   5.706
 2291SOL    HW1 7772   3.103   1.969   5.701
 2291SOL    HW2 7773   3.000   2.053   5.795
 2292SOL     OW 7774   1.255   1.505   4.918
 2292SOL    HW1 7775   1.176   1.450   4.946
 2292SOL    HW2 7776   1.312   1.524   4.998
 2293SOL     OW 7777   5.706   5.834   1.717
 2293SOL    HW1 7778   5.690   5.741   1.751
 2293SOL    HW2 7779   5.620   5.874   1.687
 2294SOL     OW 7780   3.545   6.991   0.636
 2294SOL    HW1 7781   3.576   0.029   0.714
 2294SOL    HW2 7782   3.618   6.930   0.607
 2295SOL     OW 7783   0.332   2.026   2.334
 2295SOL    HW1 7784   0.321   2.116   2.292
 2295SOL    HW2 7785   0.389   2.034   2.416
 2296SOL     OW 7786   3.165   6.989   0.847
 2296SOL    HW1 7787   3.220   6.940   0.914
 2296SOL    HW2 7788   3.225   0.016   0.780
 2297SOL     OW 7789   4.161   4.205   5.766
 2297SOL    HW1 7790   4.182   4.303   5.761
 2297SOL    HW2 7791   4.092   4.182   5.697
 2298SOL     OW 7792   3.743   2.288   1.182
 2298SOL    HW1 7793   3.685   2.368   1.196
 2298SOL    HW2 7794   3.699   2.226   1.116
 2299SOL     OW 7795   5.578   6.875   6.872
 2299SOL    HW1 7796   5.554   6.778   6.882
 2299SOL    HW2 7797   5.647   6.900   6.940
 2300SOL     OW 7798   1.725   5.328   1.580
 2300SOL    HW1 7799   1.742   5.236   1.544
 2300SOL    HW2 7800   1.812   5.373   1.599
 2301SOL     OW 7801   2.953   3.284   3.151
 2301SOL    HW1 7802   2.881   3.282   3.081
 2301SOL    HW2 7803   3.022   3.216   3.129
 2302SOL     OW 7804   4.111   6.502   2.646
 2302SOL    HW1 7805   4.077   6.589   2.683
 2302SOL    HW2 7806   4.211   6.501   2.651
 2303SOL     OW 7807   1.508   3.413   5.214
 2303SOL    HW1 7808   1.451   3.467   5.153
 2303SOL    HW2 7809   1.497   3.316   5.193
 2304SOL     OW 7810   2.729   0.423   3.834
 2304SOL    HW1 7811   2.701   0.517   3.852
 2304SOL    HW2 7812   2.704   0.397   3.741
 2305SOL     OW 7813   3.993   5.706   2.975
 2305SOL    HW1 7814   3.923   5.641   3.006
 2305SOL    HW2 7815   4.006   5.695   2.876
 2306SOL     OW 7816   2.342   5.236   1.477
 2306SOL    HW1 7817   2.386   5.264   1.391
 2306SOL    HW2 7818   2.404   5.177   1.528
 2307SOL     OW 7819   2.221   4.270   2.996
 2307SOL    HW1 7820   2.242   4.277   2.899
 2307SOL    HW2 7821   2.140   4.213   3.009
 2308SOL     OW 7822   0.731   0.650   6.549
 2308SOL    HW1 7823   0.791   0.715   6.503
 2308SOL    HW2 7824   0.651   0.633   6.491
 2309SOL     OW 7825   2.896   6.060   6.795
 2309SOL    HW1 7826   2.852   6.012   6.872
 2309SOL    HW2 7827   2.834   6.129   6.760
 2310SOL     OW 7828   6.752   6.692   1.128
 2310SOL    HW1 7829   6.763   6.776   1.180
 2310SOL    HW2 7830   6.659   6.687   1.090
 2311SOL     OW 7831   2.605   0.072   2.781
 2311SOL    HW1 7832   2.667   0.020   2.840
 2311SOL    HW2 7833   2.534   0.114   2.837
 2312SOL     OW 7834   3.030   6.701   3.345
 2312SOL    HW1 7835   2.990   6.619   3.304
 2312SOL    HW2 7836   2.971   6.780   3.326
 2313SOL     OW 7837   4.836   5.120   2.104
 2313SOL    HW1 7838   4.784   5.074   2.032
 2313SOL    HW2 7839   4.824   5.219   2.097
 2314SOL     OW 7840   5.846   0.985   3.208
 2314SOL    HW1 7841   5.916   1.029   3.265
 2314SOL    HW2 7842   5.863   0.887   3.204
 2315SOL     OW 7843   5.198   3.467   5.382
 2315SOL    HW1 7844   5.172   3.407   5.307
 2315SOL    HW2 7845   5.144   3.444   5.463
 2316SOL     OW 7846   2.525   1.503   5.495
 2316SOL    HW1 7847   2.624   1.492   5.485
 2316SOL    HW2 7848   2.479   1.463   5.415
 2317SOL     OW 7849   6.540   6.631   3.629
 2317SOL    HW1 7850   6.494   6.543   3.637
 2317SOL    HW2 7851   6.477   6.698   3.591
 2318SOL     OW 7852   1.917   3.605   4.428
 2318SOL    HW1 7853   2.004   3.651   4.412
 2318SOL    HW2 7854   1.869   3.593   4.341
 2319SOL     OW 7855   3.345   5.091   4.841
 2319SOL    HW1 7856   3.299   5.026   4.901
 2319SOL    HW2 7857   3.367   5.174   4.892
 2320SOL     OW 7858   1.402   2.470   5.578
 2320SOL    HW1 7859   1.415   2.565   5.606
 2320SOL    HW2 7860   1.463   2.411   5.633
 2321SOL     OW 7861   2.671   5.471   6.279
 2321SOL    HW1 7862   2.717   5.533   6.216
 2321SOL    HW2 7863   2.592   5.430   6.234
 2322SOL     OW 7864   1.711   4.363   2.093
 2322SOL    HW1 7865   1.748   4.359   2.000
 2322SOL    HW2 7866   1.669   4.276   2.116
 2323SOL     OW 7867   3.248   4.737   1.856
 2323SOL    HW1 7868   3.345   4.713   1.853
 2323SOL    HW2 7869   3.221   4.756   1.950
 2324SOL     OW 7870   0.177   5.814   1.317
 2324SOL    HW1 7871   0.222   5.839   1.232
 2324SOL    HW2 7872   0.091   5.863   1.325
 2325SOL     OW 7873   0.123   4.786   1.390
 2325SOL    HW1 7874   0.184   4.710   1.411
 2325SOL    HW2 7875   0.056   4.797   1.464
 2326SOL     OW 7876   1.759   6.047   6.565
 2326SOL    HW1 7877   1.807   6.089   6.489
 2326SOL    HW2 7878   1.674   6.097   6.583
 2327SOL     OW 7879   0.497   1.061   3.186
 2327SOL    HW1 7880   0.448   1.017   3.261
 2327SOL    HW2 7881   0.555   0.994   3.140
 2328SOL     OW 7882   1.320   2.011   2.649
 2328SOL    HW1 7883   1.237   2.013   2.594
 2328SOL    HW2 7884   1.351   2.105   2.667
 2329SOL     OW 7885   1.157   4.438   4.650
 2329SOL    HW1 7886   1.105   4.518   4.681
 2329SOL    HW2 7887   1.184   4.383   4.729
 2330SOL     OW 7888   0.387   2.731   0.609
 2330SOL    HW1 7889   0.471   2.715   0.557
 2330SOL    HW2 7890   0.383   2.666   0.685
 2331SOL     OW 7891   3.145   5.251   6.681
 2331SOL    HW1 7892   3.241   5.280   6.673
 2331SOL    HW2 7893   3.085   5.327   6.658
 2332SOL     OW 7894   6.962   6.926   5.716
 2332SOL    HW1 7895   6.993   6.949   5.808
 2332SOL    HW2 7896   0.016   6.952   5.650
 2333SOL     OW 7897   0.221   5.289   2.939
 2333SOL    HW1 7898   0.246   5.244   2.853
 2333SOL    HW2 7899   0.242   5.386   2.932
 2334SOL     OW 7900   1.307   1.343   6.815
 2334SOL    HW1 7901   1.397   1.380   6.838
 2334SOL    HW2 7902   1.269   1.298   6.896
 2335SOL     OW 7903   5.812   0.362   3.657
 2335SOL    HW1 7904   5.881   0.305   3.613
 2335SOL    HW2 7905   5.857   0.441   3.700
 2336SOL     OW 7906   3.400   1.188   4.353
 2336SOL    HW1 7907   3.373   1.097   4.323
 2336SOL    HW2 7908   3.404   1.249   4.273
 2337SOL     OW 7909   4.166   0.910   1.674
 2337SOL    HW1 7910   4.083   0.895   1.728
 2337SOL    HW2 7911   4.244   0.922   1.736
 2338SOL     OW 7912   0.975   3.439   4.305
 2338SOL    HW1 7913   0.993   3.359   4.361
 2338SOL    HW2 7914   1.053   3.501   4.309
 2339SOL     OW 7915   2.968   3.886   3.364
 2339SOL    HW1 7916   2.958   3.877   3.265
 2339SOL    HW2 7917   2.979   3.983   3.388
 2340SOL     OW 7918   0.506   4.620   6.772
 2340SOL    HW1 7919   0.564   4.541   6.751
 2340SOL    HW2 7920   0.553   4.680   6.837
 2341SOL     OW 7921   2.910   4.840   1.974
 2341SOL    HW1 7922   2.862   4.757   1.947
 2341SOL    HW2 7923   2.894   4.911   1.905
 2342SOL     OW 7924   1.871   6.918   4.654
 2342SOL    HW1 7925   1.910   6.830   4.679
 2342SOL    HW2 7926   1.831   6.961   4.734
 2343SOL     OW 7927   1.914   5.513   2.811
 2343SOL    HW1 7928   1.944   5.418   2.819
 2343SOL    HW2 7929   1.824   5.523   2.853
 2344SOL     OW 7930   0.202   5.723   6.847
 2344SOL    HW1 7931   0.222   5.637   6.894
 2344SOL    HW2 7932   0.103   5.731   6.834
 2345SOL     OW 7933   2.408   5.205   4.751
 2345SOL    HW1 7934   2.395   5.141   4.826
 2345SOL    HW2 7935   2.500   5.245   4.756
 2346SOL     OW 7936   3.879   3.217   5.912
 2346SOL    HW1 7937   3.830   3.242   5.828
 2346SOL    HW2 7938   3.832   3.255   5.991
 2347SOL     OW 7939   2.636   2.132   1.335
 2347SOL    HW1 7940   2.602   2.206   1.278
 2347SOL    HW2 7941   2.729   2.153   1.366
 2348SOL     OW 7942   1.798   6.090   3.827
 2348SOL    HW1 7943   1.786   6.187   3.805
 2348SOL    HW2 7944   1.892   6.074   3.857
 2349SOL     OW 7945   1.236   4.546   6.084
 2349SOL    HW1 7946   1.315   4.588   6.037
 2349SOL    HW2 7947   1.250   4.553   6.183
 2350SOL     OW 7948   5.860   5.233   6.080
 2350SOL    HW1 7949   5.852   5.188   5.991
 2350SOL    HW2 7950   5.819   5.175   6.150
 2351SOL     OW 7951   3.191   4.935   4.270
 2351SOL    HW1 7952   3.177   5.034   4.277
 2351SOL    HW2 7953   3.120   4.887   4.322
 2352SOL     OW 7954   0.724   2.973   2.342
 2352SOL    HW1 7955   0.646   2.999   2.399
 2352SOL    HW2 7956   0.694   2.958   2.248
 2353SOL     OW 7957   3.424   4.928   4.424
 2353SOL    HW1 7958   3.361   4.903   4.350
 2353SOL    HW2 7959   3.505   4.970   4.385
 2354SOL     OW 7960   2.209   2.305   4.398
 2354SOL    HW1 7961   2.255   2.311   4.309
 2354SOL    HW2 7962   2.276   2.280   4.468
 2355SOL     OW 7963   2.037   6.675   5.646
 2355SOL    HW1 7964   2.093   6.601   5.607
 2355SOL    HW2 7965   2.093   6.757   5.655
 2356SOL     OW 7966   1.503   3.108   6.257
 2356SOL    HW1 7967   1.481   3.206   6.252
 2356SOL    HW2 7968   1.513   3.071   6.165
 2357SOL     OW 7969   4.393   1.085   2.183
 2357SOL    HW1 7970   4.313   1.135   2.148
 2357SOL    HW2 7971   4.383   0.988   2.163
 2358SOL     OW 7972   3.243   5.480   5.576
 2358SOL    HW1 7973   3.251   5.411   5.649
 2358SOL    HW2 7974   3.334   5.511   5.549
 2359SOL     OW 7975   0.233   0.512   5.567
 2359SOL    HW1 7976   0.226   0.529   5.665
 2359SOL    HW2 7977   0.148   0.539   5.522
 2360SOL     OW 7978   6.114   3.600   6.819
 2360SOL    HW1 7979   6.192   3.656   6.846
 2360SOL    HW2 7980   6.029   3.648   6.839
 2361SOL     OW 7981   2.485   0.615   6.901
 2361SOL    HW1 7982   2.512   0.704   6.864
 2361SOL    HW2 7983   2.391   0.621   6.935
 2362SOL     OW 7984   2.504   5.929   4.132
 2362SOL    HW1 7985   2.523   5.983   4.214
 2362SOL    HW2 7986   2.586   5.879   4.105
 2363SOL     OW 7987   3.591   2.117   4.745
 2363SOL    HW1 7988   3.687   2.147   4.742
 2363SOL    HW2 7989   3.561   2.114   4.841
 2364SOL     OW 7990   0.954   2.664   2.204
 2364SOL    HW1 7991   1.039   2.616   2.224
 2364SOL    HW2 7992   0.888   2.646   2.276
 2365SOL     OW 7993   6.501   2.307   6.737
 2365SOL    HW1 7994   6.571   2.247   6.699
 2365SOL    HW2 7995   6.481   2.280   6.831
 2366SOL     OW 7996   2.123   5.949   6.598
 2366SOL    HW1 7997   2.193   6.016   6.624
 2366SOL    HW2 7998   2.056   5.940   6.671
 2367SOL     OW 7999   2.181   3.600   1.031
 2367SOL    HW1 8000   2.200   3.554   1.117
 2367SOL    HW2 8001   2.098   3.562   0.990
 2368SOL     OW 8002   5.381   6.429   4.413
 2368SOL    HW1 8003   5.309   6.380   4.462
 2368SOL    HW2 8004   5.398   6.384   4.326
 2369SOL     OW 8005   1.599   0.526   4.500
 2369SOL    HW1 8006   1.658   0.566   4.570
 2369SOL    HW2 8007   1.512   0.575   4.497
 2370SOL     OW 8008   5.696   3.239   6.881
 2370SOL    HW1 8009   5.722   3.331   6.910
 2370SOL    HW2 8010   5.625   3.244   6.811
 2371SOL     OW 8011   1.764   6.739   1.618
 2371SOL    HW1 8012   1.794   6.695   1.533
 2371SOL    HW2 8013   1.830   6.810   1.643
 2372SOL     OW 8014   6.741   2.930   2.123
 2372SOL    HW1 8015   6.801   3.010   2.131
 2372SOL    HW2 8016   6.667   2.936   2.190
 2373SOL     OW 8017   0.407   3.344   5.721
 2373SOL    HW1 8018   0.451   3.430   5.748
 2373SOL    HW2 8019   0.396   3.285   5.801
 2374SOL     OW 8020   6.064   1.733   4.249
 2374SOL    HW1 8021   6.073   1.729   4.348
 2374SOL    HW2 8022   5.984   1.787   4.224
 2375SOL     OW 8023   3.615   5.897   5.257
 2375SOL    HW1 8024   3.549   5.850   5.198
 2375SOL    HW2 8025   3.580   5.899   5.351
 2376SOL     OW 8026   6.497   3.249   4.102
 2376SOL    HW1 8027   6.399   3.249   4.079
 2376SOL    HW2 8028   6.525   3.341   4.130
 2377SOL     OW 8029   3.428   4.177   3.892
 2377SOL    HW1 8030   3.442   4.211   3.799
 2377SOL    HW2 8031   3.512   4.132   3.924
 2378SOL     OW 8032   5.017   1.702   0.084
 2378SOL    HW1 8033   5.018   1.712   0.184
 2378SOL    HW2 8034   4.931   1.736   0.047
 2379SOL     OW 8035   0.076   1.217   0.426
 2379SOL    HW1 8036   6.994   1.229   0.426
 2379SOL    HW2 8037   0.103   1.162   0.347
 2380SOL     OW 8038   0.444   2.196   6.601
 2380SOL    HW1 8039   0.357   2.246   6.599
 2380SOL    HW2 8040   0.493   2.217   6.685
 2381SOL     OW 8041   1.859   5.175   4.459
 2381SOL    HW1 8042   1.951   5.185   4.421
 2381SOL    HW2 8043   1.798   5.138   4.390
 2382SOL     OW 8044   1.786   3.334   4.598
 2382SOL    HW1 8045   1.765   3.376   4.510
 2382SOL    HW2 8046   1.885   3.329   4.610
 2383SOL     OW 8047   5.231   6.883   0.798
 2383SOL    HW1 8048   5.163   6.811   0.814
 2383SOL    HW2 8049   5.263   6.879   0.704
 2384SOL     OW 8050   5.861   1.260   2.859
 2384SOL    HW1 8051   5.953   1.292   2.838
 2384SOL    HW2 8052   5.861   1.161   2.872
 2385SOL     OW 8053   0.735   0.584   0.321
 2385SOL    HW1 8054   0.647   0.601   0.364
 2385SOL    HW2 8055   0.720   0.558   0.225
 2386SOL     OW 8056   5.492   6.068   4.593
 2386SOL    HW1 8057   5.495   5.986   4.649
 2386SOL    HW2 8058   5.582   6.086   4.554
 2387SOL     OW 8059   1.378   1.960   4.280
 2387SOL    HW1 8060   1.299   2.014   4.251
 2387SOL    HW2 8061   1.401   1.983   4.375
 2388SOL     OW 8062   6.971   2.125   4.012
 2388SOL    HW1 8063   6.915   2.129   3.929
 2388SOL    HW2 8064   6.969   2.032   4.049
 2389SOL     OW 8065   4.525   4.602   3.445
 2389SOL    HW1 8066   4.541   4.583   3.349
 2389SOL    HW2 8067   4.582   4.543   3.501
 2390SOL     OW 8068   3.989   3.217   3.397
 2390SOL    HW1 8069   4.051   3.158   3.449
 2390SOL    HW2 8070   3.950   3.287   3.458
 2391SOL     OW 8071   5.459   3.970   5.739
 2391SOL    HW1 8072   5.411   3.884   5.720
 2391SOL    HW2 8073   5.424   4.042   5.678
 2392SOL     OW 8074   3.254   6.486   5.543
 2392SOL    HW1 8075   3.341   6.461   5.501
 2392SOL    HW2 8076   3.201   6.403   5.563
 2393SOL     OW 8077   5.365   3.892   5.990
 2393SOL    HW1 8078   5.431   3.817   5.995
 2393SOL    HW2 8079   5.390   3.954   5.916
 2394SOL     OW 8080   1.012   4.110   4.808
 2394SOL    HW1 8081   1.093   4.065   4.768
 2394SOL    HW2 8082   0.932   4.051   4.796
 2395SOL     OW 8083   5.288   0.715   5.748
 2395SOL    HW1 8084   5.224   0.653   5.793
 2395SOL    HW2 8085   5.263   0.809   5.769
 2396SOL     OW 8086   3.814   4.884   1.040
 2396SOL    HW1 8087   3.855   4.796   1.019
 2396SOL    HW2 8088   3.817   4.901   1.138
 2397SOL     OW 8089   6.851   3.651   5.625
 2397SOL    HW1 8090   6.816   3.557   5.630
 2397SOL    HW2 8091   6.889   3.667   5.534
 2398SOL     OW 8092   4.151   4.364   6.350
 2398SOL    HW1 8093   4.198   4.329   6.269
 2398SOL    HW2 8094   4.215   4.419   6.405
 2399SOL     OW 8095   4.497   0.694   1.072
 2399SOL    HW1 8096   4.418   0.632   1.072
 2399SOL    HW2 8097   4.517   0.722   0.979
 2400SOL     OW 8098   2.798   4.250   1.162
 2400SOL    HW1 8099   2.707   4.240   1.202
 2400SOL    HW2 8100   2.792   4.241   1.062
 2401SOL     OW 8101   5.177   6.080   0.033
 2401SOL    HW1 8102   5.137   6.030   6.973
 2401SOL    HW2 8103   5.260   6.126   0.003
 2402SOL     OW 8104   0.399   0.567   4.041
 2402SOL    HW1 8105   0.309   0.599   4.070
 2402SOL    HW2 8106   0.391   0.475   4.002
 2403SOL     OW 8107   1.652   2.288   6.369
 2403SOL    HW1 8108   1.582   2.219   6.388
 2403SOL    HW2 8109   1.670   2.291   6.271
 2404SOL     OW 8110   2.543   0.647   0.882
 2404SOL    HW1 8111   2.628   0.674   0.926
 2404SOL    HW2 8112   2.483   0.727   0.874
 2405SOL     OW 8113   3.244   3.659   2.168
 2405SOL    HW1 8114   3.260   3.700   2.079
 2405SOL    HW2 8115   3.287   3.715   2.239
 2406SOL     OW 8116   3.336   0.256   1.623
 2406SOL    HW1 8117   3.413   0.242   1.685
 2406SOL    HW2 8118   3.258   0.203   1.655
 2407SOL     OW 8119   5.631   1.876   2.988
 2407SOL    HW1 8120   5.590   1.965   2.964
 2407SOL    HW2 8121   5.730   1.887   3.000
 2408SOL     OW 8122   4.514   4.544   3.011
 2408SOL    HW1 8123   4.570   4.531   3.093
 2408SOL    HW2 8124   4.572   4.538   2.930
 2409SOL     OW 8125   2.438   4.738   1.857
 2409SOL    HW1 8126   2.527   4.743   1.811
 2409SOL    HW2 8127   2.401   4.646   1.850
 2410SOL     OW 8128   3.998   3.042   5.280
 2410SOL    HW1 8129   3.984   2.943   5.273
 2410SOL    HW2 8130   4.067   3.060   5.351
 2411SOL     OW 8131   5.014   5.980   4.311
 2411SOL    HW1 8132   5.052   6.067   4.341
 2411SOL    HW2 8133   4.955   5.942   4.382
 2412SOL     OW 8134   5.990   4.206   1.517
 2412SOL    HW1 8135   5.926   4.280   1.498
 2412SOL    HW2 8136   5.943   4.118   1.512
 2413SOL     OW 8137   6.746   1.093   0.886
 2413SOL    HW1 8138   6.815   1.073   0.955
 2413SOL    HW2 8139   6.781   1.163   0.824
 2414SOL     OW 8140   4.693   4.403   3.559
 2414SOL    HW1 8141   4.732   4.369   3.644
 2414SOL    HW2 8142   4.697   4.332   3.489
 2415SOL     OW 8143   6.377   1.407   3.277
 2415SOL    HW1 8144   6.303   1.363   3.227
 2415SOL    HW2 8145   6.339   1.458   3.354
 2416SOL     OW 8146   4.948   2.334   4.854
 2416SOL    HW1 8147   4.903   2.269   4.793
 2416SOL    HW2 8148   5.047   2.332   4.837
 2417SOL     OW 8149   3.478   3.662   4.823
 2417SOL    HW1 8150   3.570   3.635   4.794
 2417SOL    HW2 8151   3.484   3.736   4.891
 2418SOL     OW 8152   3.758   3.381   4.477
 2418SOL    HW1 8153   3.797   3.461   4.524
 2418SOL    HW2 8154   3.825   3.344   4.413
 2419SOL     OW 8155   6.837   6.762   4.291
 2419SOL    HW1 8156   6.890   6.708   4.226
 2419SOL    HW2 8157   6.837   6.858   4.264
 2420SOL     OW 8158   3.237   0.743   3.471
 2420SOL    HW1 8159   3.269   0.832   3.502
 2420SOL    HW2 8160   3.315   0.682   3.459
 2421SOL     OW 8161   2.207   2.318   4.846
 2421SOL    HW1 8162   2.138   2.363   4.789
 2421SOL    HW2 8163   2.278   2.385   4.871
 2422SOL     OW 8164   5.341   1.861   0.523
 2422SOL    HW1 8165   5.433   1.823   0.520
 2422SOL    HW2 8166   5.274   1.787   0.517
 2423SOL     OW 8167   1.537   5.930   2.296
 2423SOL    HW1 8168   1.446   5.972   2.289
 2423SOL    HW2 8169   1.603   5.998   2.328
 2424SOL     OW 8170   6.429   6.649   6.844
 2424SOL    HW1 8171   6.422   6.681   6.750
 2424SOL    HW2 8172   6.393   6.719   6.906
 2425SOL     OW 8173   5.671   0.296   3.899
 2425SOL    HW1 8174   5.702   0.205   3.928
 2425SOL    HW2 8175   5.724   0.324   3.818
 2426SOL     OW 8176   1.155   5.564   5.361
 2426SOL    HW1 8177   1.096   5.485   5.378
 2426SOL    HW2 8178   1.207   5.551   5.277
 2427SOL     OW 8179   5.569   5.872   5.718
 2427SOL    HW1 8180   5.559   5.893   5.816
 2427SOL    HW2 8181   5.582   5.958   5.668
 2428SOL     OW 8182   0.432   0.555   1.985
 2428SOL    HW1 8183   0.410   0.602   1.900
 2428SOL    HW2 8184   0.397   0.609   2.062
 2429SOL     OW 8185   5.904   5.543   1.975
 2429SOL    HW1 8186   5.966   5.471   2.003
 2429SOL    HW2 8187   5.940   5.632   2.002
 2430SOL     OW 8188   6.106   1.019   1.923
 2430SOL    HW1 8189   6.053   1.094   1.961
 2430SOL    HW2 8190   6.193   1.011   1.971
 2431SOL     OW 8191   4.083   0.603   2.377
 2431SOL    HW1 8192   4.151   0.554   2.431
 2431SOL    HW2 8193   4.034   0.667   2.435
 2432SOL     OW 8194   4.413   6.858   2.333
 2432SOL    HW1 8195   4.500   6.814   2.311
 2432SOL    HW2 8196   4.338   6.805   2.294
 2433SOL     OW 8197   4.525   1.755   0.437
 2433SOL    HW1 8198   4.498   1.725   0.529
 2433SOL    HW2 8199   4.526   1.855   0.434
 2434SOL     OW 8200   4.253   1.629   6.278
 2434SOL    HW1 8201   4.198   1.590   6.203
 2434SOL    HW2 8202   4.237   1.575   6.361
 2435SOL     OW 8203   4.749   6.028   5.256
 2435SOL    HW1 8204   4.673   6.051   5.195
 2435SOL    HW2 8205   4.737   6.073   5.344
 2436SOL     OW 8206   1.713   5.993   6.180
 2436SOL    HW1 8207   1.778   6.039   6.241
 2436SOL    HW2 8208   1.633   6.051   6.167
 2437SOL     OW 8209   5.997   0.147   6.282
 2437SOL    HW1 8210   6.056   0.122   6.205
 2437SOL    HW2 8211   5.994   0.247   6.290
 2438SOL     OW 8212   3.212   2.025   0.662
 2438SOL    HW1 8213   3.227   2.050   0.758
 2438SOL    HW2 8214   3.288   1.969   0.629
 2439SOL     OW 8215   0.632   4.150   6.354
 2439SOL    HW1 8216   0.719   4.104   6.337
 2439SOL    HW2 8217   0.570   4.088   6.401
 2440SOL     OW 8218   4.938   5.781   5.751
 2440SOL    HW1 8219   4.880   5.817   5.824
 2440SOL    HW2 8220   4.944   5.847   5.676
 2441SOL     OW 8221   0.119   2.823   0.920
 2441SOL    HW1 8222   0.058   2.809   0.842
 2441SOL    HW2 8223   0.085   2.771   0.998
 2442SOL     OW 8224   1.198   3.506   5.831
 2442SOL    HW1 8225   1.169   3.538   5.741
 2442SOL    HW2 8226   1.217   3.584   5.891
 2443SOL     OW 8227   2.955   4.153   6.183
 2443SOL    HW1 8228   2.902   4.224   6.231
 2443SOL    HW2 8229   2.892   4.094   6.131
 2444SOL     OW 8230   2.599   4.526   5.845
 2444SOL    HW1 8231   2.546   4.448   5.878
 2444SOL    HW2 8232   2.679   4.494   5.794
 2445SOL     OW 8233   0.490   0.698   0.910
 2445SOL    HW1 8234   0.438   0.689   0.995
 2445SOL    HW2 8235   0.582   0.731   0.931
 2446SOL     OW 8236   6.232   4.142   4.366
 2446SOL    HW1 8237   6.169   4.202   4.318
 2446SOL    HW2 8238   6.266   4.188   4.449
 2447SOL     OW 8239   1.667   2.394   6.976
 2447SOL    HW1 8240   1.759   2.362   7.000
 2447SOL    HW2 8241   1.605   2.316   6.973
 2448SOL     OW 8242   0.479   0.300   4.689
 2448SOL    HW1 8243   0.570   0.339   4.700
 2448SOL    HW2 8244   0.415   0.348   4.748
 2449SOL     OW 8245   0.452   3.629   6.801
 2449SOL    HW1 8246   0.394   3.557   6.839
 2449SOL    HW2 8247   0.536   3.636   6.854
 2450SOL     OW 8248   2.729   4.712   2.624
 2450SOL    HW1 8249   2.735   4.713   2.525
 2450SOL    HW2 8250   2.695   4.800   2.657
 2451SOL     OW 8251   1.975   6.844   4.127
 2451SOL    HW1 8252   1.983   6.856   4.028
 2451SOL    HW2 8253   1.956   6.932   4.170
 2452SOL     OW 8254   1.120   3.779   2.718
 2452SOL    HW1 8255   1.031   3.812   2.747
 2452SOL    HW2 8256   1.122   3.679   2.723
 2453SOL     OW 8257   6.363   4.455   1.733
 2453SOL    HW1 8258   6.397   4.380   1.788
 2453SOL    HW2 8259   6.307   4.419   1.658
 2454SOL     OW 8260   3.316   0.181   2.024
 2454SOL    HW1 8261   3.291   0.268   2.068
 2454SOL    HW2 8262   3.248   0.158   1.955
 2455SOL     OW 8263   5.364   5.163   1.303
 2455SOL    HW1 8264   5.361   5.263   1.307
 2455SOL    HW2 8265   5.451   5.131   1.340
 2456SOL     OW 8266   5.150   6.479   1.836
 2456SOL    HW1 8267   5.221   6.422   1.876
 2456SOL    HW2 8268   5.103   6.428   1.764
 2457SOL     OW 8269   5.606   6.994   0.740
 2457SOL    HW1 8270   5.669   6.979   0.664
 2457SOL    HW2 8271   5.562   6.908   0.764
 2458SOL     OW 8272   2.457   5.785   2.900
 2458SOL    HW1 8273   2.476   5.837   2.817
 2458SOL    HW2 8274   2.543   5.752   2.939
 2459SOL     OW 8275   2.052   0.255   1.009
 2459SOL    HW1 8276   2.022   0.350   0.995
 2459SOL    HW2 8277   2.075   0.214   0.921
 2460SOL     OW 8278   2.986   6.139   2.095
 2460SOL    HW1 8279   3.018   6.193   2.017
 2460SOL    HW2 8280   3.000   6.042   2.077
 2461SOL     OW 8281   5.701   0.664   1.860
 2461SOL    HW1 8282   5.648   0.589   1.899
 2461SOL    HW2 8283   5.794   0.661   1.897
 2462SOL     OW 8284   2.463   5.399   6.666
 2462SOL    HW1 8285   2.471   5.408   6.567
 2462SOL    HW2 8286   2.520   5.469   6.710
 2463SOL     OW 8287   6.463   1.898   3.391
 2463SOL    HW1 8288   6.502   1.986   3.420
 2463SOL    HW2 8289   6.528   1.851   3.332
 2464SOL     OW 8290   1.141   3.539   1.306
 2464SOL    HW1 8291   1.090   3.590   1.375
 2464SOL    HW2 8292   1.225   3.589   1.284
 2465SOL     OW 8293   0.021   6.084   2.443
 2465SOL    HW1 8294   6.992   6.148   2.505
 2465SOL    HW2 8295   6.969   6.031   2.393
 2466SOL     OW 8296   4.096   1.916   2.740
 2466SOL    HW1 8297   4.047   1.957   2.662
 2466SOL    HW2 8298   4.036   1.914   2.820
 2467SOL     OW 8299   6.821   0.866   6.050
 2467SOL    HW1 8300   6.919   0.866   6.069
 2467SOL    HW2 8301   6.772   0.831   6.129
 2468SOL     OW 8302   6.693   5.840   1.294
 2468SOL    HW1 8303   6.656   5.869   1.382
 2468SOL    HW2 8304   6.621   5.795   1.241
 2469SOL     OW 8305   2.458   3.310   5.658
 2469SOL    HW1 8306   2.366   3.321   5.696
 2469SOL    HW2 8307   2.492   3.219   5.681
 2470SOL     OW 8308   4.742   3.577   6.991
 2470SOL    HW1 8309   4.693   3.496   6.959
 2470SOL    HW2 8310   4.834   3.550   0.005
 2471SOL     OW 8311   0.705   6.559   3.022
 2471SOL    HW1 8312   0.703   6.572   3.122
 2471SOL    HW2 8313   0.612   6.544   2.989
 2472SOL     OW 8314   5.704   2.518   4.770
 2472SOL    HW1 8315   5.703   2.563   4.859
 2472SOL    HW2 8316   5.799   2.510   4.738
 2473SOL     OW 8317   0.869   5.892   4.900
 2473SOL    HW1 8318   0.779   5.933   4.888
 2473SOL    HW2 8319   0.901   5.910   4.993
 2474SOL     OW 8320   6.438   4.672   5.219
 2474SOL    HW1 8321   6.519   4.722   5.251
 2474SOL    HW2 8322   6.463   4.615   5.141
 2475SOL     OW 8323   3.834   2.619   0.430
 2475SOL    HW1 8324   3.826   2.687   0.357
 2475SOL    HW2 8325   3.750   2.617   0.483
 2476SOL     OW 8326   0.537   2.412   3.761
 2476SOL    HW1 8327   0.485   2.422   3.846
 2476SOL    HW2 8328   0.477   2.429   3.683
 2477SOL     OW 8329   5.131   5.036   1.303
 2477SOL    HW1 8330   5.112   5.055   1.207
 2477SOL    HW2 8331   5.216   5.081   1.330
 2478SOL     OW 8332   5.791   0.001   2.798
 2478SOL    HW1 8333   5.861   6.947   2.787
 2478SOL    HW2 8334   5.701   6.979   2.781
 2479SOL     OW 8335   0.831   2.590   0.648
 2479SOL    HW1 8336   0.906   2.542   0.604
 2479SOL    HW2 8337   0.747   2.576   0.595
 2480SOL     OW 8338   1.024   3.812   0.806
 2480SOL    HW1 8339   0.982   3.812   0.715
 2480SOL    HW2 8340   0.983   3.885   0.861
 2481SOL     OW 8341   4.174   5.315   2.143
 2481SOL    HW1 8342   4.132   5.344   2.057
 2481SOL    HW2 8343   4.118   5.243   2.184
 2482SOL     OW 8344   4.682   2.759   5.108
 2482SOL    HW1 8345   4.597   2.708   5.123
 2482SOL    HW2 8346   4.687   2.788   5.013
 2483SOL     OW 8347   1.068   1.846   6.908
 2483SOL    HW1 8348   1.003   1.782   6.867
 2483SOL    HW2 8349   1.020   1.905   6.973
 2484SOL     OW 8350   3.200   1.459   0.276
 2484SOL    HW1 8351   3.296   1.464   0.305
 2484SOL    HW2 8352   3.140   1.478   0.354
 2485SOL     OW 8353   0.158   5.331   2.396
 2485SOL    HW1 8354   0.225   5.381   2.342
 2485SOL    HW2 8355   0.163   5.233   2.373
 2486SOL     OW 8356   1.271   5.321   3.131
 2486SOL    HW1 8357   1.187   5.271   3.110
 2486SOL    HW2 8358   1.255   5.383   3.207
 2487SOL     OW 8359   3.613   0.475   0.850
 2487SOL    HW1 8360   3.538   0.495   0.787
 2487SOL    HW2 8361   3.664   0.559   0.869
 2488SOL     OW 8362   3.069   5.359   1.151
 2488SOL    HW1 8363   3.157   5.319   1.124
 2488SOL    HW2 8364   3.010   5.366   1.071
 2489SOL     OW 8365   1.379   5.706   4.464
 2489SOL    HW1 8366   1.374   5.786   4.403
 2489SOL    HW2 8367   1.472   5.670   4.464
 2490SOL     OW 8368   5.566   3.441   1.206
 2490SOL    HW1 8369   5.614   3.358   1.177
 2490SOL    HW2 8370   5.510   3.422   1.286
 2491SOL     OW 8371   2.944   5.304   2.518
 2491SOL    HW1 8372   2.854   5.268   2.540
 2491SOL    HW2 8373   2.995   5.236   2.464
 2492SOL     OW 8374   5.117   3.305   6.694
 2492SOL    HW1 8375   5.183   3.305   6.619
 2492SOL    HW2 8376   5.029   3.271   6.662
 2493SOL     OW 8377   6.418   1.744   3.639
 2493SOL    HW1 8378   6.433   1.646   3.648
 2493SOL    HW2 8379   6.438   1.772   3.545
 2494SOL     OW 8380   4.874   3.392   2.408
 2494SOL    HW1 8381   4.972   3.407   2.403
 2494SOL    HW2 8382   4.853   3.330   2.483
 2495SOL     OW 8383   5.726   0.959   5.115
 2495SOL    HW1 8384   5.631   0.928   5.113
 2495SOL    HW2 8385   5.743   1.009   5.200
 2496SOL     OW 8386   1.318   6.479   0.311
 2496SOL    HW1 8387   1.239   6.424   0.283
 2496SOL    HW2 8388   1.314   6.493   0.410
 2497SOL     OW 8389   6.326   1.468   6.646
 2497SOL    HW1 8390   6.370   1.506   6.564
 2497SOL    HW2 8391   6.313   1.370   6.634
 2498SOL     OW 8392   1.745   3.241   4.858
 2498SOL    HW1 8393   1.784   3.265   4.769
 2498SOL    HW2 8394   1.776   3.306   4.927
 2499SOL     OW 8395   6.106   0.607   4.750
 2499SOL    HW1 8396   6.057   0.629   4.666
 2499SOL    HW2 8397   6.191   0.560   4.728
 2500SOL     OW 8398   4.546   3.303   0.019
 2500SOL    HW1 8399   4.615   3.342   6.975
 2500SOL    HW2 8400   4.582   3.299   0.112
 2501SOL     OW 8401   0.001   3.948   0.142
 2501SOL    HW1 8402   6.994   4.002   0.223
 2501SOL    HW2 8403   6.952   3.967   0.069
 2502SOL     OW 8404   1.967   6.590   3.143
 2502SOL    HW1 8405   2.053   6.591   3.194
 2502SOL    HW2 8406   1.912   6.671   3.168
 2503SOL     OW 8407   4.263   4.989   5.128
 2503SOL    HW1 8408   4.363   4.985   5.126
 2503SOL    HW2 8409   4.234   5.061   5.191
 2504SOL     OW 8410   1.420   4.298   4.012
 2504SOL    HW1 8411   1.504   4.245   4.014
 2504SOL    HW2 8412   1.342   4.239   4.032
 2505SOL     OW 8413   4.386   5.396   4.391
 2505SOL    HW1 8414   4.436   5.345   4.460
 2505SOL    HW2 8415   4.293   5.414   4.424
 2506SOL     OW 8416   0.197   2.297   6.460
 2506SOL    HW1 8417   0.114   2.350   6.480
 2506SOL    HW2 8418   0.177   2.229   6.390
 2507SOL     OW 8419   6.671   6.032   0.111
 2507SOL    HW1 8420   6.769   6.014   0.120
 2507SOL    HW2 8421   6.639   5.994   0.024
 2508SOL     OW 8422   2.328   2.699   2.537
 2508SOL    HW1 8423   2.417   2.660   2.558
 2508SOL    HW2 8424   2.305   2.768   2.606
 2509SOL     OW 8425   4.747   2.836   3.712
 2509SOL    HW1 8426   4.742   2.913   3.776
 2509SOL    HW2 8427   4.701   2.757   3.752
 2510SOL     OW 8428   4.014   5.723   0.447
 2510SOL    HW1 8429   3.973   5.801   0.494
 2510SOL    HW2 8430   3.943   5.653   0.431
 2511SOL     OW 8431   1.541   0.655   4.876
 2511SOL    HW1 8432   1.626   0.691   4.838
 2511SOL    HW2 8433   1.466   0.717   4.855
 2512SOL     OW 8434   5.258   3.698   5.287
 2512SOL    HW1 8435   5.230   3.615   5.335
 2512SOL    HW2 8436   5.249   3.776   5.349
 2513SOL     OW 8437   0.591   3.208   0.458
 2513SOL    HW1 8438   0.607   3.204   0.359
 2513SOL    HW2 8439   0.602   3.116   0.497
 2514SOL     OW 8440   1.286   0.890   3.545
 2514SOL    HW1 8441   1.333   0.889   3.457
 2514SOL    HW2 8442   1.188   0.902   3.531
 2515SOL     OW 8443   0.815   5.752   0.545
 2515SOL    HW1 8444   0.886   5.688   0.516
 2515SOL    HW2 8445   0.779   5.724   0.634
 2516SOL     OW 8446   5.443   6.407   3.919
 2516SOL    HW1 8447   5.346   6.400   3.893
 2516SOL    HW2 8448   5.463   6.502   3.942
 2517SOL     OW 8449   2.350   4.745   7.010
 2517SOL    HW1 8450   2.376   4.759   6.915
 2517SOL    HW2 8451   2.318   4.651   0.006
 2518SOL     OW 8452   2.075   2.397   6.778
 2518SOL    HW1 8453   2.102   2.428   6.686
 2518SOL    HW2 8454   1.978   2.414   6.791
 2519SOL     OW 8455   4.825   4.337   4.481
 2519SOL    HW1 8456   4.755   4.402   4.512
 2519SOL    HW2 8457   4.835   4.264   4.548
 2520SOL     OW 8458   2.313   4.030   1.934
 2520SOL    HW1 8459   2.409   4.018   1.962
 2520SOL    HW2 8460   2.254   3.983   2.000
 2521SOL     OW 8461   5.539   6.626   5.121
 2521SOL    HW1 8462   5.486   6.627   5.036
 2521SOL    HW2 8463   5.604   6.703   5.121
 2522SOL     OW 8464   1.086   2.970   4.791
 2522SOL    HW1 8465   1.116   2.928   4.877
 2522SOL    HW2 8466   1.134   2.928   4.715
 2523SOL     OW 8467   0.734   3.337   6.901
 2523SOL    HW1 8468   0.792   3.292   6.969
 2523SOL    HW2 8469   0.755   3.299   6.810
 2524SOL     OW 8470   1.273   6.860   4.392
 2524SOL    HW1 8471   1.312   6.770   4.375
 2524SOL    HW2 8472   1.309   6.896   4.478
 2525SOL     OW 8473   1.143   3.557   4.017
 2525SOL    HW1 8474   1.121   3.484   3.952
 2525SOL    HW2 8475   1.230   3.538   4.062
 2526SOL     OW 8476   6.733   1.517   4.840
 2526SOL    HW1 8477   6.699   1.532   4.748
 2526SOL    HW2 8478   6.833   1.520   4.839
 2527SOL     OW 8479   5.722   6.417   3.625
 2527SOL    HW1 8480   5.704   6.329   3.669
 2527SOL    HW2 8481   5.646   6.479   3.644
 2528SOL     OW 8482   6.446   5.447   0.431
 2528SOL    HW1 8483   6.353   5.472   0.460
 2528SOL    HW2 8484   6.442   5.366   0.373
 2529SOL     OW 8485   4.902   3.723   4.676
 2529SOL    HW1 8486   4.873   3.714   4.771
 2529SOL    HW2 8487   4.938   3.816   4.661
 2530SOL     OW 8488   0.182   1.027   3.998
 2530SOL    HW1 8489   0.148   0.999   3.908
 2530SOL    HW2 8490   0.276   1.062   3.989
 2531SOL     OW 8491   3.837   1.903   6.527
 2531SOL    HW1 8492   3.761   1.964   6.504
 2531SOL    HW2 8493   3.803   1.827   6.582
 2532SOL     OW 8494   1.679   4.635   6.660
 2532SOL    HW1 8495   1.587   4.625   6.698
 2532SOL    HW2 8496   1.709   4.730   6.673
 2533SOL     OW 8497   5.714   6.764   5.917
 2533SOL    HW1 8498   5.760   6.705   5.983
 2533SOL    HW2 8499   5.671   6.708   5.846
 2534SOL     OW 8500   0.945   1.924   3.741
 2534SOL    HW1 8501   0.927   1.998   3.805
 2534SOL    HW2 8502   0.859   1.895   3.698
 2535SOL     OW 8503   1.978   1.183   2.983
 2535SOL    HW1 8504   2.030   1.204   3.065
 2535SOL    HW2 8505   1.963   1.085   2.977
 2536SOL     OW 8506   5.876   0.981   4.157
 2536SOL    HW1 8507   5.845   1.073   4.183
 2536SOL    HW2 8508   5.797   0.926   4.130
 2537SOL     OW 8509   4.634   5.539   1.154
 2537SOL    HW1 8510   4.680   5.584   1.077
 2537SOL    HW2 8511   4.703   5.503   1.217
 2538SOL     OW 8512   2.254   4.654   4.903
 2538SOL    HW1 8513   2.239   4.625   4.997
 2538SOL    HW2 8514   2.169   4.643   4.851
 2539SOL     OW 8515   3.287   0.049   5.188
 2539SOL    HW1 8516   3.288   0.036   5.089
 2539SOL    HW2 8517   3.369   0.008   5.228
 2540SOL     OW 8518   5.256   1.959   2.321
 2540SOL    HW1 8519   5.317   1.899   2.374
 2540SOL    HW2 8520   5.310   2.031   2.278
 2541SOL     OW 8521   0.830   6.392   5.902
 2541SOL    HW1 8522   0.879   6.454   5.841
 2541SOL    HW2 8523   0.794   6.315   5.850
 2542SOL     OW 8524   3.398   2.015   4.360
 2542SOL    HW1 8525   3.397   2.109   4.394
 2542SOL    HW2 8526   3.329   2.005   4.289
 2543SOL     OW 8527   0.438   1.870   3.543
 2543SOL    HW1 8528   0.378   1.897   3.618
 2543SOL    HW2 8529   0.399   1.789   3.497
 2544SOL     OW 8530   6.282   4.985   1.809
 2544SOL    HW1 8531   6.310   4.912   1.748
 2544SOL    HW2 8532   6.242   4.947   1.893
 2545SOL     OW 8533   0.065   1.591   1.459
 2545SOL    HW1 8534   7.001   1.564   1.407
 2545SOL    HW2 8535   0.094   1.683   1.432
 2546SOL     OW 8536   0.007   4.274   2.698
 2546SOL    HW1 8537   0.005   4.230   2.788
 2546SOL    HW2 8538   0.000   4.205   2.626
 2547SOL     OW 8539   5.989   3.626   1.149
 2547SOL    HW1 8540   6.020   3.665   1.236
 2547SOL    HW2 8541   6.013   3.688   1.074
 2548SOL     OW 8542   6.921   6.780   5.348
 2548SOL    HW1 8543   6.944   6.874   5.374
 2548SOL    HW2 8544   6.985   6.749   5.277
 2549SOL     OW 8545   2.605   2.430   0.737
 2549SOL    HW1 8546   2.607   2.392   0.830
 2549SOL    HW2 8547   2.660   2.373   0.677
 2550SOL     OW 8548   4.585   0.126   6.176
 2550SOL    HW1 8549   4.530   0.098   6.255
 2550SOL    HW2 8550   4.525   0.139   6.097
 2551SOL     OW 8551   3.395   5.406   0.093
 2551SOL    HW1 8552   3.427   5.379   0.183
 2551SOL    HW2 8553   3.451   5.482   0.059
 2552SOL     OW 8554   2.674   6.134   0.786
 2552SOL    HW1 8555   2.622   6.153   0.870
 2552SOL    HW2 8556   2.613   6.095   0.718
 2553SOL     OW 8557   4.536   0.947   7.007
 2553SOL    HW1 8558   4.593   0.997   6.941
 2553SOL    HW2 8559   4.457   0.907   6.959
 2554SOL     OW 8560   1.263   5.727   1.365
 2554SOL    HW1 8561   1.253   5.780   1.281
 2554SOL    HW2 8562   1.360   5.721   1.390
 2555SOL     OW 8563   5.474   6.079   5.138
 2555SOL    HW1 8564   5.393   6.122   5.180
 2555SOL    HW2 8565   5.553   6.090   5.198
 2556SOL     OW 8566   4.029   0.275   1.032
 2556SOL    HW1 8567   4.071   0.244   0.947
 2556SOL    HW2 8568   3.999   0.196   1.085
 2557SOL     OW 8569   3.419   0.181   0.085
 2557SOL    HW1 8570   3.323   0.208   0.096
 2557SOL    HW2 8571   3.469   0.255   0.040
 2558SOL     OW 8572   6.063   3.872   6.199
 2558SOL    HW1 8573   6.023   3.781   6.191
 2558SOL    HW2 8574   6.117   3.892   6.117
 2559SOL     OW 8575   1.046   4.616   4.389
 2559SOL    HW1 8576   1.100   4.610   4.473
 2559SOL    HW2 8577   0.950   4.599   4.411
 2560SOL     OW 8578   4.971   1.872   3.313
 2560SOL    HW1 8579   4.990   1.967   3.290
 2560SOL    HW2 8580   4.946   1.865   3.409
 2561SOL     OW 8581   3.770   0.756   4.356
 2561SOL    HW1 8582   3.756   0.842   4.407
 2561SOL    HW2 8583   3.715   0.684   4.398
 2562SOL     OW 8584   3.245   0.072   3.289
 2562SOL    HW1 8585   3.293   7.002   3.299
 2562SOL    HW2 8586   3.162   0.071   3.344
 2563SOL     OW 8587   3.682   1.276   0.096
 2563SOL    HW1 8588   3.721   1.302   0.008
 2563SOL    HW2 8589   3.587   1.309   0.101
 2564SOL     OW 8590   1.463   1.364   0.615
 2564SOL    HW1 8591   1.374   1.403   0.636
 2564SOL    HW2 8592   1.512   1.347   0.701
 2565SOL     OW 8593   1.495   2.178   6.967
 2565SOL    HW1 8594   1.452   2.096   7.004
 2565SOL    HW2 8595   1.533   2.158   6.877
 2566SOL     OW 8596   2.221   0.751   1.344
 2566SOL    HW1 8597   2.255   0.673   1.292
 2566SOL    HW2 8598   2.280   0.830   1.327
 2567SOL     OW 8599   1.522   0.302   0.189
 2567SOL    HW1 8600   1.470   0.220   0.165
 2567SOL    HW2 8601   1.610   0.275   0.227
 2568SOL     OW 8602   2.816   6.248   1.131
 2568SOL    HW1 8603   2.771   6.331   1.164
 2568SOL    HW2 8604   2.882   6.272   1.059
 2569SOL     OW 8605   0.968   0.344   1.323
 2569SOL    HW1 8606   1.013   0.262   1.357
 2569SOL    HW2 8607   0.899   0.375   1.388
 2570SOL     OW 8608   5.885   6.631   6.137
 2570SOL    HW1 8609   5.980   6.625   6.168
 2570SOL    HW2 8610   5.825   6.641   6.216
 2571SOL     OW 8611   3.480   3.217   4.487
 2571SOL    HW1 8612   3.569   3.262   4.480
 2571SOL    HW2 8613   3.464   3.190   4.582
 2572SOL     OW 8614   1.930   6.422   1.758
 2572SOL    HW1 8615   1.933   6.422   1.658
 2572SOL    HW2 8616   2.016   6.384   1.794
 2573SOL     OW 8617   0.023   2.475   4.687
 2573SOL    HW1 8618   0.027   2.563   4.639
 2573SOL    HW2 8619   0.017   2.401   4.620
 2574SOL     OW 8620   0.879   3.876   1.881
 2574SOL    HW1 8621   0.978   3.887   1.876
 2574SOL    HW2 8622   0.835   3.944   1.821
 2575SOL     OW 8623   6.276   4.159   0.508
 2575SOL    HW1 8624   6.331   4.136   0.427
 2575SOL    HW2 8625   6.239   4.075   0.548
 2576SOL     OW 8626   1.667   0.027   3.607
 2576SOL    HW1 8627   1.759   7.007   3.602
 2576SOL    HW2 8628   1.648   0.057   3.701
 2577SOL     OW 8629   2.102   5.917   2.627
 2577SOL    HW1 8630   2.133   5.914   2.533
 2577SOL    HW2 8631   2.116   5.829   2.671
 2578SOL     OW 8632   5.017   2.639   4.345
 2578SOL    HW1 8633   5.096   2.578   4.348
 2578SOL    HW2 8634   5.010   2.681   4.255
 2579SOL     OW 8635   6.902   2.343   6.744
 2579SOL    HW1 8636   6.900   2.246   6.721
 2579SOL    HW2 8637   6.967   2.390   6.685
 2580SOL     OW 8638   1.618   2.513   6.535
 2580SOL    HW1 8639   1.529   2.524   6.580
 2580SOL    HW2 8640   1.621   2.425   6.489
 2581SOL     OW 8641   6.353   6.727   3.444
 2581SOL    HW1 8642   6.346   6.643   3.391
 2581SOL    HW2 8643   6.375   6.803   3.383
 2582SOL     OW 8644   0.762   5.307   2.286
 2582SOL    HW1 8645   0.742   5.249   2.207
 2582SOL    HW2 8646   0.822   5.381   2.259
 2583SOL     OW 8647   1.531   6.932   0.381
 2583SOL    HW1 8648   1.503   6.962   0.472
 2583SOL    HW2 8649   1.514   6.833   0.373
 2584SOL     OW 8650   4.129   6.654   1.634
 2584SOL    HW1 8651   4.154   6.557   1.636
 2584SOL    HW2 8652   4.115   6.683   1.539
 2585SOL     OW 8653   3.643   0.681   1.146
 2585SOL    HW1 8654   3.710   0.694   1.220
 2585SOL    HW2 8655   3.688   0.695   1.058
 2586SOL     OW 8656   6.233   2.242   3.833
 2586SOL    HW1 8657   6.296   2.164   3.836
 2586SOL    HW2 8658   6.282   2.323   3.800
 2587SOL     OW 8659   5.637   6.144   3.388
 2587SOL    HW1 8660   5.583   6.126   3.471
 2587SOL    HW2 8661   5.687   6.061   3.363
 2588SOL     OW 8662   5.655   0.989   1.095
 2588SOL    HW1 8663   5.675   0.911   1.034
 2588SOL    HW2 8664   5.612   1.062   1.042
 2589SOL     OW 8665   6.667   6.308   6.588
 2589SOL    HW1 8666   6.711   6.360   6.662
 2589SOL    HW2 8667   6.711   6.330   6.501
 2590SOL     OW 8668   4.504   0.276   2.618
 2590SOL    HW1 8669   4.568   0.211   2.577
 2590SOL    HW2 8670   4.556   0.347   2.667
 2591SOL     OW 8671   5.349   6.535   1.428
 2591SOL    HW1 8672   5.311   6.448   1.461
 2591SOL    HW2 8673   5.343   6.537   1.328
 2592SOL     OW 8674   3.960   5.301   1.858
 2592SOL    HW1 8675   3.934   5.251   1.941
 2592SOL    HW2 8676   3.884   5.358   1.828
 2593SOL     OW 8677   3.015   6.425   2.646
 2593SOL    HW1 8678   3.086   6.362   2.616
 2593SOL    HW2 8679   2.937   6.422   2.583
 2594SOL     OW 8680   0.532   6.419   6.671
 2594SOL    HW1 8681   0.583   6.345   6.628
 2594SOL    HW2 8682   0.589   6.461   6.742
 2595SOL     OW 8683   6.128   3.650   4.645
 2595SOL    HW1 8684   6.076   3.729   4.614
 2595SOL    HW2 8685   6.069   3.570   4.647
 2596SOL     OW 8686   3.901   2.095   2.196
 2596SOL    HW1 8687   3.839   2.097   2.274
 2596SOL    HW2 8688   3.861   2.146   2.120
 2597SOL     OW 8689   2.027   3.377   0.200
 2597SOL    HW1 8690   1.931   3.348   0.194
 2597SOL    HW2 8691   2.037   3.469   0.164
 2598SOL     OW 8692   6.408   3.391   3.670
 2598SOL    HW1 8693   6.374   3.315   3.613
 2598SOL    HW2 8694   6.331   3.439   3.711
 2599SOL     OW 8695   3.684   5.701   0.199
 2599SOL    HW1 8696   3.626   5.649   0.136
 2599SOL    HW2 8697   3.681   5.798   0.176
 2600SOL     OW 8698   5.772   3.543   3.201
 2600SOL    HW1 8699   5.850   3.492   3.165
 2600SOL    HW2 8700   5.797   3.588   3.287
 2601SOL     OW 8701   3.962   3.302   6.585
 2601SOL    HW1 8702   4.025   3.373   6.615
 2601SOL    HW2 8703   4.010   3.215   6.577
 2602SOL     OW 8704   6.414   5.148   3.831
 2602SOL    HW1 8705   6.442   5.077   3.766
 2602SOL    HW2 8706   6.336   5.198   3.794
 2603SOL     OW 8707   3.067   1.741   1.255
 2603SOL    HW1 8708   3.110   1.784   1.176
 2603SOL    HW2 8709   2.989   1.685   1.224
 2604SOL     OW 8710   5.793   6.797   1.056
 2604SOL    HW1 8711   5.884   6.767   1.027
 2604SOL    HW2 8712   5.769   6.882   1.010
 2605SOL     OW 8713   4.569   4.997   4.788
 2605SOL    HW1 8714   4.477   5.036   4.794
 2605SOL    HW2 8715   4.637   5.071   4.794
 2606SOL     OW 8716   0.094   4.469   0.231
 2606SOL    HW1 8717   0.050   4.436   0.148
 2606SOL    HW2 8718   0.031   4.460   0.308
 2607SOL     OW 8719   0.581   0.905   3.902
 2607SOL    HW1 8720   0.640   0.986   3.895
 2607SOL    HW2 8721   0.617   0.832   3.845
 2608SOL     OW 8722   5.103   0.578   1.185
 2608SOL    HW1 8723   5.050   0.547   1.106
 2608SOL    HW2 8724   5.193   0.535   1.183
 2609SOL     OW 8725   1.025   2.243   2.331
 2609SOL    HW1 8726   0.989   2.153   2.307
 2609SOL    HW2 8727   0.956   2.294   2.382
 2610SOL     OW 8728   5.925   6.036   4.693
 2610SOL    HW1 8729   5.866   6.077   4.761
 2610SOL    HW2 8730   5.951   5.944   4.722
 2611SOL     OW 8731   4.695   6.254   1.501
 2611SOL    HW1 8732   4.712   6.295   1.411
 2611SOL    HW2 8733   4.682   6.327   1.569
 2612SOL     OW 8734   5.771   6.629   2.873
 2612SOL    HW1 8735   5.714   6.685   2.934
 2612SOL    HW2 8736   5.754   6.532   2.891
 2613SOL     OW 8737   3.721   0.318   1.662
 2613SOL    HW1 8738   3.679   0.382   1.597
 2613SOL    HW2 8739   3.816   0.344   1.677
 2614SOL     OW 8740   6.976   6.640   6.077
 2614SOL    HW1 8741   6.927   6.558   6.046
 2614SOL    HW2 8742   6.934   6.675   6.160
 2615SOL     OW 8743   5.042   5.572   2.692
 2615SOL    HW1 8744   4.961   5.591   2.637
 2615SOL    HW2 8745   5.076   5.481   2.670
 2616SOL     OW 8746   3.854   3.020   2.900
 2616SOL    HW1 8747   3.867   2.950   2.970
 2616SOL    HW2 8748   3.868   3.110   2.941
 2617SOL     OW 8749   4.033   6.604   1.349
 2617SOL    HW1 8750   3.948   6.645   1.383
 2617SOL    HW2 8751   4.026   6.504   1.355
 2618SOL     OW 8752   1.123   0.254   0.742
 2618SOL    HW1 8753   1.118   0.181   0.675
 2618SOL    HW2 8754   1.210   0.248   0.792
 2619SOL     OW 8755   4.228   1.853   2.035
 2619SOL    HW1 8756   4.246   1.917   2.110
 2619SOL    HW2 8757   4.132   1.860   2.008
 2620SOL     OW 8758   1.089   4.773   3.927
 2620SOL    HW1 8759   1.113   4.715   3.849
 2620SOL    HW2 8760   1.140   4.744   4.007
 2621SOL     OW 8761   0.644   5.261   3.573
 2621SOL    HW1 8762   0.636   5.258   3.672
 2621SOL    HW2 8763   0.665   5.354   3.543
 2622SOL     OW 8764   2.486   2.531   6.792
 2622SOL    HW1 8765   2.426   2.504   6.868
 2622SOL    HW2 8766   2.448   2.612   6.747
 2623SOL     OW 8767   3.203   1.073   5.801
 2623SOL    HW1 8768   3.191   1.048   5.897
 2623SOL    HW2 8769   3.251   1.161   5.796
 2624SOL     OW 8770   5.817   2.324   3.568
 2624SOL    HW1 8771   5.867   2.316   3.654
 2624SOL    HW2 8772   5.808   2.421   3.544
 2625SOL     OW 8773   3.013   2.371   5.795
 2625SOL    HW1 8774   3.098   2.327   5.822
 2625SOL    HW2 8775   3.027   2.470   5.788
 2626SOL     OW 8776   1.947   6.378   2.988
 2626SOL    HW1 8777   1.955   6.458   3.047
 2626SOL    HW2 8778   1.850   6.353   2.978
 2627SOL     OW 8779   6.638   0.474   4.087
 2627SOL    HW1 8780   6.678   0.411   4.021
 2627SOL    HW2 8781   6.549   0.440   4.116
 2628SOL     OW 8782   4.025   6.170   6.751
 2628SOL    HW1 8783   3.952   6.106   6.776
 2628SOL    HW2 8784   4.015   6.254   6.804
 2629SOL     OW 8785   3.418   4.059   1.267
 2629SOL    HW1 8786   3.481   4.060   1.344
 2629SOL    HW2 8787   3.349   3.988   1.281
 2630SOL     OW 8788   3.034   2.132   2.343
 2630SOL    HW1 8789   2.992   2.199   2.282
 2630SOL    HW2 8790   3.120   2.101   2.304
 2631SOL     OW 8791   4.414   6.373   3.854
 2631SOL    HW1 8792   4.321   6.382   3.889
 2631SOL    HW2 8793   4.432   6.277   3.831
 2632SOL     OW 8794   3.583   2.206   0.360
 2632SOL    HW1 8795   3.584   2.196   0.260
 2632SOL    HW2 8796   3.555   2.119   0.401
 2633SOL     OW 8797   5.891   2.358   6.853
 2633SOL    HW1 8798   5.867   2.293   6.925
 2633SOL    HW2 8799   5.987   2.384   6.862
 2634SOL     OW 8800   1.972   4.302   1.424
 2634SOL    HW1 8801   1.901   4.309   1.355
 2634SOL    HW2 8802   2.006   4.208   1.430
 2635SOL     OW 8803   5.390   4.706   4.969
 2635SOL    HW1 8804   5.402   4.607   4.979
 2635SOL    HW2 8805   5.470   4.745   4.922
 2636SOL     OW 8806   4.556   0.277   5.684
 2636SOL    HW1 8807   4.553   0.209   5.757
 2636SOL    HW2 8808   4.624   0.347   5.707
 2637SOL     OW 8809   5.769   6.366   2.970
 2637SOL    HW1 8810   5.805   6.286   2.921
 2637SOL    HW2 8811   5.670   6.358   2.979
 2638SOL     OW 8812   5.731   5.737   1.196
 2638SOL    HW1 8813   5.690   5.724   1.106
 2638SOL    HW2 8814   5.804   5.670   1.210
 2639SOL     OW 8815   6.267   6.138   1.387
 2639SOL    HW1 8816   6.230   6.170   1.300
 2639SOL    HW2 8817   6.280   6.039   1.384
 2640SOL     OW 8818   6.647   6.218   5.202
 2640SOL    HW1 8819   6.627   6.152   5.274
 2640SOL    HW2 8820   6.654   6.310   5.241
 2641SOL     OW 8821   5.052   4.138   6.899
 2641SOL    HW1 8822   5.132   4.192   6.874
 2641SOL    HW2 8823   5.082   4.052   6.940
 2642SOL     OW 8824   5.056   0.478   3.622
 2642SOL    HW1 8825   4.975   0.421   3.608
 2642SOL    HW2 8826   5.055   0.555   3.559
 2643SOL     OW 8827   0.078   0.166   2.714
 2643SOL    HW1 8828   0.156   0.117   2.753
 2643SOL    HW2 8829   0.086   0.264   2.736
 2644SOL     OW 8830   0.755   4.591   6.120
 2644SOL    HW1 8831   0.699   4.515   6.087
 2644SOL    HW2 8832   0.850   4.562   6.129
 2645SOL     OW 8833   5.363   5.963   6.304
 2645SOL    HW1 8834   5.360   5.995   6.399
 2645SOL    HW2 8835   5.300   6.017   6.249
 2646SOL     OW 8836   0.053   0.188   6.150
 2646SOL    HW1 8837   0.013   0.125   6.216
 2646SOL    HW2 8838   0.122   0.245   6.195
 2647SOL     OW 8839   4.294   2.079   1.520
 2647SOL    HW1 8840   4.372   2.077   1.583
 2647SOL    HW2 8841   4.212   2.049   1.568
 2648SOL     OW 8842   5.810   0.274   2.204
 2648SOL    HW1 8843   5.712   0.262   2.187
 2648SOL    HW2 8844   5.841   0.204   2.268
 2649SOL     OW 8845   3.155   1.662   6.421
 2649SOL    HW1 8846   3.120   1.638   6.330
 2649SOL    HW2 8847   3.179   1.759   6.423
 2650SOL     OW 8848   6.950   6.091   2.896
 2650SOL    HW1 8849   6.891   6.140   2.960
 2650SOL    HW2 8850   6.922   5.995   2.890
 2651SOL     OW 8851   6.685   1.318   1.998
 2651SOL    HW1 8852   6.628   1.257   1.942
 2651SOL    HW2 8853   6.735   1.264   2.066
 2652SOL     OW 8854   3.075   3.104   3.394
 2652SOL    HW1 8855   2.984   3.146   3.389
 2652SOL    HW2 8856   3.137   3.154   3.334
 2653SOL     OW 8857   6.567   6.743   6.017
 2653SOL    HW1 8858   6.490   6.687   5.986
 2653SOL    HW2 8859   6.620   6.773   5.938
 2654SOL     OW 8860   5.106   2.516   5.616
 2654SOL    HW1 8861   5.028   2.457   5.637
 2654SOL    HW2 8862   5.148   2.548   5.700
 2655SOL     OW 8863   4.741   6.206   4.497
 2655SOL    HW1 8864   4.730   6.110   4.472
 2655SOL    HW2 8865   4.797   6.252   4.428
 2656SOL     OW 8866   5.253   3.532   3.844
 2656SOL    HW1 8867   5.175   3.563   3.789
 2656SOL    HW2 8868   5.338   3.550   3.793
 2657SOL     OW 8869   1.862   4.055   6.832
 2657SOL    HW1 8870   1.833   4.148   6.853
 2657SOL    HW2 8871   1.955   4.040   6.865
 2658SOL     OW 8872   6.310   4.519   5.657
 2658SOL    HW1 8873   6.274   4.503   5.749
 2658SOL    HW2 8874   6.275   4.607   5.623
 2659SOL     OW 8875   6.912   2.760   4.442
 2659SOL    HW1 8876   6.938   2.756   4.538
 2659SOL    HW2 8877   6.965   2.693   4.390
 2660SOL     OW 8878   6.150   2.218   2.660
 2660SOL    HW1 8879   6.100   2.259   2.737
 2660SOL    HW2 8880   6.088   2.209   2.582
 2661SOL     OW 8881   3.850   6.005   0.945
 2661SOL    HW1 8882   3.898   5.923   0.917
 2661SOL    HW2 8883   3.869   6.024   1.042
 2662SOL     OW 8884   3.921   6.734   4.588
 2662SOL    HW1 8885   4.014   6.726   4.623
 2662SOL    HW2 8886   3.857   6.693   4.653
 2663SOL     OW 8887   2.034   4.575   2.085
 2663SOL    HW1 8888   2.121   4.610   2.122
 2663SOL    HW2 8889   1.987   4.522   2.155
 2664SOL     OW 8890   4.061   3.621   2.614
 2664SOL    HW1 8891   4.078   3.669   2.700
 2664SOL    HW2 8892   4.063   3.522   2.630
 2665SOL     OW 8893   3.615   1.270   5.056
 2665SOL    HW1 8894   3.536   1.209   5.063
 2665SOL    HW2 8895   3.594   1.345   4.993
 2666SOL     OW 8896   5.184   4.184   0.857
 2666SOL    HW1 8897   5.124   4.264   0.846
 2666SOL    HW2 8898   5.165   4.140   0.945
 2667SOL     OW 8899   2.312   5.625   4.809
 2667SOL    HW1 8900   2.333   5.721   4.791
 2667SOL    HW2 8901   2.233   5.619   4.869
 2668SOL     OW 8902   0.024   3.410   5.243
 2668SOL    HW1 8903   0.090   3.348   5.286
 2668SOL    HW2 8904   6.997   3.364   5.165
 2669SOL     OW 8905   4.196   4.891   5.445
 2669SOL    HW1 8906   4.272   4.828   5.424
 2669SOL    HW2 8907   4.209   4.976   5.393
 2670SOL     OW 8908   1.014   1.289   0.202
 2670SOL    HW1 8909   1.054   1.278   0.293
 2670SOL    HW2 8910   0.942   1.358   0.205
 2671SOL     OW 8911   2.714   3.327   6.353
 2671SOL    HW1 8912   2.637   3.374   6.310
 2671SOL    HW2 8913   2.687   3.295   6.444
 2672SOL     OW 8914   2.209   5.437   0.297
 2672SOL    HW1 8915   2.274   5.500   0.339
 2672SOL    HW2 8916   2.258   5.361   0.255
 2673SOL     OW 8917   3.814   2.149   3.062
 2673SOL    HW1 8918   3.807   2.133   2.963
 2673SOL    HW2 8919   3.725   2.174   3.098
 2674SOL     OW 8920   6.714   5.316   4.656
 2674SOL    HW1 8921   6.751   5.224   4.673
 2674SOL    HW2 8922   6.774   5.365   4.592
 2675SOL     OW 8923   0.268   4.612   5.627
 2675SOL    HW1 8924   0.352   4.582   5.673
 2675SOL    HW2 8925   0.220   4.533   5.590
 2676SOL     OW 8926   4.709   1.718   1.551
 2676SOL    HW1 8927   4.770   1.639   1.542
 2676SOL    HW2 8928   4.660   1.712   1.638
 2677SOL     OW 8929   1.968   4.838   1.296
 2677SOL    HW1 8930   1.950   4.853   1.199
 2677SOL    HW2 8931   1.951   4.742   1.318
 2678SOL     OW 8932   1.030   5.177   6.557
 2678SOL    HW1 8933   1.030   5.148   6.653
 2678SOL    HW2 8934   1.050   5.274   6.552
 2679SOL     OW 8935   3.210   4.972   0.503
 2679SOL    HW1 8936   3.216   5.071   0.501
 2679SOL    HW2 8937   3.302   4.933   0.498
 2680SOL     OW 8938   1.955   1.256   1.189
 2680SOL    HW1 8939   1.896   1.327   1.149
 2680SOL    HW2 8940   1.906   1.169   1.192
 2681SOL     OW 8941   1.319   2.825   3.646
 2681SOL    HW1 8942   1.259   2.816   3.725
 2681SOL    HW2 8943   1.372   2.910   3.654
 2682SOL     OW 8944   5.310   3.044   2.643
 2682SOL    HW1 8945   5.394   3.084   2.679
 2682SOL    HW2 8946   5.329   2.997   2.557
 2683SOL     OW 8947   0.976   5.806   1.107
 2683SOL    HW1 8948   1.030   5.723   1.094
 2683SOL    HW2 8949   1.007   5.876   1.043
 2684SOL     OW 8950   2.436   6.507   3.067
 2684SOL    HW1 8951   2.505   6.453   3.019
 2684SOL    HW2 8952   2.396   6.452   3.140
 2685SOL     OW 8953   4.956   6.098   4.942
 2685SOL    HW1 8954   5.011   6.130   5.019
 2685SOL    HW2 8955   4.957   6.167   4.869
 2686SOL     OW 8956   2.146   3.140   4.066
 2686SOL    HW1 8957   2.196   3.056   4.045
 2686SOL    HW2 8958   2.048   3.122   4.057
 2687SOL     OW 8959   3.730   5.487   2.084
 2687SOL    HW1 8960   3.692   5.406   2.128
 2687SOL    HW2 8961   3.754   5.466   1.989
 2688SOL     OW 8962   4.685   4.692   6.475
 2688SOL    HW1 8963   4.733   4.732   6.396
 2688SOL    HW2 8964   4.748   4.690   6.553
 2689SOL     OW 8965   0.808   2.741   3.518
 2689SOL    HW1 8966   0.862   2.745   3.602
 2689SOL    HW2 8967   0.713   2.763   3.538
 2690SOL     OW 8968   4.110   3.581   4.078
 2690SOL    HW1 8969   4.166   3.587   3.996
 2690SOL    HW2 8970   4.039   3.511   4.065
 2691SOL     OW 8971   1.610   5.668   2.354
 2691SOL    HW1 8972   1.561   5.755   2.344
 2691SOL    HW2 8973   1.549   5.593   2.329
 2692SOL     OW 8974   6.811   6.234   3.356
 2692SOL    HW1 8975   6.795   6.261   3.451
 2692SOL    HW2 8976   6.908   6.217   3.342
 2693SOL     OW 8977   2.129   3.754   3.611
 2693SOL    HW1 8978   2.135   3.805   3.525
 2693SOL    HW2 8979   2.216   3.710   3.630
 2694SOL     OW 8980   2.214   6.591   3.274
 2694SOL    HW1 8981   2.281   6.647   3.227
 2694SOL    HW2 8982   2.247   6.567   3.365
 2695SOL     OW 8983   4.740   2.287   2.695
 2695SOL    HW1 8984   4.672   2.259   2.628
 2695SOL    HW2 8985   4.775   2.207   2.744
 2696SOL     OW 8986   4.028   3.720   5.409
 2696SOL    HW1 8987   3.975   3.774   5.474
 2696SOL    HW2 8988   4.088   3.781   5.356
 2697SOL     OW 8989   3.340   1.481   4.184
 2697SOL    HW1 8990   3.331   1.454   4.088
 2697SOL    HW2 8991   3.251   1.474   4.229
 2698SOL     OW 8992   1.259   4.267   0.582
 2698SOL    HW1 8993   1.187   4.330   0.553
 2698SOL    HW2 8994   1.348   4.304   0.556
 2699SOL     OW 8995   3.754   6.044   1.424
 2699SOL    HW1 8996   3.708   6.115   1.477
 2699SOL    HW2 8997   3.772   5.965   1.483
 2700SOL     OW 8998   1.551   3.640   2.781
 2700SOL    HW1 8999   1.621   3.623   2.851
 2700SOL    HW2 9000   1.536   3.556   2.729
 2701SOL     OW 9001   3.742   0.332   6.602
 2701SOL    HW1 9002   3.791   0.332   6.690
 2701SOL    HW2 9003   3.782   0.262   6.542
 2702SOL     OW 9004   0.192   1.368   3.505
 2702SOL    HW1 9005   0.103   1.413   3.515
 2702SOL    HW2 9006   0.191   1.280   3.552
 2703SOL     OW 9007   1.818   1.870   2.513
 2703SOL    HW1 9008   1.857   1.921   2.590
 2703SOL    HW2 9009   1.736   1.916   2.480
 2704SOL     OW 9010   2.671   5.306   1.613
 2704SOL    HW1 9011   2.631   5.230   1.562
 2704SOL    HW2 9012   2.767   5.316   1.586
 2705SOL     OW 9013   6.374   5.617   3.341
 2705SOL    HW1 9014   6.383   5.688   3.272
 2705SOL    HW2 9015   6.451   5.623   3.405
 2706SOL     OW 9016   6.432   1.566   2.208
 2706SOL    HW1 9017   6.531   1.579   2.203
 2706SOL    HW2 9018   6.386   1.653   2.195
 2707SOL     OW 9019   1.921   1.709   6.361
 2707SOL    HW1 9020   1.914   1.618   6.401
 2707SOL    HW2 9021   1.948   1.775   6.431
 2708SOL     OW 9022   1.473   2.756   1.738
 2708SOL    HW1 9023   1.563   2.713   1.749
 2708SOL    HW2 9024   1.432   2.771   1.828
 2709SOL     OW 9025   5.231   5.723   1.165
 2709SOL    HW1 9026   5.283   5.783   1.226
 2709SOL    HW2 9027   5.291   5.651   1.131
 2710SOL     OW 9028   6.833   3.872   2.370
 2710SOL    HW1 9029   6.863   3.796   2.312
 2710SOL    HW2 9030   6.767   3.838   2.437
 2711SOL     OW 9031   1.234   0.101   1.910
 2711SOL    HW1 9032   1.259   0.189   1.951
 2711SOL    HW2 9033   1.231   0.030   1.980
 2712SOL     OW 9034   2.557   4.363   0.720
 2712SOL    HW1 9035   2.625   4.417   0.769
 2712SOL    HW2 9036   2.558   4.386   0.623
 2713SOL     OW 9037   2.375   3.203   5.396
 2713SOL    HW1 9038   2.436   3.139   5.348
 2713SOL    HW2 9039   2.407   3.216   5.489
 2714SOL     OW 9040   5.087   0.562   5.848
 2714SOL    HW1 9041   5.117   0.558   5.944
 2714SOL    HW2 9042   5.012   0.627   5.839
 2715SOL     OW 9043   5.976   1.353   6.635
 2715SOL    HW1 9044   5.987   1.336   6.537
 2715SOL    HW2 9045   6.031   1.288   6.686
 2716SOL     OW 9046   0.423   5.725   2.066
 2716SOL    HW1 9047   0.371   5.779   2.133
 2716SOL    HW2 9048   0.388   5.743   1.974
 2717SOL     OW 9049   0.742   6.961   3.136
 2717SOL    HW1 9050   0.647   6.946   3.110
 2717SOL    HW2 9051   0.801   6.945   3.057
 2718SOL     OW 9052   2.152   4.540   3.957
 2718SOL    HW1 9053   2.117   4.566   3.867
 2718SOL    HW2 9054   2.091   4.472   3.998
 2719SOL     OW 9055   4.525   5.535   1.874
 2719SOL    HW1 9056   4.507   5.614   1.815
 2719SOL    HW2 9057   4.531   5.566   1.969
 2720SOL     OW 9058   1.601   6.857   4.014
 2720SOL    HW1 9059   1.668   6.931   4.018
 2720SOL    HW2 9060   1.594   6.815   4.105
 2721SOL     OW 9061   3.349   6.793   4.108
 2721SOL    HW1 9062   3.354   6.739   4.192
 2721SOL    HW2 9063   3.255   6.791   4.073
 2722SOL     OW 9064   1.030   6.072   3.025
 2722SOL    HW1 9065   1.015   6.014   2.945
 2722SOL    HW2 9066   0.942   6.099   3.064
 2723SOL     OW 9067   2.018   1.104   5.837
 2723SOL    HW1 9068   2.117   1.109   5.823
 2723SOL    HW2 9069   1.971   1.099   5.749
 2724SOL     OW 9070   4.034   5.847   6.583
 2724SOL    HW1 9071   3.975   5.867   6.662
 2724SOL    HW2 9072   3.986   5.872   6.499
 2725SOL     OW 9073   4.051   4.857   4.106
 2725SOL    HW1 9074   4.007   4.858   4.196
 2725SOL    HW2 9075   3.980   4.854   4.035
 2726SOL     OW 9076   5.091   4.962   1.868
 2726SOL    HW1 9077   5.022   5.035   1.867
 2726SOL    HW2 9078   5.049   4.877   1.899
 2727SOL     OW 9079   1.069   4.942   2.561
 2727SOL    HW1 9080   1.020   4.855   2.564
 2727SOL    HW2 9081   1.103   4.957   2.469
 2728SOL     OW 9082   2.434   6.453   5.601
 2728SOL    HW1 9083   2.529   6.483   5.608
 2728SOL    HW2 9084   2.426   6.387   5.527
 2729SOL     OW 9085   5.791   5.055   2.725
 2729SOL    HW1 9086   5.698   5.088   2.712
 2729SOL    HW2 9087   5.808   5.041   2.823
 2730SOL     OW 9088   1.787   0.199   0.932
 2730SOL    HW1 9089   1.786   0.298   0.922
 2730SOL    HW2 9090   1.864   0.172   0.990
 2731SOL     OW 9091   2.912   3.795   1.710
 2731SOL    HW1 9092   2.930   3.860   1.784
 2731SOL    HW2 9093   2.929   3.702   1.742
 2732SOL     OW 9094   5.346   2.139   2.687
 2732SOL    HW1 9095   5.378   2.056   2.643
 2732SOL    HW2 9096   5.250   2.129   2.711
 2733SOL     OW 9097   1.010   6.774   5.874
 2733SOL    HW1 9098   1.026   6.858   5.926
 2733SOL    HW2 9099   0.915   6.744   5.887
 2734SOL     OW 9100   1.965   6.329   4.117
 2734SOL    HW1 9101   1.953   6.419   4.075
 2734SOL    HW2 9102   1.889   6.311   4.180
 2735SOL     OW 9103   1.595   4.916   2.685
 2735SOL    HW1 9104   1.606   4.994   2.747
 2735SOL    HW2 9105   1.676   4.907   2.628
 2736SOL     OW 9106   4.276   0.473   4.664
 2736SOL    HW1 9107   4.375   0.466   4.660
 2736SOL    HW2 9108   4.249   0.533   4.739
 2737SOL     OW 9109   4.445   3.868   6.547
 2737SOL    HW1 9110   4.528   3.877   6.491
 2737SOL    HW2 9111   4.403   3.958   6.558
 2738SOL     OW 9112   5.582   5.091   4.732
 2738SOL    HW1 9113   5.636   5.118   4.653
 2738SOL    HW2 9114   5.571   5.169   4.794
 2739SOL     OW 9115   5.014   3.256   1.180
 2739SOL    HW1 9116   5.084   3.321   1.210
 2739SOL    HW2 9117   4.927   3.304   1.168
 2740SOL     OW 9118   5.742   2.562   3.377
 2740SOL    HW1 9119   5.742   2.520   3.286
 2740SOL    HW2 9120   5.649   2.579   3.407
 2741SOL     OW 9121   0.760   2.328   5.436
 2741SOL    HW1 9122   0.808   2.297   5.519
 2741SOL    HW2 9123   0.731   2.248   5.383
 2742SOL     OW 9124   1.871   6.606   6.750
 2742SOL    HW1 9125   1.871   6.680   6.683
 2742SOL    HW2 9126   1.833   6.523   6.708
 2743SOL     OW 9127   5.348   4.606   1.202
 2743SOL    HW1 9128   5.442   4.580   1.224
 2743SOL    HW2 9129   5.336   4.609   1.103
 2744SOL     OW 9130   4.257   2.215   5.861
 2744SOL    HW1 9131   4.291   2.272   5.936
 2744SOL    HW2 9132   4.279   2.119   5.880
 2745SOL     OW 9133   2.531   6.155   1.051
 2745SOL    HW1 9134   2.515   6.059   1.072
 2745SOL    HW2 9135   2.624   6.180   1.077
 2746SOL     OW 9136   2.040   1.726   6.121
 2746SOL    HW1 9137   2.127   1.677   6.123
 2746SOL    HW2 9138   2.000   1.727   6.213
 2747SOL     OW 9139   5.463   6.690   3.986
 2747SOL    HW1 9140   5.473   6.779   3.941
 2747SOL    HW2 9141   5.456   6.704   4.085
 2748SOL     OW 9142   3.733   1.337   2.558
 2748SOL    HW1 9143   3.748   1.256   2.502
 2748SOL    HW2 9144   3.818   1.390   2.564
 2749SOL     OW 9145   4.574   4.818   4.558
 2749SOL    HW1 9146   4.550   4.841   4.653
 2749SOL    HW2 9147   4.512   4.748   4.524
 2750SOL     OW 9148   0.494   5.924   2.549
 2750SOL    HW1 9149   0.497   5.874   2.463
 2750SOL    HW2 9150   0.567   5.891   2.610
 2751SOL     OW 9151   1.959   6.912   6.672
 2751SOL    HW1 9152   1.873   6.953   6.702
 2751SOL    HW2 9153   2.030   6.929   6.741
 2752SOL     OW 9154   5.685   6.228   5.282
 2752SOL    HW1 9155   5.702   6.130   5.281
 2752SOL    HW2 9156   5.749   6.272   5.345
 2753SOL     OW 9157   3.750   5.949   6.214
 2753SOL    HW1 9158   3.723   5.901   6.297
 2753SOL    HW2 9159   3.752   5.885   6.137
 2754SOL     OW 9160   0.386   1.167   4.514
 2754SOL    HW1 9161   0.288   1.150   4.522
 2754SOL    HW2 9162   0.432   1.135   4.597
 2755SOL     OW 9163   2.828   6.408   2.078
 2755SOL    HW1 9164   2.908   6.358   2.112
 2755SOL    HW2 9165   2.789   6.463   2.152
 2756SOL     OW 9166   0.028   3.134   5.906
 2756SOL    HW1 9167   0.008   3.042   5.939
 2756SOL    HW2 9168   7.008   3.201   5.970
 2757SOL     OW 9169   4.383   2.926   6.518
 2757SOL    HW1 9170   4.430   2.938   6.605
 2757SOL    HW2 9171   4.426   2.852   6.467
 2758SOL     OW 9172   5.795   5.776   2.621
 2758SOL    HW1 9173   5.762   5.810   2.532
 2758SOL    HW2 9174   5.890   5.749   2.613
 2759SOL     OW 9175   3.210   4.234   6.426
 2759SOL    HW1 9176   3.247   4.296   6.496
 2759SOL    HW2 9177   3.195   4.285   6.341
 2760SOL     OW 9178   5.296   5.965   3.453
 2760SOL    HW1 9179   5.272   5.921   3.367
 2760SOL    HW2 9180   5.223   6.027   3.481
 2761SOL     OW 9181   1.800   3.344   2.593
 2761SOL    HW1 9182   1.732   3.417   2.585
 2761SOL    HW2 9183   1.884   3.382   2.632
 2762SOL     OW 9184   2.407   2.152   0.552
 2762SOL    HW1 9185   2.357   2.074   0.590
 2762SOL    HW2 9186   2.350   2.234   0.557
 2763SOL     OW 9187   4.845   1.613   5.105
 2763SOL    HW1 9188   4.931   1.562   5.100
 2763SOL    HW2 9189   4.850   1.680   5.179
 2764SOL     OW 9190   1.061   4.047   2.114
 2764SOL    HW1 9191   1.085   4.039   2.018
 2764SOL    HW2 9192   0.962   4.062   2.123
 2765SOL     OW 9193   0.017   6.506   6.538
 2765SOL    HW1 9194   6.985   6.423   6.566
 2765SOL    HW2 9195   0.044   6.558   6.619
 2766SOL     OW 9196   5.886   1.057   6.829
 2766SOL    HW1 9197   5.835   1.137   6.796
 2766SOL    HW2 9198   5.862   0.977   6.774
 2767SOL     OW 9199   0.059   5.062   6.160
 2767SOL    HW1 9200   0.027   4.973   6.128
 2767SOL    HW2 9201   0.158   5.058   6.177
 2768SOL     OW 9202   4.638   0.113   0.881
 2768SOL    HW1 9203   4.626   0.108   0.782
 2768SOL    HW2 9204   4.678   0.027   0.914
 2769SOL     OW 9205   1.622   4.512   5.560
 2769SOL    HW1 9206   1.621   4.477   5.466
 2769SOL    HW2 9207   1.659   4.442   5.621
 2770SOL     OW 9208   2.704   6.402   0.804
 2770SOL    HW1 9209   2.659   6.431   0.720
 2770SOL    HW2 9210   2.703   6.302   0.810
 2771SOL     OW 9211   4.617   0.071   4.594
 2771SOL    HW1 9212   4.530   0.026   4.575
 2771SOL    HW2 9213   4.605   0.136   4.669
 2772SOL     OW 9214   3.889   0.588   3.251
 2772SOL    HW1 9215   3.792   0.587   3.230
 2772SOL    HW2 9216   3.904   0.631   3.340
 2773SOL     OW 9217   5.924   2.749   4.119
 2773SOL    HW1 9218   5.974   2.822   4.072
 2773SOL    HW2 9219   5.869   2.788   4.192
 2774SOL     OW 9220   5.078   1.648   3.732
 2774SOL    HW1 9221   5.143   1.576   3.707
 2774SOL    HW2 9222   5.125   1.736   3.735
 2775SOL     OW 9223   0.899   4.271   4.338
 2775SOL    HW1 9224   0.808   4.231   4.331
 2775SOL    HW2 9225   0.911   4.312   4.428
 2776SOL     OW 9226   4.829   4.328   5.983
 2776SOL    HW1 9227   4.771   4.335   5.902
 2776SOL    HW2 9228   4.891   4.251   5.973
 2777SOL     OW 9229   2.830   1.910   6.403
 2777SOL    HW1 9230   2.878   1.916   6.316
 2777SOL    HW2 9231   2.894   1.926   6.478
 2778SOL     OW 9232   2.707   6.230   6.661
 2778SOL    HW1 9233   2.617   6.272   6.668
 2778SOL    HW2 9234   2.777   6.302   6.657
 2779SOL     OW 9235   6.018   6.786   1.561
 2779SOL    HW1 9236   5.956   6.790   1.482
 2779SOL    HW2 9237   6.099   6.843   1.543
 2780SOL     OW 9238   0.727   1.686   5.507
 2780SOL    HW1 9239   0.726   1.761   5.442
 2780SOL    HW2 9240   0.783   1.711   5.587
 2781SOL     OW 9241   6.328   0.790   2.926
 2781SOL    HW1 9242   6.329   0.890   2.928
 2781SOL    HW2 9243   6.375   0.758   2.843
 2782SOL     OW 9244   4.305   0.860   6.879
 2782SOL    HW1 9245   4.341   0.767   6.884
 2782SOL    HW2 9246   4.205   0.856   6.868
 2783SOL     OW 9247   5.653   3.814   1.574
 2783SOL    HW1 9248   5.613   3.729   1.607
 2783SOL    HW2 9249   5.581   3.873   1.536
 2784SOL     OW 9250   1.257   1.626   1.032
 2784SOL    HW1 9251   1.352   1.630   1.065
 2784SOL    HW2 9252   1.222   1.534   1.044
 2785SOL     OW 9253   5.478   2.631   1.717
 2785SOL    HW1 9254   5.406   2.622   1.787
 2785SOL    HW2 9255   5.444   2.595   1.630
 2786SOL     OW 9256   6.970   6.610   0.051
 2786SOL    HW1 9257   6.973   6.710   0.049
 2786SOL    HW2 9258   0.003   6.577   0.132
 2787SOL     OW 9259   6.253   4.958   6.498
 2787SOL    HW1 9260   6.204   5.045   6.496
 2787SOL    HW2 9261   6.265   4.924   6.404
 2788SOL     OW 9262   2.812   6.331   5.444
 2788SOL    HW1 9263   2.780   6.358   5.353
 2788SOL    HW2 9264   2.741   6.277   5.489
 2789SOL     OW 9265   0.765   2.609   4.867
 2789SOL    HW1 9266   0.800   2.697   4.902
 2789SOL    HW2 9267   0.691   2.577   4.927
 2790SOL     OW 9268   1.519   5.736   1.433
 2790SOL    HW1 9269   1.493   5.773   1.522
 2790SOL    HW2 9270   1.592   5.792   1.395
 2791SOL     OW 9271   0.074   4.000   3.311
 2791SOL    HW1 9272   7.002   4.013   3.266
 2791SOL    HW2 9273   0.079   4.059   3.392
 2792SOL     OW 9274   3.339   1.762   5.506
 2792SOL    HW1 9275   3.251   1.717   5.518
 2792SOL    HW2 9276   3.408   1.695   5.479
 2793SOL     OW 9277   3.230   4.254   1.033
 2793SOL    HW1 9278   3.284   4.313   1.094
 2793SOL    HW2 9279   3.159   4.207   1.086
 2794SOL     OW 9280   0.723   2.616   6.448
 2794SOL    HW1 9281   0.686   2.657   6.531
 2794SOL    HW2 9282   0.743   2.519   6.465
 2795SOL     OW 9283   1.036   4.775   1.374
 2795SOL    HW1 9284   1.000   4.810   1.461
 2795SOL    HW2 9285   1.040   4.849   1.307
 2796SOL     OW 9286   1.508   6.320   5.654
 2796SOL    HW1 9287   1.462   6.286   5.572
 2796SOL    HW2 9288   1.452   6.391   5.696
 2797SOL     OW 9289   5.817   6.919   3.545
 2797SOL    HW1 9290   5.764   7.003   3.540
 2797SOL    HW2 9291   5.906   6.938   3.586
 2798SOL     OW 9292   5.915   0.125   2.011
 2798SOL    HW1 9293   5.865   0.195   2.062
 2798SOL    HW2 9294   5.944   0.053   2.073
 2799SOL     OW 9295   3.449   5.923   5.491
 2799SOL    HW1 9296   3.480   6.009   5.532
 2799SOL    HW2 9297   3.422   5.860   5.564
 2800SOL     OW 9298   5.944   0.403   6.575
 2800SOL    HW1 9299   5.929   0.304   6.567
 2800SOL    HW2 9300   5.987   0.437   6.492
 2801SOL     OW 9301   0.760   4.744   5.537
 2801SOL    HW1 9302   0.766   4.833   5.582
 2801SOL    HW2 9303   0.725   4.676   5.602
 2802SOL     OW 9304   0.068   5.149   5.576
 2802SOL    HW1 9305   6.998   5.192   5.602
 2802SOL    HW2 9306   0.088   5.073   5.637
 2803SOL     OW 9307   3.592   2.425   6.919
 2803SOL    HW1 9308   3.623   2.466   6.833
 2803SOL    HW2 9309   3.670   2.409   6.979
 2804SOL     OW 9310   0.539   2.784   3.487
 2804SOL    HW1 9311   0.508   2.697   3.449
 2804SOL    HW2 9312   0.530   2.856   3.418
 2805SOL     OW 9313   4.486   3.224   1.243
 2805SOL    HW1 9314   4.424   3.148   1.224
 2805SOL    HW2 9315   4.559   3.192   1.304
 2806SOL     OW 9316   0.507   4.050   5.971
 2806SOL    HW1 9317   0.458   3.974   5.928
 2806SOL    HW2 9318   0.474   4.137   5.932
 2807SOL     OW 9319   3.055   0.415   3.529
 2807SOL    HW1 9320   3.144   0.414   3.484
 2807SOL    HW2 9321   3.057   0.354   3.608
 2808SOL     OW 9322   6.685   4.944   6.686
 2808SOL    HW1 9323   6.586   4.950   6.697
 2808SOL    HW2 9324   6.729   5.016   6.740
 2809SOL     OW 9325   6.479   4.883   2.060
 2809SOL    HW1 9326   6.468   4.795   2.014
 2809SOL    HW2 9327   6.390   4.917   2.089
 2810SOL     OW 9328   2.517   5.342   3.034
 2810SOL    HW1 9329   2.459   5.415   2.999
 2810SOL    HW2 9330   2.463   5.280   3.091
 2811SOL     OW 9331   0.782   0.367   1.836
 2811SOL    HW1 9332   0.841   0.295   1.871
 2811SOL    HW2 9333   0.708   0.326   1.783
 2812SOL     OW 9334   0.581   2.985   1.330
 2812SOL    HW1 9335   0.648   2.914   1.352
 2812SOL    HW2 9336   0.574   2.993   1.231
 2813SOL     OW 9337   0.772   2.293   1.739
 2813SOL    HW1 9338   0.770   2.391   1.721
 2813SOL    HW2 9339   0.678   2.258   1.747
 2814SOL     OW 9340   2.308   4.441   6.961
 2814SOL    HW1 9341   2.287   4.382   0.022
 2814SOL    HW2 9342   2.316   4.386   6.878
 2815SOL     OW 9343   0.396   5.399   5.361
 2815SOL    HW1 9344   0.439   5.318   5.318
 2815SOL    HW2 9345   0.342   5.370   5.439
 2816SOL     OW 9346   0.762   6.072   6.179
 2816SOL    HW1 9347   0.812   6.077   6.093
 2816SOL    HW2 9348   0.784   5.986   6.225
 2817SOL     OW 9349   4.398   0.940   1.826
 2817SOL    HW1 9350   4.441   0.917   1.913
 2817SOL    HW2 9351   4.449   0.897   1.751
 2818SOL     OW 9352   1.120   0.407   1.036
 2818SOL    HW1 9353   1.068   0.465   0.973
 2818SOL    HW2 9354   1.127   0.315   0.998
 2819SOL     OW 9355   0.731   0.535   0.048
 2819SOL    HW1 9356   0.767   0.622   0.016
 2819SOL    HW2 9357   0.782   0.460   0.005
 2820SOL     OW 9358   0.780   2.789   1.393
 2820SOL    HW1 9359   0.849   2.785   1.465
 2820SOL    HW2 9360   0.824   2.816   1.307
 2821SOL     OW 9361   2.764   3.777   6.176
 2821SOL    HW1 9362   2.804   3.688   6.153
 2821SOL    HW2 9363   2.793   3.804   6.268
 2822SOL     OW 9364   4.571   2.614   0.957
 2822SOL    HW1 9365   4.644   2.554   0.990
 2822SOL    HW2 9366   4.588   2.638   0.862
 2823SOL     OW 9367   6.021   1.928   1.302
 2823SOL    HW1 9368   5.935   1.890   1.336
 2823SOL    HW2 9369   6.027   1.917   1.203
 2824SOL     OW 9370   1.393   4.105   4.963
 2824SOL    HW1 9371   1.426   4.077   4.873
 2824SOL    HW2 9372   1.449   4.062   5.034
 2825SOL     OW 9373   5.160   1.658   6.364
 2825SOL    HW1 9374   5.066   1.666   6.332
 2825SOL    HW2 9375   5.161   1.606   6.450
 2826SOL     OW 9376   2.194   3.244   7.011
 2826SOL    HW1 9377   2.277   3.199   0.026
 2826SOL    HW2 9378   2.163   3.309   0.064
 2827SOL     OW 9379   6.581   0.613   5.808
 2827SOL    HW1 9380   6.605   0.555   5.730
 2827SOL    HW2 9381   6.519   0.686   5.778
 2828SOL     OW 9382   1.526   3.949   0.552
 2828SOL    HW1 9383   1.579   3.959   0.636
 2828SOL    HW2 9384   1.428   3.944   0.574
 2829SOL     OW 9385   3.289   3.995   3.256
 2829SOL    HW1 9386   3.242   4.079   3.282
 2829SOL    HW2 9387   3.383   4.016   3.228
 2830SOL     OW 9388   3.064   4.817   5.643
 2830SOL    HW1 9389   2.979   4.867   5.660
 2830SOL    HW2 9390   3.116   4.864   5.571
 2831SOL     OW 9391   6.036   1.611   2.004
 2831SOL    HW1 9392   6.099   1.685   1.975
 2831SOL    HW2 9393   5.970   1.648   2.069
 2832SOL     OW 9394   0.604   3.659   1.264
 2832SOL    HW1 9395   0.554   3.577   1.294
 2832SOL    HW2 9396   0.545   3.712   1.202
 2833SOL     OW 9397   1.571   1.957   2.274
 2833SOL    HW1 9398   1.522   2.002   2.200
 2833SOL    HW2 9399   1.645   1.901   2.236
 2834SOL     OW 9400   3.126   6.238   5.887
 2834SOL    HW1 9401   3.044   6.184   5.905
 2834SOL    HW2 9402   3.133   6.258   5.790
 2835SOL     OW 9403   6.798   6.992   0.218
 2835SOL    HW1 9404   6.820   6.972   0.122
 2835SOL    HW2 9405   6.787   6.907   0.268
 2836SOL     OW 9406   3.422   6.498   2.589
 2836SOL    HW1 9407   3.513   6.464   2.567
 2836SOL    HW2 9408   3.405   6.583   2.540
 2837SOL     OW 9409   4.971   4.210   2.466
 2837SOL    HW1 9410   4.927   4.121   2.454
 2837SOL    HW2 9411   4.903   4.282   2.457
 2838SOL     OW 9412   5.338   4.456   5.975
 2838SOL    HW1 9413   5.295   4.464   6.065
 2838SOL    HW2 9414   5.304   4.373   5.930
 2839SOL     OW 9415   5.694   3.152   5.018
 2839SOL    HW1 9416   5.718   3.201   5.102
 2839SOL    HW2 9417   5.769   3.092   4.991
 2840SOL     OW 9418   0.132   6.323   4.247
 2840SOL    HW1 9419   0.140   6.415   4.286
 2840SOL    HW2 9420   0.200   6.311   4.174
 2841SOL     OW 9421   6.286   3.095   2.004
 2841SOL    HW1 9422   6.283   3.075   1.906
 2841SOL    HW2 9423   6.211   3.157   2.027
 2842SOL     OW 9424   1.063   0.028   3.061
 2842SOL    HW1 9425   1.137   0.042   2.996
 2842SOL    HW2 9426   0.989   0.093   3.042
 2843SOL     OW 9427   2.136   2.686   3.379
 2843SOL    HW1 9428   2.144   2.590   3.407
 2843SOL    HW2 9429   2.215   2.710   3.322
 2844SOL     OW 9430   4.997   4.431   0.814
 2844SOL    HW1 9431   4.946   4.486   0.749
 2844SOL    HW2 9432   5.027   4.488   0.891
 2845SOL     OW 9433   3.192   1.873   3.130
 2845SOL    HW1 9434   3.128   1.802   3.159
 2845SOL    HW2 9435   3.264   1.832   3.073
 2846SOL     OW 9436   5.695   0.426   0.164
 2846SOL    HW1 9437   5.642   0.479   0.097
 2846SOL    HW2 9438   5.672   0.329   0.154
 2847SOL     OW 9439   4.384   4.941   2.418
 2847SOL    HW1 9440   4.483   4.933   2.418
 2847SOL    HW2 9441   4.344   4.865   2.469
 2848SOL     OW 9442   0.771   3.770   5.351
 2848SOL    HW1 9443   0.829   3.836   5.303
 2848SOL    HW2 9444   0.771   3.683   5.302
 2849SOL     OW 9445   5.039   0.554   2.610
 2849SOL    HW1 9446   4.961   0.613   2.628
 2849SOL    HW2 9447   5.121   0.611   2.597
 2850SOL     OW 9448   1.886   6.935   2.878
 2850SOL    HW1 9449   1.835   6.909   2.959
 2850SOL    HW2 9450   1.982   6.950   2.902
 2851SOL     OW 9451   3.919   3.453   0.509
 2851SOL    HW1 9452   3.835   3.400   0.495
 2851SOL    HW2 9453   3.995   3.391   0.523
 2852SOL     OW 9454   6.053   4.315   6.136
 2852SOL    HW1 9455   6.016   4.363   6.215
 2852SOL    HW2 9456   6.126   4.254   6.165
 2853SOL     OW 9457   0.270   3.794   6.884
 2853SOL    HW1 9458   0.195   3.798   6.818
 2853SOL    HW2 9459   0.347   3.744   6.844
 2854SOL     OW 9460   3.512   1.485   5.997
 2854SOL    HW1 9461   3.490   1.510   5.903
 2854SOL    HW2 9462   3.474   1.552   6.060
 2855SOL     OW 9463   1.930   1.334   5.204
 2855SOL    HW1 9464   2.017   1.337   5.253
 2855SOL    HW2 9465   1.930   1.256   5.142
 2856SOL     OW 9466   0.517   5.691   3.048
 2856SOL    HW1 9467   0.459   5.771   3.061
 2856SOL    HW2 9468   0.517   5.636   3.131
 2857SOL     OW 9469   0.274   3.628   0.413
 2857SOL    HW1 9470   0.342   3.560   0.385
 2857SOL    HW2 9471   0.186   3.607   0.371
 2858SOL     OW 9472   4.685   5.083   2.893
 2858SOL    HW1 9473   4.589   5.109   2.880
 2858SOL    HW2 9474   4.722   5.133   2.971
 2859SOL     OW 9475   4.851   4.434   1.167
 2859SOL    HW1 9476   4.816   4.388   1.249
 2859SOL    HW2 9477   4.784   4.427   1.093
 2860SOL     OW 9478   0.504   6.511   2.221
 2860SOL    HW1 9479   0.427   6.562   2.183
 2860SOL    HW2 9480   0.582   6.517   2.158
 2861SOL     OW 9481   4.723   5.054   6.843
 2861SOL    HW1 9482   4.791   5.112   6.799
 2861SOL    HW2 9483   4.716   5.078   6.940
 2862SOL     OW 9484   4.052   2.819   0.892
 2862SOL    HW1 9485   4.146   2.817   0.858
 2862SOL    HW2 9486   3.991   2.776   0.825
 2863SOL     OW 9487   5.605   6.999   5.670
 2863SOL    HW1 9488   5.658   6.917   5.653
 2863SOL    HW2 9489   5.580   0.025   5.583
 2864SOL     OW 9490   3.991   4.105   0.303
 2864SOL    HW1 9491   4.039   4.189   0.328
 2864SOL    HW2 9492   3.943   4.069   0.383
 2865SOL     OW 9493   5.086   5.724   4.213
 2865SOL    HW1 9494   5.145   5.759   4.140
 2865SOL    HW2 9495   5.044   5.801   4.262
 2866SOL     OW 9496   4.458   4.796   0.166
 2866SOL    HW1 9497   4.366   4.821   0.137
 2866SOL    HW2 9498   4.479   4.703   0.135
 2867SOL     OW 9499   5.462   6.537   1.952
 2867SOL    HW1 9500   5.558   6.510   1.952
 2867SOL    HW2 9501   5.405   6.458   1.979
 2868SOL     OW 9502   1.137   1.742   6.092
 2868SOL    HW1 9503   1.154   1.644   6.080
 2868SOL    HW2 9504   1.224   1.791   6.096
 2869SOL     OW 9505   5.416   5.547   4.689
 2869SOL    HW1 9506   5.356   5.527   4.612
 2869SOL    HW2 9507   5.380   5.625   4.740
 2870SOL     OW 9508   6.428   1.675   1.394
 2870SOL    HW1 9509   6.421   1.750   1.327
 2870SOL    HW2 9510   6.471   1.709   1.477
 2871SOL     OW 9511   5.380   1.548   1.112
 2871SOL    HW1 9512   5.318   1.619   1.147
 2871SOL    HW2 9513   5.349   1.519   1.022
 2872SOL     OW 9514   2.534   2.497   2.190
 2872SOL    HW1 9515   2.582   2.584   2.173
 2872SOL    HW2 9516   2.579   2.424   2.138
 2873SOL     OW 9517   0.951   6.462   1.276
 2873SOL    HW1 9518   1.030   6.437   1.332
 2873SOL    HW2 9519   0.970   6.441   1.180
 2874SOL     OW 9520   2.367   0.577   3.068
 2874SOL    HW1 9521   2.295   0.512   3.047
 2874SOL    HW2 9522   2.412   0.606   2.983
 2875SOL     OW 9523   3.379   6.570   2.866
 2875SOL    HW1 9524   3.314   6.639   2.897
 2875SOL    HW2 9525   3.334   6.509   2.800
 2876SOL     OW 9526   1.186   6.194   2.005
 2876SOL    HW1 9527   1.139   6.126   1.949
 2876SOL    HW2 9528   1.160   6.183   2.101
 2877SOL     OW 9529   1.050   1.907   6.308
 2877SOL    HW1 9530   1.102   1.989   6.287
 2877SOL    HW2 9531   1.079   1.832   6.248
 2878SOL     OW 9532   4.086   3.854   4.549
 2878SOL    HW1 9533   4.043   3.944   4.543
 2878SOL    HW2 9534   4.078   3.819   4.643
 2879SOL     OW 9535   4.188   4.107   0.515
 2879SOL    HW1 9536   4.280   4.074   0.537
 2879SOL    HW2 9537   4.152   4.054   0.438
 2880SOL     OW 9538   1.827   1.588   4.599
 2880SOL    HW1 9539   1.734   1.620   4.618
 2880SOL    HW2 9540   1.826   1.525   4.522
 2881SOL     OW 9541   4.681   6.662   6.517
 2881SOL    HW1 9542   4.755   6.692   6.458
 2881SOL    HW2 9543   4.707   6.674   6.613
 2882SOL     OW 9544   4.757   6.548   0.374
 2882SOL    HW1 9545   4.791   6.641   0.389
 2882SOL    HW2 9546   4.819   6.482   0.418
 2883SOL     OW 9547   6.186   5.953   3.822
 2883SOL    HW1 9548   6.279   5.925   3.848
 2883SOL    HW2 9549   6.131   5.964   3.905
 2884SOL     OW 9550   6.757   5.069   3.088
 2884SOL    HW1 9551   6.679   5.100   3.033
 2884SOL    HW2 9552   6.842   5.096   3.043
 2885SOL     OW 9553   1.144   3.138   3.305
 2885SOL    HW1 9554   1.185   3.151   3.215
 2885SOL    HW2 9555   1.120   3.042   3.317
 2886SOL     OW 9556   2.210   4.681   5.972
 2886SOL    HW1 9557   2.177   4.773   5.993
 2886SOL    HW2 9558   2.134   4.625   5.941
 2887SOL     OW 9559   0.895   5.432   3.655
 2887SOL    HW1 9560   0.897   5.415   3.754
 2887SOL    HW2 9561   0.927   5.351   3.607
 2888SOL     OW 9562   6.426   6.811   0.153
 2888SOL    HW1 9563   6.404   6.723   0.196
 2888SOL    HW2 9564   6.420   6.884   0.221
 2889SOL     OW 9565   3.680   6.739   3.119
 2889SOL    HW1 9566   3.644   6.687   3.041
 2889SOL    HW2 9567   3.769   6.701   3.145
 2890SOL     OW 9568   3.145   0.596   1.203
 2890SOL    HW1 9569   3.071   0.530   1.186
 2890SOL    HW2 9570   3.233   0.552   1.188
 2891SOL     OW 9571   0.464   2.203   4.117
 2891SOL    HW1 9572   0.507   2.138   4.054
 2891SOL    HW2 9573   0.482   2.296   4.085
 2892SOL     OW 9574   6.688   4.220   2.487
 2892SOL    HW1 9575   6.623   4.288   2.520
 2892SOL    HW2 9576   6.704   4.151   2.558
 2893SOL     OW 9577   6.689   5.232   4.202
 2893SOL    HW1 9578   6.771   5.290   4.203
 2893SOL    HW2 9579   6.616   5.278   4.151
 2894SOL     OW 9580   1.669   5.172   2.838
 2894SOL    HW1 9581   1.605   5.245   2.860
 2894SOL    HW2 9582   1.760   5.211   2.821
 2895SOL     OW 9583   4.376   6.861   6.214
 2895SOL    HW1 9584   4.357   6.776   6.263
 2895SOL    HW2 9585   4.377   6.937   6.279
 2896SOL     OW 9586   5.312   6.091   4.856
 2896SOL    HW1 9587   5.307   6.141   4.943
 2896SOL    HW2 9588   5.403   6.100   4.817
 2897SOL     OW 9589   3.872   4.850   3.265
 2897SOL    HW1 9590   3.939   4.781   3.236
 2897SOL    HW2 9591   3.861   4.846   3.364
 2898SOL     OW 9592   5.632   3.642   2.850
 2898SOL    HW1 9593   5.705   3.577   2.874
 2898SOL    HW2 9594   5.550   3.591   2.822
 2899SOL     OW 9595   0.054   3.368   1.174
 2899SOL    HW1 9596   7.011   3.297   1.138
 2899SOL    HW2 9597   7.016   3.448   1.200
 2900SOL     OW 9598   2.636   3.561   6.695
 2900SOL    HW1 9599   2.733   3.536   6.695
 2900SOL    HW2 9600   2.614   3.609   6.611
 2901SOL     OW 9601   1.377   4.221   3.708
 2901SOL    HW1 9602   1.380   4.248   3.805
 2901SOL    HW2 9603   1.299   4.161   3.692
 2902SOL     OW 9604   0.303   6.171   3.724
 2902SOL    HW1 9605   0.240   6.212   3.657
 2902SOL    HW2 9606   0.263   6.180   3.816
 2903SOL     OW 9607   4.589   5.368   0.600
 2903SOL    HW1 9608   4.688   5.352   0.594
 2903SOL    HW2 9609   4.572   5.454   0.649
 2904SOL     OW 9610   2.394   4.258   5.222
 2904SOL    HW1 9611   2.405   4.161   5.198
 2904SOL    HW2 9612   2.365   4.309   5.141
 2905SOL     OW 9613   0.567   5.193   1.864
 2905SOL    HW1 9614   0.591   5.139   1.945
 2905SOL    HW2 9615   0.650   5.234   1.826
 2906SOL     OW 9616   5.857   6.327   2.542
 2906SOL    HW1 9617   5.848   6.408   2.600
 2906SOL    HW2 9618   5.803   6.252   2.580
 2907SOL     OW 9619   0.318   1.336   3.852
 2907SOL    HW1 9620   0.388   1.396   3.813
 2907SOL    HW2 9621   0.340   1.318   3.948
 2908SOL     OW 9622   4.509   0.086   2.337
 2908SOL    HW1 9623   4.434   0.145   2.307
 2908SOL    HW2 9624   4.474   7.010   2.353
 2909SOL     OW 9625   0.972   5.884   2.355
 2909SOL    HW1 9626   0.985   5.965   2.411
 2909SOL    HW2 9627   0.950   5.806   2.413
 2910SOL     OW 9628   6.747   1.284   3.818
 2910SOL    HW1 9629   6.650   1.264   3.805
 2910SOL    HW2 9630   6.759   1.344   3.897
 2911SOL     OW 9631   6.509   4.093   4.693
 2911SOL    HW1 9632   6.582   4.127   4.634
 2911SOL    HW2 9633   6.547   4.064   4.780
 2912SOL     OW 9634   0.292   6.745   1.734
 2912SOL    HW1 9635   0.390   6.766   1.730
 2912SOL    HW2 9636   0.259   6.724   1.642
 2913SOL     OW 9637   2.505   6.168   1.541
 2913SOL    HW1 9638   2.594   6.211   1.524
 2913SOL    HW2 9639   2.437   6.208   1.479
 2914SOL     OW 9640   5.266   5.384   0.399
 2914SOL    HW1 9641   5.238   5.478   0.378
 2914SOL    HW2 9642   5.192   5.321   0.376
 2915SOL     OW 9643   2.505   0.662   2.831
 2915SOL    HW1 9644   2.576   0.728   2.856
 2915SOL    HW2 9645   2.510   0.644   2.733
 2916SOL     OW 9646   1.581   5.789   0.211
 2916SOL    HW1 9647   1.561   5.883   0.239
 2916SOL    HW2 9648   1.659   5.754   0.264
 2917SOL     OW 9649   2.896   6.197   4.162
 2917SOL    HW1 9650   2.882   6.129   4.234
 2917SOL    HW2 9651   2.823   6.264   4.164
 2918SOL     OW 9652   5.830   2.950   1.997
 2918SOL    HW1 9653   5.829   3.015   2.073
 2918SOL    HW2 9654   5.756   2.972   1.933
 2919SOL     OW 9655   1.063   5.428   4.096
 2919SOL    HW1 9656   1.116   5.476   4.166
 2919SOL    HW2 9657   1.117   5.352   4.059
 2920SOL     OW 9658   1.283   2.292   2.415
 2920SOL    HW1 9659   1.200   2.242   2.390
 2920SOL    HW2 9660   1.308   2.354   2.340
 2921SOL     OW 9661   1.228   0.544   5.015
 2921SOL    HW1 9662   1.297   0.505   4.955
 2921SOL    HW2 9663   1.239   0.643   5.021
 2922SOL     OW 9664   3.582   0.505   3.368
 2922SOL    HW1 9665   3.644   0.466   3.436
 2922SOL    HW2 9666   3.576   0.604   3.382
 2923SOL     OW 9667   5.735   5.671   4.777
 2923SOL    HW1 9668   5.716   5.582   4.818
 2923SOL    HW2 9669   5.653   5.705   4.731
 2924SOL     OW 9670   5.866   2.700   5.290
 2924SOL    HW1 9671   5.877   2.691   5.389
 2924SOL    HW2 9672   5.771   2.719   5.269
 2925SOL     OW 9673   5.025   0.126   5.946
 2925SOL    HW1 9674   5.118   0.162   5.933
 2925SOL    HW2 9675   4.987   0.164   6.031
 2926SOL     OW 9676   0.005   2.240   4.505
 2926SOL    HW1 9677   0.032   2.145   4.520
 2926SOL    HW2 9678   0.040   2.271   4.417
 2927SOL     OW 9679   1.145   2.363   2.110
 2927SOL    HW1 9680   1.218   2.420   2.147
 2927SOL    HW2 9681   1.102   2.311   2.184
 2928SOL     OW 9682   0.149   2.937   0.138
 2928SOL    HW1 9683   0.221   2.867   0.135
 2928SOL    HW2 9684   0.097   2.928   0.223
 2929SOL     OW 9685   2.585   2.531   5.140
 2929SOL    HW1 9686   2.669   2.559   5.185
 2929SOL    HW2 9687   2.512   2.597   5.160
 2930SOL     OW 9688   6.656   4.839   5.207
 2930SOL    HW1 9689   6.627   4.909   5.141
 2930SOL    HW2 9690   6.711   4.882   5.278
 2931SOL     OW 9691   5.088   4.514   5.679
 2931SOL    HW1 9692   5.152   4.563   5.620
 2931SOL    HW2 9693   5.041   4.579   5.739
 2932SOL     OW 9694   6.421   5.267   0.675
 2932SOL    HW1 9695   6.333   5.311   0.692
 2932SOL    HW2 9696   6.459   5.302   0.589
 2933SOL     OW 9697   1.449   0.226   1.208
 2933SOL    HW1 9698   1.450   0.245   1.306
 2933SOL    HW2 9699   1.442   0.313   1.158
 2934SOL     OW 9700   4.146   5.059   0.366
 2934SOL    HW1 9701   4.169   5.062   0.269
 2934SOL    HW2 9702   4.049   5.036   0.376
 2935SOL     OW 9703   0.113   2.566   6.235
 2935SOL    HW1 9704   0.210   2.561   6.260
 2935SOL    HW2 9705   0.079   2.659   6.248
 2936SOL     OW 9706   4.388   6.459   0.540
 2936SOL    HW1 9707   4.389   6.503   0.450
 2936SOL    HW2 9708   4.318   6.503   0.597
 2937SOL     OW 9709   4.887   4.913   2.252
 2937SOL    HW1 9710   4.941   4.849   2.198
 2937SOL    HW2 9711   4.876   4.998   2.201
 2938SOL     OW 9712   6.405   5.827   0.028
 2938SOL    HW1 9713   6.449   5.805   0.115
 2938SOL    HW2 9714   6.309   5.798   0.031
 2939SOL     OW 9715   0.147   5.621   1.495
 2939SOL    HW1 9716   0.229   5.614   1.551
 2939SOL    HW2 9717   0.154   5.700   1.435
 2940SOL     OW 9718   4.629   6.343   3.482
 2940SOL    HW1 9719   4.575   6.400   3.420
 2940SOL    HW2 9720   4.671   6.400   3.552
 2941SOL     OW 9721   1.441   3.881   3.615
 2941SOL    HW1 9722   1.527   3.921   3.645
 2941SOL    HW2 9723   1.395   3.838   3.693
 2942SOL     OW 9724   3.665   1.679   1.522
 2942SOL    HW1 9725   3.691   1.776   1.519
 2942SOL    HW2 9726   3.583   1.665   1.467
 2943SOL     OW 9727   5.827   3.992   3.472
 2943SOL    HW1 9728   5.775   4.020   3.391
 2943SOL    HW2 9729   5.862   4.072   3.519
 2944SOL     OW 9730   1.609   5.691   3.122
 2944SOL    HW1 9731   1.628   5.713   3.218
 2944SOL    HW2 9732   1.656   5.757   3.064
 2945SOL     OW 9733   5.253   4.520   1.482
 2945SOL    HW1 9734   5.282   4.517   1.386
 2945SOL    HW2 9735   5.333   4.510   1.541
 2946SOL     OW 9736   3.335   3.725   5.634
 2946SOL    HW1 9737   3.252   3.669   5.638
 2946SOL    HW2 9738   3.350   3.757   5.541
 2947SOL     OW 9739   5.784   6.579   0.327
 2947SOL    HW1 9740   5.791   6.542   0.420
 2947SOL    HW2 9741   5.827   6.669   0.323
 2948SOL     OW 9742   6.350   3.994   2.295
 2948SOL    HW1 9743   6.347   4.032   2.387
 2948SOL    HW2 9744   6.441   4.008   2.256
 2949SOL     OW 9745   1.324   6.759   0.677
 2949SOL    HW1 9746   1.418   6.734   0.655
 2949SOL    HW2 9747   1.291   6.702   0.752
 2950SOL     OW 9748   5.394   4.323   3.177
 2950SOL    HW1 9749   5.315   4.369   3.137
 2950SOL    HW2 9750   5.388   4.225   3.162
 2951SOL     OW 9751   6.358   1.536   1.748
 2951SOL    HW1 9752   6.457   1.536   1.763
 2951SOL    HW2 9753   6.315   1.602   1.809
 2952SOL     OW 9754   5.567   1.641   4.361
 2952SOL    HW1 9755   5.581   1.619   4.264
 2952SOL    HW2 9756   5.481   1.691   4.372
 2953SOL     OW 9757   0.966   5.778   4.444
 2953SOL    HW1 9758   1.035   5.790   4.372
 2953SOL    HW2 9759   0.977   5.688   4.486
 2954SOL     OW 9760   6.821   4.590   5.929
 2954SOL    HW1 9761   6.724   4.586   5.905
 2954SOL    HW2 9762   6.876   4.583   5.846
 2955SOL     OW 9763   2.118   4.826   6.719
 2955SOL    HW1 9764   2.152   4.875   6.800
 2955SOL    HW2 9765   2.151   4.732   6.721
 2956SOL     OW 9766   6.173   4.321   3.498
 2956SOL    HW1 9767   6.182   4.278   3.408
 2956SOL    HW2 9768   6.173   4.420   3.487
 2957SOL     OW 9769   2.821   4.974   1.475
 2957SOL    HW1 9770   2.844   4.878   1.459
 2957SOL    HW2 9771   2.882   5.032   1.422
 2958SOL     OW 9772   2.680   5.268   2.576
 2958SOL    HW1 9773   2.610   5.251   2.645
 2958SOL    HW2 9774   2.641   5.255   2.485
 2959SOL     OW 9775   6.992   2.846   2.985
 2959SOL    HW1 9776   0.007   2.849   3.080
 2959SOL    HW2 9777   6.892   2.843   2.983
 2960SOL     OW 9778   4.571   0.519   0.219
 2960SOL    HW1 9779   4.493   0.543   0.161
 2960SOL    HW2 9780   4.656   0.539   0.171
 2961SOL     OW 9781   5.706   4.045   2.290
 2961SOL    HW1 9782   5.620   4.091   2.310
 2961SOL    HW2 9783   5.733   4.063   2.196
 2962SOL     OW 9784   0.304   6.805   2.662
 2962SOL    HW1 9785   0.293   6.869   2.587
 2962SOL    HW2 9786   0.259   6.719   2.639
 2963SOL     OW 9787   1.914   1.257   4.554
 2963SOL    HW1 9788   1.952   1.171   4.518
 2963SOL    HW2 9789   1.967   1.285   4.634
 2964SOL     OW 9790   1.287   2.005   0.264
 2964SOL    HW1 9791   1.291   1.946   0.183
 2964SOL    HW2 9792   1.371   2.057   0.272
 2965SOL     OW 9793   1.339   6.997   4.624
 2965SOL    HW1 9794   1.299   0.064   4.587
 2965SOL    HW2 9795   1.386   0.001   4.710
 2966SOL     OW 9796   3.450   5.875   3.012
 2966SOL    HW1 9797   3.367   5.830   3.044
 2966SOL    HW2 9798   3.425   5.956   2.958
 2967SOL     OW 9799   5.998   0.086   5.526
 2967SOL    HW1 9800   5.930   0.052   5.591
 2967SOL    HW2 9801   6.085   0.039   5.542
 2968SOL     OW 9802   2.024   2.511   1.114
 2968SOL    HW1 9803   2.049   2.607   1.116
 2968SOL    HW2 9804   2.063   2.469   1.032
 2969SOL     OW 9805   5.184   3.232   4.638
 2969SOL    HW1 9806   5.104   3.189   4.679
 2969SOL    HW2 9807   5.259   3.234   4.704
 2970SOL     OW 9808   2.567   2.328   4.246
 2970SOL    HW1 9809   2.552   2.419   4.207
 2970SOL    HW2 9810   2.581   2.337   4.345
 2971SOL     OW 9811   5.560   2.930   6.108
 2971SOL    HW1 9812   5.468   2.919   6.145
 2971SOL    HW2 9813   5.627   2.915   6.181
 2972SOL     OW 9814   5.738   4.834   0.036
 2972SOL    HW1 9815   5.770   4.760   6.994
 2972SOL    HW2 9816   5.663   4.802   0.094
 2973SOL     OW 9817   4.626   1.224   2.332
 2973SOL    HW1 9818   4.571   1.282   2.392
 2973SOL    HW2 9819   4.573   1.198   2.252
 2974SOL     OW 9820   4.646   6.106   3.124
 2974SOL    HW1 9821   4.591   6.046   3.065
 2974SOL    HW2 9822   4.640   6.074   3.218
 2975SOL     OW 9823   4.748   4.125   4.237
 2975SOL    HW1 9824   4.776   4.071   4.316
 2975SOL    HW2 9825   4.693   4.203   4.268
 2976SOL     OW 9826   4.168   2.272   2.218
 2976SOL    HW1 9827   4.082   2.243   2.176
 2976SOL    HW2 9828   4.232   2.299   2.146
 2977SOL     OW 9829   1.310   0.947   1.367
 2977SOL    HW1 9830   1.214   0.925   1.386
 2977SOL    HW2 9831   1.364   0.863   1.366
 2978SOL     OW 9832   4.434   5.311   6.197
 2978SOL    HW1 9833   4.529   5.328   6.222
 2978SOL    HW2 9834   4.392   5.251   6.265
 2979SOL     OW 9835   3.397   0.780   4.089
 2979SOL    HW1 9836   3.388   0.879   4.078
 2979SOL    HW2 9837   3.452   0.743   4.015
 2980SOL     OW 9838   3.694   3.605   5.990
 2980SOL    HW1 9839   3.638   3.601   5.907
 2980SOL    HW2 9840   3.724   3.699   6.005
 2981SOL     OW 9841   1.448   0.730   1.069
 2981SOL    HW1 9842   1.377   0.796   1.044
 2981SOL    HW2 9843   1.536   0.760   1.032
 2982SOL     OW 9844   0.583   0.259   1.651
 2982SOL    HW1 9845   0.548   0.302   1.569
 2982SOL    HW2 9846   0.529   0.177   1.672
 2983SOL     OW 9847   6.025   2.912   5.933
 2983SOL    HW1 9848   6.120   2.882   5.929
 2983SOL    HW2 9849   6.007   2.976   5.859
 2984SOL     OW 9850   0.274   4.849   0.538
 2984SOL    HW1 9851   0.231   4.861   0.448
 2984SOL    HW2 9852   0.231   4.772   0.585
 2985SOL     OW 9853   0.082   6.735   5.173
 2985SOL    HW1 9854   0.109   6.721   5.078
 2985SOL    HW2 9855   0.161   6.766   5.226
 2986SOL     OW 9856   3.868   3.981   2.673
 2986SOL    HW1 9857   3.932   4.055   2.694
 2986SOL    HW2 9858   3.895   3.936   2.588
 2987SOL     OW 9859   1.805   0.366   4.400
 2987SOL    HW1 9860   1.738   0.440   4.409
 2987SOL    HW2 9861   1.757   0.280   4.386
 2988SOL     OW 9862   0.775   1.677   6.862
 2988SOL    HW1 9863   0.745   1.627   6.782
 2988SOL    HW2 9864   0.740   1.771   6.859
 2989SOL     OW 9865   5.197   3.391   4.409
 2989SOL    HW1 9866   5.195   3.333   4.490
 2989SOL    HW2 9867   5.174   3.485   4.434
 2990SOL     OW 9868   5.099   1.376   4.296
 2990SOL    HW1 9869   5.147   1.339   4.217
 2990SOL    HW2 9870   5.073   1.471   4.278
 2991SOL     OW 9871   6.491   4.364   0.982
 2991SOL    HW1 9872   6.559   4.437   0.992
 2991SOL    HW2 9873   6.445   4.350   1.070
 2992SOL     OW 9874   0.254   3.714   5.560
 2992SOL    HW1 9875   0.232   3.804   5.524
 2992SOL    HW2 9876   0.343   3.685   5.525
 2993SOL     OW 9877   1.113   4.471   0.124
 2993SOL    HW1 9878   1.034   4.533   0.122
 2993SOL    HW2 9879   1.081   4.377   0.130
 2994SOL     OW 9880   4.284   6.676   6.610
 2994SOL    HW1 9881   4.277   6.763   6.658
 2994SOL    HW2 9882   4.209   6.616   6.637
 2995SOL     OW 9883   5.321   0.718   0.951
 2995SOL    HW1 9884   5.306   0.751   1.045
 2995SOL    HW2 9885   5.404   0.663   0.948
 2996SOL     OW 9886   0.315   1.657   4.754
 2996SOL    HW1 9887   0.260   1.703   4.683
 2996SOL    HW2 9888   0.390   1.717   4.781
 2997SOL     OW 9889   5.301   0.360   3.477
 2997SOL    HW1 9890   5.237   0.422   3.523
 2997SOL    HW2 9891   5.326   0.399   3.388
 2998SOL     OW 9892   2.397   1.668   2.519
 2998SOL    HW1 9893   2.415   1.638   2.613
 2998SOL    HW2 9894   2.393   1.768   2.517
 2999SOL     OW 9895   2.544   4.409   0.427
 2999SOL    HW1 9896   2.585   4.327   0.387
 2999SOL    HW2 9897   2.565   4.488   0.369
 3000SOL     OW 9898   2.962   3.897   5.007
 3000SOL    HW1 9899   2.941   3.818   4.951
 3000SOL    HW2 9900   2.924   3.884   5.099
 3001SOL     OW 9901   5.994   0.470   5.959
 3001SOL    HW1 9902   5.920   0.409   5.931
 3001SOL    HW2 9903   6.079   0.444   5.912
 3002SOL     OW 9904   2.187   2.082   1.750
 3002SOL    HW1 9905   2.268   2.027   1.727
 3002SOL    HW2 9906   2.148   2.050   1.836
 3003SOL     OW 9907   1.139   6.414   6.753
 3003SOL    HW1 9908   1.153   6.446   6.846
 3003SOL    HW2 9909   1.064   6.466   6.711
 3004SOL     OW 9910   2.441   6.514   3.756
 3004SOL    HW1 9911   2.443   6.586   3.825
 3004SOL    HW2 9912   2.500   6.439   3.785
 3005SOL     OW 9913   0.992   2.442   5.884
 3005SOL    HW1 9914   0.892   2.445   5.873
 3005SOL    HW2 9915   1.032   2.521   5.838
 3006SOL     OW 9916   5.240   1.539   5.516
 3006SOL    HW1 9917   5.237   1.540   5.416
 3006SOL    HW2 9918   5.294   1.616   5.548
 3007SOL     OW 9919   5.345   5.068   6.924
 3007SOL    HW1 9920   5.440   5.077   6.955
 3007SOL    HW2 9921   5.334   4.978   6.881
 3008SOL     OW 9922   5.170   2.655   5.865
 3008SOL    HW1 9923   5.102   2.628   5.934
 3008SOL    HW2 9924   5.144   2.743   5.826
 3009SOL     OW 9925   6.952   3.687   2.202
 3009SOL    HW1 9926   0.026   3.707   2.241
 3009SOL    HW2 9927   6.950   3.719   2.107
 3010SOL     OW 9928   4.102   6.089   6.145
 3010SOL    HW1 9929   4.195   6.079   6.183
 3010SOL    HW2 9930   4.101   6.163   6.079
 3011SOL     OW 9931   6.946   0.007   0.901
 3011SOL    HW1 9932   6.952   0.056   0.814
 3011SOL    HW2 9933   6.911   0.068   0.972
 3012SOL     OW 9934   2.639   2.624   5.736
 3012SOL    HW1 9935   2.591   2.628   5.823
 3012SOL    HW2 9936   2.631   2.532   5.698
 3013SOL     OW 9937   0.834   4.852   5.094
 3013SOL    HW1 9938   0.856   4.943   5.059
 3013SOL    HW2 9939   0.766   4.809   5.035
 3014SOL     OW 9940   4.800   0.227   5.490
 3014SOL    HW1 9941   4.871   0.228   5.560
 3014SOL    HW2 9942   4.710   0.236   5.533
 3015SOL     OW 9943   1.296   1.164   0.021
 3015SOL    HW1 9944   1.223   1.109   6.998
 3015SOL    HW2 9945   1.298   1.149   0.120
 3016SOL     OW 9946   1.594   6.793   4.277
 3016SOL    HW1 9947   1.623   6.842   4.360
 3016SOL    HW2 9948   1.538   6.714   4.304
 3017SOL     OW 9949   0.156   5.370   0.507
 3017SOL    HW1 9950   0.084   5.341   0.570
 3017SOL    HW2 9951   0.180   5.465   0.526
 3018SOL     OW 9952   3.197   0.082   0.503
 3018SOL    HW1 9953   3.207   7.000   0.520
 3018SOL    HW2 9954   3.286   0.126   0.508
 3019SOL     OW 9955   1.913   0.501   5.225
 3019SOL    HW1 9956   1.829   0.446   5.230
 3019SOL    HW2 9957   1.969   0.469   5.149
 3020SOL     OW 9958   5.765   3.512   6.960
 3020SOL    HW1 9959   5.736   3.549   0.032
 3020SOL    HW2 9960   5.787   3.586   6.897
 3021SOL     OW 9961   4.240   6.488   4.642
 3021SOL    HW1 9962   4.270   6.583   4.627
 3021SOL    HW2 9963   4.221   6.445   4.554
 3022SOL     OW 9964   4.009   5.631   3.730
 3022SOL    HW1 9965   4.035   5.721   3.695
 3022SOL    HW2 9966   4.088   5.570   3.724
 3023SOL     OW 9967   5.067   6.454   2.648
 3023SOL    HW1 9968   5.124   6.536   2.653
 3023SOL    HW2 9969   4.972   6.479   2.666
 3024SOL     OW 9970   6.949   6.066   6.454
 3024SOL    HW1 9971   6.942   6.115   6.367
 3024SOL    HW2 9972   6.979   6.129   6.526
 3025SOL     OW 9973   3.386   6.219   0.552
 3025SOL    HW1 9974   3.379   6.131   0.505
 3025SOL    HW2 9975   3.350   6.210   0.645
 3026SOL     OW 9976   6.389   0.901   0.683
 3026SOL    HW1 9977   6.354   0.964   0.614
 3026SOL    HW2 9978   6.468   0.851   0.646
 3027SOL     OW 9979   4.899   1.320   1.266
 3027SOL    HW1 9980   4.922   1.360   1.177
 3027SOL    HW2 9981   4.825   1.254   1.254
 3028SOL     OW 9982   3.435   4.079   5.528
 3028SOL    HW1 9983   3.531   4.100   5.508
 3028SOL    HW2 9984   3.402   4.010   5.465
 3029SOL     OW 9985   0.609   2.632   4.520
 3029SOL    HW1 9986   0.628   2.553   4.578
 3029SOL    HW2 9987   0.689   2.693   4.519
 3030SOL     OW 9988   2.615   3.474   0.725
 3030SOL    HW1 9989   2.525   3.460   0.766
 3030SOL    HW2 9990   2.610   3.456   0.627
 3031SOL     OW 9991   0.701   6.428   1.371
 3031SOL    HW1 9992   0.710   6.476   1.458
 3031SOL    HW2 9993   0.780   6.450   1.313
 3032SOL     OW 9994   2.085   0.444   2.417
 3032SOL    HW1 9995   2.101   0.373   2.349
 3032SOL    HW2 9996   1.988   0.468   2.419
 3033SOL     OW 9997   0.019   2.312   4.221
 3033SOL    HW1 9998   0.014   2.240   4.151
 3033SOL    HW2 9999   6.943   2.337   4.249
 3034SOL     OW10000   6.847   5.393   3.261
 3034SOL    HW110001   6.756   5.411   3.226
 3034SOL    HW210002   6.894   5.328   3.201
 3035SOL     OW10003   1.242   2.837   0.046
 3035SOL    HW110004   1.220   2.928   0.010
 3035SOL    HW210005   1.165   2.802   0.099
 3036SOL     OW10006   2.977   1.969   6.625
 3036SOL    HW110007   2.918   2.011   6.693
 3036SOL    HW210008   3.069   1.957   6.662
 3037SOL     OW10009   0.284   5.538   0.206
 3037SOL    HW110010   0.345   5.475   0.158
 3037SOL    HW210011   0.320   5.631   0.197
 3038SOL     OW10012   5.849   4.591   6.897
 3038SOL    HW110013   5.947   4.572   6.899
 3038SOL    HW210014   5.812   4.565   6.808
 3039SOL     OW10015   6.849   3.963   6.946
 3039SOL    HW110016   6.828   4.059   6.929
 3039SOL    HW210017   6.796   3.905   6.884
 3040SOL     OW10018   5.088   3.800   5.916
 3040SOL    HW110019   5.174   3.829   5.957
 3040SOL    HW210020   5.077   3.846   5.827
 3041SOL     OW10021   1.907   3.944   5.042
 3041SOL    HW110022   1.887   4.037   5.011
 3041SOL    HW210023   1.866   3.929   5.132
 3042SOL     OW10024   6.994   5.282   3.066
 3042SOL    HW110025   0.073   5.283   3.034
 3042SOL    HW210026   6.933   5.295   2.989
 3043SOL     OW10027   3.121   4.864   0.263
 3043SOL    HW110028   3.183   4.904   0.195
 3043SOL    HW210029   3.166   4.862   0.352
 3044SOL     OW10030   3.598   3.664   5.177
 3044SOL    HW110031   3.691   3.632   5.192
 3044SOL    HW210032   3.599   3.738   5.109
 3045SOL     OW10033   4.643   1.720   1.843
 3045SOL    HW110034   4.723   1.769   1.878
 3045SOL    HW210035   4.631   1.635   1.895
 3046SOL     OW10036   5.477   5.981   1.235
 3046SOL    HW110037   5.518   5.893   1.211
 3046SOL    HW210038   5.453   6.031   1.152
 3047SOL     OW10039   6.235   1.030   5.657
 3047SOL    HW110040   6.327   1.032   5.619
 3047SOL    HW210041   6.188   0.946   5.630
 3048SOL     OW10042   3.480   4.045   0.849
 3048SOL    HW110043   3.525   4.096   0.922
 3048SOL    HW210044   3.520   3.953   0.843
 3049SOL     OW10045   1.340   0.829   3.806
 3049SOL    HW110046   1.371   0.734   3.801
 3049SOL    HW210047   1.348   0.871   3.716
 3050SOL     OW10048   2.775   2.013   1.647
 3050SOL    HW110049   2.680   2.033   1.627
 3050SOL    HW210050   2.782   1.967   1.735
 3051SOL     OW10051   2.175   5.083   5.291
 3051SOL    HW110052   2.162   5.020   5.214
 3051SOL    HW210053   2.265   5.125   5.285
 3052SOL     OW10054   6.756   6.497   2.393
 3052SOL    HW110055   6.702   6.569   2.348
 3052SOL    HW210056   6.801   6.536   2.473
 3053SOL     OW10057   1.538   4.258   6.963
 3053SOL    HW110058   1.462   4.291   0.002
 3053SOL    HW210059   1.503   4.202   6.888
 3054SOL     OW10060   5.748   1.265   2.604
 3054SOL    HW110061   5.726   1.359   2.577
 3054SOL    HW210062   5.759   1.261   2.703
 3055SOL     OW10063   5.934   5.738   6.674
 3055SOL    HW110064   6.014   5.799   6.678
 3055SOL    HW210065   5.964   5.646   6.650
 3056SOL     OW10066   4.687   1.336   5.874
 3056SOL    HW110067   4.771   1.376   5.836
 3056SOL    HW210068   4.700   1.319   5.972
 3057SOL     OW10069   5.857   5.075   2.989
 3057SOL    HW110070   5.838   5.031   3.077
 3057SOL    HW210071   5.955   5.089   2.980
 3058SOL     OW10072   0.820   4.893   6.760
 3058SOL    HW110073   0.799   4.864   6.666
 3058SOL    HW210074   0.832   4.812   6.817
 3059SOL     OW10075   1.979   2.289   4.269
 3059SOL    HW110076   2.057   2.289   4.331
 3059SOL    HW210077   2.010   2.266   4.177
 3060SOL     OW10078   5.007   4.980   5.018
 3060SOL    HW110079   5.048   4.889   5.032
 3060SOL    HW210080   5.027   5.011   4.925
 3061SOL     OW10081   5.111   5.621   5.166
 3061SOL    HW110082   5.155   5.574   5.090
 3061SOL    HW210083   5.037   5.678   5.131
 3062SOL     OW10084   4.760   4.585   1.591
 3062SOL    HW110085   4.858   4.577   1.611
 3062SOL    HW210086   4.711   4.508   1.631
 3063SOL     OW10087   0.018   4.280   1.587
 3063SOL    HW110088   0.088   4.211   1.570
 3063SOL    HW210089   0.026   4.353   1.518
 3064SOL     OW10090   4.813   1.964   6.578
 3064SOL    HW110091   4.856   2.052   6.599
 3064SOL    HW210092   4.840   1.896   6.645
 3065SOL     OW10093   0.010   1.437   6.395
 3065SOL    HW110094   0.022   1.480   6.306
 3065SOL    HW210095   0.090   1.380   6.416
 3066SOL     OW10096   5.220   6.192   5.655
 3066SOL    HW110097   5.251   6.284   5.630
 3066SOL    HW210098   5.247   6.127   5.584
 3067SOL     OW10099   1.365   1.928   5.940
 3067SOL    HW110100   1.464   1.925   5.927
 3067SOL    HW210101   1.324   1.986   5.869
 3068SOL     OW10102   0.969   0.873   0.655
 3068SOL    HW110103   0.940   0.949   0.713
 3068SOL    HW210104   0.920   0.790   0.681
 3069SOL     OW10105   5.235   0.039   2.810
 3069SOL    HW110106   5.158   7.004   2.772
 3069SOL    HW210107   5.220   0.137   2.795
 3070SOL     OW10108   2.095   0.707   0.941
 3070SOL    HW110109   2.063   0.633   0.882
 3070SOL    HW210110   2.173   0.752   0.899
 3071SOL     OW10111   0.152   3.835   4.411
 3071SOL    HW110112   0.116   3.764   4.350
 3071SOL    HW210113   0.113   3.823   4.503
 3072SOL     OW10114   2.110   0.068   6.089
 3072SOL    HW110115   2.025   0.120   6.084
 3072SOL    HW210116   2.094   6.991   6.058
 3073SOL     OW10117   5.986   5.083   1.306
 3073SOL    HW110118   5.922   5.005   1.306
 3073SOL    HW210119   6.069   5.057   1.257
 3074SOL     OW10120   1.699   3.386   1.133
 3074SOL    HW110121   1.737   3.329   1.060
 3074SOL    HW210122   1.768   3.402   1.203
 3075SOL     OW10123   3.243   5.749   2.179
 3075SOL    HW110124   3.316   5.817   2.168
 3075SOL    HW210125   3.277   5.659   2.154
 3076SOL     OW10126   0.608   0.533   4.951
 3076SOL    HW110127   0.609   0.510   5.048
 3076SOL    HW210128   0.686   0.491   4.906
 3077SOL     OW10129   6.310   3.837   2.648
 3077SOL    HW110130   6.229   3.849   2.592
 3077SOL    HW210131   6.296   3.881   2.737
 3078SOL     OW10132   6.780   2.927   1.671
 3078SOL    HW110133   6.723   2.875   1.734
 3078SOL    HW210134   6.867   2.949   1.715
 3079SOL     OW10135   2.094   3.203   5.424
 3079SOL    HW110136   2.161   3.160   5.483
 3079SOL    HW210137   2.087   3.151   5.338
 3080SOL     OW10138   4.359   4.974   0.802
 3080SOL    HW110139   4.276   4.988   0.856
 3080SOL    HW210140   4.371   4.876   0.785
 3081SOL     OW10141   1.673   4.074   0.105
 3081SOL    HW110142   1.637   4.089   0.197
 3081SOL    HW210143   1.649   4.152   0.047
 3082SOL     OW10144   4.634   5.580   4.712
 3082SOL    HW110145   4.638   5.607   4.808
 3082SOL    HW210146   4.726   5.584   4.672
 3083SOL     OW10147   3.501   5.717   1.925
 3083SOL    HW110148   3.463   5.808   1.941
 3083SOL    HW210149   3.449   5.649   1.976
 3084SOL     OW10150   0.669   3.514   3.950
 3084SOL    HW110151   0.724   3.539   3.871
 3084SOL    HW210152   0.709   3.434   3.994
 3085SOL     OW10153   5.303   4.362   0.209
 3085SOL    HW110154   5.307   4.301   0.130
 3085SOL    HW210155   5.386   4.351   0.263
 3086SOL     OW10156   5.758   0.123   6.551
 3086SOL    HW110157   5.834   0.057   6.556
 3086SOL    HW210158   5.687   0.095   6.615
 3087SOL     OW10159   3.038   0.051   2.160
 3087SOL    HW110160   3.114   0.031   2.221
 3087SOL    HW210161   3.033   6.997   2.089
 3088SOL     OW10162   1.662   2.806   5.823
 3088SOL    HW110163   1.663   2.876   5.752
 3088SOL    HW210164   1.648   2.716   5.781
 3089SOL     OW10165   4.243   6.684   4.960
 3089SOL    HW110166   4.310   6.651   4.894
 3089SOL    HW210167   4.285   6.689   5.050
 3090SOL     OW10168   1.479   1.635   2.674
 3090SOL    HW110169   1.448   1.668   2.585
 3090SOL    HW210170   1.533   1.706   2.719
 3091SOL     OW10171   0.990   2.293   1.369
 3091SOL    HW110172   0.928   2.218   1.387
 3091SOL    HW210173   1.084   2.258   1.359
 3092SOL     OW10174   6.533   1.046   2.444
 3092SOL    HW110175   6.478   1.115   2.491
 3092SOL    HW210176   6.510   0.955   2.477
 3093SOL     OW10177   5.506   4.723   6.771
 3093SOL    HW110178   5.521   4.636   6.817
 3093SOL    HW210179   5.412   4.753   6.785
 3094SOL     OW10180   2.705   1.415   6.176
 3094SOL    HW110181   2.698   1.471   6.093
 3094SOL    HW210182   2.667   1.466   6.253
 3095SOL     OW10183   1.878   3.440   4.984
 3095SOL    HW110184   1.930   3.377   5.042
 3095SOL    HW210185   1.941   3.488   4.922
 3096SOL     OW10186   0.401   3.977   4.315
 3096SOL    HW110187   0.383   4.049   4.381
 3096SOL    HW210188   0.334   3.904   4.326
 3097SOL     OW10189   5.383   2.349   5.736
 3097SOL    HW110190   5.316   2.328   5.665
 3097SOL    HW210191   5.454   2.408   5.698
 3098SOL     OW10192   1.940   2.769   1.796
 3098SOL    HW110193   1.952   2.718   1.711
 3098SOL    HW210194   1.951   2.707   1.874
 3099SOL     OW10195   0.479   6.096   4.302
 3099SOL    HW110196   0.576   6.073   4.298
 3099SOL    HW210197   0.426   6.015   4.326
 3100SOL     OW10198   6.665   5.576   2.422
 3100SOL    HW110199   6.616   5.656   2.387
 3100SOL    HW210200   6.691   5.516   2.347
 3101SOL     OW10201   3.500   6.421   5.422
 3101SOL    HW110202   3.485   6.407   5.324
 3101SOL    HW210203   3.591   6.461   5.436
 3102SOL     OW10204   0.053   5.166   1.009
 3102SOL    HW110205   0.110   5.128   0.936
 3102SOL    HW210206   0.097   5.247   1.047
 3103SOL     OW10207   3.442   0.703   1.429
 3103SOL    HW110208   3.401   0.758   1.501
 3103SOL    HW210209   3.409   0.734   1.340
 3104SOL     OW10210   4.654   0.665   5.950
 3104SOL    HW110211   4.560   0.681   5.921
 3104SOL    HW210212   4.666   0.569   5.974
 3105SOL     OW10213   6.094   3.923   6.962
 3105SOL    HW110214   6.112   3.999   6.899
 3105SOL    HW210215   6.176   3.866   6.970
 3106SOL     OW10216   6.263   0.081   5.167
 3106SOL    HW110217   6.279   0.165   5.114
 3106SOL    HW210218   6.349   0.050   5.207
 3107SOL     OW10219   3.729   1.447   6.144
 3107SOL    HW110220   3.665   1.465   6.069
 3107SOL    HW210221   3.764   1.534   6.179
 3108SOL     OW10222   1.965   4.095   3.451
 3108SOL    HW110223   2.014   4.045   3.380
 3108SOL    HW210224   1.922   4.176   3.412
 3109SOL     OW10225   6.472   5.824   3.863
 3109SOL    HW110226   6.521   5.855   3.782
 3109SOL    HW210227   6.466   5.898   3.929
 3110SOL     OW10228   1.044   4.435   3.411
 3110SOL    HW110229   1.054   4.341   3.445
 3110SOL    HW210230   0.975   4.482   3.466
 3111SOL     OW10231   5.499   4.455   4.248
 3111SOL    HW110232   5.407   4.415   4.252
 3111SOL    HW210233   5.495   4.545   4.205
 3112SOL     OW10234   3.624   1.722   6.923
 3112SOL    HW110235   3.657   1.686   7.011
 3112SOL    HW210236   3.638   1.821   6.921
 3113SOL     OW10237   2.321   5.833   3.580
 3113SOL    HW110238   2.408   5.787   3.599
 3113SOL    HW210239   2.319   5.863   3.484
 3114SOL     OW10240   4.341   0.973   6.631
 3114SOL    HW110241   4.312   0.945   6.723
 3114SOL    HW210242   4.355   0.891   6.575
 3115SOL     OW10243   4.809   4.860   5.424
 3115SOL    HW110244   4.742   4.932   5.405
 3115SOL    HW210245   4.880   4.895   5.485
 3116SOL     OW10246   0.603   1.673   1.069
 3116SOL    HW110247   0.666   1.596   1.072
 3116SOL    HW210248   0.537   1.666   1.144
 3117SOL     OW10249   4.957   1.418   5.866
 3117SOL    HW110250   4.998   1.474   5.794
 3117SOL    HW210251   5.001   1.329   5.867
 3118SOL     OW10252   1.252   0.751   3.277
 3118SOL    HW110253   1.280   0.813   3.204
 3118SOL    HW210254   1.158   0.721   3.260
 3119SOL     OW10255   4.347   4.906   5.708
 3119SOL    HW110256   4.395   4.992   5.728
 3119SOL    HW210257   4.291   4.917   5.626
 3120SOL     OW10258   1.726   6.392   4.876
 3120SOL    HW110259   1.798   6.395   4.945
 3120SOL    HW210260   1.638   6.412   4.919
 3121SOL     OW10261   4.826   1.366   4.733
 3121SOL    HW110262   4.872   1.449   4.765
 3121SOL    HW210263   4.782   1.385   4.646
 3122SOL     OW10264   3.673   5.263   4.478
 3122SOL    HW110265   3.683   5.165   4.495
 3122SOL    HW210266   3.650   5.309   4.564
 3123SOL     OW10267   2.139   1.938   3.847
 3123SOL    HW110268   2.085   1.877   3.789
 3123SOL    HW210269   2.231   1.900   3.859
 3124SOL     OW10270   5.249   6.840   3.644
 3124SOL    HW110271   5.238   6.912   3.713
 3124SOL    HW210272   5.234   6.878   3.553
 3125SOL     OW10273   1.512   1.591   5.444
 3125SOL    HW110274   1.458   1.615   5.363
 3125SOL    HW210275   1.487   1.652   5.520
 3126SOL     OW10276   5.843   5.301   4.692
 3126SOL    HW110277   5.798   5.245   4.622
 3126SOL    HW210278   5.881   5.242   4.763
 3127SOL     OW10279   0.101   1.297   4.843
 3127SOL    HW110280   0.060   1.211   4.874
 3127SOL    HW210281   0.197   1.300   4.872
 3128SOL     OW10282   4.310   0.616   0.108
 3128SOL    HW110283   4.224   0.565   0.105
 3128SOL    HW210284   4.311   0.674   0.190
 3129SOL     OW10285   4.577   3.561   0.480
 3129SOL    HW110286   4.594   3.486   0.415
 3129SOL    HW210287   4.617   3.537   0.569
 3130SOL     OW10288   1.268   4.411   1.996
 3130SOL    HW110289   1.260   4.366   2.085
 3130SOL    HW210290   1.177   4.436   1.963
 3131SOL     OW10291   6.666   4.424   2.927
 3131SOL    HW110292   6.683   4.499   2.864
 3131SOL    HW210293   6.753   4.390   2.963
 3132SOL     OW10294   3.946   4.613   6.614
 3132SOL    HW110295   3.953   4.514   6.605
 3132SOL    HW210296   3.874   4.647   6.554
 3133SOL     OW10297   3.743   0.597   4.146
 3133SOL    HW110298   3.762   0.658   4.222
 3133SOL    HW210299   3.725   0.505   4.181
 3134SOL     OW10300   4.325   5.300   2.726
 3134SOL    HW110301   4.348   5.396   2.739
 3134SOL    HW210302   4.291   5.286   2.633
 3135SOL     OW10303   4.922   6.357   6.215
 3135SOL    HW110304   5.009   6.335   6.258
 3135SOL    HW210305   4.861   6.399   6.282
 3136SOL     OW10306   6.270   1.795   2.975
 3136SOL    HW110307   6.303   1.809   2.882
 3136SOL    HW210308   6.332   1.840   3.040
 3137SOL     OW10309   6.219   6.847   6.748
 3137SOL    HW110310   6.303   6.856   6.694
 3137SOL    HW210311   6.227   6.900   6.832
 3138SOL     OW10312   5.586   5.633   3.892
 3138SOL    HW110313   5.672   5.590   3.921
 3138SOL    HW210314   5.597   5.668   3.799
 3139SOL     OW10315   2.542   4.949   0.999
 3139SOL    HW110316   2.444   4.928   0.990
 3139SOL    HW210317   2.575   4.919   1.088
 3140SOL     OW10318   0.036   6.950   5.979
 3140SOL    HW110319   0.096   6.871   5.977
 3140SOL    HW210320   0.088   0.014   6.008
 3141SOL     OW10321   6.544   2.208   6.306
 3141SOL    HW110322   6.518   2.168   6.217
 3141SOL    HW210323   6.549   2.307   6.297
 3142SOL     OW10324   5.223   1.165   2.679
 3142SOL    HW110325   5.152   1.208   2.623
 3142SOL    HW210326   5.221   1.066   2.665
 3143SOL     OW10327   6.831   1.248   0.447
 3143SOL    HW110328   6.786   1.312   0.384
 3143SOL    HW210329   6.835   1.289   0.538
 3144SOL     OW10330   3.988   3.590   6.436
 3144SOL    HW110331   3.958   3.598   6.341
 3144SOL    HW210332   3.911   3.565   6.494
 3145SOL     OW10333   0.625   6.184   1.119
 3145SOL    HW110334   0.678   6.099   1.127
 3145SOL    HW210335   0.562   6.191   1.196
 3146SOL     OW10336   1.117   0.190   4.773
 3146SOL    HW110337   1.080   0.100   4.799
 3146SOL    HW210338   1.078   0.218   4.685
 3147SOL     OW10339   3.984   4.843   6.769
 3147SOL    HW110340   3.905   4.903   6.778
 3147SOL    HW210341   3.978   4.792   6.683
 3148SOL     OW10342   6.871   5.250   2.449
 3148SOL    HW110343   6.953   5.207   2.488
 3148SOL    HW210344   6.798   5.250   2.518
 3149SOL     OW10345   3.029   0.865   0.652
 3149SOL    HW110346   3.049   0.866   0.750
 3149SOL    HW210347   3.115   0.868   0.601
 3150SOL     OW10348   6.705   6.059   4.596
 3150SOL    HW110349   6.774   6.114   4.644
 3150SOL    HW210350   6.660   5.998   4.661
 3151SOL     OW10351   6.372   1.495   5.751
 3151SOL    HW110352   6.455   1.539   5.786
 3151SOL    HW210353   6.397   1.412   5.702
 3152SOL     OW10354   0.793   3.007   5.966
 3152SOL    HW110355   0.743   3.044   6.045
 3152SOL    HW210356   0.891   3.006   5.986
 3153SOL     OW10357   6.212   5.054   1.161
 3153SOL    HW110358   6.238   4.977   1.103
 3153SOL    HW210359   6.279   5.128   1.151
 3154SOL     OW10360   4.976   1.595   0.575
 3154SOL    HW110361   4.903   1.618   0.639
 3154SOL    HW210362   4.999   1.498   0.584
 3155SOL     OW10363   0.503   4.940   0.805
 3155SOL    HW110364   0.560   5.020   0.786
 3155SOL    HW210365   0.413   4.971   0.835
 3156SOL     OW10366   3.607   4.209   1.913
 3156SOL    HW110367   3.638   4.301   1.888
 3156SOL    HW210368   3.684   4.157   1.951
 3157SOL     OW10369   0.724   1.901   5.321
 3157SOL    HW110370   0.636   1.939   5.350
 3157SOL    HW210371   0.785   1.975   5.292
 3158SOL     OW10372   2.256   1.079   5.717
 3158SOL    HW110373   2.207   1.042   5.638
 3158SOL    HW210374   2.329   1.139   5.686
 3159SOL     OW10375   6.407   6.565   0.317
 3159SOL    HW110376   6.484   6.505   0.293
 3159SOL    HW210377   6.388   6.555   0.415
 3160SOL     OW10378   2.274   0.423   6.346
 3160SOL    HW110379   2.328   0.505   6.330
 3160SOL    HW210380   2.334   0.343   6.351
 3161SOL     OW10381   1.939   2.663   3.148
 3161SOL    HW110382   1.961   2.752   3.107
 3161SOL    HW210383   2.008   2.641   3.217
 3162SOL     OW10384   1.941   5.493   0.832
 3162SOL    HW110385   1.978   5.464   0.744
 3162SOL    HW210386   2.001   5.462   0.905
 3163SOL     OW10387   4.385   3.723   0.644
 3163SOL    HW110388   4.436   3.807   0.658
 3163SOL    HW210389   4.444   3.655   0.601
 3164SOL     OW10390   2.738   6.064   3.142
 3164SOL    HW110391   2.686   6.075   3.226
 3164SOL    HW210392   2.833   6.092   3.157
 3165SOL     OW10393   0.854   6.299   0.312
 3165SOL    HW110394   0.811   6.211   0.334
 3165SOL    HW210395   0.832   6.324   0.218
 3166SOL     OW10396   3.959   1.045   5.674
 3166SOL    HW110397   3.889   1.003   5.732
 3166SOL    HW210398   3.987   1.132   5.712
 3167SOL     OW10399   5.560   3.370   0.739
 3167SOL    HW110400   5.478   3.422   0.715
 3167SOL    HW210401   5.631   3.432   0.772
 3168SOL     OW10402   4.764   1.676   0.729
 3168SOL    HW110403   4.693   1.737   0.692
 3168SOL    HW210404   4.723   1.616   0.798
 3169SOL     OW10405   1.877   4.304   1.863
 3169SOL    HW110406   1.896   4.216   1.820
 3169SOL    HW210407   1.963   4.355   1.872
 3170SOL     OW10408   3.456   5.419   3.502
 3170SOL    HW110409   3.484   5.389   3.593
 3170SOL    HW210410   3.532   5.409   3.439
 3171SOL     OW10411   5.129   2.883   3.280
 3171SOL    HW110412   5.069   2.804   3.276
 3171SOL    HW210413   5.099   2.952   3.214
 3172SOL     OW10414   0.257   4.520   1.198
 3172SOL    HW110415   0.167   4.540   1.159
 3172SOL    HW210416   0.328   4.545   1.131
 3173SOL     OW10417   3.770   1.996   0.625
 3173SOL    HW110418   3.736   1.919   0.680
 3173SOL    HW210419   3.739   1.986   0.531
 3174SOL     OW10420   2.677   3.831   5.773
 3174SOL    HW110421   2.750   3.863   5.835
 3174SOL    HW210422   2.715   3.761   5.712
 3175SOL     OW10423   0.044   0.335   4.199
 3175SOL    HW110424   6.971   0.314   4.239
 3175SOL    HW210425   0.081   0.417   4.241
 3176SOL     OW10426   1.352   4.558   5.021
 3176SOL    HW110427   1.366   4.634   5.084
 3176SOL    HW210428   1.260   4.521   5.033
 3177SOL     OW10429   5.665   3.639   3.493
 3177SOL    HW110430   5.639   3.549   3.460
 3177SOL    HW210431   5.764   3.642   3.508
 3178SOL     OW10432   6.939   0.781   1.108
 3178SOL    HW110433   6.842   0.764   1.090
 3178SOL    HW210434   6.994   0.729   1.042
 3179SOL     OW10435   1.015   2.112   1.661
 3179SOL    HW110436   1.023   2.133   1.758
 3179SOL    HW210437   0.923   2.134   1.629
 3180SOL     OW10438   6.627   5.510   0.151
 3180SOL    HW110439   6.689   5.438   0.120
 3180SOL    HW210440   6.671   5.562   0.226
 3181SOL     OW10441   0.530   1.111   4.762
 3181SOL    HW110442   0.488   1.147   4.845
 3181SOL    HW210443   0.568   1.020   4.779
 3182SOL     OW10444   2.684   0.191   0.513
 3182SOL    HW110445   2.720   0.108   0.556
 3182SOL    HW210446   2.593   0.172   0.476
 3183SOL     OW10447   4.368   4.553   1.987
 3183SOL    HW110448   4.409   4.463   2.001
 3183SOL    HW210449   4.397   4.590   1.899
 3184SOL     OW10450   0.388   2.379   4.530
 3184SOL    HW110451   0.373   2.461   4.473
 3184SOL    HW210452   0.384   2.405   4.626
 3185SOL     OW10453   0.226   5.584   6.064
 3185SOL    HW110454   0.244   5.584   6.162
 3185SOL    HW210455   0.150   5.647   6.044
 3186SOL     OW10456   0.282   1.430   6.205
 3186SOL    HW110457   0.273   1.331   6.217
 3186SOL    HW210458   0.196   1.468   6.172
 3187SOL     OW10459   3.802   5.875   2.332
 3187SOL    HW110460   3.823   5.876   2.234
 3187SOL    HW210461   3.771   5.966   2.360
 3188SOL     OW10462   2.110   4.430   5.598
 3188SOL    HW110463   2.059   4.421   5.512
 3188SOL    HW210464   2.193   4.375   5.593
 3189SOL     OW10465   2.991   1.268   6.877
 3189SOL    HW110466   3.049   1.213   6.817
 3189SOL    HW210467   3.038   1.354   6.898
 3190SOL     OW10468   6.750   5.435   3.987
 3190SOL    HW110469   6.782   5.436   4.082
 3190SOL    HW210470   6.799   5.364   3.936
 3191SOL     OW10471   4.377   5.831   2.159
 3191SOL    HW110472   4.278   5.814   2.158
 3191SOL    HW210473   4.398   5.907   2.097
 3192SOL     OW10474   5.971   2.224   2.470
 3192SOL    HW110475   5.942   2.201   2.377
 3192SOL    HW210476   5.893   2.257   2.523
 3193SOL     OW10477   3.876   0.218   5.555
 3193SOL    HW110478   3.863   0.308   5.598
 3193SOL    HW210479   3.851   0.225   5.458
 3194SOL     OW10480   1.119   1.214   5.998
 3194SOL    HW110481   1.147   1.149   5.928
 3194SOL    HW210482   1.089   1.299   5.954
 3195SOL     OW10483   6.995   1.738   1.685
 3195SOL    HW110484   0.009   1.685   1.606
 3195SOL    HW210485   0.058   1.775   1.733
 3196SOL     OW10486   6.239   0.076   4.440
 3196SOL    HW110487   6.280   0.063   4.530
 3196SOL    HW210488   6.157   0.134   4.449
 3197SOL     OW10489   2.199   0.958   6.588
 3197SOL    HW110490   2.124   1.023   6.580
 3197SOL    HW210491   2.172   0.870   6.548
 3198SOL     OW10492   6.541   2.738   3.897
 3198SOL    HW110493   6.575   2.824   3.858
 3198SOL    HW210494   6.519   2.675   3.823
 3199SOL     OW10495   5.319   4.328   3.460
 3199SOL    HW110496   5.307   4.357   3.365
 3199SOL    HW210497   5.412   4.350   3.489
 3200SOL     OW10498   5.703   3.270   4.289
 3200SOL    HW110499   5.655   3.182   4.291
 3200SOL    HW210500   5.686   3.315   4.201
 3201SOL     OW10501   6.055   4.292   2.613
 3201SOL    HW110502   6.045   4.280   2.712
 3201SOL    HW210503   5.981   4.246   2.566
 3202SOL     OW10504   1.339   5.124   0.185
 3202SOL    HW110505   1.342   5.222   0.205
 3202SOL    HW210506   1.428   5.094   0.152
 3203SOL     OW10507   4.377   6.081   0.988
 3203SOL    HW110508   4.463   6.112   0.946
 3203SOL    HW210509   4.396   6.049   1.081
 3204SOL     OW10510   2.360   1.345   3.687
 3204SOL    HW110511   2.282   1.285   3.673
 3204SOL    HW210512   2.344   1.402   3.768
 3205SOL     OW10513   5.341   3.047   5.331
 3205SOL    HW110514   5.349   3.134   5.281
 3205SOL    HW210515   5.303   2.977   5.270
 3206SOL     OW10516   2.905   2.910   1.749
 3206SOL    HW110517   2.970   2.982   1.774
 3206SOL    HW210518   2.819   2.951   1.719
 3207SOL     OW10519   0.925   6.454   5.271
 3207SOL    HW110520   0.827   6.447   5.289
 3207SOL    HW210521   0.941   6.453   5.172
 3208SOL     OW10522   6.300   5.899   5.807
 3208SOL    HW110523   6.372   5.835   5.781
 3208SOL    HW210524   6.341   5.989   5.824
 3209SOL     OW10525   5.175   6.164   5.925
 3209SOL    HW110526   5.082   6.199   5.934
 3209SOL    HW210527   5.214   6.195   5.838
 3210SOL     OW10528   6.928   4.865   1.569
 3210SOL    HW110529   6.984   4.926   1.625
 3210SOL    HW210530   6.885   4.796   1.627
 3211SOL     OW10531   1.473   5.978   6.794
 3211SOL    HW110532   1.465   5.962   6.695
 3211SOL    HW210533   1.447   5.894   6.843
 3212SOL     OW10534   2.382   0.024   3.053
 3212SOL    HW110535   2.364   0.099   2.989
 3212SOL    HW210536   2.477   0.030   3.084
 3213SOL     OW10537   1.638   0.605   5.976
 3213SOL    HW110538   1.539   0.615   5.974
 3213SOL    HW210539   1.681   0.688   5.940
 3214SOL     OW10540   3.707   0.987   3.093
 3214SOL    HW110541   3.646   0.909   3.110
 3214SOL    HW210542   3.783   0.959   3.035
 3215SOL     OW10543   1.531   2.793   0.990
 3215SOL    HW110544   1.472   2.872   0.972
 3215SOL    HW210545   1.542   2.739   0.906
 3216SOL     OW10546   5.618   4.005   0.800
 3216SOL    HW110547   5.559   4.018   0.880
 3216SOL    HW210548   5.568   4.030   0.717
 3217SOL     OW10549   0.710   4.945   2.742
 3217SOL    HW110550   0.616   4.965   2.769
 3217SOL    HW210551   0.722   4.964   2.645
 3218SOL     OW10552   6.639   1.497   3.319
 3218SOL    HW110553   6.546   1.477   3.288
 3218SOL    HW210554   6.703   1.484   3.242
 3219SOL     OW10555   5.665   0.338   5.635
 3219SOL    HW110556   5.685   0.265   5.570
 3219SOL    HW210557   5.576   0.321   5.678
 3220SOL     OW10558   6.898   4.400   6.642
 3220SOL    HW110559   6.873   4.480   6.697
 3220SOL    HW210560   6.830   4.387   6.569
 3221SOL     OW10561   4.376   0.402   1.755
 3221SOL    HW110562   4.458   0.369   1.708
 3221SOL    HW210563   4.325   0.462   1.694
 3222SOL     OW10564   2.554   1.295   2.273
 3222SOL    HW110565   2.648   1.273   2.247
 3222SOL    HW210566   2.504   1.210   2.294
 3223SOL     OW10567   1.518   6.965   1.421
 3223SOL    HW110568   1.617   6.972   1.408
 3223SOL    HW210569   1.485   0.031   1.467
 3224SOL     OW10570   4.210   2.317   4.453
 3224SOL    HW110571   4.253   2.333   4.364
 3224SOL    HW210572   4.248   2.380   4.520
 3225SOL     OW10573   4.225   0.201   3.824
 3225SOL    HW110574   4.299   0.148   3.865
 3225SOL    HW210575   4.145   0.200   3.884
 3226SOL     OW10576   0.336   0.106   1.546
 3226SOL    HW110577   0.280   0.070   1.471
 3226SOL    HW210578   0.317   0.203   1.558
 3227SOL     OW10579   4.558   2.753   5.578
 3227SOL    HW110580   4.562   2.801   5.665
 3227SOL    HW210581   4.482   2.688   5.579
 3228SOL     OW10582   1.499   4.390   0.717
 3228SOL    HW110583   1.406   4.413   0.746
 3228SOL    HW210584   1.547   4.343   0.790
 3229SOL     OW10585   1.991   1.820   6.965
 3229SOL    HW110586   2.044   1.843   0.030
 3229SOL    HW210587   1.916   1.885   6.954
 3230SOL     OW10588   2.119   5.672   5.803
 3230SOL    HW110589   2.061   5.593   5.820
 3230SOL    HW210590   2.173   5.657   5.720
 3231SOL     OW10591   2.435   1.026   2.020
 3231SOL    HW110592   2.389   0.992   2.102
 3231SOL    HW210593   2.382   1.100   1.980
 3232SOL     OW10594   4.240   6.207   4.104
 3232SOL    HW110595   4.198   6.293   4.076
 3232SOL    HW210596   4.169   6.137   4.115
 3233SOL     OW10597   0.795   2.361   0.035
 3233SOL    HW110598   0.795   2.293   0.108
 3233SOL    HW210599   0.855   2.330   6.978
 3234SOL     OW10600   2.946   2.568   0.851
 3234SOL    HW110601   3.037   2.562   0.891
 3234SOL    HW210602   2.880   2.596   0.921
 3235SOL     OW10603   6.708   6.275   2.557
 3235SOL    HW110604   6.690   6.327   2.640
 3235SOL    HW210605   6.727   6.337   2.482
 3236SOL     OW10606   3.042   3.882   0.474
 3236SOL    HW110607   3.142   3.877   0.476
 3236SOL    HW210608   3.008   3.906   0.565
 3237SOL     OW10609   6.103   1.267   5.614
 3237SOL    HW110610   6.178   1.315   5.571
 3237SOL    HW210611   6.135   1.180   5.652
 3238SOL     OW10612   6.423   5.456   1.425
 3238SOL    HW110613   6.483   5.462   1.505
 3238SOL    HW210614   6.331   5.430   1.454
 3239SOL     OW10615   6.949   0.567   3.870
 3239SOL    HW110616   6.980   0.506   3.943
 3239SOL    HW210617   6.897   0.643   3.909
 3240SOL     OW10618   0.341   0.786   6.651
 3240SOL    HW110619   0.262   0.731   6.623
 3240SOL    HW210620   0.422   0.757   6.600
 3241SOL     OW10621   5.652   1.839   6.540
 3241SOL    HW110622   5.720   1.806   6.475
 3241SOL    HW210623   5.571   1.780   6.536
 3242SOL     OW10624   4.878   4.376   5.554
 3242SOL    HW110625   4.960   4.426   5.581
 3242SOL    HW210626   4.799   4.410   5.605
 3243SOL     OW10627   4.875   5.244   5.589
 3243SOL    HW110628   4.883   5.315   5.658
 3243SOL    HW210629   4.883   5.154   5.632
 3244SOL     OW10630   5.703   6.296   0.168
 3244SOL    HW110631   5.769   6.371   0.167
 3244SOL    HW210632   5.673   6.276   0.075
 3245SOL     OW10633   4.042   1.510   4.124
 3245SOL    HW110634   3.969   1.493   4.191
 3245SOL    HW210635   4.012   1.579   4.059
 3246SOL     OW10636   0.635   0.472   2.143
 3246SOL    HW110637   0.564   0.514   2.087
 3246SOL    HW210638   0.725   0.495   2.105
 3247SOL     OW10639   0.764   4.216   2.933
 3247SOL    HW110640   0.769   4.246   3.028
 3247SOL    HW210641   0.678   4.249   2.893
 3248SOL     OW10642   5.442   2.304   3.600
 3248SOL    HW110643   5.381   2.227   3.620
 3248SOL    HW210644   5.521   2.271   3.548
 3249SOL     OW10645   3.165   3.666   3.507
 3249SOL    HW110646   3.065   3.664   3.514
 3249SOL    HW210647   3.204   3.705   3.590
 3250SOL     OW10648   5.460   5.982   2.189
 3250SOL    HW110649   5.418   5.891   2.182
 3250SOL    HW210650   5.428   6.027   2.272
 3251SOL     OW10651   2.796   1.377   4.110
 3251SOL    HW110652   2.852   1.328   4.177
 3251SOL    HW210653   2.702   1.385   4.144
 3252SOL     OW10654   2.314   1.298   4.148
 3252SOL    HW110655   2.257   1.319   4.227
 3252SOL    HW210656   2.408   1.327   4.166
 3253SOL     OW10657   6.621   3.023   1.215
 3253SOL    HW110658   6.654   3.110   1.179
 3253SOL    HW210659   6.580   3.038   1.306
 3254SOL     OW10660   5.901   0.442   0.347
 3254SOL    HW110661   5.939   0.533   0.365
 3254SOL    HW210662   5.828   0.450   0.279
 3255SOL     OW10663   5.547   4.728   1.004
 3255SOL    HW110664   5.535   4.715   0.905
 3255SOL    HW210665   5.588   4.818   1.020
 3256SOL     OW10666   4.742   2.388   1.081
 3256SOL    HW110667   4.754   2.334   1.165
 3256SOL    HW210668   4.747   2.328   1.002
 3257SOL     OW10669   2.534   2.088   2.782
 3257SOL    HW110670   2.616   2.036   2.756
 3257SOL    HW210671   2.529   2.094   2.881
 3258SOL     OW10672   2.582   6.090   3.351
 3258SOL    HW110673   2.611   6.081   3.446
 3258SOL    HW210674   2.497   6.039   3.338
 3259SOL     OW10675   5.077   4.024   4.293
 3259SOL    HW110676   5.038   4.013   4.384
 3259SOL    HW210677   5.046   3.949   4.234
 3260SOL     OW10678   2.036   4.082   1.725
 3260SOL    HW110679   1.970   4.069   1.651
 3260SOL    HW210680   2.106   4.146   1.695
 3261SOL     OW10681   4.150   0.544   3.256
 3261SOL    HW110682   4.165   0.473   3.324
 3261SOL    HW210683   4.058   0.535   3.219
 3262SOL     OW10684   3.525   1.944   2.491
 3262SOL    HW110685   3.510   1.851   2.459
 3262SOL    HW210686   3.507   1.949   2.589
 3263SOL     OW10687   1.669   1.460   2.753
 3263SOL    HW110688   1.756   1.489   2.714
 3263SOL    HW210689   1.595   1.516   2.715
 3264SOL     OW10690   2.484   5.664   0.129
 3264SOL    HW110691   2.473   5.631   0.222
 3264SOL    HW210692   2.395   5.665   0.083
 3265SOL     OW10693   5.702   5.186   5.829
 3265SOL    HW110694   5.674   5.280   5.844
 3265SOL    HW210695   5.687   5.161   5.734
 3266SOL     OW10696   2.982   4.960   6.952
 3266SOL    HW110697   3.013   4.868   6.974
 3266SOL    HW210698   2.883   4.963   6.954
 3267SOL     OW10699   3.984   0.153   0.458
 3267SOL    HW110700   4.059   0.174   0.394
 3267SOL    HW210701   3.896   0.174   0.414
 3268SOL     OW10702   6.633   4.532   1.612
 3268SOL    HW110703   6.710   4.586   1.648
 3268SOL    HW210704   6.577   4.500   1.688
 3269SOL     OW10705   1.640   5.154   2.368
 3269SOL    HW110706   1.611   5.061   2.391
 3269SOL    HW210707   1.637   5.211   2.450
 3270SOL     OW10708   0.786   2.676   5.179
 3270SOL    HW110709   0.814   2.744   5.111
 3270SOL    HW210710   0.839   2.593   5.167
 3271SOL     OW10711   0.249   3.667   2.523
 3271SOL    HW110712   0.333   3.721   2.529
 3271SOL    HW210713   0.176   3.713   2.575
 3272SOL     OW10714   4.440   6.370   0.214
 3272SOL    HW110715   4.524   6.397   0.166
 3272SOL    HW210716   4.455   6.282   0.259
 3273SOL     OW10717   5.156   3.220   6.092
 3273SOL    HW110718   5.087   3.278   6.049
 3273SOL    HW210719   5.213   3.274   6.153
 3274SOL     OW10720   5.827   0.818   0.123
 3274SOL    HW110721   5.847   0.762   0.203
 3274SOL    HW210722   5.908   0.822   0.064
 3275SOL     OW10723   4.895   0.226   1.230
 3275SOL    HW110724   4.845   0.192   1.310
 3275SOL    HW210725   4.990   0.243   1.256
 3276SOL     OW10726   4.512   6.964   0.163
 3276SOL    HW110727   4.514   6.927   0.256
 3276SOL    HW210728   4.486   0.044   0.166
 3277SOL     OW10729   3.342   1.734   2.180
 3277SOL    HW110730   3.412   1.769   2.117
 3277SOL    HW210731   3.297   1.811   2.225
 3278SOL     OW10732   6.804   0.171   6.577
 3278SOL    HW110733   6.898   0.178   6.609
 3278SOL    HW210734   6.804   0.157   6.478
 3279SOL     OW10735   4.381   6.672   0.973
 3279SOL    HW110736   4.307   6.738   0.957
 3279SOL    HW210737   4.347   6.599   1.032
 3280SOL     OW10738   5.420   3.544   4.669
 3280SOL    HW110739   5.326   3.560   4.639
 3280SOL    HW210740   5.462   3.473   4.613
 3281SOL     OW10741   6.615   4.430   2.216
 3281SOL    HW110742   6.598   4.446   2.119
 3281SOL    HW210743   6.668   4.507   2.253
 3282SOL     OW10744   0.703   3.873   5.622
 3282SOL    HW110745   0.732   3.839   5.532
 3282SOL    HW210746   0.739   3.813   5.693
 3283SOL     OW10747   4.061   0.818   1.100
 3283SOL    HW110748   4.054   0.737   1.042
 3283SOL    HW210749   4.149   0.863   1.085
 3284SOL     OW10750   1.835   5.722   4.859
 3284SOL    HW110751   1.847   5.810   4.815
 3284SOL    HW210752   1.795   5.657   4.794
 3285SOL     OW10753   6.205   0.892   4.644
 3285SOL    HW110754   6.151   0.817   4.682
 3285SOL    HW210755   6.249   0.861   4.560
 3286SOL     OW10756   3.228   1.684   1.858
 3286SOL    HW110757   3.325   1.701   1.870
 3286SOL    HW210758   3.177   1.769   1.871
 3287SOL     OW10759   2.189   0.499   6.598
 3287SOL    HW110760   2.202   0.513   6.500
 3287SOL    HW210761   2.278   0.493   6.644
 3288SOL     OW10762   1.933   6.239   0.901
 3288SOL    HW110763   1.846   6.278   0.871
 3288SOL    HW210764   2.003   6.258   0.833
 3289SOL     OW10765   3.769   1.643   6.703
 3289SOL    HW110766   3.783   1.548   6.675
 3289SOL    HW210767   3.726   1.646   6.793
 3290SOL     OW10768   6.675   5.254   0.447
 3290SOL    HW110769   6.688   5.284   0.541
 3290SOL    HW210770   6.754   5.281   0.392
 3291SOL     OW10771   4.505   7.007   5.554
 3291SOL    HW110772   4.566   6.928   5.551
 3291SOL    HW210773   4.546   0.062   5.611
 3292SOL     OW10774   0.329   1.869   1.236
 3292SOL    HW110775   0.319   1.777   1.200
 3292SOL    HW210776   0.398   1.870   1.308
 3293SOL     OW10777   6.564   5.360   3.173
 3293SOL    HW110778   6.554   5.456   3.149
 3293SOL    HW210779   6.598   5.309   3.094
 3294SOL     OW10780   5.222   2.395   5.374
 3294SOL    HW110781   5.195   2.422   5.467
 3294SOL    HW210782   5.264   2.473   5.328
 3295SOL     OW10783   1.979   2.789   1.138
 3295SOL    HW110784   2.006   2.862   1.076
 3295SOL    HW210785   2.013   2.809   1.230
 3296SOL     OW10786   0.619   0.388   6.160
 3296SOL    HW110787   0.579   0.401   6.070
 3296SOL    HW210788   0.718   0.401   6.156
 3297SOL     OW10789   3.301   1.832   5.176
 3297SOL    HW110790   3.371   1.797   5.238
 3297SOL    HW210791   3.251   1.906   5.220
 3298SOL     OW10792   6.055   4.249   4.626
 3298SOL    HW110793   6.031   4.253   4.529
 3298SOL    HW210794   6.154   4.242   4.635
 3299SOL     OW10795   3.215   5.021   3.710
 3299SOL    HW110796   3.312   5.043   3.701
 3299SOL    HW210797   3.193   5.006   3.806
 3300SOL     OW10798   1.978   6.847   5.362
 3300SOL    HW110799   1.943   6.931   5.402
 3300SOL    HW210800   2.077   6.853   5.351
 3301SOL     OW10801   1.806   3.076   2.730
 3301SOL    HW110802   1.884   3.096   2.790
 3301SOL    HW210803   1.796   3.149   2.663
 3302SOL     OW10804   2.482   4.947   5.724
 3302SOL    HW110805   2.397   4.989   5.756
 3302SOL    HW210806   2.465   4.850   5.705
 3303SOL     OW10807   3.409   2.721   0.881
 3303SOL    HW110808   3.473   2.661   0.833
 3303SOL    HW210809   3.446   2.743   0.971
 3304SOL     OW10810   2.733   5.239   5.649
 3304SOL    HW110811   2.764   5.283   5.566
 3304SOL    HW210812   2.657   5.291   5.688
 3305SOL     OW10813   3.421   0.873   1.188
 3305SOL    HW110814   3.451   0.951   1.241
 3305SOL    HW210815   3.498   0.810   1.173
 3306SOL     OW10816   1.928   0.447   0.170
 3306SOL    HW110817   1.855   0.513   0.186
 3306SOL    HW210818   1.899   0.381   0.101
 3307SOL     OW10819   0.949   0.223   4.527
 3307SOL    HW110820   0.932   0.279   4.445
 3307SOL    HW210821   0.863   0.212   4.578
 3308SOL     OW10822   3.421   4.529   0.940
 3308SOL    HW110823   3.329   4.565   0.929
 3308SOL    HW210824   3.476   4.593   0.994
 3309SOL     OW10825   5.400   3.899   3.948
 3309SOL    HW110826   5.424   3.824   4.009
 3309SOL    HW210827   5.300   3.909   3.944
 3310SOL     OW10828   0.431   4.933   4.775
 3310SOL    HW110829   0.333   4.948   4.790
 3310SOL    HW210830   0.446   4.907   4.679
 3311SOL     OW10831   3.388   3.671   0.709
 3311SOL    HW110832   3.486   3.651   0.718
 3311SOL    HW210833   3.371   3.712   0.620
 3312SOL     OW10834   5.006   2.589   6.114
 3312SOL    HW110835   5.069   2.581   6.191
 3312SOL    HW210836   4.938   2.660   6.132
 3313SOL     OW10837   0.986   0.849   3.486
 3313SOL    HW110838   0.975   0.779   3.556
 3313SOL    HW210839   0.923   0.924   3.504
 3314SOL     OW10840   1.929   6.397   2.675
 3314SOL    HW110841   1.956   6.431   2.585
 3314SOL    HW210842   2.002   6.341   2.713
 3315SOL     OW10843   0.256   4.820   5.100
 3315SOL    HW110844   0.195   4.874   5.159
 3315SOL    HW210845   0.351   4.847   5.116
 3316SOL     OW10846   2.775   1.097   6.651
 3316SOL    HW110847   2.817   1.083   6.741
 3316SOL    HW210848   2.680   1.127   6.663
 3317SOL     OW10849   5.008   2.569   2.286
 3317SOL    HW110850   4.919   2.579   2.241
 3317SOL    HW210851   4.995   2.534   2.379
 3318SOL     OW10852   2.998   2.171   0.357
 3318SOL    HW110853   3.000   2.071   0.361
 3318SOL    HW210854   2.946   2.200   0.277
 3319SOL     OW10855   6.569   6.608   3.059
 3319SOL    HW110856   6.666   6.592   3.045
 3319SOL    HW210857   6.516   6.551   2.997
 3320SOL     OW10858   6.178   6.934   0.849
 3320SOL    HW110859   6.251   6.903   0.788
 3320SOL    HW210860   6.177   0.018   0.851
 3321SOL     OW10861   5.583   1.788   0.219
 3321SOL    HW110862   5.660   1.852   0.215
 3321SOL    HW210863   5.614   1.701   0.257
 3322SOL     OW10864   6.714   3.586   0.860
 3322SOL    HW110865   6.795   3.635   0.827
 3322SOL    HW210866   6.656   3.562   0.782
 3323SOL     OW10867   2.109   1.842   1.979
 3323SOL    HW110868   2.098   1.911   2.050
 3323SOL    HW210869   2.146   1.758   2.019
 3324SOL     OW10870   5.014   4.966   5.593
 3324SOL    HW110871   5.030   4.914   5.677
 3324SOL    HW210872   5.080   5.041   5.588
 3325SOL     OW10873   1.424   3.202   6.616
 3325SOL    HW110874   1.413   3.229   6.521
 3325SOL    HW210875   1.463   3.110   6.619
 3326SOL     OW10876   5.458   1.295   2.756
 3326SOL    HW110877   5.393   1.248   2.696
 3326SOL    HW210878   5.494   1.230   2.823
 3327SOL     OW10879   1.464   5.924   1.242
 3327SOL    HW110880   1.474   5.844   1.301
 3327SOL    HW210881   1.405   5.991   1.286
 3328SOL     OW10882   3.872   1.935   1.062
 3328SOL    HW110883   3.927   1.986   1.128
 3328SOL    HW210884   3.931   1.904   0.987
 3329SOL     OW10885   6.031   5.660   6.038
 3329SOL    HW110886   6.032   5.620   6.129
 3329SOL    HW210887   5.978   5.745   6.039
 3330SOL     OW10888   6.172   2.795   2.263
 3330SOL    HW110889   6.257   2.844   2.285
 3330SOL    HW210890   6.100   2.823   2.326
 3331SOL     OW10891   1.274   1.825   1.456
 3331SOL    HW110892   1.370   1.831   1.483
 3331SOL    HW210893   1.264   1.856   1.361
 3332SOL     OW10894   5.512   4.115   0.521
 3332SOL    HW110895   5.504   4.214   0.538
 3332SOL    HW210896   5.599   4.096   0.477
 3333SOL     OW10897   3.964   5.099   6.002
 3333SOL    HW110898   3.967   5.001   5.983
 3333SOL    HW210899   3.895   5.118   6.072
 3334SOL     OW10900   3.179   3.588   1.528
 3334SOL    HW110901   3.164   3.685   1.549
 3334SOL    HW210902   3.276   3.572   1.513
 3335SOL     OW10903   4.963   4.662   5.867
 3335SOL    HW110904   4.869   4.689   5.845
 3335SOL    HW210905   5.012   4.740   5.907
 3336SOL     OW10906   3.402   5.397   6.164
 3336SOL    HW110907   3.390   5.401   6.064
 3336SOL    HW210908   3.320   5.358   6.205
 3337SOL     OW10909   3.768   2.523   1.417
 3337SOL    HW110910   3.802   2.614   1.396
 3337SOL    HW210911   3.732   2.521   1.510
 3338SOL     OW10912   0.082   4.000   1.027
 3338SOL    HW110913   0.095   3.977   0.931
 3338SOL    HW210914   0.110   4.095   1.042
 3339SOL     OW10915   6.650   5.627   6.862
 3339SOL    HW110916   6.636   5.640   6.960
 3339SOL    HW210917   6.596   5.550   6.830
 3340SOL     OW10918   3.149   6.628   1.935
 3340SOL    HW110919   3.097   6.560   1.986
 3340SOL    HW210920   3.238   6.591   1.909
 3341SOL     OW10921   0.691   0.281   2.913
 3341SOL    HW110922   0.611   0.248   2.862
 3341SOL    HW210923   0.768   0.291   2.850
 3342SOL     OW10924   2.035   0.090   4.225
 3342SOL    HW110925   2.070   0.184   4.225
 3342SOL    HW210926   2.111   0.026   4.230
 3343SOL     OW10927   4.867   2.863   0.750
 3343SOL    HW110928   4.847   2.875   0.653
 3343SOL    HW210929   4.870   2.952   0.795
 3344SOL     OW10930   5.851   3.386   5.684
 3344SOL    HW110931   5.884   3.447   5.612
 3344SOL    HW210932   5.772   3.335   5.651
 3345SOL     OW10933   3.299   3.750   5.963
 3345SOL    HW110934   3.278   3.785   6.054
 3345SOL    HW210935   3.264   3.813   5.894
 3346SOL     OW10936   0.167   0.503   1.840
 3346SOL    HW110937   0.076   0.462   1.851
 3346SOL    HW210938   0.175   0.581   1.903
 3347SOL     OW10939   5.833   4.175   4.802
 3347SOL    HW110940   5.888   4.204   4.724
 3347SOL    HW210941   5.738   4.203   4.787
 3348SOL     OW10942   3.383   3.121   3.853
 3348SOL    HW110943   3.352   3.191   3.917
 3348SOL    HW210944   3.473   3.145   3.818
 3349SOL     OW10945   6.772   3.718   4.432
 3349SOL    HW110946   6.766   3.656   4.510
 3349SOL    HW210947   6.693   3.703   4.372
 3350SOL     OW10948   1.576   1.045   0.368
 3350SOL    HW110949   1.492   1.092   0.343
 3350SOL    HW210950   1.639   1.044   0.290
 3351SOL     OW10951   5.351   1.468   0.863
 3351SOL    HW110952   5.443   1.491   0.832
 3351SOL    HW210953   5.287   1.538   0.829
 3352SOL     OW10954   0.757   4.072   1.161
 3352SOL    HW110955   0.813   4.136   1.213
 3352SOL    HW210956   0.802   4.051   1.074
 3353SOL     OW10957   1.614   6.759   6.635
 3353SOL    HW110958   1.693   6.733   6.580
 3353SOL    HW210959   1.626   6.852   6.670
 3354SOL     OW10960   6.613   2.410   4.016
 3354SOL    HW110961   6.684   2.479   4.003
 3354SOL    HW210962   6.638   2.350   4.092
 3355SOL     OW10963   6.911   1.328   1.856
 3355SOL    HW110964   6.828   1.344   1.910
 3355SOL    HW210965   6.989   1.373   1.900
 3356SOL     OW10966   2.911   3.389   6.981
 3356SOL    HW110967   2.816   3.369   6.960
 3356SOL    HW210968   2.951   3.313   0.017
 3357SOL     OW10969   2.949   5.289   1.603
 3357SOL    HW110970   3.033   5.252   1.564
 3357SOL    HW210971   2.970   5.367   1.661
 3358SOL     OW10972   4.674   6.273   2.495
 3358SOL    HW110973   4.710   6.180   2.493
 3358SOL    HW210974   4.714   6.326   2.420
 3359SOL     OW10975   1.219   0.302   2.472
 3359SOL    HW110976   1.120   0.309   2.457
 3359SOL    HW210977   1.255   0.390   2.502
 3360SOL     OW10978   0.461   0.580   0.410
 3360SOL    HW110979   0.490   0.625   0.495
 3360SOL    HW210980   0.402   0.642   0.358
 3361SOL     OW10981   6.023   5.808   3.164
 3361SOL    HW110982   6.048   5.872   3.091
 3361SOL    HW210983   6.028   5.714   3.130
 3362SOL     OW10984   2.568   1.374   4.897
 3362SOL    HW110985   2.485   1.320   4.883
 3362SOL    HW210986   2.548   1.470   4.880
 3363SOL     OW10987   0.318   1.876   0.015
 3363SOL    HW110988   0.243   1.839   0.069
 3363SOL    HW210989   0.309   1.975   0.008
 3364SOL     OW10990   1.460   5.664   5.778
 3364SOL    HW110991   1.470   5.755   5.738
 3364SOL    HW210992   1.394   5.667   5.853
 3365SOL     OW10993   0.100   2.689   4.848
 3365SOL    HW110994   0.077   2.734   4.935
 3365SOL    HW210995   0.194   2.657   4.851
 3366SOL     OW10996   5.267   0.266   5.589
 3366SOL    HW110997   5.316   0.310   5.514
 3366SOL    HW210998   5.278   0.167   5.583
 3367SOL     OW10999   1.370   2.507   2.861
 3367SOL    HW111000   1.356   2.601   2.830
 3367SOL    HW211001   1.296   2.481   2.922
 3368SOL     OW11002   6.653   5.415   6.142
 3368SOL    HW111003   6.617   5.508   6.133
 3368SOL    HW211004   6.742   5.410   6.097
 3369SOL     OW11005   3.858   0.318   6.952
 3369SOL    HW111006   3.763   0.300   6.926
 3369SOL    HW211007   3.878   0.272   0.022
 3370SOL     OW11008   6.421   6.547   4.853
 3370SOL    HW111009   6.471   6.571   4.770
 3370SOL    HW211010   6.335   6.502   4.828
 3371SOL     OW11011   1.204   4.894   1.729
 3371SOL    HW111012   1.249   4.830   1.792
 3371SOL    HW211013   1.229   4.988   1.754
 3372SOL     OW11014   1.130   0.997   2.532
 3372SOL    HW111015   1.218   0.979   2.487
 3372SOL    HW211016   1.091   0.912   2.565
 3373SOL     OW11017   6.051   1.564   5.013
 3373SOL    HW111018   6.043   1.658   4.977
 3373SOL    HW211019   6.123   1.516   4.964
 3374SOL     OW11020   2.941   5.861   5.795
 3374SOL    HW111021   2.980   5.814   5.874
 3374SOL    HW211022   3.010   5.870   5.724
 3375SOL     OW11023   4.587   4.397   5.082
 3375SOL    HW111024   4.501   4.421   5.127
 3375SOL    HW211025   4.582   4.425   4.986
 3376SOL     OW11026   3.169   2.989   2.413
 3376SOL    HW111027   3.212   2.936   2.340
 3376SOL    HW211028   3.175   3.087   2.391
 3377SOL     OW11029   0.956   6.463   5.017
 3377SOL    HW111030   0.991   6.372   4.992
 3377SOL    HW211031   0.967   6.525   4.939
 3378SOL     OW11032   6.678   1.263   1.579
 3378SOL    HW111033   6.586   1.244   1.613
 3378SOL    HW211034   6.681   1.250   1.480
 3379SOL     OW11035   0.622   4.879   6.002
 3379SOL    HW111036   0.602   4.791   6.045
 3379SOL    HW211037   0.704   4.870   5.945
 3380SOL     OW11038   0.094   4.594   6.895
 3380SOL    HW111039   0.178   4.589   6.948
 3380SOL    HW211040   0.115   4.596   6.798
 3381SOL     OW11041   2.984   2.675   0.605
 3381SOL    HW111042   2.957   2.636   0.693
 3381SOL    HW211043   2.998   2.600   0.539
 3382SOL     OW11044   6.651   1.975   0.745
 3382SOL    HW111045   6.615   1.886   0.719
 3382SOL    HW211046   6.723   1.963   0.814
 3383SOL     OW11047   5.801   4.542   2.806
 3383SOL    HW111048   5.867   4.470   2.828
 3383SOL    HW211049   5.765   4.581   2.890
 3384SOL     OW11050   3.415   3.041   4.703
 3384SOL    HW111051   3.340   3.012   4.643
 3384SOL    HW211052   3.468   2.961   4.730
 3385SOL     OW11053   6.514   3.612   3.506
 3385SOL    HW111054   6.483   3.521   3.532
 3385SOL    HW211055   6.528   3.668   3.588
 3386SOL     OW11056   6.046   4.950   4.553
 3386SOL    HW111057   5.973   4.898   4.598
 3386SOL    HW211058   6.132   4.900   4.560
 3387SOL     OW11059   2.415   2.647   3.177
 3387SOL    HW111060   2.336   2.683   3.128
 3387SOL    HW211061   2.466   2.585   3.117
 3388SOL     OW11062   5.692   2.071   1.518
 3388SOL    HW111063   5.744   1.987   1.505
 3388SOL    HW211064   5.727   2.120   1.598
 3389SOL     OW11065   4.807   4.312   3.823
 3389SOL    HW111066   4.848   4.290   3.911
 3389SOL    HW211067   4.717   4.353   3.837
 3390SOL     OW11068   5.126   3.101   5.776
 3390SOL    HW111069   5.093   3.030   5.714
 3390SOL    HW211070   5.109   3.073   5.871
 3391SOL     OW11071   3.680   1.809   4.824
 3391SOL    HW111072   3.757   1.746   4.813
 3391SOL    HW211073   3.610   1.787   4.756
 3392SOL     OW11074   2.152   0.823   4.168
 3392SOL    HW111075   2.228   0.888   4.168
 3392SOL    HW211076   2.130   0.798   4.074
 3393SOL     OW11077   6.464   6.297   6.964
 3393SOL    HW111078   6.462   6.256   0.038
 3393SOL    HW211079   6.554   6.283   6.922
 3394SOL     OW11080   5.975   2.654   0.755
 3394SOL    HW111081   5.970   2.561   0.789
 3394SOL    HW211082   5.967   2.718   0.831
 3395SOL     OW11083   0.862   3.314   4.075
 3395SOL    HW111084   0.809   3.237   4.109
 3395SOL    HW211085   0.901   3.364   4.153
 3396SOL     OW11086   0.359   3.446   3.418
 3396SOL    HW111087   0.431   3.427   3.351
 3396SOL    HW211088   0.319   3.360   3.449
 3397SOL     OW11089   3.914   7.004   6.011
 3397SOL    HW111090   4.004   6.975   5.978
 3397SOL    HW211091   3.844   6.976   5.946
 3398SOL     OW11092   1.008   0.394   4.308
 3398SOL    HW111093   1.067   0.475   4.315
 3398SOL    HW211094   1.034   0.341   4.227
 3399SOL     OW11095   4.766   5.317   4.069
 3399SOL    HW111096   4.819   5.260   4.132
 3399SOL    HW211097   4.823   5.392   4.036
 3400SOL     OW11098   5.006   2.121   6.711
 3400SOL    HW111099   4.940   2.196   6.712
 3400SOL    HW211100   5.005   2.075   6.800
 3401SOL     OW11101   6.751   3.268   0.635
 3401SOL    HW111102   6.672   3.248   0.693
 3401SOL    HW211103   6.775   3.364   0.644
 3402SOL     OW11104   5.469   5.962   1.521
 3402SOL    HW111105   5.540   6.019   1.562
 3402SOL    HW211106   5.451   5.992   1.427
 3403SOL     OW11107   3.192   0.429   4.974
 3403SOL    HW111108   3.203   0.503   4.908
 3403SOL    HW211109   3.098   0.429   5.009
 3404SOL     OW11110   4.462   1.432   1.026
 3404SOL    HW111111   4.372   1.474   1.018
 3404SOL    HW211112   4.505   1.426   0.936
 3405SOL     OW11113   6.144   3.977   6.430
 3405SOL    HW111114   6.105   3.954   6.341
 3405SOL    HW211115   6.153   4.077   6.438
 3406SOL     OW11116   2.525   4.436   1.841
 3406SOL    HW111117   2.581   4.439   1.758
 3406SOL    HW211118   2.584   4.446   1.921
 3407SOL     OW11119   1.186   5.776   1.609
 3407SOL    HW111120   1.190   5.748   1.513
 3407SOL    HW211121   1.278   5.798   1.641
 3408SOL     OW11122   5.039   4.126   3.041
 3408SOL    HW111123   4.977   4.060   3.083
 3408SOL    HW211124   5.133   4.093   3.048
 3409SOL     OW11125   3.921   0.261   6.009
 3409SOL    HW111126   3.944   0.166   6.029
 3409SOL    HW211127   3.826   0.267   5.979
 3410SOL     OW11128   6.122   5.782   0.253
 3410SOL    HW111129   6.114   5.775   0.153
 3410SOL    HW211130   6.208   5.740   0.282
 3411SOL     OW11131   4.943   2.368   2.477
 3411SOL    HW111132   5.026   2.333   2.521
 3411SOL    HW211133   4.863   2.342   2.531
 3412SOL     OW11134   3.914   3.822   6.950
 3412SOL    HW111135   3.818   3.810   6.974
 3412SOL    HW211136   3.951   3.903   6.996
 3413SOL     OW11137   3.853   1.825   3.227
 3413SOL    HW111138   3.800   1.909   3.237
 3413SOL    HW211139   3.826   1.760   3.298
 3414SOL     OW11140   2.931   2.177   4.909
 3414SOL    HW111141   3.014   2.191   4.855
 3414SOL    HW211142   2.939   2.092   4.961
 3415SOL     OW11143   0.971   4.927   4.295
 3415SOL    HW111144   0.955   4.863   4.219
 3415SOL    HW211145   1.003   5.014   4.258
 3416SOL     OW11146   0.438   4.546   5.829
 3416SOL    HW111147   0.537   4.561   5.819
 3416SOL    HW211148   0.403   4.603   5.903
 3417SOL     OW11149   6.876   6.651   2.575
 3417SOL    HW111150   6.837   6.725   2.631
 3417SOL    HW211151   6.946   6.603   2.628
 3418SOL     OW11152   2.795   1.207   4.871
 3418SOL    HW111153   2.718   1.270   4.871
 3418SOL    HW211154   2.842   1.211   4.959
 3419SOL     OW11155   4.373   4.729   6.865
 3419SOL    HW111156   4.422   4.810   6.832
 3419SOL    HW211157   4.436   4.652   6.871
 3420SOL     OW11158   4.716   1.655   4.073
 3420SOL    HW111159   4.628   1.612   4.091
 3420SOL    HW211160   4.706   1.754   4.074
 3421SOL     OW11161   6.709   6.450   5.431
 3421SOL    HW111162   6.750   6.482   5.345
 3421SOL    HW211163   6.610   6.461   5.427
 3422SOL     OW11164   3.494   0.121   1.017
 3422SOL    HW111165   3.515   0.171   1.101
 3422SOL    HW211166   3.440   0.180   0.957
 3423SOL     OW11167   2.369   0.535   0.707
 3423SOL    HW111168   2.431   0.576   0.773
 3423SOL    HW211169   2.397   0.440   0.689
 3424SOL     OW11170   4.096   1.009   2.426
 3424SOL    HW111171   4.094   0.994   2.327
 3424SOL    HW211172   4.184   0.978   2.463
 3425SOL     OW11173   4.756   4.287   2.209
 3425SOL    HW111174   4.681   4.285   2.143
 3425SOL    HW211175   4.719   4.283   2.302
 3426SOL     OW11176   3.378   3.080   0.569
 3426SOL    HW111177   3.321   3.072   0.651
 3426SOL    HW211178   3.423   2.993   0.551
 3427SOL     OW11179   6.506   0.155   0.114
 3427SOL    HW111180   6.599   0.183   0.137
 3427SOL    HW211181   6.477   0.081   0.175
 3428SOL     OW11182   3.791   4.832   2.346
 3428SOL    HW111183   3.775   4.807   2.442
 3428SOL    HW211184   3.724   4.787   2.288
 3429SOL     OW11185   1.020   2.674   0.292
 3429SOL    HW111186   1.114   2.668   0.326
 3429SOL    HW211187   0.969   2.743   0.344
 3430SOL     OW11188   1.260   6.548   7.008
 3430SOL    HW111189   1.324   6.507   0.057
 3430SOL    HW211190   1.310   6.571   6.924
 3431SOL     OW11191   1.628   6.153   1.183
 3431SOL    HW111192   1.596   6.059   1.194
 3431SOL    HW211193   1.593   6.209   1.258
 3432SOL     OW11194   2.958   1.842   5.371
 3432SOL    HW111195   2.875   1.883   5.410
 3432SOL    HW211196   3.017   1.914   5.334
 3433SOL     OW11197   3.305   1.250   6.067
 3433SOL    HW111198   3.256   1.283   5.986
 3433SOL    HW211199   3.397   1.287   6.068
 3434SOL     OW11200   4.422   2.560   1.338
 3434SOL    HW111201   4.488   2.503   1.387
 3434SOL    HW211202   4.333   2.516   1.337
 3435SOL     OW11203   0.219   2.905   1.832
 3435SOL    HW111204   0.315   2.886   1.852
 3435SOL    HW211205   0.167   2.906   1.918
 3436SOL     OW11206   4.288   6.677   4.440
 3436SOL    HW111207   4.255   6.723   4.522
 3436SOL    HW211208   4.325   6.745   4.376
 3437SOL     OW11209   4.100   0.290   5.067
 3437SOL    HW111210   4.073   0.336   5.152
 3437SOL    HW211211   4.020   0.280   5.008
 3438SOL     OW11212   1.930   2.638   6.877
 3438SOL    HW111213   1.901   2.647   6.972
 3438SOL    HW211214   1.871   2.573   6.829
 3439SOL     OW11215   2.593   6.605   4.954
 3439SOL    HW111216   2.643   6.608   4.867
 3439SOL    HW211217   2.554   6.695   4.973
 3440SOL     OW11218   4.403   3.725   1.060
 3440SOL    HW111219   4.343   3.788   1.012
 3440SOL    HW211220   4.437   3.769   1.143
 3441SOL     OW11221   4.046   6.940   4.098
 3441SOL    HW111222   4.034   6.881   4.178
 3441SOL    HW211223   4.071   6.884   4.019
 3442SOL     OW11224   1.969   5.232   3.403
 3442SOL    HW111225   2.002   5.212   3.495
 3442SOL    HW211226   1.912   5.156   3.371
 3443SOL     OW11227   5.939   1.857   3.321
 3443SOL    HW111228   6.029   1.891   3.351
 3443SOL    HW211229   5.877   1.853   3.400
 3444SOL     OW11230   5.148   5.923   6.579
 3444SOL    HW111231   5.086   5.845   6.571
 3444SOL    HW211232   5.197   5.919   6.666
 3445SOL     OW11233   6.598   3.995   4.369
 3445SOL    HW111234   6.555   3.934   4.435
 3445SOL    HW211235   6.633   4.076   4.416
 3446SOL     OW11236   3.857   0.703   2.996
 3446SOL    HW111237   3.886   0.698   3.091
 3446SOL    HW211238   3.863   0.612   2.955
 3447SOL     OW11239   5.692   5.577   0.306
 3447SOL    HW111240   5.775   5.560   0.360
 3447SOL    HW211241   5.622   5.511   0.333
 3448SOL     OW11242   3.224   0.686   0.944
 3448SOL    HW111243   3.151   0.618   0.954
 3448SOL    HW211244   3.265   0.705   1.033
 3449SOL     OW11245   6.287   6.868   1.495
 3449SOL    HW111246   6.318   6.821   1.413
 3449SOL    HW211247   6.320   6.819   1.576
 3450SOL     OW11248   0.719   1.573   1.364
 3450SOL    HW111249   0.626   1.543   1.345
 3450SOL    HW211250   0.755   1.623   1.285
 3451SOL     OW11251   0.728   5.564   3.490
 3451SOL    HW111252   0.795   5.620   3.441
 3451SOL    HW211253   0.776   5.503   3.554
 3452SOL     OW11254   6.848   1.018   6.687
 3452SOL    HW111255   6.804   1.012   6.597
 3452SOL    HW211256   6.886   1.109   6.699
 3453SOL     OW11257   5.281   5.748   4.877
 3453SOL    HW111258   5.320   5.695   4.952
 3453SOL    HW211259   5.296   5.846   4.893
 3454SOL     OW11260   1.606   1.500   0.183
 3454SOL    HW111261   1.632   1.433   0.253
 3454SOL    HW211262   1.679   1.567   0.173
 3455SOL     OW11263   1.630   3.021   4.366
 3455SOL    HW111264   1.594   3.096   4.421
 3455SOL    HW211265   1.563   2.995   4.297
 3456SOL     OW11266   5.993   6.776   1.835
 3456SOL    HW111267   6.025   6.789   1.741
 3456SOL    HW211268   5.925   6.846   1.858
 3457SOL     OW11269   2.629   5.181   3.948
 3457SOL    HW111270   2.596   5.105   3.892
 3457SOL    HW211271   2.692   5.147   4.017
 3458SOL     OW11272   6.035   6.623   0.170
 3458SOL    HW111273   6.018   6.541   0.224
 3458SOL    HW211274   6.116   6.610   0.113
 3459SOL     OW11275   0.466   3.661   3.130
 3459SOL    HW111276   0.478   3.645   3.032
 3459SOL    HW211277   0.478   3.575   3.180
 3460SOL     OW11278   2.741   2.597   6.927
 3460SOL    HW111279   2.678   2.556   6.860
 3460SOL    HW211280   2.693   2.669   6.977
 3461SOL     OW11281   3.572   5.467   4.107
 3461SOL    HW111282   3.583   5.397   4.036
 3461SOL    HW211283   3.656   5.473   4.161
 3462SOL     OW11284   5.850   2.680   3.015
 3462SOL    HW111285   5.847   2.660   2.917
 3462SOL    HW211286   5.809   2.604   3.065
 3463SOL     OW11287   1.189   3.059   2.053
 3463SOL    HW111288   1.269   3.005   2.079
 3463SOL    HW211289   1.146   3.096   2.136
 3464SOL     OW11290   5.810   2.622   6.557
 3464SOL    HW111291   5.739   2.642   6.624
 3464SOL    HW211292   5.861   2.705   6.537
 3465SOL     OW11293   2.179   3.301   1.711
 3465SOL    HW111294   2.221   3.362   1.778
 3465SOL    HW211295   2.082   3.322   1.703
 3466SOL     OW11296   5.550   4.326   5.353
 3466SOL    HW111297   5.593   4.388   5.288
 3466SOL    HW211298   5.595   4.335   5.442
 3467SOL     OW11299   3.526   1.750   1.034
 3467SOL    HW111300   3.449   1.688   1.037
 3467SOL    HW211301   3.494   1.844   1.046
 3468SOL     OW11302   4.403   1.835   1.799
 3468SOL    HW111303   4.489   1.791   1.826
 3468SOL    HW211304   4.364   1.882   1.879
 3469SOL     OW11305   4.592   0.386   6.004
 3469SOL    HW111306   4.671   0.342   5.961
 3469SOL    HW211307   4.507   0.347   5.966
 3470SOL     OW11308   0.293   3.011   0.969
 3470SOL    HW111309   0.219   2.945   0.952
 3470SOL    HW211310   0.308   3.019   1.068
 3471SOL     OW11311   4.565   4.425   3.892
 3471SOL    HW111312   4.564   4.525   3.891
 3471SOL    HW211313   4.501   4.390   3.823
 3472SOL     OW11314   4.659   2.447   2.891
 3472SOL    HW111315   4.606   2.378   2.941
 3472SOL    HW211316   4.699   2.406   2.809
 3473SOL     OW11317   7.002   3.650   3.896
 3473SOL    HW111318   0.074   3.608   3.917
 3473SOL    HW211319   0.000   3.735   3.844
 3474SOL     OW11320   0.450   4.216   3.908
 3474SOL    HW111321   0.411   4.289   3.964
 3474SOL    HW211322   0.427   4.127   3.947
 3475SOL     OW11323   0.076   4.910   4.358
 3475SOL    HW111324   0.151   4.976   4.363
 3475SOL    HW211325   0.018   4.933   4.280
 3476SOL     OW11326   2.056   1.613   3.997
 3476SOL    HW111327   1.963   1.644   3.975
 3476SOL    HW211328   2.106   1.689   4.040
 3477SOL     OW11329   0.246   3.510   1.020
 3477SOL    HW111330   0.206   3.448   1.087
 3477SOL    HW211331   0.256   3.463   0.932
 3478SOL     OW11332   2.270   6.576   0.504
 3478SOL    HW111333   2.256   6.619   0.594
 3478SOL    HW211334   2.338   6.503   0.513
 3479SOL     OW11335   0.525   2.990   3.683
 3479SOL    HW111336   0.580   3.062   3.641
 3479SOL    HW211337   0.523   2.910   3.623
 3480SOL     OW11338   0.892   5.861   6.731
 3480SOL    HW111339   0.931   5.885   6.642
 3480SOL    HW211340   0.800   5.901   6.739
 3481SOL     OW11341   5.509   0.586   0.041
 3481SOL    HW111342   5.528   0.684   0.036
 3481SOL    HW211343   5.460   0.557   6.976
 3482SOL     OW11344   6.235   2.746   3.982
 3482SOL    HW111345   6.297   2.737   3.905
 3482SOL    HW211346   6.201   2.840   3.987
 3483SOL     OW11347   5.076   2.349   3.470
 3483SOL    HW111348   5.127   2.413   3.528
 3483SOL    HW211349   4.978   2.361   3.488
 3484SOL     OW11350   1.833   3.618   6.447
 3484SOL    HW111351   1.841   3.530   6.494
 3484SOL    HW211352   1.768   3.676   6.496
 3485SOL     OW11353   6.915   2.250   5.434
 3485SOL    HW111354   6.866   2.179   5.382
 3485SOL    HW211355   7.001   2.212   5.469
 3486SOL     OW11356   1.750   0.072   4.095
 3486SOL    HW111357   1.842   0.073   4.133
 3486SOL    HW211358   1.684   0.088   4.169
 3487SOL     OW11359   6.545   1.531   6.831
 3487SOL    HW111360   6.492   1.504   6.750
 3487SOL    HW211361   6.483   1.569   6.900
 3488SOL     OW11362   5.442   0.787   5.083
 3488SOL    HW111363   5.392   0.702   5.099
 3488SOL    HW211364   5.441   0.807   4.985
 3489SOL     OW11365   3.373   6.899   1.061
 3489SOL    HW111366   3.433   6.975   1.036
 3489SOL    HW211367   3.428   6.818   1.079
 3490SOL     OW11368   3.783   4.977   1.303
 3490SOL    HW111369   3.786   4.897   1.362
 3490SOL    HW211370   3.837   5.050   1.343
 3491SOL     OW11371   4.997   4.118   6.632
 3491SOL    HW111372   5.084   4.082   6.598
 3491SOL    HW211373   5.004   4.135   6.730
 3492SOL     OW11374   6.875   3.983   2.077
 3492SOL    HW111375   6.871   3.955   2.173
 3492SOL    HW211376   6.914   3.909   2.022
 3493SOL     OW11377   6.525   3.930   4.115
 3493SOL    HW111378   6.590   3.946   4.040
 3493SOL    HW211379   6.563   3.966   4.200
 3494SOL     OW11380   3.455   1.674   2.487
 3494SOL    HW111381   3.376   1.735   2.474
 3494SOL    HW211382   3.431   1.582   2.456
 3495SOL     OW11383   0.715   3.945   2.174
 3495SOL    HW111384   0.753   4.030   2.139
 3495SOL    HW211385   0.667   3.897   2.100
 3496SOL     OW11386   5.702   4.377   0.803
 3496SOL    HW111387   5.669   4.471   0.811
 3496SOL    HW211388   5.627   4.313   0.820
 3497SOL     OW11389   3.401   1.074   3.807
 3497SOL    HW111390   3.374   1.149   3.748
 3497SOL    HW211391   3.492   1.040   3.780
 3498SOL     OW11392   2.534   2.182   2.365
 3498SOL    HW111393   2.454   2.194   2.306
 3498SOL    HW211394   2.608   2.241   2.334
 3499SOL     OW11395   5.909   5.837   5.415
 3499SOL    HW111396   5.898   5.777   5.336
 3499SOL    HW211397   6.006   5.860   5.426
 3500SOL     OW11398   1.820   2.479   4.418
 3500SOL    HW111399   1.870   2.421   4.354
 3500SOL    HW211400   1.852   2.574   4.409
 3501SOL     OW11401   2.319   6.804   6.570
 3501SOL    HW111402   2.275   6.788   6.482
 3501SOL    HW211403   2.260   6.773   6.644
 3502SOL     OW11404   5.859   3.362   1.892
 3502SOL    HW111405   5.914   3.435   1.851
 3502SOL    HW211406   5.824   3.392   1.981
 3503SOL     OW11407   6.659   5.860   6.235
 3503SOL    HW111408   6.751   5.834   6.266
 3503SOL    HW211409   6.624   5.789   6.174
 3504SOL     OW11410   2.305   0.831   2.196
 3504SOL    HW111411   2.240   0.810   2.124
 3504SOL    HW211412   2.295   0.765   2.271
 3505SOL     OW11413   5.663   5.619   5.693
 3505SOL    HW111414   5.622   5.707   5.718
 3505SOL    HW211415   5.660   5.608   5.594
 3506SOL     OW11416   5.859   4.445   4.997
 3506SOL    HW111417   5.952   4.424   4.965
 3506SOL    HW211418   5.831   4.378   5.065
 3507SOL     OW11419   2.202   6.702   0.739
 3507SOL    HW111420   2.245   6.730   0.825
 3507SOL    HW211421   2.128   6.638   0.758
 3508SOL     OW11422   3.313   2.586   6.096
 3508SOL    HW111423   3.405   2.626   6.092
 3508SOL    HW211424   3.311   2.514   6.165
 3509SOL     OW11425   5.580   6.704   0.148
 3509SOL    HW111426   5.660   6.665   0.195
 3509SOL    HW211427   5.541   6.636   0.087
 3510SOL     OW11428   1.947   0.797   1.366
 3510SOL    HW111429   1.914   0.864   1.299
 3510SOL    HW211430   2.038   0.767   1.341
 3511SOL     OW11431   2.121   4.751   1.631
 3511SOL    HW111432   2.178   4.709   1.702
 3511SOL    HW211433   2.089   4.681   1.568
 3512SOL     OW11434   0.944   3.846   0.567
 3512SOL    HW111435   1.009   3.843   0.491
 3512SOL    HW211436   0.856   3.880   0.535
 3513SOL     OW11437   6.331   1.986   1.443
 3513SOL    HW111438   6.329   1.953   1.348
 3513SOL    HW211439   6.242   1.969   1.486
 3514SOL     OW11440   5.709   0.845   2.528
 3514SOL    HW111441   5.703   0.747   2.509
 3514SOL    HW211442   5.727   0.895   2.444
 3515SOL     OW11443   5.215   6.118   3.861
 3515SOL    HW111444   5.205   6.045   3.928
 3515SOL    HW211445   5.170   6.201   3.896
 3516SOL     OW11446   5.121   6.812   1.270
 3516SOL    HW111447   5.128   6.838   1.367
 3516SOL    HW211448   5.122   6.713   1.263
 3517SOL     OW11449   0.453   1.055   1.162
 3517SOL    HW111450   0.452   0.999   1.245
 3517SOL    HW211451   0.379   1.024   1.101
 3518SOL     OW11452   5.181   2.094   4.933
 3518SOL    HW111453   5.281   2.091   4.930
 3518SOL    HW211454   5.152   2.150   5.011
 3519SOL     OW11455   2.549   1.133   6.799
 3519SOL    HW111456   2.459   1.114   6.837
 3519SOL    HW211457   2.573   1.229   6.814
 3520SOL     OW11458   3.677   6.347   6.682
 3520SOL    HW111459   3.765   6.381   6.718
 3520SOL    HW211460   3.695   6.275   6.615
 3521SOL     OW11461   3.447   2.703   6.552
 3521SOL    HW111462   3.348   2.720   6.547
 3521SOL    HW211463   3.495   2.768   6.494
 3522SOL     OW11464   6.426   4.983   6.714
 3522SOL    HW111465   6.357   5.025   6.773
 3522SOL    HW211466   6.383   4.954   6.629
 3523SOL     OW11467   1.188   4.228   5.696
 3523SOL    HW111468   1.204   4.170   5.776
 3523SOL    HW211469   1.150   4.173   5.622
 3524SOL     OW11470   4.996   1.923   2.409
 3524SOL    HW111471   5.094   1.918   2.391
 3524SOL    HW211472   4.948   1.856   2.351
 3525SOL     OW11473   5.885   3.508   4.055
 3525SOL    HW111474   5.817   3.568   4.014
 3525SOL    HW211475   5.890   3.526   4.154
 3526SOL     OW11476   2.129   6.188   3.372
 3526SOL    HW111477   2.070   6.213   3.296
 3526SOL    HW211478   2.090   6.111   3.422
 3527SOL     OW11479   6.351   3.207   6.055
 3527SOL    HW111480   6.268   3.208   5.999
 3527SOL    HW211481   6.327   3.194   6.151
 3528SOL     OW11482   2.340   6.161   4.835
 3528SOL    HW111483   2.274   6.235   4.848
 3528SOL    HW211484   2.432   6.194   4.858
 3529SOL     OW11485   4.246   6.917   6.736
 3529SOL    HW111486   4.210   6.944   6.825
 3529SOL    HW211487   4.278   6.998   6.687
 3530SOL     OW11488   0.063   5.057   1.705
 3530SOL    HW111489   6.999   5.107   1.737
 3530SOL    HW211490   0.144   5.114   1.714
 3531SOL     OW11491   5.849   2.194   1.703
 3531SOL    HW111492   5.891   2.145   1.780
 3531SOL    HW211493   5.914   2.261   1.668
 3532SOL     OW11494   2.638   0.892   1.904
 3532SOL    HW111495   2.709   0.956   1.872
 3532SOL    HW211496   2.560   0.943   1.938
 3533SOL     OW11497   0.784   1.940   2.621
 3533SOL    HW111498   0.881   1.966   2.625
 3533SOL    HW211499   0.741   1.984   2.542
 3534SOL     OW11500   0.614   1.904   1.752
 3534SOL    HW111501   0.646   1.855   1.670
 3534SOL    HW211502   0.559   1.842   1.807
 3535SOL     OW11503   2.552   5.594   5.420
 3535SOL    HW111504   2.494   5.516   5.396
 3535SOL    HW211505   2.574   5.646   5.337
 3536SOL     OW11506   3.301   1.634   2.982
 3536SOL    HW111507   3.356   1.619   3.064
 3536SOL    HW211508   3.251   1.550   2.959
 3537SOL     OW11509   1.237   5.773   2.153
 3537SOL    HW111510   1.157   5.816   2.111
 3537SOL    HW211511   1.209   5.690   2.201
 3538SOL     OW11512   3.252   5.422   5.918
 3538SOL    HW111513   3.259   5.335   5.869
 3538SOL    HW211514   3.168   5.423   5.972
 3539SOL     OW11515   3.475   3.565   4.510
 3539SOL    HW111516   3.548   3.577   4.444
 3539SOL    HW211517   3.511   3.577   4.603
 3540SOL     OW11518   2.137   2.574   4.465
 3540SOL    HW111519   2.211   2.629   4.503
 3540SOL    HW211520   2.176   2.500   4.409
 3541SOL     OW11521   2.810   2.805   5.464
 3541SOL    HW111522   2.730   2.783   5.408
 3541SOL    HW211523   2.843   2.896   5.441
 3542SOL     OW11524   1.469   5.346   2.943
 3542SOL    HW111525   1.404   5.320   3.014
 3542SOL    HW211526   1.551   5.385   2.985
 3543SOL     OW11527   5.591   2.841   3.814
 3543SOL    HW111528   5.506   2.793   3.797
 3543SOL    HW211529   5.606   2.908   3.741
 3544SOL     OW11530   1.908   4.167   6.489
 3544SOL    HW111531   1.841   4.103   6.453
 3544SOL    HW211532   1.997   4.151   6.446
 3545SOL     OW11533   4.119   6.319   5.993
 3545SOL    HW111534   4.162   6.382   6.057
 3545SOL    HW211535   4.063   6.370   5.928
 3546SOL     OW11536   0.532   5.517   3.265
 3546SOL    HW111537   0.464   5.447   3.244
 3546SOL    HW211538   0.596   5.483   3.334
 3547SOL     OW11539   4.200   5.082   3.546
 3547SOL    HW111540   4.285   5.073   3.598
 3547SOL    HW211541   4.221   5.118   3.455
 3548SOL     OW11542   4.945   2.140   5.870
 3548SOL    HW111543   4.947   2.229   5.914
 3548SOL    HW211544   5.039   2.111   5.849
 3549SOL     OW11545   6.861   4.743   4.409
 3549SOL    HW111546   6.819   4.772   4.323
 3549SOL    HW211547   6.954   4.778   4.414
 3550SOL     OW11548   5.247   2.241   3.062
 3550SOL    HW111549   5.177   2.190   3.111
 3550SOL    HW211550   5.208   2.281   2.979
 3551SOL     OW11551   3.727   6.456   3.092
 3551SOL    HW111552   3.791   6.505   3.034
 3551SOL    HW211553   3.777   6.400   3.158
 3552SOL     OW11554   4.710   5.982   2.548
 3552SOL    HW111555   4.695   6.026   2.636
 3552SOL    HW211556   4.627   5.933   2.521
 3553SOL     OW11557   5.758   2.884   2.489
 3553SOL    HW111558   5.704   2.879   2.405
 3553SOL    HW211559   5.855   2.883   2.466
 3554SOL     OW11560   4.066   3.742   0.263
 3554SOL    HW111561   4.093   3.725   0.358
 3554SOL    HW211562   4.148   3.752   0.206
 3555SOL     OW11563   0.639   3.349   2.994
 3555SOL    HW111564   0.578   3.320   3.068
 3555SOL    HW211565   0.604   3.434   2.955
 3556SOL     OW11566   3.446   0.349   5.336
 3556SOL    HW111567   3.455   0.256   5.370
 3556SOL    HW211568   3.351   0.366   5.308
 3557SOL     OW11569   0.958   0.709   4.630
 3557SOL    HW111570   0.959   0.702   4.530
 3557SOL    HW211571   0.955   0.617   4.669
 3558SOL     OW11572   6.940   5.647   1.683
 3558SOL    HW111573   7.013   5.627   1.748
 3558SOL    HW211574   6.979   5.657   1.591
 3559SOL     OW11575   0.371   0.437   4.886
 3559SOL    HW111576   0.287   0.463   4.934
 3559SOL    HW211577   0.448   0.488   4.923
 3560SOL     OW11578   1.316   5.852   1.021
 3560SOL    HW111579   1.379   5.855   1.099
 3560SOL    HW211580   1.282   5.758   1.010
 3561SOL     OW11581   5.111   4.914   5.864
 3561SOL    HW111582   5.194   4.865   5.837
 3561SOL    HW211583   5.135   5.003   5.902
 3562SOL     OW11584   4.864   0.611   4.111
 3562SOL    HW111585   4.819   0.700   4.097
 3562SOL    HW211586   4.924   0.592   4.033
 3563SOL     OW11587   5.309   1.086   1.554
 3563SOL    HW111588   5.314   1.056   1.650
 3563SOL    HW211589   5.391   1.056   1.506
 3564SOL     OW11590   0.808   4.549   4.594
 3564SOL    HW111591   0.777   4.640   4.565
 3564SOL    HW211592   0.901   4.556   4.630
 3565SOL     OW11593   3.014   6.269   4.971
 3565SOL    HW111594   3.017   6.169   4.971
 3565SOL    HW211595   3.106   6.306   4.984
 3566SOL     OW11596   6.771   3.499   5.982
 3566SOL    HW111597   6.672   3.507   5.991
 3566SOL    HW211598   6.816   3.548   6.057
 3567SOL     OW11599   1.061   2.417   0.645
 3567SOL    HW111600   1.004   2.336   0.632
 3567SOL    HW211601   1.156   2.389   0.664
 3568SOL     OW11602   5.299   4.987   2.477
 3568SOL    HW111603   5.209   4.956   2.509
 3568SOL    HW211604   5.367   4.971   2.549
 3569SOL     OW11605   3.082   3.309   5.075
 3569SOL    HW111606   3.174   3.339   5.050
 3569SOL    HW211607   3.035   3.273   4.994
 3570SOL     OW11608   6.035   1.312   5.360
 3570SOL    HW111609   6.026   1.230   5.303
 3570SOL    HW211610   6.064   1.284   5.452
 3571SOL     OW11611   1.753   0.931   4.888
 3571SOL    HW111612   1.763   0.923   4.789
 3571SOL    HW211613   1.766   0.842   4.930
 3572SOL     OW11614   4.961   4.308   2.861
 3572SOL    HW111615   5.000   4.270   2.777
 3572SOL    HW211616   4.980   4.246   2.938
 3573SOL     OW11617   6.584   4.945   2.476
 3573SOL    HW111618   6.511   4.878   2.467
 3573SOL    HW211619   6.655   4.926   2.408
 3574SOL     OW11620   2.547   3.202   6.568
 3574SOL    HW111621   2.518   3.182   6.475
 3574SOL    HW211622   2.466   3.223   6.624
 3575SOL     OW11623   4.914   5.367   0.594
 3575SOL    HW111624   4.981   5.397   0.663
 3575SOL    HW211625   4.927   5.270   0.575
 3576SOL     OW11626   0.538   2.489   0.240
 3576SOL    HW111627   0.527   2.389   0.239
 3576SOL    HW211628   0.450   2.531   0.260
 3577SOL     OW11629   2.491   2.809   5.591
 3577SOL    HW111630   2.503   2.787   5.494
 3577SOL    HW211631   2.546   2.746   5.647
 3578SOL     OW11632   2.939   2.900   0.978
 3578SOL    HW111633   2.999   2.852   1.042
 3578SOL    HW211634   2.980   2.898   0.887
 3579SOL     OW11635   0.441   3.915   2.298
 3579SOL    HW111636   0.519   3.908   2.236
 3579SOL    HW211637   0.461   3.864   2.382
 3580SOL     OW11638   0.666   3.343   1.209
 3580SOL    HW111639   0.761   3.373   1.220
 3580SOL    HW211640   0.610   3.385   1.281
 3581SOL     OW11641   0.603   0.047   3.408
 3581SOL    HW111642   0.690   0.035   3.456
 3581SOL    HW211643   0.618   0.036   3.310
 3582SOL     OW11644   3.238   4.478   5.938
 3582SOL    HW111645   3.332   4.456   5.912
 3582SOL    HW211646   3.178   4.403   5.913
 3583SOL     OW11647   0.382   4.445   0.683
 3583SOL    HW111648   0.322   4.502   0.739
 3583SOL    HW211649   0.467   4.493   0.665
 3584SOL     OW11650   5.862   4.427   5.395
 3584SOL    HW111651   5.873   4.418   5.494
 3584SOL    HW211652   5.951   4.444   5.353
 3585SOL     OW11653   2.683   2.195   4.675
 3585SOL    HW111654   2.767   2.140   4.680
 3585SOL    HW211655   2.636   2.191   4.762
 3586SOL     OW11656   6.362   3.113   3.810
 3586SOL    HW111657   6.316   3.134   3.724
 3586SOL    HW211658   6.341   3.185   3.877
 3587SOL     OW11659   3.902   6.563   6.420
 3587SOL    HW111660   3.948   6.475   6.427
 3587SOL    HW211661   3.966   6.632   6.386
 3588SOL     OW11662   6.497   4.521   4.168
 3588SOL    HW111663   6.593   4.535   4.147
 3588SOL    HW211664   6.471   4.427   4.149
 3589SOL     OW11665   0.195   6.831   5.486
 3589SOL    HW111666   0.228   6.866   5.573
 3589SOL    HW211667   0.182   6.732   5.491
 3590SOL     OW11668   0.334   4.273   0.476
 3590SOL    HW111669   0.353   4.342   0.545
 3590SOL    HW211670   0.243   4.234   0.492
 3591SOL     OW11671   5.562   2.780   6.400
 3591SOL    HW111672   5.614   2.749   6.480
 3591SOL    HW211673   5.589   2.727   6.320
 3592SOL     OW11674   1.643   0.371   2.420
 3592SOL    HW111675   1.694   0.306   2.364
 3592SOL    HW211676   1.679   0.370   2.513
 3593SOL     OW11677   6.597   4.051   5.331
 3593SOL    HW111678   6.668   4.050   5.402
 3593SOL    HW211679   6.522   4.111   5.360
 3594SOL     OW11680   4.129   5.666   5.017
 3594SOL    HW111681   4.143   5.747   4.960
 3594SOL    HW211682   4.084   5.693   5.102
 3595SOL     OW11683   5.751   5.834   0.196
 3595SOL    HW111684   5.721   5.744   0.226
 3595SOL    HW211685   5.671   5.891   0.175
 3596SOL     OW11686   4.312   1.809   3.318
 3596SOL    HW111687   4.284   1.886   3.260
 3596SOL    HW211688   4.231   1.756   3.344
 3597SOL     OW11689   1.863   2.958   5.149
 3597SOL    HW111690   1.825   3.031   5.206
 3597SOL    HW211691   1.962   2.968   5.144
 3598SOL     OW11692   1.367   5.997   5.318
 3598SOL    HW111693   1.450   5.943   5.301
 3598SOL    HW211694   1.360   6.070   5.250
 3599SOL     OW11695   4.696   1.775   6.398
 3599SOL    HW111696   4.733   1.831   6.473
 3599SOL    HW211697   4.596   1.780   6.399
 3600SOL     OW11698   2.351   3.624   0.554
 3600SOL    HW111699   2.316   3.596   0.465
 3600SOL    HW211700   2.361   3.543   0.612
 3601SOL     OW11701   5.299   1.478   5.224
 3601SOL    HW111702   5.213   1.449   5.182
 3601SOL    HW211703   5.339   1.402   5.274
 3602SOL     OW11704   2.032   2.608   1.596
 3602SOL    HW111705   2.071   2.682   1.541
 3602SOL    HW211706   1.962   2.560   1.543
 3603SOL     OW11707   3.075   0.726   6.020
 3603SOL    HW111708   3.098   0.709   5.924
 3603SOL    HW211709   2.978   0.707   6.035
 3604SOL     OW11710   0.296   0.714   3.533
 3604SOL    HW111711   0.196   0.725   3.529
 3604SOL    HW211712   0.323   0.695   3.628
 3605SOL     OW11713   0.958   5.237   3.396
 3605SOL    HW111714   0.947   5.162   3.461
 3605SOL    HW211715   0.882   5.238   3.332
 3606SOL     OW11716   1.794   6.012   1.652
 3606SOL    HW111717   1.738   5.929   1.643
 3606SOL    HW211718   1.800   6.038   1.748
 3607SOL     OW11719   5.083   2.956   2.847
 3607SOL    HW111720   5.080   2.858   2.830
 3607SOL    HW211721   5.165   2.995   2.806
 3608SOL     OW11722   4.119   1.954   3.881
 3608SOL    HW111723   4.155   1.962   3.788
 3608SOL    HW211724   4.083   2.042   3.910
 3609SOL     OW11725   2.476   6.575   4.300
 3609SOL    HW111726   2.401   6.632   4.267
 3609SOL    HW211727   2.493   6.501   4.235
 3610SOL     OW11728   1.824   0.054   5.456
 3610SOL    HW111729   1.824   0.133   5.395
 3610SOL    HW211730   1.854   0.083   5.547
 3611SOL     OW11731   4.681   4.556   4.390
 3611SOL    HW111732   4.682   4.619   4.312
 3611SOL    HW211733   4.656   4.464   4.359
 3612SOL     OW11734   6.258   1.205   6.631
 3612SOL    HW111735   6.323   1.155   6.688
 3612SOL    HW211736   6.247   1.157   6.544
 3613SOL     OW11737   3.345   5.206   1.153
 3613SOL    HW111738   3.318   5.137   1.220
 3613SOL    HW211739   3.438   5.187   1.121
 3614SOL     OW11740   3.327   3.858   6.494
 3614SOL    HW111741   3.353   3.865   6.590
 3614SOL    HW211742   3.364   3.936   6.443
 3615SOL     OW11743   6.170   2.947   5.623
 3615SOL    HW111744   6.096   2.880   5.628
 3615SOL    HW211745   6.132   3.040   5.626
 3616SOL     OW11746   2.042   1.876   6.543
 3616SOL    HW111747   2.098   1.837   6.617
 3616SOL    HW211748   2.079   1.964   6.515
 3617SOL     OW11749   4.308   0.055   5.798
 3617SOL    HW111750   4.386   7.010   5.793
 3617SOL    HW211751   4.255   0.049   5.713
 3618SOL     OW11752   1.426   3.883   4.486
 3618SOL    HW111753   1.369   3.909   4.408
 3618SOL    HW211754   1.432   3.960   4.550
 3619SOL     OW11755   5.928   2.783   1.028
 3619SOL    HW111756   5.982   2.748   1.104
 3619SOL    HW211757   5.830   2.775   1.049
 3620SOL     OW11758   6.031   6.358   4.372
 3620SOL    HW111759   6.003   6.388   4.463
 3620SOL    HW211760   6.057   6.437   4.317
 3621SOL     OW11761   3.607   3.130   4.142
 3621SOL    HW111762   3.539   3.192   4.180
 3621SOL    HW211763   3.645   3.073   4.216
 3622SOL     OW11764   0.800   0.226   0.883
 3622SOL    HW111765   0.859   0.280   0.822
 3622SOL    HW211766   0.855   0.187   0.957
 3623SOL     OW11767   1.131   5.775   5.944
 3623SOL    HW111768   1.111   5.858   5.995
 3623SOL    HW211769   1.100   5.786   5.850
 3624SOL     OW11770   3.104   0.733   1.931
 3624SOL    HW111771   3.081   0.677   2.011
 3624SOL    HW211772   3.130   0.674   1.855
 3625SOL     OW11773   6.514   2.897   6.605
 3625SOL    HW111774   6.503   2.891   6.506
 3625SOL    HW211775   6.528   2.805   6.642
 3626SOL     OW11776   0.527   2.979   4.651
 3626SOL    HW111777   0.490   2.887   4.668
 3626SOL    HW211778   0.571   3.013   4.733
 3627SOL     OW11779   4.760   2.972   1.185
 3627SOL    HW111780   4.718   3.030   1.254
 3627SOL    HW211781   4.706   2.889   1.172
 3628SOL     OW11782   1.032   1.431   1.964
 3628SOL    HW111783   1.103   1.403   2.030
 3628SOL    HW211784   0.945   1.391   1.991
 3629SOL     OW11785   0.641   1.632   4.219
 3629SOL    HW111786   0.671   1.723   4.190
 3629SOL    HW211787   0.702   1.598   4.290
 3630SOL     OW11788   6.741   2.940   3.493
 3630SOL    HW111789   6.777   2.884   3.567
 3630SOL    HW211790   6.720   2.882   3.415
 3631SOL     OW11791   1.760   6.586   2.755
 3631SOL    HW111792   1.795   6.496   2.729
 3631SOL    HW211793   1.692   6.576   2.827
 3632SOL     OW11794   4.251   3.501   0.827
 3632SOL    HW111795   4.237   3.454   0.740
 3632SOL    HW211796   4.337   3.552   0.824
 3633SOL     OW11797   4.029   2.625   6.048
 3633SOL    HW111798   3.964   2.687   6.004
 3633SOL    HW211799   4.031   2.538   5.999
 3634SOL     OW11800   3.052   5.751   6.026
 3634SOL    HW111801   3.075   5.812   6.102
 3634SOL    HW211802   3.136   5.723   5.979
 3635SOL     OW11803   2.787   0.629   1.902
 3635SOL    HW111804   2.722   0.584   1.963
 3635SOL    HW211805   2.746   0.711   1.863
 3636SOL     OW11806   0.991   5.600   0.090
 3636SOL    HW111807   1.043   5.606   0.005
 3636SOL    HW211808   1.050   5.626   0.167
 3637SOL     OW11809   0.282   3.004   6.685
 3637SOL    HW111810   0.340   2.925   6.702
 3637SOL    HW211811   0.248   3.040   6.772
 3638SOL     OW11812   5.812   4.406   2.380
 3638SOL    HW111813   5.903   4.427   2.344
 3638SOL    HW211814   5.815   4.318   2.428
 3639SOL     OW11815   4.083   3.771   4.863
 3639SOL    HW111816   3.998   3.720   4.873
 3639SOL    HW211817   4.066   3.868   4.877
 3640SOL     OW11818   5.444   2.804   0.273
 3640SOL    HW111819   5.485   2.740   0.338
 3640SOL    HW211820   5.479   2.786   0.181
 3641SOL     OW11821   6.587   3.839   1.516
 3641SOL    HW111822   6.542   3.902   1.579
 3641SOL    HW211823   6.645   3.776   1.568
 3642SOL     OW11824   5.928   2.180   6.633
 3642SOL    HW111825   5.851   2.118   6.650
 3642SOL    HW211826   5.943   2.238   6.713
 3643SOL     OW11827   4.334   5.944   5.815
 3643SOL    HW111828   4.398   6.020   5.800
 3643SOL    HW211829   4.243   5.980   5.835
 3644SOL     OW11830   3.272   0.419   2.147
 3644SOL    HW111831   3.183   0.463   2.137
 3644SOL    HW211832   3.329   0.473   2.209
 3645SOL     OW11833   1.661   4.173   4.326
 3645SOL    HW111834   1.695   4.242   4.390
 3645SOL    HW211835   1.705   4.086   4.346
 3646SOL     OW11836   2.687   4.692   4.813
 3646SOL    HW111837   2.738   4.663   4.894
 3646SOL    HW211838   2.698   4.624   4.741
 3647SOL     OW11839   1.743   0.085   0.271
 3647SOL    HW111840   1.662   0.029   0.289
 3647SOL    HW211841   1.809   0.072   0.345
 3648SOL     OW11842   4.896   5.607   3.198
 3648SOL    HW111843   4.861   5.701   3.199
 3648SOL    HW211844   4.868   5.562   3.113
 3649SOL     OW11845   5.613   3.596   0.171
 3649SOL    HW111846   5.630   3.520   0.234
 3649SOL    HW211847   5.676   3.671   0.192
 3650SOL     OW11848   4.887   4.696   0.659
 3650SOL    HW111849   4.840   4.653   0.583
 3650SOL    HW211850   4.821   4.747   0.715
 3651SOL     OW11851   1.417   2.405   6.026
 3651SOL    HW111852   1.407   2.500   6.056
 3651SOL    HW211853   1.327   2.361   6.025
 3652SOL     OW11854   5.234   1.351   1.920
 3652SOL    HW111855   5.225   1.346   1.820
 3652SOL    HW211856   5.175   1.423   1.955
 3653SOL     OW11857   0.785   1.302   2.032
 3653SOL    HW111858   0.756   1.329   2.124
 3653SOL    HW211859   0.840   1.219   2.037
 3654SOL     OW11860   5.011   0.466   0.729
 3654SOL    HW111861   4.989   0.377   0.688
 3654SOL    HW211862   5.102   0.495   0.701
 3655SOL     OW11863   1.505   1.721   3.985
 3655SOL    HW111864   1.550   1.810   3.972
 3655SOL    HW211865   1.495   1.703   4.083
 3656SOL     OW11866   0.367   5.613   1.669
 3656SOL    HW111867   0.399   5.540   1.730
 3656SOL    HW211868   0.428   5.692   1.678
 3657SOL     OW11869   4.869   6.281   4.762
 3657SOL    HW111870   4.883   6.380   4.762
 3657SOL    HW211871   4.855   6.249   4.668
 3658SOL     OW11872   1.123   5.575   6.132
 3658SOL    HW111873   1.041   5.520   6.114
 3658SOL    HW211874   1.132   5.645   6.062
 3659SOL     OW11875   6.824   1.678   6.340
 3659SOL    HW111876   6.845   1.739   6.416
 3659SOL    HW211877   6.803   1.731   6.259
 3660SOL     OW11878   5.678   5.426   6.131
 3660SOL    HW111879   5.694   5.504   6.192
 3660SOL    HW211880   5.755   5.363   6.137
 3661SOL     OW11881   6.779   1.868   5.087
 3661SOL    HW111882   6.798   1.887   4.991
 3661SOL    HW211883   6.842   1.796   5.119
 3662SOL     OW11884   3.589   1.202   5.866
 3662SOL    HW111885   3.652   1.277   5.848
 3662SOL    HW211886   3.551   1.168   5.780
 3663SOL     OW11887   2.289   2.887   6.750
 3663SOL    HW111888   2.213   2.902   6.687
 3663SOL    HW211889   2.254   2.873   6.843
 3664SOL     OW11890   3.729   1.718   2.616
 3664SOL    HW111891   3.674   1.639   2.643
 3664SOL    HW211892   3.702   1.748   2.525
 3665SOL     OW11893   0.486   5.998   5.783
 3665SOL    HW111894   0.431   5.915   5.783
 3665SOL    HW211895   0.568   5.984   5.727
 3666SOL     OW11896   2.293   2.045   4.563
 3666SOL    HW111897   2.314   1.947   4.566
 3666SOL    HW211898   2.204   2.062   4.606
 3667SOL     OW11899   2.282   0.876   2.779
 3667SOL    HW111900   2.365   0.912   2.739
 3667SOL    HW211901   2.278   0.900   2.876
 3668SOL     OW11902   0.750   0.041   1.618
 3668SOL    HW111903   0.845   0.030   1.646
 3668SOL    HW211904   0.730   0.138   1.608
 3669SOL     OW11905   6.667   1.776   4.230
 3669SOL    HW111906   6.701   1.844   4.295
 3669SOL    HW211907   6.670   1.685   4.272
 3670SOL     OW11908   3.243   5.274   1.594
 3670SOL    HW111909   3.326   5.293   1.542
 3670SOL    HW211910   3.266   5.223   1.677
 3671SOL     OW11911   0.063   0.482   3.388
 3671SOL    HW111912   0.120   0.407   3.356
 3671SOL    HW211913   0.048   0.474   3.487
 3672SOL     OW11914   4.312   0.981   3.159
 3672SOL    HW111915   4.279   0.899   3.206
 3672SOL    HW211916   4.244   1.010   3.091
 3673SOL     OW11917   5.141   6.168   0.886
 3673SOL    HW111918   5.123   6.072   0.864
 3673SOL    HW211919   5.084   6.195   0.964
 3674SOL     OW11920   1.299   5.325   5.699
 3674SOL    HW111921   1.304   5.320   5.799
 3674SOL    HW211922   1.392   5.329   5.661
 3675SOL     OW11923   6.959   1.658   4.383
 3675SOL    HW111924   0.011   1.696   4.444
 3675SOL    HW211925   6.886   1.617   4.437
 3676SOL     OW11926   4.838   1.769   3.099
 3676SOL    HW111927   4.887   1.801   3.180
 3676SOL    HW211928   4.759   1.828   3.082
 3677SOL     OW11929   2.178   0.433   4.121
 3677SOL    HW111930   2.085   0.436   4.083
 3677SOL    HW211931   2.229   0.358   4.079
 3678SOL     OW11932   1.371   0.549   3.802
 3678SOL    HW111933   1.337   0.515   3.890
 3678SOL    HW211934   1.468   0.527   3.794
 3679SOL     OW11935   4.972   1.019   2.424
 3679SOL    HW111936   4.904   0.987   2.358
 3679SOL    HW211937   4.977   1.119   2.420
 3680SOL     OW11938   3.838   1.144   4.134
 3680SOL    HW111939   3.925   1.144   4.085
 3680SOL    HW211940   3.856   1.157   4.232
 3681SOL     OW11941   1.421   0.047   5.054
 3681SOL    HW111942   1.440   0.144   5.038
 3681SOL    HW211943   1.483   7.008   4.998
 3682SOL     OW11944   5.523   2.321   1.402
 3682SOL    HW111945   5.436   2.290   1.364
 3682SOL    HW211946   5.579   2.242   1.426
 3683SOL     OW11947   0.221   0.765   5.849
 3683SOL    HW111948   0.290   0.817   5.799
 3683SOL    HW211949   0.136   0.762   5.797
 3684SOL     OW11950   1.716   6.809   5.453
 3684SOL    HW111951   1.661   6.786   5.533
 3684SOL    HW211952   1.757   6.900   5.466
 3685SOL     OW11953   2.006   5.689   5.421
 3685SOL    HW111954   2.087   5.650   5.465
 3685SOL    HW211955   2.035   5.751   5.348
 3686SOL     OW11956   6.880   4.225   3.813
 3686SOL    HW111957   6.867   4.323   3.802
 3686SOL    HW211958   6.966   4.198   3.769
 3687SOL     OW11959   4.899   5.864   3.380
 3687SOL    HW111960   4.893   5.920   3.297
 3687SOL    HW211961   4.812   5.867   3.429
 3688SOL     OW11962   5.992   3.354   0.284
 3688SOL    HW111963   5.909   3.405   0.308
 3688SOL    HW211964   5.968   3.260   0.261
 3689SOL     OW11965   1.415   0.340   5.676
 3689SOL    HW111966   1.464   0.318   5.591
 3689SOL    HW211967   1.435   0.435   5.701
 3690SOL     OW11968   5.075   5.077   1.021
 3690SOL    HW111969   5.015   4.998   1.004
 3690SOL    HW211970   5.170   5.050   1.007
 3691SOL     OW11971   2.341   2.213   0.240
 3691SOL    HW111972   2.362   2.162   0.323
 3691SOL    HW211973   2.254   2.260   0.252
 3692SOL     OW11974   0.391   3.432   6.208
 3692SOL    HW111975   0.445   3.399   6.130
 3692SOL    HW211976   0.361   3.526   6.191
 3693SOL     OW11977   0.595   1.843   2.793
 3693SOL    HW111978   0.661   1.894   2.738
 3693SOL    HW211979   0.584   1.751   2.755
 3694SOL     OW11980   0.042   0.109   1.722
 3694SOL    HW111981   0.094   0.043   1.776
 3694SOL    HW211982   0.035   0.195   1.772
 3695SOL     OW11983   6.645   3.129   2.809
 3695SOL    HW111984   6.590   3.205   2.774
 3695SOL    HW211985   6.634   3.050   2.750
 3696SOL     OW11986   5.026   0.848   4.621
 3696SOL    HW111987   4.955   0.787   4.657
 3696SOL    HW211988   4.996   0.943   4.632
 3697SOL     OW11989   6.309   6.318   3.487
 3697SOL    HW111990   6.294   6.402   3.539
 3697SOL    HW211991   6.251   6.245   3.524
 3698SOL     OW11992   2.178   0.370   3.022
 3698SOL    HW111993   2.123   0.336   2.946
 3698SOL    HW211994   2.124   0.367   3.106
 3699SOL     OW11995   2.543   2.119   3.878
 3699SOL    HW111996   2.636   2.085   3.864
 3699SOL    HW211997   2.538   2.165   3.967
 3700SOL     OW11998   0.870   4.961   5.338
 3700SOL    HW111999   0.880   4.914   5.251
 3700SOL    HW212000   0.837   4.897   5.407
 3701SOL     OW12001   1.271   0.041   2.864
 3701SOL    HW112002   1.312   0.131   2.878
 3701SOL    HW212003   1.332   6.987   2.900
 3702SOL     OW12004   5.082   4.538   3.829
 3702SOL    HW112005   5.028   4.563   3.749
 3702SOL    HW212006   5.035   4.568   3.912
 3703SOL     OW12007   1.025   1.829   5.426
 3703SOL    HW112008   0.984   1.919   5.413
 3703SOL    HW212009   1.120   1.839   5.456
 3704SOL     OW12010   6.851   1.909   1.274
 3704SOL    HW112011   6.922   1.867   1.217
 3704SOL    HW212012   6.861   1.876   1.368
 3705SOL     OW12013   5.036   4.865   3.315
 3705SOL    HW112014   4.938   4.882   3.304
 3705SOL    HW212015   5.085   4.951   3.315
 3706SOL     OW12016   1.231   3.446   0.419
 3706SOL    HW112017   1.267   3.522   0.364
 3706SOL    HW212018   1.268   3.452   0.512
 3707SOL     OW12019   1.843   4.924   3.570
 3707SOL    HW112020   1.822   4.957   3.478
 3707SOL    HW212021   1.802   4.834   3.583
 3708SOL     OW12022   3.968   6.851   0.805
 3708SOL    HW112023   3.893   6.911   0.834
 3708SOL    HW212024   3.958   6.830   0.708
 3709SOL     OW12025   2.162   0.640   2.732
 3709SOL    HW112026   2.100   0.669   2.659
 3709SOL    HW212027   2.226   0.715   2.753
 3710SOL     OW12028   0.155   5.597   5.474
 3710SOL    HW112029   0.181   5.505   5.503
 3710SOL    HW212030   0.233   5.659   5.486
 3711SOL     OW12031   1.780   6.146   4.678
 3711SOL    HW112032   1.751   6.186   4.765
 3711SOL    HW212033   1.877   6.166   4.664
 3712SOL     OW12034   1.880   4.952   4.972
 3712SOL    HW112035   1.889   5.002   4.886
 3712SOL    HW212036   1.817   5.001   5.033
 3713SOL     OW12037   6.421   6.585   5.143
 3713SOL    HW112038   6.512   6.599   5.180
 3713SOL    HW212039   6.426   6.573   5.044
 3714SOL     OW12040   1.036   4.892   0.253
 3714SOL    HW112041   1.024   4.912   0.156
 3714SOL    HW212042   1.042   4.978   0.304
 3715SOL     OW12043   6.605   5.948   3.650
 3715SOL    HW112044   6.543   6.016   3.610
 3715SOL    HW212045   6.645   5.892   3.578
 3716SOL     OW12046   5.198   5.610   3.696
 3716SOL    HW112047   5.189   5.534   3.632
 3716SOL    HW212048   5.143   5.687   3.663
 3717SOL     OW12049   4.149   1.219   1.303
 3717SOL    HW112050   4.226   1.280   1.283
 3717SOL    HW212051   4.136   1.212   1.402
 3718SOL     OW12052   0.217   6.759   5.974
 3718SOL    HW112053   0.267   6.795   6.053
 3718SOL    HW212054   0.144   6.699   6.005
 3719SOL     OW12055   4.484   3.569   6.386
 3719SOL    HW112056   4.495   3.665   6.412
 3719SOL    HW212057   4.397   3.535   6.422
 3720SOL     OW12058   0.061   3.086   1.635
 3720SOL    HW112059   0.122   3.046   1.703
 3720SOL    HW212060   0.106   3.165   1.592
 3721SOL     OW12061   6.697   4.518   6.456
 3721SOL    HW112062   6.763   4.593   6.464
 3721SOL    HW212063   6.639   4.533   6.377
 3722SOL     OW12064   4.024   0.081   2.470
 3722SOL    HW112065   4.118   0.088   2.505
 3722SOL    HW212066   3.970   0.021   2.529
 3723SOL     OW12067   4.615   5.124   6.438
 3723SOL    HW112068   4.617   5.200   6.502
 3723SOL    HW212069   4.538   5.063   6.460
 3724SOL     OW12070   1.563   4.641   4.866
 3724SOL    HW112071   1.659   4.613   4.872
 3724SOL    HW212072   1.515   4.615   4.950
 3725SOL     OW12073   0.454   6.958   6.600
 3725SOL    HW112074   0.479   6.862   6.615
 3725SOL    HW212075   0.531   7.006   6.559
 3726SOL     OW12076   5.499   3.410   3.785
 3726SOL    HW112077   5.493   3.405   3.685
 3726SOL    HW212078   5.420   3.363   3.825
 3727SOL     OW12079   0.153   3.199   4.291
 3727SOL    HW112080   0.071   3.207   4.235
 3727SOL    HW212081   0.165   3.103   4.318
 3728SOL     OW12082   3.180   3.647   6.840
 3728SOL    HW112083   3.168   3.644   6.939
 3728SOL    HW212084   3.215   3.736   6.813
 3729SOL     OW12085   0.729   0.031   5.504
 3729SOL    HW112086   0.771   0.117   5.531
 3729SOL    HW212087   0.800   6.977   5.494
 3730SOL     OW12088   3.931   5.780   5.913
 3730SOL    HW112089   3.975   5.731   5.839
 3730SOL    HW212090   3.892   5.714   5.978
 3731SOL     OW12091   0.498   2.236   6.228
 3731SOL    HW112092   0.491   2.167   6.300
 3731SOL    HW212093   0.452   2.320   6.258
 3732SOL     OW12094   2.471   2.118   6.956
 3732SOL    HW112095   2.471   2.037   7.015
 3732SOL    HW212096   2.487   2.199   7.011
 3733SOL     OW12097   1.796   1.926   3.556
 3733SOL    HW112098   1.875   1.868   3.574
 3733SOL    HW212099   1.784   1.935   3.457
 3734SOL     OW12100   4.214   0.057   1.405
 3734SOL    HW112101   4.209   0.145   1.358
 3734SOL    HW212102   4.274   0.066   1.485
 3735SOL     OW12103   4.321   0.284   2.289
 3735SOL    HW112104   4.298   0.322   2.379
 3735SOL    HW212105   4.239   0.245   2.248
 3736SOL     OW12106   6.949   1.111   1.399
 3736SOL    HW112107   6.899   1.059   1.469
 3736SOL    HW212108   6.977   1.199   1.436
 3737SOL     OW12109   0.627   2.252   3.314
 3737SOL    HW112110   0.564   2.176   3.331
 3737SOL    HW212111   0.715   2.233   3.359
 3738SOL     OW12112   6.426   6.389   0.882
 3738SOL    HW112113   6.412   6.294   0.912
 3738SOL    HW212114   6.520   6.400   0.850
 3739SOL     OW12115   2.876   4.875   1.029
 3739SOL    HW112116   2.845   4.892   0.936
 3739SOL    HW212117   2.880   4.961   1.080
 3740SOL     OW12118   5.629   5.078   6.931
 3740SOL    HW112119   5.650   5.060   6.835
 3740SOL    HW212120   5.681   5.015   6.989
 3741SOL     OW12121   5.244   2.597   0.349
 3741SOL    HW112122   5.292   2.676   0.313
 3741SOL    HW212123   5.211   2.541   0.273
 3742SOL     OW12124   3.648   5.973   0.176
 3742SOL    HW112125   3.569   6.034   0.183
 3742SOL    HW212126   3.694   5.969   0.265
 3743SOL     OW12127   4.047   3.594   1.391
 3743SOL    HW112128   4.058   3.660   1.466
 3743SOL    HW212129   4.137   3.574   1.352
 3744SOL     OW12130   0.058   6.446   2.328
 3744SOL    HW112131   6.996   6.385   2.320
 3744SOL    HW212132   0.094   6.467   2.237
 3745SOL     OW12133   4.791   3.991   2.453
 3745SOL    HW112134   4.695   4.015   2.471
 3745SOL    HW212135   4.794   3.903   2.405
 3746SOL     OW12136   6.511   0.724   3.899
 3746SOL    HW112137   6.534   0.760   3.809
 3746SOL    HW212138   6.486   0.628   3.892
 3747SOL     OW12139   4.515   6.452   6.165
 3747SOL    HW112140   4.496   6.480   6.260
 3747SOL    HW212141   4.493   6.528   6.103
 3748SOL     OW12142   5.425   1.557   2.602
 3748SOL    HW112143   5.394   1.517   2.515
 3748SOL    HW212144   5.434   1.485   2.670
 3749SOL     OW12145   0.311   6.141   3.373
 3749SOL    HW112146   0.285   6.062   3.429
 3749SOL    HW212147   0.394   6.183   3.411
 3750SOL     OW12148   5.687   3.942   6.819
 3750SOL    HW112149   5.644   3.876   6.757
 3750SOL    HW212150   5.625   4.019   6.834
 3751SOL     OW12151   1.903   3.151   1.373
 3751SOL    HW112152   1.850   3.072   1.341
 3751SOL    HW212153   1.990   3.119   1.411
 3752SOL     OW12154   0.657   0.136   6.507
 3752SOL    HW112155   0.569   0.177   6.480
 3752SOL    HW212156   0.717   0.207   6.542
 3753SOL     OW12157   0.194   5.888   4.568
 3753SOL    HW112158   0.125   5.948   4.528
 3753SOL    HW212159   0.222   5.924   4.657
 3754SOL     OW12160   5.800   6.304   1.295
 3754SOL    HW112161   5.835   6.281   1.386
 3754SOL    HW212162   5.868   6.359   1.247
 3755SOL     OW12163   5.123   4.018   3.974
 3755SOL    HW112164   5.138   4.117   3.969
 3755SOL    HW212165   5.030   4.000   4.005
 3756SOL     OW12166   1.667   1.947   6.182
 3756SOL    HW112167   1.751   2.001   6.191
 3756SOL    HW212168   1.588   2.007   6.196
 3757SOL     OW12169   3.370   5.913   6.774
 3757SOL    HW112170   3.342   5.877   6.863
 3757SOL    HW212171   3.349   6.010   6.770
 3758SOL     OW12172   1.896   0.948   4.204
 3758SOL    HW112173   1.820   0.883   4.206
 3758SOL    HW212174   1.980   0.901   4.179
 3759SOL     OW12175   5.204   4.299   5.809
 3759SOL    HW112176   5.149   4.245   5.872
 3759SOL    HW212177   5.155   4.383   5.785
 3760SOL     OW12178   1.664   2.456   4.632
 3760SOL    HW112179   1.658   2.549   4.669
 3760SOL    HW212180   1.715   2.458   4.546
 3761SOL     OW12181   0.459   6.431   4.988
 3761SOL    HW112182   0.550   6.467   4.968
 3761SOL    HW212183   0.450   6.339   4.951
 3762SOL     OW12184   0.493   4.270   6.970
 3762SOL    HW112185   0.394   4.252   6.974
 3762SOL    HW212186   0.537   4.224   0.031
 3763SOL     OW12187   5.999   2.868   6.575
 3763SOL    HW112188   6.023   2.889   6.670
 3763SOL    HW212189   5.956   2.948   6.533
 3764SOL     OW12190   2.589   0.261   4.025
 3764SOL    HW112191   2.580   0.311   4.111
 3764SOL    HW212192   2.631   0.320   3.956
 3765SOL     OW12193   5.667   0.591   3.107
 3765SOL    HW112194   5.766   0.604   3.105
 3765SOL    HW212195   5.622   0.673   3.071
 3766SOL     OW12196   6.993   0.928   4.173
 3766SOL    HW112197   0.028   0.968   4.096
 3766SOL    HW212198   6.932   0.997   4.212
 3767SOL     OW12199   1.701   5.087   6.796
 3767SOL    HW112200   1.764   5.015   6.769
 3767SOL    HW212201   1.607   5.054   6.788
 3768SOL     OW12202   4.828   6.630   6.765
 3768SOL    HW112203   4.868   6.693   6.831
 3768SOL    HW212204   4.893   6.558   6.743
 3769SOL     OW12205   5.182   6.394   5.291
 3769SOL    HW112206   5.131   6.480   5.297
 3769SOL    HW212207   5.279   6.414   5.277
 3770SOL     OW12208   2.211   1.266   6.499
 3770SOL    HW112209   2.122   1.221   6.509
 3770SOL    HW212210   2.248   1.286   6.590
 3771SOL     OW12211   5.336   2.585   6.742
 3771SOL    HW112212   5.321   2.488   6.722
 3771SOL    HW212213   5.252   2.636   6.727
 3772SOL     OW12214   5.821   0.808   1.317
 3772SOL    HW112215   5.812   0.829   1.220
 3772SOL    HW212216   5.730   0.798   1.358
 3773SOL     OW12217   6.184   2.670   5.979
 3773SOL    HW112218   6.132   2.596   6.022
 3773SOL    HW212219   6.187   2.748   6.041
 3774SOL     OW12220   0.306   0.620   0.025
 3774SOL    HW112221   0.244   0.592   6.967
 3774SOL    HW212222   0.395   0.644   7.003
 3775SOL     OW12223   5.312   3.605   3.550
 3775SOL    HW112224   5.263   3.688   3.574
 3775SOL    HW212225   5.401   3.629   3.512
 3776SOL     OW12226   2.325   2.629   1.272
 3776SOL    HW112227   2.371   2.674   1.348
 3776SOL    HW212228   2.370   2.542   1.252
 3777SOL     OW12229   2.858   5.211   4.158
 3777SOL    HW112230   2.928   5.254   4.101
 3777SOL    HW212231   2.901   5.172   4.239
 3778SOL     OW12232   2.922   5.498   1.809
 3778SOL    HW112233   2.843   5.525   1.753
 3778SOL    HW212234   2.972   5.579   1.837
 3779SOL     OW12235   2.593   4.503   6.649
 3779SOL    HW112236   2.591   4.590   6.600
 3779SOL    HW212237   2.661   4.442   6.606
 3780SOL     OW12238   3.106   6.081   5.370
 3780SOL    HW112239   3.170   6.004   5.375
 3780SOL    HW212240   3.151   6.161   5.331
 3781SOL     OW12241   3.561   6.644   4.573
 3781SOL    HW112242   3.491   6.660   4.503
 3781SOL    HW212243   3.555   6.550   4.606
 3782SOL     OW12244   2.229   1.687   4.390
 3782SOL    HW112245   2.269   1.747   4.321
 3782SOL    HW212246   2.220   1.595   4.353
 3783SOL     OW12247   5.352   6.635   4.901
 3783SOL    HW112248   5.270   6.687   4.924
 3783SOL    HW212249   5.423   6.696   4.868
 3784SOL     OW12250   5.620   1.227   3.229
 3784SOL    HW112251   5.526   1.255   3.206
 3784SOL    HW212252   5.618   1.159   3.302
 3785SOL     OW12253   2.556   2.066   0.981
 3785SOL    HW112254   2.597   2.154   0.959
 3785SOL    HW212255   2.627   1.995   0.981
 3786SOL     OW12256   2.900   5.267   2.781
 3786SOL    HW112257   2.949   5.314   2.707
 3786SOL    HW212258   2.864   5.180   2.746
 3787SOL     OW12259   4.716   1.036   3.882
 3787SOL    HW112260   4.752   1.103   3.947
 3787SOL    HW212261   4.700   1.081   3.794
 3788SOL     OW12262   6.259   2.936   2.808
 3788SOL    HW112263   6.301   2.991   2.735
 3788SOL    HW212264   6.281   2.840   2.793
 3789SOL     OW12265   1.638   4.724   4.014
 3789SOL    HW112266   1.566   4.741   3.947
 3789SOL    HW212267   1.723   4.700   3.967
 3790SOL     OW12268   1.731   3.329   4.291
 3790SOL    HW112269   1.633   3.321   4.308
 3790SOL    HW212270   1.748   3.405   4.229
 3791SOL     OW12271   5.383   6.787   1.547
 3791SOL    HW112272   5.478   6.819   1.546
 3791SOL    HW212273   5.381   6.691   1.519
 3792SOL     OW12274   6.044   6.450   5.066
 3792SOL    HW112275   6.102   6.526   5.096
 3792SOL    HW212276   6.019   6.394   5.145
 3793SOL     OW12277   1.930   1.645   2.446
 3793SOL    HW112278   2.006   1.669   2.386
 3793SOL    HW212279   1.874   1.726   2.464
 3794SOL     OW12280   4.384   6.343   1.973
 3794SOL    HW112281   4.414   6.435   1.949
 3794SOL    HW212282   4.285   6.342   1.986
 3795SOL     OW12283   4.869   0.842   6.343
 3795SOL    HW112284   4.810   0.854   6.264
 3795SOL    HW212285   4.960   0.880   6.323
 3796SOL     OW12286   1.120   2.172   1.915
 3796SOL    HW112287   1.099   2.085   1.959
 3796SOL    HW212288   1.159   2.235   1.982
 3797SOL     OW12289   1.333   5.034   2.278
 3797SOL    HW112290   1.255   4.974   2.261
 3797SOL    HW212291   1.408   4.981   2.317
 3798SOL     OW12292   2.251   4.715   2.659
 3798SOL    HW112293   2.197   4.661   2.724
 3798SOL    HW212294   2.234   4.812   2.675
 3799SOL     OW12295   1.748   1.461   5.475
 3799SOL    HW112296   1.750   1.381   5.414
 3799SOL    HW212297   1.672   1.521   5.449
 3800SOL     OW12298   5.299   2.368   4.806
 3800SOL    HW112299   5.307   2.425   4.889
 3800SOL    HW212300   5.391   2.345   4.774
 3801SOL     OW12301   6.541   5.685   6.067
 3801SOL    HW112302   6.454   5.704   6.113
 3801SOL    HW212303   6.536   5.717   5.972
 3802SOL     OW12304   0.979   1.935   4.734
 3802SOL    HW112305   0.948   1.868   4.801
 3802SOL    HW212306   1.078   1.944   4.738
 3803SOL     OW12307   3.971   6.946   1.500
 3803SOL    HW112308   3.931   6.982   1.585
 3803SOL    HW212309   4.063   6.984   1.488
 3804SOL     OW12310   4.371   2.072   4.348
 3804SOL    HW112311   4.282   2.116   4.363
 3804SOL    HW212312   4.444   2.136   4.373
 3805SOL     OW12313   2.980   4.164   1.701
 3805SOL    HW112314   2.996   4.257   1.733
 3805SOL    HW212315   2.885   4.154   1.673
 3806SOL     OW12316   2.764   2.706   0.398
 3806SOL    HW112317   2.828   2.738   0.469
 3806SOL    HW212318   2.814   2.683   0.315
 3807SOL     OW12319   0.925   6.988   4.044
 3807SOL    HW112320   1.013   6.991   4.091
 3807SOL    HW212321   0.873   6.908   4.076
 3808SOL     OW12322   3.669   6.846   1.907
 3808SOL    HW112323   3.746   6.868   1.967
 3808SOL    HW212324   3.591   6.903   1.932
 3809SOL     OW12325   5.961   1.458   0.013
 3809SOL    HW112326   5.975   1.489   0.107
 3809SOL    HW212327   5.864   1.461   7.007
 3810SOL     OW12328   3.141   3.158   5.333
 3810SOL    HW112329   3.146   3.177   5.235
 3810SOL    HW212330   3.205   3.217   5.382
 3811SOL     OW12331   0.592   4.751   4.951
 3811SOL    HW112332   0.537   4.674   4.982
 3811SOL    HW212333   0.559   4.783   4.862
 3812SOL     OW12334   6.311   1.631   5.520
 3812SOL    HW112335   6.364   1.589   5.593
 3812SOL    HW212336   6.374   1.673   5.454
 3813SOL     OW12337   3.164   5.539   0.372
 3813SOL    HW112338   3.146   5.595   0.291
 3813SOL    HW212339   3.118   5.451   0.362
 3814SOL     OW12340   6.684   5.883   2.253
 3814SOL    HW112341   6.595   5.877   2.208
 3814SOL    HW212342   6.741   5.951   2.207
 3815SOL     OW12343   5.593   2.281   1.772
 3815SOL    HW112344   5.673   2.248   1.722
 3815SOL    HW212345   5.520   2.301   1.707
 3816SOL     OW12346   0.019   6.738   2.120
 3816SOL    HW112347   0.064   6.799   2.056
 3816SOL    HW212348   0.062   6.648   2.116
 3817SOL     OW12349   4.667   1.866   4.445
 3817SOL    HW112350   4.638   1.902   4.533
 3817SOL    HW212351   4.740   1.799   4.459
 3818SOL     OW12352   4.467   5.952   2.430
 3818SOL    HW112353   4.433   6.037   2.469
 3818SOL    HW212354   4.443   5.948   2.333
 3819SOL     OW12355   5.267   5.063   0.418
 3819SOL    HW112356   5.167   5.069   0.407
 3819SOL    HW212357   5.287   5.015   0.504
 3820SOL     OW12358   4.764   5.834   3.675
 3820SOL    HW112359   4.723   5.925   3.669
 3820SOL    HW212360   4.710   5.770   3.620
 3821SOL     OW12361   1.407   3.484   1.761
 3821SOL    HW112362   1.418   3.440   1.672
 3821SOL    HW212363   1.394   3.415   1.832
 3822SOL     OW12364   2.529   5.199   1.233
 3822SOL    HW112365   2.548   5.168   1.140
 3822SOL    HW212366   2.515   5.119   1.292
 3823SOL     OW12367   3.773   2.713   5.946
 3823SOL    HW112368   3.810   2.794   5.902
 3823SOL    HW212369   3.705   2.670   5.887
 3824SOL     OW12370   6.210   1.858   5.750
 3824SOL    HW112371   6.166   1.846   5.839
 3824SOL    HW212372   6.194   1.778   5.693
 3825SOL     OW12373   0.519   6.395   5.595
 3825SOL    HW112374   0.435   6.344   5.612
 3825SOL    HW212375   0.515   6.482   5.643
 3826SOL     OW12376   6.646   3.487   1.694
 3826SOL    HW112377   6.547   3.479   1.687
 3826SOL    HW212378   6.685   3.396   1.709
 3827SOL     OW12379   3.717   3.326   0.661
 3827SOL    HW112380   3.638   3.385   0.651
 3827SOL    HW212381   3.764   3.345   0.747
 3828SOL     OW12382   4.620   2.401   1.859
 3828SOL    HW112383   4.627   2.307   1.826
 3828SOL    HW212384   4.682   2.413   1.937
 3829SOL     OW12385   2.637   5.353   3.689
 3829SOL    HW112386   2.632   5.308   3.778
 3829SOL    HW212387   2.732   5.362   3.662
 3830SOL     OW12388   2.390   0.372   4.851
 3830SOL    HW112389   2.437   0.409   4.770
 3830SOL    HW212390   2.357   0.446   4.908
 3831SOL     OW12391   4.393   1.906   2.917
 3831SOL    HW112392   4.350   1.960   2.845
 3831SOL    HW212393   4.353   1.815   2.920
 3832SOL     OW12394   6.704   0.739   1.590
 3832SOL    HW112395   6.699   0.764   1.493
 3832SOL    HW212396   6.648   0.657   1.605
 3833SOL     OW12397   0.911   4.919   0.807
 3833SOL    HW112398   0.997   4.877   0.836
 3833SOL    HW212399   0.878   4.979   0.879
 3834SOL     OW12400   2.843   1.672   0.742
 3834SOL    HW112401   2.915   1.692   0.675
 3834SOL    HW212402   2.885   1.641   0.827
 3835SOL     OW12403   3.826   5.640   6.133
 3835SOL    HW112404   3.911   5.588   6.145
 3835SOL    HW212405   3.748   5.578   6.141
 3836SOL     OW12406   1.453   3.856   6.186
 3836SOL    HW112407   1.547   3.834   6.213
 3836SOL    HW212408   1.426   3.943   6.227
 3837SOL     OW12409   4.084   3.699   0.525
 3837SOL    HW112410   4.154   3.679   0.593
 3837SOL    HW212411   4.008   3.635   0.535
 3838SOL     OW12412   5.928   2.210   4.328
 3838SOL    HW112413   5.989   2.273   4.376
 3838SOL    HW212414   5.870   2.162   4.394
 3839SOL     OW12415   5.658   6.112   5.631
 3839SOL    HW112416   5.665   6.155   5.721
 3839SOL    HW212417   5.685   6.178   5.560
 3840SOL     OW12418   1.752   1.525   3.720
 3840SOL    HW112419   1.747   1.506   3.622
 3840SOL    HW212420   1.660   1.531   3.758
 3841SOL     OW12421   1.013   3.688   5.030
 3841SOL    HW112422   1.046   3.739   4.950
 3841SOL    HW212423   0.948   3.619   5.001
 3842SOL     OW12424   0.692   4.880   0.248
 3842SOL    HW112425   0.703   4.791   0.291
 3842SOL    HW212426   0.745   4.948   0.298
 3843SOL     OW12427   5.909   3.084   0.669
 3843SOL    HW112428   5.820   3.089   0.715
 3843SOL    HW212429   5.899   3.036   0.582
 3844SOL     OW12430   2.056   4.918   5.947
 3844SOL    HW112431   2.106   4.968   5.877
 3844SOL    HW212432   1.989   4.858   5.904
 3845SOL     OW12433   3.302   3.695   3.261
 3845SOL    HW112434   3.288   3.770   3.197
 3845SOL    HW212435   3.230   3.696   3.330
 3846SOL     OW12436   0.507   4.772   4.281
 3846SOL    HW112437   0.508   4.764   4.381
 3846SOL    HW212438   0.511   4.868   4.255
 3847SOL     OW12439   0.223   0.510   5.841
 3847SOL    HW112440   0.213   0.609   5.845
 3847SOL    HW212441   0.143   0.467   5.883
 3848SOL     OW12442   2.647   4.910   1.238
 3848SOL    HW112443   2.664   4.815   1.265
 3848SOL    HW212444   2.714   4.970   1.284
 3849SOL     OW12445   0.946   2.178   5.615
 3849SOL    HW112446   0.987   2.248   5.673
 3849SOL    HW212447   0.862   2.144   5.658
 3850SOL     OW12448   3.369   4.062   1.956
 3850SOL    HW112449   3.367   4.070   1.857
 3850SOL    HW212450   3.423   4.137   1.995
 3851SOL     OW12451   1.989   3.180   2.895
 3851SOL    HW112452   2.019   3.248   2.828
 3851SOL    HW212453   1.926   3.222   2.960
 3852SOL     OW12454   4.058   1.016   4.618
 3852SOL    HW112455   4.096   1.032   4.709
 3852SOL    HW212456   4.021   0.924   4.613
 3853SOL     OW12457   1.174   3.841   2.235
 3853SOL    HW112458   1.247   3.806   2.176
 3853SOL    HW212459   1.124   3.913   2.187
 3854SOL     OW12460   0.781   3.601   4.443
 3854SOL    HW112461   0.751   3.676   4.383
 3854SOL    HW212462   0.840   3.539   4.391
 3855SOL     OW12463   6.194   3.235   5.798
 3855SOL    HW112464   6.270   3.298   5.778
 3855SOL    HW212465   6.168   3.187   5.715
 3856SOL     OW12466   0.079   6.025   5.906
 3856SOL    HW112467   0.124   6.045   5.819
 3856SOL    HW212468   0.122   6.077   5.979
 3857SOL     OW12469   1.193   6.419   4.654
 3857SOL    HW112470   1.216   6.352   4.725
 3857SOL    HW212471   1.128   6.486   4.691
 3858SOL     OW12472   2.342   6.099   6.722
 3858SOL    HW112473   2.405   6.063   6.654
 3858SOL    HW212474   2.354   6.199   6.728
 3859SOL     OW12475   0.334   3.408   2.460
 3859SOL    HW112476   0.348   3.361   2.373
 3859SOL    HW212477   0.280   3.490   2.445
 3860SOL     OW12478   2.615   6.733   5.757
 3860SOL    HW112479   2.656   6.753   5.846
 3860SOL    HW212480   2.663   6.656   5.714
 3861SOL     OW12481   4.652   4.394   0.973
 3861SOL    HW112482   4.584   4.429   0.909
 3861SOL    HW212483   4.703   4.320   0.931
 3862SOL     OW12484   1.306   6.004   5.811
 3862SOL    HW112485   1.310   5.947   5.728
 3862SOL    HW212486   1.257   6.089   5.791
 3863SOL     OW12487   3.210   3.908   1.308
 3863SOL    HW112488   3.202   3.899   1.407
 3863SOL    HW212489   3.142   3.974   1.275
 3864SOL     OW12490   2.536   1.904   0.097
 3864SOL    HW112491   2.626   1.933   0.131
 3864SOL    HW212492   2.548   1.831   0.030
 3865SOL     OW12493   4.804   0.494   2.222
 3865SOL    HW112494   4.892   0.493   2.173
 3865SOL    HW212495   4.749   0.571   2.189
 3866SOL     OW12496   3.792   6.828   6.719
 3866SOL    HW112497   3.867   6.888   6.689
 3866SOL    HW212498   3.748   6.787   6.639
 3867SOL     OW12499   2.128   3.278   3.258
 3867SOL    HW112500   2.149   3.233   3.345
 3867SOL    HW212501   2.093   3.370   3.276
 3868SOL     OW12502   2.216   6.479   2.866
 3868SOL    HW112503   2.155   6.442   2.936
 3868SOL    HW212504   2.308   6.490   2.905
 3869SOL     OW12505   1.021   3.394   3.285
 3869SOL    HW112506   1.017   3.296   3.303
 3869SOL    HW212507   1.020   3.410   3.186
 3870SOL     OW12508   2.660   4.662   0.286
 3870SOL    HW112509   2.627   4.586   0.229
 3870SOL    HW212510   2.735   4.708   0.239
 3871SOL     OW12511   2.344   0.469   3.307
 3871SOL    HW112512   2.269   0.404   3.297
 3871SOL    HW212513   2.364   0.511   3.218
 3872SOL     OW12514   3.854   4.130   0.817
 3872SOL    HW112515   3.764   4.126   0.775
 3872SOL    HW212516   3.845   4.117   0.916
 3873SOL     OW12517   5.627   4.525   2.147
 3873SOL    HW112518   5.720   4.544   2.114
 3873SOL    HW212519   5.612   4.571   2.234
 3874SOL     OW12520   4.595   0.757   6.269
 3874SOL    HW112521   4.603   0.658   6.281
 3874SOL    HW212522   4.643   0.804   6.343
 3875SOL     OW12523   1.483   5.259   1.083
 3875SOL    HW112524   1.434   5.294   1.163
 3875SOL    HW212525   1.501   5.335   1.020
 3876SOL     OW12526   5.033   3.704   3.726
 3876SOL    HW112527   5.076   3.689   3.637
 3876SOL    HW212528   4.999   3.798   3.731
 3877SOL     OW12529   6.405   0.789   2.445
 3877SOL    HW112530   6.307   0.809   2.453
 3877SOL    HW212531   6.426   0.762   2.351
 3878SOL     OW12532   3.380   6.513   5.814
 3878SOL    HW112533   3.347   6.594   5.864
 3878SOL    HW212534   3.335   6.508   5.725
 3879SOL     OW12535   3.758   5.991   1.867
 3879SOL    HW112536   3.662   6.002   1.841
 3879SOL    HW212537   3.788   6.070   1.921
 3880SOL     OW12538   5.148   2.981   4.243
 3880SOL    HW112539   5.105   3.070   4.231
 3880SOL    HW212540   5.098   2.913   4.188
 3881SOL     OW12541   1.660   3.732   0.407
 3881SOL    HW112542   1.577   3.765   0.453
 3881SOL    HW212543   1.640   3.644   0.362
 3882SOL     OW12544   0.428   0.386   5.427
 3882SOL    HW112545   0.364   0.431   5.488
 3882SOL    HW212546   0.379   0.322   5.367
 3883SOL     OW12547   3.540   0.575   5.813
 3883SOL    HW112548   3.566   0.482   5.841
 3883SOL    HW212549   3.540   0.582   5.714
 3884SOL     OW12550   1.673   4.970   5.867
 3884SOL    HW112551   1.739   4.902   5.836
 3884SOL    HW212552   1.714   5.061   5.863
 3885SOL     OW12553   6.541   1.031   4.384
 3885SOL    HW112554   6.569   1.097   4.454
 3885SOL    HW212555   6.503   1.080   4.306
 3886SOL     OW12556   6.848   6.253   5.735
 3886SOL    HW112557   6.901   6.337   5.737
 3886SOL    HW212558   6.883   6.193   5.664
 3887SOL     OW12559   4.357   2.361   6.085
 3887SOL    HW112560   4.302   2.444   6.096
 3887SOL    HW212561   4.448   2.386   6.050
 3888SOL     OW12562   6.365   2.033   0.866
 3888SOL    HW112563   6.453   2.044   0.819
 3888SOL    HW212564   6.322   2.123   0.877
 3889SOL     OW12565   0.796   6.363   6.182
 3889SOL    HW112566   0.817   6.396   6.090
 3889SOL    HW212567   0.838   6.273   6.196
 3890SOL     OW12568   5.398   4.035   3.121
 3890SOL    HW112569   5.350   3.981   3.189
 3890SOL    HW212570   5.407   3.982   3.036
 3891SOL     OW12571   5.295   4.730   5.822
 3891SOL    HW112572   5.367   4.714   5.755
 3891SOL    HW212573   5.269   4.644   5.865
 3892SOL     OW12574   4.896   6.423   3.019
 3892SOL    HW112575   4.864   6.335   2.986
 3892SOL    HW212576   4.963   6.410   3.092
 3893SOL     OW12577   3.007   5.925   3.946
 3893SOL    HW112578   3.037   6.015   3.914
 3893SOL    HW212579   3.058   5.854   3.897
 3894SOL     OW12580   5.191   3.917   7.000
 3894SOL    HW112581   5.266   3.984   7.003
 3894SOL    HW212582   5.180   3.875   0.073
 3895SOL     OW12583   2.713   2.073   5.481
 3895SOL    HW112584   2.670   2.043   5.566
 3895SOL    HW212585   2.774   2.150   5.500
 3896SOL     OW12586   6.458   2.704   5.966
 3896SOL    HW112587   6.438   2.790   5.919
 3896SOL    HW212588   6.373   2.653   5.982
 3897SOL     OW12589   3.439   6.787   2.223
 3897SOL    HW112590   3.442   6.808   2.126
 3897SOL    HW212591   3.378   6.710   2.239
 3898SOL     OW12592   3.658   4.184   4.321
 3898SOL    HW112593   3.590   4.253   4.298
 3898SOL    HW212594   3.630   4.136   4.404
 3899SOL     OW12595   4.619   1.760   4.993
 3899SOL    HW112596   4.718   1.772   4.993
 3899SOL    HW212597   4.576   1.844   5.025
 3900SOL     OW12598   6.450   2.652   3.630
 3900SOL    HW112599   6.421   2.561   3.601
 3900SOL    HW212600   6.395   2.721   3.583
 3901SOL     OW12601   2.006   5.864   5.164
 3901SOL    HW112602   2.093   5.908   5.141
 3901SOL    HW212603   1.949   5.928   5.216
 3902SOL     OW12604   4.459   5.039   1.421
 3902SOL    HW112605   4.544   5.080   1.386
 3902SOL    HW212606   4.456   4.942   1.395
 3903SOL     OW12607   4.258   2.532   5.852
 3903SOL    HW112608   4.239   2.622   5.813
 3903SOL    HW212609   4.339   2.493   5.807
 3904SOL     OW12610   2.274   6.190   1.385
 3904SOL    HW112611   2.251   6.160   1.293
 3904SOL    HW212612   2.190   6.211   1.435
 3905SOL     OW12613   6.837   0.411   5.289
 3905SOL    HW112614   6.792   0.472   5.224
 3905SOL    HW212615   6.907   0.358   5.241
 3906SOL     OW12616   0.398   5.608   4.602
 3906SOL    HW112617   0.472   5.674   4.617
 3906SOL    HW212618   0.325   5.623   4.669
 3907SOL     OW12619   0.800   1.180   4.676
 3907SOL    HW112620   0.866   1.132   4.733
 3907SOL    HW212621   0.707   1.155   4.704
 3908SOL     OW12622   1.437   0.289   4.534
 3908SOL    HW112623   1.461   0.385   4.523
 3908SOL    HW212624   1.361   0.266   4.474
 3909SOL     OW12625   6.182   2.079   6.970
 3909SOL    HW112626   6.152   2.170   6.943
 3909SOL    HW212627   6.116   2.011   6.939
 3910SOL     OW12628   3.647   2.684   0.600
 3910SOL    HW112629   3.579   2.611   0.608
 3910SOL    HW212630   3.603   2.769   0.571
 3911SOL     OW12631   0.114   1.070   0.874
 3911SOL    HW112632   0.207   1.039   0.897
 3911SOL    HW212633   0.054   1.057   0.953
 3912SOL     OW12634   3.869   2.213   0.329
 3912SOL    HW112635   3.770   2.201   0.338
 3912SOL    HW212636   3.903   2.270   0.404
 3913SOL     OW12637   4.778   5.479   1.600
 3913SOL    HW112638   4.784   5.462   1.502
 3913SOL    HW212639   4.707   5.420   1.640
 3914SOL     OW12640   0.145   1.092   0.195
 3914SOL    HW112641   0.211   1.046   0.136
 3914SOL    HW212642   0.053   1.064   0.169
 3915SOL     OW12643   4.765   5.867   5.950
 3915SOL    HW112644   4.672   5.831   5.943
 3915SOL    HW212645   4.786   5.889   6.045
 3916SOL     OW12646   2.417   1.934   2.504
 3916SOL    HW112647   2.370   2.009   2.456
 3916SOL    HW212648   2.454   1.968   2.590
 3917SOL     OW12649   3.347   4.381   1.268
 3917SOL    HW112650   3.312   4.290   1.291
 3917SOL    HW212651   3.275   4.449   1.283
 3918SOL     OW12652   5.519   0.667   0.289
 3918SOL    HW112653   5.507   0.630   0.197
 3918SOL    HW212654   5.429   0.678   0.332
 3919SOL     OW12655   3.898   6.858   2.342
 3919SOL    HW112656   3.801   6.879   2.350
 3919SOL    HW212657   3.952   6.932   2.383
 3920SOL     OW12658   3.082   1.593   5.477
 3920SOL    HW112659   3.059   1.622   5.569
 3920SOL    HW212660   3.066   1.668   5.413
 3921SOL     OW12661   0.003   3.153   6.338
 3921SOL    HW112662   6.995   3.210   6.416
 3921SOL    HW212663   0.068   3.082   6.367
 3922SOL     OW12664   4.705   4.537   3.226
 3922SOL    HW112665   4.750   4.613   3.179
 3922SOL    HW212666   4.770   4.496   3.291
 3923SOL     OW12667   5.492   1.023   1.340
 3923SOL    HW112668   5.465   1.118   1.327
 3923SOL    HW212669   5.561   0.998   1.272
 3924SOL     OW12670   5.527   5.507   4.298
 3924SOL    HW112671   5.496   5.598   4.324
 3924SOL    HW212672   5.627   5.507   4.290
 3925SOL     OW12673   5.421   3.772   0.766
 3925SOL    HW112674   5.462   3.825   0.692
 3925SOL    HW212675   5.325   3.798   0.776
 3926SOL     OW12676   0.052   5.790   6.155
 3926SOL    HW112677   0.130   5.831   6.203
 3926SOL    HW212678   0.027   5.846   6.076
 3927SOL     OW12679   5.417   2.210   5.997
 3927SOL    HW112680   5.391   2.114   6.012
 3927SOL    HW212681   5.362   2.247   5.922
 3928SOL     OW12682   3.407   6.029   1.995
 3928SOL    HW112683   3.348   6.109   1.986
 3928SOL    HW212684   3.433   6.017   2.090
 3929SOL     OW12685   0.582   2.491   5.023
 3929SOL    HW112686   0.545   2.489   5.116
 3929SOL    HW212687   0.578   2.399   4.984
 3930SOL     OW12688   1.881   4.754   3.878
 3930SOL    HW112689   1.939   4.673   3.883
 3930SOL    HW212690   1.929   4.825   3.826
 3931SOL     OW12691   2.086   2.175   1.522
 3931SOL    HW112692   1.987   2.188   1.523
 3931SOL    HW212693   2.116   2.138   1.610
 3932SOL     OW12694   2.481   4.870   3.730
 3932SOL    HW112695   2.523   4.785   3.698
 3932SOL    HW212696   2.486   4.874   3.830
 3933SOL     OW12697   2.284   5.509   1.296
 3933SOL    HW112698   2.236   5.503   1.384
 3933SOL    HW212699   2.233   5.459   1.227
 3934SOL     OW12700   0.277   0.763   1.523
 3934SOL    HW112701   0.253   0.666   1.520
 3934SOL    HW212702   0.216   0.814   1.462
 3935SOL     OW12703   6.494   3.840   6.175
 3935SOL    HW112704   6.469   3.793   6.090
 3935SOL    HW212705   6.547   3.779   6.233
 3936SOL     OW12706   6.704   4.435   5.262
 3936SOL    HW112707   6.780   4.493   5.292
 3936SOL    HW212708   6.629   4.442   5.328
 3937SOL     OW12709   6.862   6.127   1.590
 3937SOL    HW112710   6.903   6.042   1.622
 3937SOL    HW212711   6.885   6.140   1.493
 3938SOL     OW12712   1.295   3.383   2.092
 3938SOL    HW112713   1.247   3.381   2.180
 3938SOL    HW212714   1.257   3.456   2.036
 3939SOL     OW12715   1.159   1.260   2.458
 3939SOL    HW112716   1.118   1.176   2.492
 3939SOL    HW212717   1.158   1.329   2.530
 3940SOL     OW12718   3.379   5.719   0.700
 3940SOL    HW112719   3.304   5.778   0.732
 3940SOL    HW212720   3.460   5.735   0.758
 3941SOL     OW12721   5.679   5.919   3.055
 3941SOL    HW112722   5.580   5.927   3.045
 3941SOL    HW212723   5.703   5.918   3.152
 3942SOL     OW12724   6.949   5.823   5.467
 3942SOL    HW112725   6.978   5.842   5.374
 3942SOL    HW212726   0.009   5.784   5.519
 3943SOL     OW12727   1.486   2.666   0.347
 3943SOL    HW112728   1.546   2.719   0.407
 3943SOL    HW212729   1.534   2.645   0.262
 3944SOL     OW12730   5.586   3.032   6.586
 3944SOL    HW112731   5.519   3.072   6.523
 3944SOL    HW212732   5.665   2.998   6.534
 3945SOL     OW12733   5.763   0.609   3.453
 3945SOL    HW112734   5.716   0.522   3.436
 3945SOL    HW212735   5.706   0.665   3.513
 3946SOL     OW12736   1.135   2.988   0.484
 3946SOL    HW112737   1.158   3.039   0.567
 3946SOL    HW212738   1.070   2.916   0.507
 3947SOL     OW12739   6.059   5.173   2.072
 3947SOL    HW112740   6.092   5.231   1.998
 3947SOL    HW212741   6.002   5.101   2.035
 3948SOL     OW12742   1.348   2.774   6.085
 3948SOL    HW112743   1.433   2.724   6.105
 3948SOL    HW212744   1.331   2.772   5.986
 3949SOL     OW12745   6.424   0.143   1.293
 3949SOL    HW112746   6.499   0.208   1.287
 3949SOL    HW212747   6.406   0.121   1.389
 3950SOL     OW12748   3.049   4.639   1.676
 3950SOL    HW112749   2.999   4.566   1.722
 3950SOL    HW212750   3.117   4.677   1.740
 3951SOL     OW12751   1.150   2.430   4.424
 3951SOL    HW112752   1.055   2.447   4.450
 3951SOL    HW212753   1.171   2.333   4.438
 3952SOL     OW12754   5.877   3.729   6.805
 3952SOL    HW112755   5.900   3.750   6.710
 3952SOL    HW212756   5.841   3.811   6.850
 3953SOL     OW12757   3.239   3.607   6.478
 3953SOL    HW112758   3.149   3.615   6.436
 3953SOL    HW212759   3.287   3.694   6.471
 3954SOL     OW12760   0.264   2.928   5.501
 3954SOL    HW112761   0.234   2.832   5.500
 3954SOL    HW212762   0.308   2.950   5.414
 3955SOL     OW12763   0.469   4.055   0.354
 3955SOL    HW112764   0.393   3.990   0.351
 3955SOL    HW212765   0.434   4.146   0.378
 3956SOL     OW12766   0.046   3.285   5.676
 3956SOL    HW112767   0.078   3.378   5.696
 3956SOL    HW212768   0.034   3.235   5.762
 3957SOL     OW12769   0.865   2.046   3.255
 3957SOL    HW112770   0.863   2.035   3.156
 3957SOL    HW212771   0.811   1.974   3.298
 3958SOL     OW12772   5.777   6.041   6.786
 3958SOL    HW112773   5.875   6.023   6.779
 3958SOL    HW212774   5.729   5.956   6.810
 3959SOL     OW12775   2.426   5.068   0.551
 3959SOL    HW112776   2.522   5.094   0.557
 3959SOL    HW212777   2.401   5.015   0.632
 3960SOL     OW12778   4.885   3.390   0.651
 3960SOL    HW112779   4.931   3.452   0.714
 3960SOL    HW212780   4.891   3.426   0.558
 3961SOL     OW12781   5.735   0.388   1.954
 3961SOL    HW112782   5.774   0.314   1.900
 3961SOL    HW212783   5.807   0.431   2.009
 3962SOL     OW12784   0.785   6.679   5.888
 3962SOL    HW112785   0.733   6.646   5.809
 3962SOL    HW212786   0.728   6.672   5.970
 3963SOL     OW12787   4.338   5.558   3.283
 3963SOL    HW112788   4.281   5.595   3.356
 3963SOL    HW212789   4.290   5.484   3.237
 3964SOL     OW12790   5.552   6.513   5.835
 3964SOL    HW112791   5.592   6.434   5.882
 3964SOL    HW212792   5.539   6.491   5.739
 3965SOL     OW12793   3.996   3.045   0.413
 3965SOL    HW112794   3.934   3.097   0.354
 3965SOL    HW212795   4.080   3.098   0.427
 3966SOL     OW12796   6.265   4.215   5.137
 3966SOL    HW112797   6.315   4.244   5.219
 3966SOL    HW212798   6.177   4.177   5.163
 3967SOL     OW12799   1.693   6.031   6.966
 3967SOL    HW112800   1.611   6.026   6.910
 3967SOL    HW212801   1.723   5.939   6.990
 3968SOL     OW12802   5.779   0.328   1.689
 3968SOL    HW112803   5.851   0.394   1.709
 3968SOL    HW212804   5.696   0.376   1.662
 3969SOL     OW12805   0.520   5.848   1.702
 3969SOL    HW112806   0.539   5.903   1.784
 3969SOL    HW212807   0.504   5.909   1.624
 3970SOL     OW12808   4.921   4.627   4.034
 3970SOL    HW112809   4.901   4.531   4.055
 3970SOL    HW212810   4.866   4.686   4.093
 3971SOL     OW12811   2.019   6.085   3.971
 3971SOL    HW112812   2.091   6.042   4.025
 3971SOL    HW212813   1.988   6.169   4.016
 3972SOL     OW12814   1.134   0.095   0.523
 3972SOL    HW112815   1.037   0.088   0.501
 3972SOL    HW212816   1.183   0.133   0.445
 3973SOL     OW12817   3.530   2.904   2.957
 3973SOL    HW112818   3.432   2.922   2.948
 3973SOL    HW212819   3.562   2.938   3.045
 3974SOL     OW12820   6.163   0.633   6.256
 3974SOL    HW112821   6.147   0.685   6.339
 3974SOL    HW212822   6.119   0.679   6.178
 3975SOL     OW12823   6.589   6.615   5.703
 3975SOL    HW112824   6.524   6.594   5.777
 3975SOL    HW212825   6.674   6.649   5.742
 3976SOL     OW12826   1.075   3.076   6.597
 3976SOL    HW112827   1.040   2.983   6.602
 3976SOL    HW212828   1.143   3.091   6.669
 3977SOL     OW12829   4.430   6.630   6.400
 3977SOL    HW112830   4.526   6.629   6.426
 3977SOL    HW212831   4.372   6.634   6.482
 3978SOL     OW12832   6.113   3.366   6.671
 3978SOL    HW112833   6.105   3.449   6.726
 3978SOL    HW212834   6.022   3.339   6.639
 3979SOL     OW12835   1.526   6.855   3.188
 3979SOL    HW112836   1.511   6.873   3.091
 3979SOL    HW212837   1.469   6.779   3.218
 3980SOL     OW12838   4.976   3.453   4.889
 3980SOL    HW112839   5.068   3.458   4.929
 3980SOL    HW212840   4.910   3.491   4.954
 3981SOL     OW12841   6.081   1.756   5.409
 3981SOL    HW112842   6.012   1.694   5.371
 3981SOL    HW212843   6.154   1.703   5.451
 3982SOL     OW12844   3.419   1.786   3.961
 3982SOL    HW112845   3.406   1.812   3.865
 3982SOL    HW212846   3.516   1.787   3.983
 3983SOL     OW12847   3.672   6.694   3.904
 3983SOL    HW112848   3.691   6.766   3.837
 3983SOL    HW212849   3.629   6.617   3.858
 3984SOL     OW12850   1.651   6.485   1.661
 3984SOL    HW112851   1.713   6.454   1.733
 3984SOL    HW212852   1.661   6.583   1.648
 3985SOL     OW12853   1.709   3.573   1.681
 3985SOL    HW112854   1.623   3.522   1.680
 3985SOL    HW212855   1.691   3.671   1.687
 3986SOL     OW12856   1.248   2.751   2.166
 3986SOL    HW112857   1.308   2.686   2.213
 3986SOL    HW212858   1.222   2.824   2.228
 3987SOL     OW12859   2.563   4.754   6.268
 3987SOL    HW112860   2.565   4.760   6.168
 3987SOL    HW212861   2.644   4.798   6.306
 3988SOL     OW12862   4.338   2.033   6.995
 3988SOL    HW112863   4.296   2.124   6.989
 3988SOL    HW212864   4.275   1.965   6.960
 3989SOL     OW12865   4.240   1.233   6.627
 3989SOL    HW112866   4.293   1.153   6.598
 3989SOL    HW212867   4.174   1.207   6.697
 3990SOL     OW12868   1.106   3.167   3.787
 3990SOL    HW112869   1.015   3.197   3.817
 3990SOL    HW212870   1.124   3.076   3.824
 3991SOL     OW12871   6.860   1.413   4.485
 3991SOL    HW112872   6.851   1.324   4.441
 3991SOL    HW212873   6.770   1.453   4.498
 3992SOL     OW12874   4.986   4.117   5.942
 3992SOL    HW112875   5.017   4.085   6.031
 3992SOL    HW212876   5.020   4.055   5.871
 3993SOL     OW12877   1.784   1.339   3.208
 3993SOL    HW112878   1.759   1.405   3.137
 3993SOL    HW212879   1.710   1.274   3.221
 3994SOL     OW12880   2.411   1.933   3.714
 3994SOL    HW112881   2.436   1.837   3.699
 3994SOL    HW212882   2.463   1.969   3.791
 3995SOL     OW12883   1.786   3.843   2.127
 3995SOL    HW112884   1.762   3.747   2.134
 3995SOL    HW212885   1.802   3.868   2.031
 3996SOL     OW12886   5.584   6.782   3.062
 3996SOL    HW112887   5.493   6.803   3.025
 3996SOL    HW212888   5.574   6.719   3.139
 3997SOL     OW12889   5.546   3.873   2.942
 3997SOL    HW112890   5.620   3.932   2.973
 3997SOL    HW212891   5.582   3.783   2.918
 3998SOL     OW12892   6.146   2.184   3.073
 3998SOL    HW112893   6.174   2.088   3.066
 3998SOL    HW212894   6.047   2.190   3.083
 3999SOL     OW12895   5.044   2.504   1.375
 3999SOL    HW112896   5.082   2.549   1.294
 3999SOL    HW212897   5.049   2.567   1.453
 4000SOL     OW12898   3.385   5.509   2.120
 4000SOL    HW112899   3.475   5.517   2.162
 4000SOL    HW212900   3.380   5.423   2.069
 4001SOL     OW12901   2.086   4.411   4.608
 4001SOL    HW112902   2.038   4.330   4.574
 4001SOL    HW212903   2.089   4.408   4.708
 4002SOL     OW12904   3.500   3.794   3.588
 4002SOL    HW112905   3.409   3.779   3.628
 4002SOL    HW212906   3.514   3.728   3.514
 4003SOL     OW12907   3.066   1.045   5.285
 4003SOL    HW112908   3.131   1.121   5.278
 4003SOL    HW212909   2.980   1.071   5.242
 4004SOL     OW12910   1.043   3.913   3.401
 4004SOL    HW112911   1.033   3.814   3.390
 4004SOL    HW212912   1.088   3.933   3.488
 4005SOL     OW12913   5.174   2.782   0.824
 4005SOL    HW112914   5.081   2.803   0.795
 4005SOL    HW212915   5.188   2.815   0.917
 4006SOL     OW12916   4.782   5.127   3.649
 4006SOL    HW112917   4.715   5.123   3.575
 4006SOL    HW212918   4.735   5.133   3.736
 4007SOL     OW12919   6.769   1.498   3.086
 4007SOL    HW112920   6.780   1.512   2.987
 4007SOL    HW212921   6.856   1.466   3.124
 4008SOL     OW12922   3.324   0.351   0.906
 4008SOL    HW112923   3.291   0.392   0.821
 4008SOL    HW212924   3.370   0.421   0.961
 4009SOL     OW12925   4.518   2.086   0.724
 4009SOL    HW112926   4.428   2.044   0.738
 4009SOL    HW212927   4.573   2.074   0.807
 4010SOL     OW12928   2.335   4.993   1.739
 4010SOL    HW112929   2.256   5.007   1.799
 4010SOL    HW212930   2.380   4.907   1.763
 4011SOL     OW12931   5.404   5.732   0.028
 4011SOL    HW112932   5.443   5.824   0.028
 4011SOL    HW212933   5.474   5.666   7.016
 4012SOL     OW12934   4.275   0.443   2.500
 4012SOL    HW112935   4.228   0.436   2.587
 4012SOL    HW212936   4.373   0.460   2.516
 4013SOL     OW12937   0.320   1.172   6.350
 4013SOL    HW112938   0.262   1.108   6.299
 4013SOL    HW212939   0.307   1.158   6.448
 4014SOL     OW12940   2.998   4.887   2.389
 4014SOL    HW112941   3.093   4.872   2.419
 4014SOL    HW212942   2.991   4.977   2.345
 4015SOL     OW12943   4.061   4.614   6.016
 4015SOL    HW112944   4.123   4.553   6.066
 4015SOL    HW212945   4.001   4.559   5.958
 4016SOL     OW12946   4.059   5.581   5.750
 4016SOL    HW112947   4.037   5.525   5.830
 4016SOL    HW212948   4.152   5.617   5.759
 4017SOL     OW12949   0.648   5.042   6.202
 4017SOL    HW112950   0.721   4.982   6.235
 4017SOL    HW212951   0.603   4.999   6.123
 4018SOL     OW12952   4.553   6.549   1.915
 4018SOL    HW112953   4.580   6.504   1.830
 4018SOL    HW212954   4.630   6.600   1.952
 4019SOL     OW12955   5.087   3.433   3.532
 4019SOL    HW112956   5.101   3.387   3.445
 4019SOL    HW212957   5.174   3.474   3.562
 4020SOL     OW12958   6.083   4.952   3.954
 4020SOL    HW112959   6.022   5.032   3.950
 4020SOL    HW212960   6.163   4.975   4.010
 4021SOL     OW12961   3.978   3.523   6.116
 4021SOL    HW112962   3.899   3.569   6.075
 4021SOL    HW212963   3.946   3.449   6.175
 4022SOL     OW12964   2.505   0.552   1.606
 4022SOL    HW112965   2.560   0.607   1.544
 4022SOL    HW212966   2.565   0.509   1.674
 4023SOL     OW12967   0.595   2.170   5.265
 4023SOL    HW112968   0.564   2.265   5.257
 4023SOL    HW212969   0.621   2.135   5.175
 4024SOL     OW12970   0.557   5.120   4.551
 4024SOL    HW112971   0.540   5.213   4.583
 4024SOL    HW212972   0.647   5.090   4.582
 4025SOL     OW12973   0.749   5.933   4.432
 4025SOL    HW112974   0.818   5.861   4.428
 4025SOL    HW212975   0.793   6.020   4.454
 4026SOL     OW12976   6.580   6.272   3.630
 4026SOL    HW112977   6.517   6.262   3.707
 4026SOL    HW212978   6.527   6.273   3.545
 4027SOL     OW12979   2.833   4.064   5.551
 4027SOL    HW112980   2.739   4.029   5.541
 4027SOL    HW212981   2.896   3.987   5.562
 4028SOL     OW12982   4.645   1.649   2.581
 4028SOL    HW112983   4.683   1.740   2.562
 4028SOL    HW212984   4.662   1.625   2.676
 4029SOL     OW12985   2.271   5.530   6.330
 4029SOL    HW112986   2.273   5.437   6.366
 4029SOL    HW212987   2.200   5.583   6.378
 4030SOL     OW12988   0.304   1.178   2.545
 4030SOL    HW112989   0.301   1.274   2.518
 4030SOL    HW212990   0.244   1.164   2.624
 4031SOL     OW12991   5.513   6.773   1.054
 4031SOL    HW112992   5.481   6.852   1.107
 4031SOL    HW212993   5.613   6.767   1.060
 4032SOL     OW12994   5.723   0.264   1.152
 4032SOL    HW112995   5.729   0.205   1.071
 4032SOL    HW212996   5.815   0.289   1.182
 4033SOL     OW12997   2.531   2.551   2.605
 4033SOL    HW112998   2.469   2.473   2.597
 4033SOL    HW212999   2.615   2.523   2.651
 4034SOL     OW13000   0.275   3.019   5.017
 4034SOL    HW113001   0.236   2.927   5.022
 4034SOL    HW213002   0.238   3.067   4.938
 4035SOL     OW13003   5.727   1.837   1.692
 4035SOL    HW113004   5.640   1.813   1.650
 4035SOL    HW213005   5.795   1.766   1.671
 4036SOL     OW13006   2.655   5.554   3.488
 4036SOL    HW113007   2.568   5.547   3.440
 4036SOL    HW213008   2.664   5.478   3.553
 4037SOL     OW13009   2.579   0.814   6.072
 4037SOL    HW113010   2.512   0.847   6.006
 4037SOL    HW213011   2.595   0.884   6.142
 4038SOL     OW13012   3.714   4.265   5.954
 4038SOL    HW113013   3.736   4.193   5.888
 4038SOL    HW213014   3.618   4.291   5.945
 4039SOL     OW13015   6.075   4.900   1.531
 4039SOL    HW113016   5.996   4.953   1.502
 4039SOL    HW213017   6.159   4.949   1.505
 4040SOL     OW13018   3.529   5.348   5.373
 4040SOL    HW113019   3.603   5.283   5.354
 4040SOL    HW213020   3.564   5.442   5.364
 4041SOL     OW13021   2.352   6.334   0.970
 4041SOL    HW113022   2.416   6.263   0.999
 4041SOL    HW213023   2.285   6.351   1.042
 4042SOL     OW13024   5.981   0.556   3.786
 4042SOL    HW113025   5.955   0.647   3.818
 4042SOL    HW213026   6.063   0.562   3.729
 4043SOL     OW13027   5.528   3.768   6.442
 4043SOL    HW113028   5.601   3.832   6.419
 4043SOL    HW213029   5.460   3.767   6.368
 4044SOL     OW13030   3.897   5.166   3.392
 4044SOL    HW113031   3.949   5.136   3.312
 4044SOL    HW213032   3.907   5.098   3.465
 4045SOL     OW13033   5.257   7.013   5.556
 4045SOL    HW113034   5.300   6.975   5.474
 4045SOL    HW213035   5.159   6.992   5.555
 4046SOL     OW13036   6.974   1.730   2.896
 4046SOL    HW113037   0.020   1.652   2.888
 4046SOL    HW213038   6.880   1.698   2.896
 4047SOL     OW13039   2.625   2.904   6.510
 4047SOL    HW113040   2.656   2.984   6.460
 4047SOL    HW213041   2.591   2.931   6.600
 4048SOL     OW13042   4.556   1.158   1.996
 4048SOL    HW113043   4.504   1.202   1.923
 4048SOL    HW213044   4.496   1.141   2.074
 4049SOL     OW13045   4.179   5.109   6.370
 4049SOL    HW113046   4.195   5.086   6.274
 4049SOL    HW213047   4.199   5.029   6.426
 4050SOL     OW13048   0.233   5.190   2.688
 4050SOL    HW113049   0.218   5.268   2.627
 4050SOL    HW213050   0.284   5.119   2.640
 4051SOL     OW13051   5.230   1.142   5.883
 4051SOL    HW113052   5.250   1.198   5.802
 4051SOL    HW213053   5.161   1.074   5.860
 4052SOL     OW13054   5.956   2.292   3.805
 4052SOL    HW113055   6.047   2.254   3.820
 4052SOL    HW213056   5.914   2.316   3.892
 4053SOL     OW13057   1.031   5.664   4.892
 4053SOL    HW113058   0.962   5.733   4.871
 4053SOL    HW213059   1.085   5.644   4.810
 4054SOL     OW13060   4.836   4.203   0.886
 4054SOL    HW113061   4.862   4.197   0.982
 4054SOL    HW213062   4.881   4.282   0.843
 4055SOL     OW13063   1.234   3.719   1.708
 4055SOL    HW113064   1.182   3.693   1.627
 4055SOL    HW213065   1.288   3.641   1.741
 4056SOL     OW13066   4.819   3.142   0.727
 4056SOL    HW113067   4.811   3.134   0.826
 4056SOL    HW213068   4.862   3.230   0.704
 4057SOL     OW13069   6.538   3.766   6.592
 4057SOL    HW113070   6.485   3.686   6.620
 4057SOL    HW213071   6.557   3.761   6.494
 4058SOL     OW13072   2.691   6.154   5.202
 4058SOL    HW113073   2.711   6.250   5.180
 4058SOL    HW213074   2.767   6.097   5.172
 4059SOL     OW13075   0.890   1.665   4.022
 4059SOL    HW113076   0.917   1.752   4.062
 4059SOL    HW213077   0.823   1.681   3.950
 4060SOL     OW13078   6.398   5.526   5.323
 4060SOL    HW113079   6.419   5.623   5.313
 4060SOL    HW213080   6.305   5.515   5.359
 4061SOL     OW13081   2.697   5.264   1.912
 4061SOL    HW113082   2.683   5.267   1.813
 4061SOL    HW213083   2.761   5.336   1.939
 4062SOL     OW13084   2.221   1.736   1.763
 4062SOL    HW113085   2.165   1.805   1.810
 4062SOL    HW213086   2.274   1.685   1.831
 4063SOL     OW13087   5.547   1.161   0.799
 4063SOL    HW113088   5.501   1.181   0.886
 4063SOL    HW213089   5.483   1.115   0.737
 4064SOL     OW13090   1.933   1.845   4.936
 4064SOL    HW113091   1.985   1.866   5.019
 4064SOL    HW213092   1.899   1.930   4.896
 4065SOL     OW13093   1.941   0.024   0.488
 4065SOL    HW113094   2.000   6.961   0.480
 4065SOL    HW213095   1.995   0.108   0.476
 4066SOL     OW13096   0.075   4.200   3.487
 4066SOL    HW113097   0.129   4.283   3.470
 4066SOL    HW213098   0.084   4.174   3.583
 4067SOL     OW13099   5.853   4.702   2.075
 4067SOL    HW113100   5.857   4.798   2.102
 4067SOL    HW213101   5.941   4.659   2.094
 4068SOL     OW13102   1.730   2.516   5.582
 4068SOL    HW113103   1.814   2.569   5.590
 4068SOL    HW213104   1.749   2.420   5.605
 4069SOL     OW13105   4.031   0.520   6.563
 4069SOL    HW113106   3.979   0.483   6.486
 4069SOL    HW213107   4.128   0.527   6.538
 4070SOL     OW13108   1.490   2.995   3.312
 4070SOL    HW113109   1.501   2.913   3.369
 4070SOL    HW213110   1.453   3.069   3.368
 4071SOL     OW13111   0.731   0.499   4.056
 4071SOL    HW113112   0.764   0.407   4.038
 4071SOL    HW213113   0.647   0.495   4.110
 4072SOL     OW13114   1.557   5.672   3.847
 4072SOL    HW113115   1.490   5.625   3.789
 4072SOL    HW213116   1.561   5.769   3.823
 4073SOL     OW13117   2.786   5.281   0.296
 4073SOL    HW113118   2.727   5.206   0.265
 4073SOL    HW213119   2.878   5.246   0.311
 4074SOL     OW13120   1.337   5.629   2.565
 4074SOL    HW113121   1.338   5.649   2.663
 4074SOL    HW213122   1.350   5.714   2.513
 4075SOL     OW13123   4.974   0.244   0.392
 4075SOL    HW113124   4.883   0.225   0.428
 4075SOL    HW213125   4.993   0.185   0.314
 4076SOL     OW13126   3.095   3.609   5.517
 4076SOL    HW113127   3.030   3.534   5.529
 4076SOL    HW213128   3.138   3.602   5.427
 4077SOL     OW13129   3.764   1.947   1.509
 4077SOL    HW113130   3.862   1.948   1.529
 4077SOL    HW213131   3.716   2.006   1.575
 4078SOL     OW13132   2.996   4.825   3.032
 4078SOL    HW113133   3.010   4.876   2.948
 4078SOL    HW213134   3.081   4.822   3.085
 4079SOL     OW13135   1.255   2.754   4.064
 4079SOL    HW113136   1.187   2.795   4.003
 4079SOL    HW213137   1.329   2.819   4.079
 4080SOL     OW13138   5.443   1.603   4.875
 4080SOL    HW113139   5.463   1.509   4.902
 4080SOL    HW213140   5.399   1.603   4.786
 4081SOL     OW13141   1.575   3.493   3.586
 4081SOL    HW113142   1.532   3.572   3.544
 4081SOL    HW213143   1.567   3.414   3.526
 4082SOL     OW13144   1.219   3.475   1.044
 4082SOL    HW113145   1.140   3.451   0.987
 4082SOL    HW213146   1.186   3.505   1.134
 4083SOL     OW13147   5.326   2.806   3.886
 4083SOL    HW113148   5.346   2.837   3.979
 4083SOL    HW213149   5.248   2.856   3.850
 4084SOL     OW13150   6.436   1.907   4.395
 4084SOL    HW113151   6.370   1.959   4.340
 4084SOL    HW213152   6.515   1.884   4.338
 4085SOL     OW13153   3.640   5.913   0.468
 4085SOL    HW113154   3.693   5.993   0.496
 4085SOL    HW213155   3.656   5.839   0.533
 4086SOL     OW13156   1.901   5.667   1.586
 4086SOL    HW113157   1.857   5.719   1.513
 4086SOL    HW213158   1.845   5.673   1.669
 4087SOL     OW13159   2.580   2.057   3.081
 4087SOL    HW113160   2.594   2.140   3.136
 4087SOL    HW213161   2.655   1.993   3.097
 4088SOL     OW13162   6.260   1.515   1.261
 4088SOL    HW113163   6.192   1.468   1.317
 4088SOL    HW213164   6.314   1.576   1.319
 4089SOL     OW13165   0.649   1.310   3.904
 4089SOL    HW113166   0.557   1.305   3.941
 4089SOL    HW213167   0.646   1.350   3.812
 4090SOL     OW13168   2.486   4.101   6.152
 4090SOL    HW113169   2.565   4.093   6.092
 4090SOL    HW213170   2.408   4.054   6.111
 4091SOL     OW13171   4.947   6.349   0.426
 4091SOL    HW113172   5.011   6.366   0.501
 4091SOL    HW213173   4.977   6.268   0.374
 4092SOL     OW13174   0.380   2.962   5.265
 4092SOL    HW113175   0.453   2.894   5.261
 4092SOL    HW213176   0.341   2.975   5.174
 4093SOL     OW13177   5.614   0.995   3.379
 4093SOL    HW113178   5.624   0.922   3.448
 4093SOL    HW213179   5.678   0.979   3.304
 4094SOL     OW13180   1.899   4.270   5.330
 4094SOL    HW113181   1.992   4.247   5.302
 4094SOL    HW213182   1.881   4.233   5.421
 4095SOL     OW13183   1.029   3.006   6.111
 4095SOL    HW113184   1.033   3.089   6.165
 4095SOL    HW213185   1.098   2.941   6.143
 4096SOL     OW13186   5.003   5.149   6.885
 4096SOL    HW113187   5.075   5.218   6.878
 4096SOL    HW213188   5.029   5.082   6.955
 4097SOL     OW13189   3.416   3.506   5.894
 4097SOL    HW113190   3.506   3.499   5.850
 4097SOL    HW213191   3.390   3.602   5.904
 4098SOL     OW13192   0.462   2.896   2.835
 4098SOL    HW113193   0.550   2.870   2.875
 4098SOL    HW213194   0.396   2.821   2.848
 4099SOL     OW13195   2.985   5.849   1.839
 4099SOL    HW113196   3.065   5.901   1.810
 4099SOL    HW213197   2.930   5.824   1.760
 4100SOL     OW13198   4.756   6.115   3.609
 4100SOL    HW113199   4.770   6.094   3.513
 4100SOL    HW213200   4.694   6.193   3.617
 4101SOL     OW13201   6.031   1.611   6.626
 4101SOL    HW113202   6.122   1.628   6.665
 4101SOL    HW213203   6.012   1.513   6.628
 4102SOL     OW13204   6.111   0.435   0.756
 4102SOL    HW113205   6.153   0.476   0.837
 4102SOL    HW213206   6.145   0.480   0.674
 4103SOL     OW13207   0.956   0.835   2.141
 4103SOL    HW113208   0.895   0.879   2.207
 4103SOL    HW213209   0.904   0.768   2.087
 4104SOL     OW13210   1.650   4.145   2.455
 4104SOL    HW113211   1.610   4.069   2.404
 4104SOL    HW213212   1.604   4.153   2.544
 4105SOL     OW13213   3.940   5.339   0.403
 4105SOL    HW113214   4.018   5.341   0.341
 4105SOL    HW213215   3.888   5.424   0.393
 4106SOL     OW13216   0.086   3.892   4.848
 4106SOL    HW113217   0.173   3.855   4.814
 4106SOL    HW213218   0.077   3.870   4.945
 4107SOL     OW13219   0.229   6.366   1.228
 4107SOL    HW113220   0.132   6.342   1.235
 4107SOL    HW213221   0.244   6.426   1.149
 4108SOL     OW13222   0.232   4.190   6.486
 4108SOL    HW113223   0.186   4.135   6.556
 4108SOL    HW213224   0.190   4.281   6.482
 4109SOL     OW13225   3.916   6.565   3.876
 4109SOL    HW113226   3.987   6.636   3.875
 4109SOL    HW213227   3.826   6.607   3.876
 4110SOL     OW13228   4.255   3.464   6.013
 4110SOL    HW113229   4.160   3.497   6.019
 4110SOL    HW213230   4.314   3.537   5.980
 4111SOL     OW13231   3.742   2.782   0.242
 4111SOL    HW113232   3.817   2.816   0.185
 4111SOL    HW213233   3.657   2.782   0.189
 4112SOL     OW13234   4.489   1.435   5.062
 4112SOL    HW113235   4.398   1.425   5.021
 4112SOL    HW213236   4.544   1.497   5.006
 4113SOL     OW13237   3.509   5.643   5.619
 4113SOL    HW113238   3.551   5.579   5.684
 4113SOL    HW213239   3.576   5.712   5.592
 4114SOL     OW13240   3.483   1.335   4.573
 4114SOL    HW113241   3.483   1.431   4.545
 4114SOL    HW213242   3.469   1.276   4.493
 4115SOL     OW13243   4.720   5.772   2.274
 4115SOL    HW113244   4.820   5.775   2.282
 4115SOL    HW213245   4.683   5.864   2.279
 4116SOL     OW13246   3.756   2.064   1.794
 4116SOL    HW113247   3.736   2.147   1.846
 4116SOL    HW213248   3.676   2.004   1.794
 4117SOL     OW13249   1.130   5.185   1.056
 4117SOL    HW113250   1.134   5.234   0.969
 4117SOL    HW213251   1.211   5.206   1.110
 4118SOL     OW13252   1.198   6.683   1.211
 4118SOL    HW113253   1.276   6.742   1.190
 4118SOL    HW213254   1.218   6.589   1.184
 4119SOL     OW13255   3.702   0.976   4.515
 4119SOL    HW113256   3.673   1.071   4.500
 4119SOL    HW213257   3.739   0.967   4.608
 4120SOL     OW13258   4.293   6.721   2.121
 4120SOL    HW113259   4.206   6.679   2.094
 4120SOL    HW213260   4.344   6.748   2.039
 4121SOL     OW13261   6.529   2.446   4.429
 4121SOL    HW113262   6.490   2.462   4.520
 4121SOL    HW213263   6.593   2.520   4.407
 4122SOL     OW13264   0.534   6.651   5.236
 4122SOL    HW113265   0.597   6.667   5.160
 4122SOL    HW213266   0.446   6.693   5.216
 4123SOL     OW13267   5.565   4.211   6.238
 4123SOL    HW113268   5.642   4.184   6.180
 4123SOL    HW213269   5.482   4.165   6.207
 4124SOL     OW13270   5.497   6.569   3.695
 4124SOL    HW113271   5.442   6.535   3.619
 4124SOL    HW213272   5.495   6.503   3.770
 4125SOL     OW13273   4.598   0.863   1.571
 4125SOL    HW113274   4.512   0.875   1.520
 4125SOL    HW213275   4.675   0.872   1.508
 4126SOL     OW13276   1.685   4.374   4.533
 4126SOL    HW113277   1.680   4.366   4.632
 4126SOL    HW213278   1.600   4.413   4.498
 4127SOL     OW13279   5.231   3.448   4.977
 4127SOL    HW113280   5.298   3.387   4.934
 4127SOL    HW213281   5.220   3.424   5.073
 4128SOL     OW13282   1.760   3.790   2.433
 4128SOL    HW113283   1.855   3.760   2.442
 4128SOL    HW213284   1.746   3.830   2.342
 4129SOL     OW13285   6.043   2.019   6.266
 4129SOL    HW113286   6.121   2.082   6.272
 4129SOL    HW213287   6.066   1.933   6.310
 4130SOL     OW13288   6.601   4.111   6.144
 4130SOL    HW113289   6.617   4.019   6.109
 4130SOL    HW213290   6.628   4.178   6.074
 4131SOL     OW13291   0.037   5.717   4.003
 4131SOL    HW113292   0.132   5.715   4.033
 4131SOL    HW213293   0.027   5.663   3.919
 4132SOL     OW13294   5.139   3.154   3.541
 4132SOL    HW113295   5.147   3.198   3.451
 4132SOL    HW213296   5.072   3.080   3.536
 4133SOL     OW13297   2.765   0.814   1.240
 4133SOL    HW113298   2.842   0.879   1.236
 4133SOL    HW213299   2.790   0.730   1.193
 4134SOL     OW13300   2.283   2.013   0.996
 4134SOL    HW113301   2.383   2.009   1.004
 4134SOL    HW213302   2.249   1.926   0.961
 4135SOL     OW13303   1.833   0.439   2.623
 4135SOL    HW113304   1.786   0.395   2.699
 4135SOL    HW213305   1.931   0.438   2.639
 4136SOL     OW13306   0.327   2.505   3.916
 4136SOL    HW113307   0.270   2.565   3.861
 4136SOL    HW213308   0.278   2.421   3.937
 4137SOL     OW13309   3.419   3.936   6.756
 4137SOL    HW113310   3.494   4.003   6.761
 4137SOL    HW213311   3.350   3.958   6.825
 4138SOL     OW13312   4.830   4.747   4.527
 4138SOL    HW113313   4.806   4.663   4.478
 4138SOL    HW213314   4.747   4.799   4.547
 4139SOL     OW13315   1.696   2.281   6.081
 4139SOL    HW113316   1.648   2.356   6.036
 4139SOL    HW213317   1.767   2.245   6.021
 4140SOL     OW13318   4.137   1.294   5.291
 4140SOL    HW113319   4.085   1.345   5.221
 4140SOL    HW213320   4.089   1.301   5.378
 4141SOL     OW13321   5.257   5.262   1.677
 4141SOL    HW113322   5.267   5.314   1.592
 4141SOL    HW213323   5.164   5.274   1.713
 4142SOL     OW13324   6.779   4.754   0.750
 4142SOL    HW113325   6.775   4.664   0.706
 4142SOL    HW213326   6.700   4.766   0.809
 4143SOL     OW13327   6.929   2.778   0.731
 4143SOL    HW113328   6.912   2.867   0.690
 4143SOL    HW213329   6.849   2.749   0.784
 4144SOL     OW13330   5.537   1.535   1.639
 4144SOL    HW113331   5.634   1.555   1.620
 4144SOL    HW213332   5.504   1.599   1.708
 4145SOL     OW13333   0.428   6.505   1.556
 4145SOL    HW113334   0.464   6.415   1.531
 4145SOL    HW213335   0.499   6.556   1.605
 4146SOL     OW13336   5.572   0.170   6.364
 4146SOL    HW113337   5.630   0.165   6.446
 4146SOL    HW213338   5.616   0.230   6.297
 4147SOL     OW13339   3.662   2.084   6.459
 4147SOL    HW113340   3.591   2.094   6.390
 4147SOL    HW213341   3.630   2.121   6.546
 4148SOL     OW13342   0.617   0.741   4.207
 4148SOL    HW113343   0.635   0.728   4.109
 4148SOL    HW213344   0.553   0.817   4.219
 4149SOL     OW13345   6.171   2.832   0.433
 4149SOL    HW113346   6.193   2.919   0.390
 4149SOL    HW213347   6.146   2.847   0.528
 4150SOL     OW13348   5.566   0.503   6.288
 4150SOL    HW113349   5.500   0.428   6.282
 4150SOL    HW213350   5.649   0.479   6.238
 4151SOL     OW13351   6.520   5.981   0.330
 4151SOL    HW113352   6.500   5.883   0.327
 4151SOL    HW213353   6.588   6.003   0.260
 4152SOL     OW13354   4.159   4.950   2.228
 4152SOL    HW113355   4.226   4.984   2.295
 4152SOL    HW213356   4.070   4.992   2.247
 4153SOL     OW13357   5.646   5.366   6.444
 4153SOL    HW113358   5.719   5.347   6.509
 4153SOL    HW213359   5.609   5.457   6.461
 4154SOL     OW13360   6.350   3.673   4.811
 4154SOL    HW113361   6.269   3.664   4.753
 4154SOL    HW213362   6.401   3.587   4.811
 4155SOL     OW13363   0.781   3.611   2.539
 4155SOL    HW113364   0.825   3.665   2.467
 4155SOL    HW213365   0.747   3.525   2.500
 4156SOL     OW13366   5.797   6.826   5.434
 4156SOL    HW113367   5.840   6.858   5.350
 4156SOL    HW213368   5.832   6.735   5.457
 4157SOL     OW13369   4.192   0.676   4.014
 4157SOL    HW113370   4.255   0.716   3.948
 4157SOL    HW213371   4.234   0.676   4.105
 4158SOL     OW13372   0.744   5.267   3.224
 4158SOL    HW113373   0.780   5.319   3.147
 4158SOL    HW213374   0.657   5.224   3.198
 4159SOL     OW13375   1.474   3.068   3.683
 4159SOL    HW113376   1.435   3.154   3.715
 4159SOL    HW213377   1.534   3.084   3.605
 4160SOL     OW13378   6.266   0.159   0.496
 4160SOL    HW113379   6.205   0.223   0.448
 4160SOL    HW213380   6.351   0.206   0.520
 4161SOL     OW13381   1.498   0.763   6.453
 4161SOL    HW113382   1.537   0.717   6.533
 4161SOL    HW213383   1.560   0.752   6.375
 4162SOL     OW13384   6.385   6.879   4.650
 4162SOL    HW113385   6.457   6.821   4.614
 4162SOL    HW213386   6.417   6.924   4.734
 4163SOL     OW13387   5.402   1.389   3.197
 4163SOL    HW113388   5.395   1.410   3.100
 4163SOL    HW213389   5.464   1.454   3.241
 4164SOL     OW13390   1.933   0.826   6.513
 4164SOL    HW113391   1.852   0.825   6.454
 4164SOL    HW213392   1.932   0.746   6.573
 4165SOL     OW13393   3.997   6.545   0.491
 4165SOL    HW113394   4.017   6.635   0.451
 4165SOL    HW213395   4.083   6.497   0.509
 4166SOL     OW13396   4.275   2.774   0.753
 4166SOL    HW113397   4.280   2.676   0.772
 4166SOL    HW213398   4.200   2.792   0.690
 4167SOL     OW13399   2.036   2.398   1.765
 4167SOL    HW113400   2.032   2.486   1.717
 4167SOL    HW213401   2.129   2.381   1.798
 4168SOL     OW13402   0.202   5.348   1.944
 4168SOL    HW113403   0.237   5.319   1.855
 4168SOL    HW213404   0.107   5.320   1.953
 4169SOL     OW13405   4.854   3.725   4.043
 4169SOL    HW113406   4.929   3.700   4.104
 4169SOL    HW213407   4.830   3.646   3.985
 4170SOL     OW13408   3.968   2.697   5.588
 4170SOL    HW113409   3.929   2.614   5.628
 4170SOL    HW213410   4.003   2.676   5.497
 4171SOL     OW13411   5.193   3.446   1.298
 4171SOL    HW113412   5.282   3.417   1.334
 4171SOL    HW213413   5.134   3.473   1.374
 4172SOL     OW13414   6.982   1.815   1.017
 4172SOL    HW113415   6.974   1.914   1.034
 4172SOL    HW213416   6.961   1.797   0.920
 4173SOL     OW13417   5.593   2.774   5.207
 4173SOL    HW113418   5.571   2.791   5.111
 4173SOL    HW213419   5.514   2.731   5.252
 4174SOL     OW13420   4.766   0.553   3.718
 4174SOL    HW113421   4.672   0.555   3.752
 4174SOL    HW213422   4.769   0.509   3.629
 4175SOL     OW13423   3.261   0.107   3.861
 4175SOL    HW113424   3.185   0.172   3.857
 4175SOL    HW213425   3.280   0.072   3.769
 4176SOL     OW13426   4.840   0.154   2.865
 4176SOL    HW113427   4.777   0.225   2.834
 4176SOL    HW213428   4.931   0.193   2.879
 4177SOL     OW13429   0.426   5.761   3.985
 4177SOL    HW113430   0.393   5.856   3.987
 4177SOL    HW213431   0.516   5.756   4.027
 4178SOL     OW13432   3.066   1.569   6.167
 4178SOL    HW113433   3.070   1.601   6.072
 4178SOL    HW213434   3.072   1.469   6.168
 4179SOL     OW13435   5.713   3.344   5.229
 4179SOL    HW113436   5.797   3.293   5.242
 4179SOL    HW213437   5.700   3.408   5.304
 4180SOL     OW13438   5.070   4.254   1.484
 4180SOL    HW113439   4.993   4.267   1.547
 4180SOL    HW213440   5.145   4.316   1.510
 4181SOL     OW13441   0.778   1.644   6.391
 4181SOL    HW113442   0.812   1.580   6.322
 4181SOL    HW213443   0.855   1.691   6.434
 4182SOL     OW13444   0.159   0.432   2.332
 4182SOL    HW113445   0.254   0.457   2.316
 4182SOL    HW213446   0.099   0.497   2.286
 4183SOL     OW13447   2.757   1.915   1.922
 4183SOL    HW113448   2.806   1.972   1.988
 4183SOL    HW213449   2.663   1.900   1.953
 4184SOL     OW13450   3.746   5.144   0.350
 4184SOL    HW113451   3.829   5.195   0.375
 4184SOL    HW213452   3.695   5.122   0.433
 4185SOL     OW13453   0.236   0.044   3.163
 4185SOL    HW113454   0.142   0.012   3.160
 4185SOL    HW213455   0.278   0.018   3.250
 4186SOL     OW13456   2.374   3.896   0.603
 4186SOL    HW113457   2.380   3.796   0.592
 4186SOL    HW213458   2.340   3.917   0.694
 4187SOL     OW13459   3.722   3.217   6.714
 4187SOL    HW113460   3.814   3.191   6.685
 4187SOL    HW213461   3.668   3.242   6.634
 4188SOL     OW13462   4.885   0.106   3.936
 4188SOL    HW113463   4.981   0.089   3.914
 4188SOL    HW213464   4.834   0.020   3.932
 4189SOL     OW13465   2.658   1.701   4.254
 4189SOL    HW113466   2.637   1.734   4.162
 4189SOL    HW213467   2.737   1.751   4.291
 4190SOL     OW13468   3.162   0.357   6.815
 4190SOL    HW113469   3.134   0.296   6.889
 4190SOL    HW213470   3.132   0.319   6.728
 4191SOL     OW13471   6.255   2.945   3.367
 4191SOL    HW113472   6.261   2.989   3.277
 4191SOL    HW213473   6.256   2.846   3.356
 4192SOL     OW13474   5.689   1.426   2.993
 4192SOL    HW113475   5.769   1.386   2.948
 4192SOL    HW213476   5.673   1.379   3.080
 4193SOL     OW13477   2.354   6.708   2.684
 4193SOL    HW113478   2.390   6.800   2.665
 4193SOL    HW213479   2.265   6.715   2.728
 4194SOL     OW13480   6.763   1.963   4.400
 4194SOL    HW113481   6.736   2.051   4.440
 4194SOL    HW213482   6.849   1.932   4.441
 4195SOL     OW13483   5.366   0.417   1.167
 4195SOL    HW113484   5.420   0.369   1.236
 4195SOL    HW213485   5.293   0.357   1.135
 4196SOL     OW13486   5.052   2.902   4.481
 4196SOL    HW113487   5.006   2.814   4.473
 4196SOL    HW213488   5.123   2.910   4.412
 4197SOL     OW13489   5.279   4.413   4.603
 4197SOL    HW113490   5.329   4.327   4.593
 4197SOL    HW213491   5.336   4.479   4.653
 4198SOL     OW13492   5.927   3.838   6.558
 4198SOL    HW113493   5.856   3.885   6.506
 4198SOL    HW213494   6.017   3.872   6.532
 4199SOL     OW13495   3.188   3.727   5.107
 4199SOL    HW113496   3.215   3.654   5.045
 4199SOL    HW213497   3.148   3.802   5.054
 4200SOL     OW13498   2.065   0.070   6.503
 4200SOL    HW113499   2.161   0.078   6.533
 4200SOL    HW213500   2.015   0.015   6.569
 4201SOL     OW13501   6.034   6.999   3.670
 4201SOL    HW113502   6.129   6.968   3.676
 4201SOL    HW213503   6.031   0.082   3.682
 4202SOL     OW13504   5.463   4.963   5.654
 4202SOL    HW113505   5.389   5.004   5.708
 4202SOL    HW213506   5.474   5.015   5.569
 4203SOL     OW13507   5.198   5.342   2.802
 4203SOL    HW113508   5.114   5.288   2.806
 4203SOL    HW213509   5.251   5.328   2.885
 4204SOL     OW13510   3.384   3.222   1.232
 4204SOL    HW113511   3.442   3.299   1.258
 4204SOL    HW213512   3.395   3.148   1.298
 4205SOL     OW13513   3.055   5.238   4.965
 4205SOL    HW113514   2.982   5.253   5.032
 4205SOL    HW213515   3.129   5.186   5.008
 4206SOL     OW13516   5.152   0.378   4.842
 4206SOL    HW113517   5.061   0.380   4.884
 4206SOL    HW213518   5.150   0.323   4.759
 4207SOL     OW13519   1.280   0.774   1.800
 4207SOL    HW113520   1.332   0.729   1.728
 4207SOL    HW213521   1.183   0.774   1.777
 4208SOL     OW13522   1.110   2.509   0.918
 4208SOL    HW113523   1.133   2.413   0.933
 4208SOL    HW213524   1.112   2.529   0.820
 4209SOL     OW13525   2.057   0.058   4.918
 4209SOL    HW113526   2.126   0.105   4.973
 4209SOL    HW213527   2.084   0.060   4.822
 4210SOL     OW13528   3.711   2.956   1.089
 4210SOL    HW113529   3.768   3.035   1.110
 4210SOL    HW213530   3.671   2.967   0.997
 4211SOL     OW13531   4.587   4.372   4.191
 4211SOL    HW113532   4.534   4.453   4.165
 4211SOL    HW213533   4.597   4.311   4.113
 4212SOL     OW13534   6.202   1.077   3.042
 4212SOL    HW113535   6.189   1.157   3.101
 4212SOL    HW213536   6.114   1.044   3.010
 4213SOL     OW13537   1.603   0.812   2.393
 4213SOL    HW113538   1.631   0.774   2.481
 4213SOL    HW213539   1.673   0.874   2.360
 4214SOL     OW13540   0.995   3.499   5.444
 4214SOL    HW113541   0.991   3.453   5.356
 4214SOL    HW213542   1.031   3.592   5.433
 4215SOL     OW13543   0.634   5.453   4.879
 4215SOL    HW113544   0.713   5.395   4.859
 4215SOL    HW213545   0.556   5.424   4.823
 4216SOL     OW13546   1.103   2.600   4.204
 4216SOL    HW113547   1.168   2.662   4.162
 4216SOL    HW213548   1.149   2.548   4.276
 4217SOL     OW13549   0.659   0.936   2.669
 4217SOL    HW113550   0.633   0.991   2.748
 4217SOL    HW213551   0.744   0.887   2.690
 4218SOL     OW13552   4.697   0.224   1.935
 4218SOL    HW113553   4.783   0.213   1.985
 4218SOL    HW213554   4.625   0.252   1.999
 4219SOL     OW13555   3.985   5.521   4.588
 4219SOL    HW113556   4.038   5.529   4.503
 4219SOL    HW213557   4.041   5.552   4.665
 4220SOL     OW13558   6.566   3.574   3.846
 4220SOL    HW113559   6.572   3.475   3.853
 4220SOL    HW213560   6.632   3.616   3.909
 4221SOL     OW13561   5.035   5.476   6.342
 4221SOL    HW113562   4.984   5.552   6.302
 4221SOL    HW213563   5.090   5.432   6.271
 4222SOL     OW13564   5.249   2.598   1.867
 4222SOL    HW113565   5.174   2.547   1.827
 4222SOL    HW213566   5.222   2.633   1.956
 4223SOL     OW13567   3.233   4.025   2.214
 4223SOL    HW113568   3.260   4.037   2.118
 4223SOL    HW213569   3.281   3.946   2.252
 4224SOL     OW13570   4.473   2.518   4.919
 4224SOL    HW113571   4.505   2.567   4.838
 4224SOL    HW213572   4.448   2.583   4.990
 4225SOL     OW13573   6.042   0.230   4.627
 4225SOL    HW113574   6.011   0.267   4.715
 4225SOL    HW213575   6.041   0.130   4.630
 4226SOL     OW13576   0.692   1.851   3.653
 4226SOL    HW113577   0.597   1.868   3.627
 4226SOL    HW213578   0.698   1.764   3.703
 4227SOL     OW13579   3.924   4.338   6.516
 4227SOL    HW113580   3.865   4.261   6.491
 4227SOL    HW213581   4.005   4.338   6.457
 4228SOL     OW13582   6.689   5.652   3.147
 4228SOL    HW113583   6.632   5.730   3.174
 4228SOL    HW213584   6.785   5.673   3.167
 4229SOL     OW13585   4.718   4.742   5.804
 4229SOL    HW113586   4.626   4.717   5.832
 4229SOL    HW213587   4.724   4.841   5.792
 4230SOL     OW13588   3.477   0.768   5.374
 4230SOL    HW113589   3.562   0.808   5.408
 4230SOL    HW213590   3.494   0.723   5.286
 4231SOL     OW13591   4.843   6.701   5.050
 4231SOL    HW113592   4.815   6.768   4.982
 4231SOL    HW213593   4.840   6.743   5.141
 4232SOL     OW13594   1.971   4.887   2.790
 4232SOL    HW113595   1.913   4.908   2.711
 4232SOL    HW213596   1.920   4.827   2.853
 4233SOL     OW13597   6.699   6.554   6.772
 4233SOL    HW113598   6.607   6.566   6.807
 4233SOL    HW213599   6.742   6.475   6.816
 4234SOL     OW13600   3.059   5.077   6.277
 4234SOL    HW113601   3.035   5.045   6.185
 4234SOL    HW213602   3.158   5.076   6.288
 4235SOL     OW13603   6.228   3.444   5.473
 4235SOL    HW113604   6.296   3.443   5.547
 4235SOL    HW213605   6.232   3.533   5.426
 4236SOL     OW13606   1.029   3.191   4.435
 4236SOL    HW113607   1.113   3.170   4.385
 4236SOL    HW213608   0.966   3.114   4.427
 4237SOL     OW13609   5.190   3.725   5.001
 4237SOL    HW113610   5.185   3.722   5.101
 4237SOL    HW213611   5.229   3.640   4.967
 4238SOL     OW13612   3.953   5.472   4.069
 4238SOL    HW113613   3.858   5.475   4.097
 4238SOL    HW213614   3.988   5.379   4.080
 4239SOL     OW13615   4.541   6.592   5.681
 4239SOL    HW113616   4.475   6.619   5.751
 4239SOL    HW213617   4.494   6.542   5.609
 4240SOL     OW13618   2.761   4.664   6.484
 4240SOL    HW113619   2.799   4.755   6.498
 4240SOL    HW213620   2.797   4.625   6.399
 4241SOL     OW13621   4.736   0.170   0.513
 4241SOL    HW113622   4.640   0.164   0.538
 4241SOL    HW213623   4.792   0.172   0.597
 4242SOL     OW13624   2.053   0.215   2.829
 4242SOL    HW113625   2.079   0.119   2.838
 4242SOL    HW213626   2.103   0.256   2.753
 4243SOL     OW13627   0.883   3.759   2.340
 4243SOL    HW113628   0.841   3.837   2.294
 4243SOL    HW213629   0.983   3.765   2.331
 4244SOL     OW13630   4.730   6.738   1.166
 4244SOL    HW113631   4.797   6.713   1.235
 4244SOL    HW213632   4.705   6.657   1.112
 4245SOL     OW13633   6.731   3.340   1.014
 4245SOL    HW113634   6.663   3.293   0.957
 4245SOL    HW213635   6.723   3.439   1.002
 4246SOL     OW13636   5.061   2.121   3.229
 4246SOL    HW113637   5.048   2.198   3.291
 4246SOL    HW213638   4.985   2.118   3.164
 4247SOL     OW13639   1.857   4.712   5.115
 4247SOL    HW113640   1.865   4.796   5.061
 4247SOL    HW213641   1.778   4.719   5.176
 4248SOL     OW13642   1.733   0.739   2.876
 4248SOL    HW113643   1.681   0.800   2.936
 4248SOL    HW213644   1.711   0.644   2.898
 4249SOL     OW13645   6.997   0.284   5.065
 4249SOL    HW113646   7.012   0.304   4.968
 4249SOL    HW213647   0.045   0.213   5.094
 4250SOL     OW13648   0.157   5.594   4.400
 4250SOL    HW113649   0.253   5.573   4.420
 4250SOL    HW213650   0.132   5.682   4.440
 4251SOL     OW13651   6.097   1.756   6.404
 4251SOL    HW113652   6.057   1.692   6.470
 4251SOL    HW213653   6.167   1.709   6.351
 4252SOL     OW13654   6.686   6.045   6.863
 4252SOL    HW113655   6.770   6.000   6.835
 4252SOL    HW213656   6.619   6.039   6.788
 4253SOL     OW13657   4.370   5.618   2.788
 4253SOL    HW113658   4.354   5.678   2.867
 4253SOL    HW213659   4.363   5.672   2.704
 4254SOL     OW13660   1.966   3.097   6.984
 4254SOL    HW113661   2.051   3.142   7.009
 4254SOL    HW213662   1.915   3.073   0.050
 4255SOL     OW13663   0.473   3.922   2.784
 4255SOL    HW113664   0.432   3.953   2.870
 4255SOL    HW213665   0.552   3.980   2.762
 4256SOL     OW13666   0.513   5.195   2.166
 4256SOL    HW113667   0.468   5.280   2.191
 4256SOL    HW213668   0.445   5.129   2.133
 4257SOL     OW13669   6.273   0.931   5.312
 4257SOL    HW113670   6.213   0.898   5.385
 4257SOL    HW213671   6.220   0.939   5.228
 4258SOL     OW13672   3.944   5.560   0.150
 4258SOL    HW113673   3.852   5.590   0.175
 4258SOL    HW213674   3.996   5.637   0.113
 4259SOL     OW13675   0.870   6.675   2.201
 4259SOL    HW113676   0.896   6.601   2.264
 4259SOL    HW213677   0.800   6.732   2.244
 4260SOL     OW13678   5.127   0.184   4.660
 4260SOL    HW113679   5.037   0.179   4.616
 4260SOL    HW213680   5.166   0.092   4.665
 4261SOL     OW13681   1.931   0.201   3.825
 4261SOL    HW113682   1.992   0.217   3.747
 4261SOL    HW213683   1.950   0.111   3.864
 4262SOL     OW13684   1.646   3.965   6.675
 4262SOL    HW113685   1.715   3.972   6.746
 4262SOL    HW213686   1.688   3.976   6.585
 4263SOL     OW13687   2.799   2.306   4.097
 4263SOL    HW113688   2.716   2.300   4.153
 4263SOL    HW213689   2.784   2.371   4.023
 4264SOL     OW13690   5.445   1.216   4.322
 4264SOL    HW113691   5.401   1.276   4.255
 4264SOL    HW213692   5.532   1.255   4.350
 4265SOL     OW13693   3.070   1.223   0.894
 4265SOL    HW113694   3.056   1.124   0.882
 4265SOL    HW213695   2.993   1.272   0.851
 4266SOL     OW13696   1.842   6.703   0.535
 4266SOL    HW113697   1.810   6.629   0.476
 4266SOL    HW213698   1.920   6.749   0.493
 4267SOL     OW13699   1.969   4.153   4.571
 4267SOL    HW113700   1.880   4.116   4.601
 4267SOL    HW213701   1.969   4.163   4.472
 4268SOL     OW13702   1.518   4.445   5.951
 4268SOL    HW113703   1.544   4.354   5.983
 4268SOL    HW213704   1.459   4.436   5.870
 4269SOL     OW13705   3.094   1.484   4.277
 4269SOL    HW113706   3.020   1.420   4.300
 4269SOL    HW213707   3.059   1.555   4.215
 4270SOL     OW13708   3.821   2.231   0.742
 4270SOL    HW113709   3.803   2.144   0.697
 4270SOL    HW213710   3.888   2.282   0.689
 4271SOL     OW13711   6.671   0.755   1.118
 4271SOL    HW113712   6.643   0.806   1.037
 4271SOL    HW213713   6.651   0.657   1.104
 4272SOL     OW13714   6.571   1.874   5.980
 4272SOL    HW113715   6.517   1.916   5.908
 4272SOL    HW213716   6.510   1.830   6.046
 4273SOL     OW13717   3.452   5.458   4.805
 4273SOL    HW113718   3.359   5.474   4.775
 4273SOL    HW213719   3.515   5.515   4.752
 4274SOL     OW13720   6.884   1.104   1.699
 4274SOL    HW113721   6.921   1.188   1.739
 4274SOL    HW213722   6.799   1.124   1.651
 4275SOL     OW13723   0.565   2.979   3.149
 4275SOL    HW113724   0.559   2.879   3.149
 4275SOL    HW213725   0.657   3.007   3.177
 4276SOL     OW13726   2.571   6.132   3.953
 4276SOL    HW113727   2.483   6.089   3.932
 4276SOL    HW213728   2.639   6.062   3.972
 4277SOL     OW13729   6.203   5.447   3.494
 4277SOL    HW113730   6.270   5.506   3.449
 4277SOL    HW213731   6.111   5.478   3.473
 4278SOL     OW13732   1.283   6.913   2.062
 4278SOL    HW113733   1.258   6.927   2.158
 4278SOL    HW213734   1.240   6.829   2.028
 4279SOL     OW13735   2.263   2.245   3.174
 4279SOL    HW113736   2.243   2.248   3.076
 4279SOL    HW213737   2.361   2.226   3.187
 4280SOL     OW13738   0.373   0.155   6.034
 4280SOL    HW113739   0.302   0.154   6.105
 4280SOL    HW213740   0.427   0.239   6.042
 4281SOL     OW13741   4.222   5.475   3.633
 4281SOL    HW113742   4.305   5.421   3.648
 4281SOL    HW213743   4.159   5.424   3.575
 4282SOL     OW13744   3.560   4.199   1.046
 4282SOL    HW113745   3.632   4.244   1.099
 4282SOL    HW213746   3.511   4.134   1.105
 4283SOL     OW13747   5.129   1.074   3.964
 4283SOL    HW113748   5.099   1.149   3.905
 4283SOL    HW213749   5.173   1.003   3.909
 4284SOL     OW13750   4.718   5.915   6.220
 4284SOL    HW113751   4.793   5.949   6.278
 4284SOL    HW213752   4.632   5.927   6.269
 4285SOL     OW13753   2.685   0.342   5.780
 4285SOL    HW113754   2.667   0.258   5.830
 4285SOL    HW213755   2.783   0.355   5.770
 4286SOL     OW13756   5.632   1.037   6.422
 4286SOL    HW113757   5.563   1.071   6.486
 4286SOL    HW213758   5.587   0.993   6.344
 4287SOL     OW13759   4.637   0.459   6.841
 4287SOL    HW113760   4.685   0.484   6.926
 4287SOL    HW213761   4.698   0.473   6.763
 4288SOL     OW13762   6.619   6.680   2.263
 4288SOL    HW113763   6.672   6.727   2.193
 4288SOL    HW213764   6.526   6.717   2.265
 4289SOL     OW13765   0.697   3.397   4.606
 4289SOL    HW113766   0.611   3.351   4.585
 4289SOL    HW213767   0.716   3.467   4.537
 4290SOL     OW13768   0.318   1.336   3.103
 4290SOL    HW113769   0.270   1.249   3.094
 4290SOL    HW213770   0.409   1.320   3.143
 4291SOL     OW13771   5.481   3.282   6.242
 4291SOL    HW113772   5.518   3.263   6.152
 4291SOL    HW213773   5.528   3.361   6.282
 4292SOL     OW13774   5.800   2.011   0.924
 4292SOL    HW113775   5.892   2.004   0.963
 4292SOL    HW213776   5.805   2.063   0.838
 4293SOL     OW13777   4.119   4.295   0.069
 4293SOL    HW113778   4.153   4.361   0.002
 4293SOL    HW213779   4.104   4.207   0.024
 4294SOL     OW13780   2.287   1.976   6.210
 4294SOL    HW113781   2.272   2.064   6.254
 4294SOL    HW213782   2.200   1.928   6.201
 4295SOL     OW13783   4.364   6.594   3.047
 4295SOL    HW113784   4.437   6.525   3.050
 4295SOL    HW213785   4.402   6.684   3.070
 4296SOL     OW13786   2.785   6.252   1.858
 4296SOL    HW113787   2.864   6.244   1.798
 4296SOL    HW213788   2.808   6.311   1.936
 4297SOL     OW13789   5.931   4.970   0.685
 4297SOL    HW113790   5.846   5.020   0.669
 4297SOL    HW213791   5.958   4.979   0.781
 4298SOL     OW13792   3.610   6.659   0.680
 4298SOL    HW113793   3.554   6.648   0.762
 4298SOL    HW213794   3.654   6.572   0.658
 4299SOL     OW13795   1.274   2.557   0.488
 4299SOL    HW113796   1.242   2.470   0.449
 4299SOL    HW213797   1.356   2.587   0.440
 4300SOL     OW13798   3.049   0.903   0.941
 4300SOL    HW113799   3.127   0.842   0.923
 4300SOL    HW213800   3.034   0.909   1.040
 4301SOL     OW13801   3.134   6.854   1.526
 4301SOL    HW113802   3.116   6.808   1.440
 4301SOL    HW213803   3.232   6.869   1.536
 4302SOL     OW13804   1.576   5.465   5.638
 4302SOL    HW113805   1.664   5.497   5.605
 4302SOL    HW213806   1.533   5.535   5.695
 4303SOL     OW13807   6.010   4.156   3.636
 4303SOL    HW113808   6.043   4.228   3.575
 4303SOL    HW213809   6.037   4.178   3.730
 4304SOL     OW13810   3.443   3.540   1.533
 4304SOL    HW113811   3.426   3.597   1.613
 4304SOL    HW213812   3.463   3.446   1.563
 4305SOL     OW13813   1.282   0.379   5.284
 4305SOL    HW113814   1.253   0.418   5.197
 4305SOL    HW213815   1.259   0.442   5.358
 4306SOL     OW13816   5.488   3.656   5.112
 4306SOL    HW113817   5.515   3.587   5.046
 4306SOL    HW213818   5.398   3.633   5.151
 4307SOL     OW13819   6.590   2.041   5.481
 4307SOL    HW113820   6.534   2.108   5.433
 4307SOL    HW213821   6.673   2.023   5.427
 4308SOL     OW13822   5.005   4.871   0.368
 4308SOL    HW113823   4.912   4.835   0.369
 4308SOL    HW213824   5.061   4.821   0.435
 4309SOL     OW13825   1.559   3.297   0.479
 4309SOL    HW113826   1.473   3.255   0.450
 4309SOL    HW213827   1.575   3.380   0.426
 4310SOL     OW13828   0.021   1.683   2.615
 4310SOL    HW113829   7.008   1.705   2.522
 4310SOL    HW213830   0.009   1.763   2.674
 4311SOL     OW13831   0.552   6.575   2.490
 4311SOL    HW113832   0.490   6.520   2.546
 4311SOL    HW213833   0.535   6.556   2.393
 4312SOL     OW13834   0.203   4.708   2.302
 4312SOL    HW113835   0.120   4.724   2.248
 4312SOL    HW213836   0.179   4.701   2.399
 4313SOL     OW13837   6.354   1.856   0.388
 4313SOL    HW113838   6.361   1.928   0.320
 4313SOL    HW213839   6.270   1.867   0.441
 4314SOL     OW13840   6.653   2.443   5.467
 4314SOL    HW113841   6.581   2.458   5.534
 4314SOL    HW213842   6.703   2.360   5.489
 4315SOL     OW13843   2.528   1.638   3.873
 4315SOL    HW113844   2.456   1.579   3.908
 4315SOL    HW213845   2.549   1.709   3.941
 4316SOL     OW13846   5.023   6.924   1.994
 4316SOL    HW113847   4.970   7.007   2.010
 4316SOL    HW213848   5.104   6.924   2.053
 4317SOL     OW13849   4.374   0.986   5.909
 4317SOL    HW113850   4.365   0.936   5.995
 4317SOL    HW213851   4.470   1.004   5.890
 4318SOL     OW13852   0.465   1.598   3.859
 4318SOL    HW113853   0.427   1.609   3.951
 4318SOL    HW213854   0.391   1.606   3.792
 4319SOL     OW13855   1.038   4.887   2.030
 4319SOL    HW113856   0.954   4.870   1.978
 4319SOL    HW213857   1.114   4.837   1.988
 4320SOL     OW13858   3.781   5.573   0.436
 4320SOL    HW113859   3.727   5.553   0.518
 4320SOL    HW213860   3.739   5.649   0.387
 4321SOL     OW13861   6.308   0.335   2.563
 4321SOL    HW113862   6.246   0.319   2.639
 4321SOL    HW213863   6.271   0.294   2.480
 4322SOL     OW13864   1.260   3.172   5.343
 4322SOL    HW113865   1.280   3.170   5.440
 4322SOL    HW213866   1.345   3.177   5.291
 4323SOL     OW13867   3.968   5.604   6.487
 4323SOL    HW113868   4.008   5.692   6.514
 4323SOL    HW213869   4.041   5.535   6.480
 4324SOL     OW13870   0.009   4.193   5.495
 4324SOL    HW113871   6.956   4.128   5.525
 4324SOL    HW213872   0.096   4.173   5.540
 4325SOL     OW13873   3.056   0.652   2.465
 4325SOL    HW113874   3.005   0.670   2.549
 4325SOL    HW213875   3.000   0.677   2.386
 4326SOL     OW13876   4.911   2.163   2.995
 4326SOL    HW113877   4.845   2.231   3.025
 4326SOL    HW213878   4.866   2.096   2.936
 4327SOL     OW13879   3.202   5.964   4.147
 4327SOL    HW113880   3.128   5.944   4.084
 4327SOL    HW213881   3.198   6.060   4.174
 4328SOL     OW13882   5.627   6.410   4.849
 4328SOL    HW113883   5.541   6.387   4.895
 4328SOL    HW213884   5.607   6.448   4.759
 4329SOL     OW13885   6.326   2.299   5.701
 4329SOL    HW113886   6.287   2.265   5.787
 4329SOL    HW213887   6.422   2.272   5.695
 4330SOL     OW13888   2.960   4.849   5.023
 4330SOL    HW113889   2.907   4.771   5.056
 4330SOL    HW213890   2.924   4.878   4.934
 4331SOL     OW13891   6.426   0.944   1.626
 4331SOL    HW113892   6.335   0.929   1.666
 4331SOL    HW213893   6.446   0.870   1.562
 4332SOL     OW13894   0.118   4.703   2.567
 4332SOL    HW113895   0.026   4.733   2.590
 4332SOL    HW213896   0.185   4.760   2.614
 4333SOL     OW13897   3.820   2.094   5.644
 4333SOL    HW113898   3.885   2.065   5.715
 4333SOL    HW213899   3.781   2.013   5.600
 4334SOL     OW13900   0.729   2.694   3.843
 4334SOL    HW113901   0.773   2.608   3.869
 4334SOL    HW213902   0.680   2.681   3.757
 4335SOL     OW13903   3.182   3.324   0.807
 4335SOL    HW113904   3.140   3.413   0.825
 4335SOL    HW213905   3.127   3.274   0.740
 4336SOL     OW13906   2.818   5.619   6.082
 4336SOL    HW113907   2.911   5.654   6.070
 4336SOL    HW213908   2.761   5.650   6.006
 4337SOL     OW13909   1.373   5.100   3.468
 4337SOL    HW113910   1.400   5.112   3.563
 4337SOL    HW213911   1.349   5.189   3.429
 4338SOL     OW13912   4.621   1.095   5.770
 4338SOL    HW113913   4.640   1.192   5.781
 4338SOL    HW213914   4.678   1.042   5.833
 4339SOL     OW13915   4.218   3.041   6.254
 4339SOL    HW113916   4.253   3.130   6.224
 4339SOL    HW213917   4.133   3.020   6.205
 4340SOL     OW13918   0.104   3.287   0.630
 4340SOL    HW113919   0.170   3.258   0.560
 4340SOL    HW213920   0.126   3.242   0.717
 4341SOL     OW13921   0.103   6.493   2.610
 4341SOL    HW113922   0.049   6.423   2.657
 4341SOL    HW213923   0.099   6.476   2.511
 4342SOL     OW13924   5.359   4.181   2.713
 4342SOL    HW113925   5.364   4.270   2.757
 4342SOL    HW213926   5.264   4.150   2.709
 4343SOL     OW13927   4.253   0.525   5.795
 4343SOL    HW113928   4.157   0.541   5.820
 4343SOL    HW213929   4.259   0.508   5.697
 4344SOL     OW13930   0.158   2.871   3.748
 4344SOL    HW113931   0.161   2.960   3.703
 4344SOL    HW213932   0.211   2.876   3.833
 4345SOL     OW13933   2.924   3.379   2.271
 4345SOL    HW113934   2.924   3.478   2.252
 4345SOL    HW213935   2.900   3.330   2.188
 4346SOL     OW13936   1.703   3.840   1.699
 4346SOL    HW113937   1.770   3.826   1.772
 4346SOL    HW213938   1.719   3.928   1.656
 4347SOL     OW13939   5.822   4.869   1.279
 4347SOL    HW113940   5.767   4.826   1.350
 4347SOL    HW213941   5.765   4.887   1.199
 4348SOL     OW13942   5.614   6.091   4.200
 4348SOL    HW113943   5.614   6.084   4.100
 4348SOL    HW213944   5.626   6.001   4.240
 4349SOL     OW13945   0.242   3.339   4.507
 4349SOL    HW113946   0.206   3.292   4.426
 4349SOL    HW213947   0.166   3.365   4.567
 4350SOL     OW13948   4.556   1.068   5.135
 4350SOL    HW113949   4.648   1.086   5.100
 4350SOL    HW213950   4.544   1.113   5.223
 4351SOL     OW13951   1.099   6.297   0.679
 4351SOL    HW113952   1.015   6.325   0.723
 4351SOL    HW213953   1.167   6.369   0.686
 4352SOL     OW13954   3.836   3.667   1.203
 4352SOL    HW113955   3.918   3.646   1.257
 4352SOL    HW213956   3.794   3.750   1.238
 4353SOL     OW13957   3.191   2.573   0.944
 4353SOL    HW113958   3.238   2.488   0.917
 4353SOL    HW213959   3.242   2.651   0.909
 4354SOL     OW13960   5.550   6.936   3.920
 4354SOL    HW113961   5.587   6.906   3.833
 4354SOL    HW213962   5.620   6.988   3.970
 4355SOL     OW13963   1.160   6.256   3.615
 4355SOL    HW113964   1.240   6.198   3.628
 4355SOL    HW213965   1.188   6.348   3.590
 4356SOL     OW13966   5.422   2.476   6.330
 4356SOL    HW113967   5.460   2.393   6.369
 4356SOL    HW213968   5.485   2.552   6.346
 4357SOL     OW13969   6.797   1.105   2.403
 4357SOL    HW113970   6.701   1.074   2.402
 4357SOL    HW213971   6.826   1.125   2.310
 4358SOL     OW13972   1.550   6.886   6.895
 4358SOL    HW113973   1.472   6.854   6.841
 4358SOL    HW213974   1.569   6.820   6.968
 4359SOL     OW13975   2.006   1.526   7.014
 4359SOL    HW113976   2.024   1.538   0.095
 4359SOL    HW213977   1.978   1.613   6.974
 4360SOL     OW13978   1.318   3.298   3.712
 4360SOL    HW113979   1.237   3.240   3.724
 4360SOL    HW213980   1.316   3.338   3.620
 4361SOL     OW13981   0.384   0.996   0.908
 4361SOL    HW113982   0.432   0.911   0.887
 4361SOL    HW213983   0.426   1.072   0.858
 4362SOL     OW13984   0.696   6.113   4.016
 4362SOL    HW113985   0.698   6.194   4.075
 4362SOL    HW213986   0.746   6.038   4.059
 4363SOL     OW13987   4.653   1.494   2.044
 4363SOL    HW113988   4.570   1.454   2.004
 4363SOL    HW213989   4.722   1.422   2.055
 4364SOL     OW13990   3.681   3.915   2.876
 4364SOL    HW113991   3.698   3.867   2.790
 4364SOL    HW213992   3.763   3.912   2.933
 4365SOL     OW13993   2.972   2.249   1.770
 4365SOL    HW113994   2.899   2.293   1.822
 4365SOL    HW213995   2.953   2.152   1.760
 4366SOL     OW13996   4.566   6.395   4.590
 4366SOL    HW113997   4.507   6.409   4.511
 4366SOL    HW213998   4.627   6.317   4.574
 4367SOL     OW13999   2.420   5.565   3.745
 4367SOL    HW114000   2.456   5.628   3.814
 4367SOL    HW214001   2.492   5.500   3.719
 4368SOL     OW14002   4.556   4.530   2.674
 4368SOL    HW114003   4.639   4.554   2.624
 4368SOL    HW214004   4.560   4.434   2.701
 4369SOL     OW14005   4.246   4.838   3.237
 4369SOL    HW114006   4.256   4.749   3.192
 4369SOL    HW214007   4.195   4.826   3.322
 4370SOL     OW14008   3.886   4.794   1.460
 4370SOL    HW114009   3.836   4.734   1.523
 4370SOL    HW214010   3.928   4.740   1.388
 4371SOL     OW14011   3.330   0.852   1.616
 4371SOL    HW114012   3.246   0.855   1.670
 4371SOL    HW214013   3.409   0.850   1.678
 4372SOL     OW14014   2.078   3.169   4.519
 4372SOL    HW114015   2.081   3.223   4.435
 4372SOL    HW214016   2.098   3.227   4.597
 4373SOL     OW14017   4.809   1.244   5.282
 4373SOL    HW114018   4.809   1.260   5.183
 4373SOL    HW214019   4.716   1.223   5.313
 4374SOL     OW14020   2.463   1.398   1.604
 4374SOL    HW114021   2.482   1.466   1.533
 4374SOL    HW214022   2.365   1.379   1.607
 4375SOL     OW14023   3.867   0.918   3.485
 4375SOL    HW114024   3.897   0.946   3.576
 4375SOL    HW214025   3.894   0.988   3.418
 4376SOL     OW14026   6.874   6.444   1.185
 4376SOL    HW114027   6.835   6.530   1.152
 4376SOL    HW214028   6.895   6.452   1.283
 4377SOL     OW14029   6.147   6.368   6.160
 4377SOL    HW114030   6.067   6.308   6.159
 4377SOL    HW214031   6.217   6.330   6.220
 4378SOL     OW14032   1.881   5.624   2.304
 4378SOL    HW114033   1.800   5.682   2.313
 4378SOL    HW214034   1.853   5.528   2.302
 4379SOL     OW14035   1.257   0.367   1.872
 4379SOL    HW114036   1.321   0.437   1.905
 4379SOL    HW214037   1.225   0.392   1.781
 4380SOL     OW14038   1.622   6.056   4.936
 4380SOL    HW114039   1.551   5.986   4.940
 4380SOL    HW214040   1.584   6.145   4.962
 4381SOL     OW14041   3.465   6.415   5.127
 4381SOL    HW114042   3.376   6.419   5.082
 4381SOL    HW214043   3.510   6.328   5.107
 4382SOL     OW14044   5.057   3.743   4.271
 4382SOL    HW114045   5.157   3.739   4.278
 4382SOL    HW214046   5.017   3.680   4.337
 4383SOL     OW14047   0.722   3.031   5.694
 4383SOL    HW114048   0.752   3.017   5.788
 4383SOL    HW214049   0.763   2.962   5.635
 4384SOL     OW14050   3.798   6.141   0.593
 4384SOL    HW114051   3.750   6.154   0.680
 4384SOL    HW214052   3.808   6.230   0.548
 4385SOL     OW14053   0.380   2.323   2.355
 4385SOL    HW114054   0.472   2.343   2.322
 4385SOL    HW214055   0.312   2.365   2.295
 4386SOL     OW14056   0.684   2.837   6.745
 4386SOL    HW114057   0.617   2.842   6.671
 4386SOL    HW214058   0.651   2.775   6.816
 4387SOL     OW14059   0.069   3.525   1.797
 4387SOL    HW114060   0.115   3.491   1.879
 4387SOL    HW214061   0.133   3.525   1.720
 4388SOL     OW14062   3.619   0.785   5.956
 4388SOL    HW114063   3.679   0.771   6.035
 4388SOL    HW214064   3.578   0.698   5.929
 4389SOL     OW14065   5.461   2.621   3.033
 4389SOL    HW114066   5.448   2.560   2.955
 4389SOL    HW214067   5.504   2.706   3.003
 4390SOL     OW14068   4.898   2.939   2.293
 4390SOL    HW114069   4.989   2.935   2.251
 4390SOL    HW214070   4.828   2.926   2.222
 4391SOL     OW14071   1.193   5.676   0.453
 4391SOL    HW114072   1.123   5.748   0.454
 4391SOL    HW214073   1.280   5.713   0.484
 4392SOL     OW14074   4.845   3.077   4.492
 4392SOL    HW114075   4.841   3.133   4.575
 4392SOL    HW214076   4.937   3.039   4.483
 4393SOL     OW14077   4.794   6.677   3.053
 4393SOL    HW114078   4.836   6.590   3.026
 4393SOL    HW214079   4.807   6.744   2.980
 4394SOL     OW14080   5.152   0.284   2.731
 4394SOL    HW114081   5.107   0.347   2.667
 4394SOL    HW214082   5.179   0.334   2.813
 4395SOL     OW14083   5.417   1.732   1.788
 4395SOL    HW114084   5.394   1.763   1.881
 4395SOL    HW214085   5.341   1.753   1.726
 4396SOL     OW14086   0.799   0.895   4.353
 4396SOL    HW114087   0.723   0.955   4.377
 4396SOL    HW214088   0.763   0.806   4.326
 4397SOL     OW14089   6.751   0.306   4.775
 4397SOL    HW114090   6.703   0.218   4.771
 4397SOL    HW214091   6.847   0.289   4.799
 4398SOL     OW14092   0.230   4.676   4.209
 4398SOL    HW114093   0.206   4.670   4.112
 4398SOL    HW214094   0.317   4.724   4.219
 4399SOL     OW14095   1.880   1.410   0.786
 4399SOL    HW114096   1.918   1.488   0.736
 4399SOL    HW214097   1.847   1.441   0.875
 4400SOL     OW14098   3.318   6.263   4.773
 4400SOL    HW114099   3.296   6.218   4.686
 4400SOL    HW214100   3.361   6.197   4.834
 4401SOL     OW14101   5.857   5.865   4.259
 4401SOL    HW114102   5.813   5.820   4.182
 4401SOL    HW214103   5.924   5.803   4.300
 4402SOL     OW14104   0.536   6.253   2.867
 4402SOL    HW114105   0.519   6.340   2.913
 4402SOL    HW214106   0.459   6.231   2.807
 4403SOL     OW14107   0.774   0.353   3.399
 4403SOL    HW114108   0.742   0.260   3.416
 4403SOL    HW214109   0.779   0.369   3.300
 4404SOL     OW14110   0.702   3.810   3.206
 4404SOL    HW114111   0.712   3.768   3.297
 4404SOL    HW214112   0.616   3.779   3.165
 4405SOL     OW14113   3.623   4.417   5.608
 4405SOL    HW114114   3.656   4.341   5.552
 4405SOL    HW214115   3.597   4.493   5.548
 4406SOL     OW14116   5.887   3.901   1.465
 4406SOL    HW114117   5.821   3.863   1.529
 4406SOL    HW214118   5.851   3.986   1.427
 4407SOL     OW14119   6.478   0.124   6.856
 4407SOL    HW114120   6.499   0.112   6.954
 4407SOL    HW214121   6.533   0.059   6.803
 4408SOL     OW14122   4.750   0.090   6.591
 4408SOL    HW114123   4.669   0.092   6.650
 4408SOL    HW214124   4.737   0.153   6.514
 4409SOL     OW14125   3.566   0.172   2.044
 4409SOL    HW114126   3.594   0.183   2.139
 4409SOL    HW214127   3.466   0.166   2.039
 4410SOL     OW14128   2.291   4.941   1.446
 4410SOL    HW114129   2.195   4.918   1.429
 4410SOL    HW214130   2.312   4.929   1.543
 4411SOL     OW14131   3.850   3.356   2.725
 4411SOL    HW114132   3.869   3.275   2.671
 4411SOL    HW214133   3.932   3.382   2.775
 4412SOL     OW14134   3.809   1.368   6.704
 4412SOL    HW114135   3.857   1.377   6.617
 4412SOL    HW214136   3.828   1.278   6.743
 4413SOL     OW14137   4.481   6.146   4.166
 4413SOL    HW114138   4.383   6.168   4.166
 4413SOL    HW214139   4.493   6.048   4.158
 4414SOL     OW14140   3.876   4.786   1.849
 4414SOL    HW114141   3.800   4.725   1.827
 4414SOL    HW214142   3.958   4.732   1.868
 4415SOL     OW14143   5.146   2.933   6.436
 4415SOL    HW114144   5.173   2.934   6.533
 4415SOL    HW214145   5.050   2.959   6.429
 4416SOL     OW14146   3.364   0.397   4.586
 4416SOL    HW114147   3.349   0.383   4.488
 4416SOL    HW214148   3.315   0.327   4.638
 4417SOL     OW14149   6.911   5.733   2.217
 4417SOL    HW114150   6.829   5.790   2.215
 4417SOL    HW214151   6.919   5.690   2.307
 4418SOL     OW14152   3.964   6.894   3.706
 4418SOL    HW114153   3.865   6.885   3.712
 4418SOL    HW214154   3.988   6.987   3.677
 4419SOL     OW14155   0.520   5.418   6.925
 4419SOL    HW114156   0.523   5.342   6.990
 4419SOL    HW214157   0.466   5.392   6.845
 4420SOL     OW14158   5.276   2.169   6.621
 4420SOL    HW114159   5.185   2.169   6.662
 4420SOL    HW214160   5.325   2.088   6.652
 4421SOL     OW14161   1.561   1.997   3.266
 4421SOL    HW114162   1.478   2.019   3.215
 4421SOL    HW214163   1.543   2.003   3.364
 4422SOL     OW14164   2.257   4.272   6.132
 4422SOL    HW114165   2.341   4.228   6.161
 4422SOL    HW214166   2.256   4.281   6.032
 4423SOL     OW14167   1.482   2.076   6.418
 4423SOL    HW114168   1.445   2.098   6.328
 4423SOL    HW214169   1.501   1.977   6.423
 4424SOL     OW14170   6.238   6.804   2.921
 4424SOL    HW114171   6.225   6.738   2.995
 4424SOL    HW214172   6.223   6.896   2.956
 4425SOL     OW14173   3.803   4.679   6.404
 4425SOL    HW114174   3.719   4.667   6.350
 4425SOL    HW214175   3.879   4.699   6.342
 4426SOL     OW14176   0.624   0.534   5.241
 4426SOL    HW114177   0.587   0.624   5.263
 4426SOL    HW214178   0.578   0.464   5.296
 4427SOL     OW14179   1.248   0.423   3.111
 4427SOL    HW114180   1.149   0.412   3.103
 4427SOL    HW214181   1.276   0.400   3.205
 4428SOL     OW14182   2.059   5.587   3.976
 4428SOL    HW114183   2.080   5.587   3.878
 4428SOL    HW214184   1.975   5.639   3.992
 4429SOL     OW14185   3.307   0.019   3.618
 4429SOL    HW114186   3.355   0.091   3.567
 4429SOL    HW214187   3.268   6.969   3.554
 4430SOL     OW14188   2.715   0.657   2.487
 4430SOL    HW114189   2.775   0.674   2.409
 4430SOL    HW214190   2.629   0.705   2.474
 4431SOL     OW14191   2.928   1.876   3.653
 4431SOL    HW114192   2.921   1.817   3.573
 4431SOL    HW214193   2.968   1.964   3.626
 4432SOL     OW14194   2.863   3.410   2.551
 4432SOL    HW114195   2.862   3.395   2.453
 4432SOL    HW214196   2.934   3.353   2.593
 4433SOL     OW14197   6.088   0.352   2.260
 4433SOL    HW114198   6.001   0.329   2.217
 4433SOL    HW214199   6.105   0.290   2.337
 4434SOL     OW14200   6.078   2.536   4.222
 4434SOL    HW114201   6.169   2.565   4.193
 4434SOL    HW214202   6.011   2.603   4.191
 4435SOL     OW14203   3.645   2.758   1.821
 4435SOL    HW114204   3.554   2.731   1.850
 4435SOL    HW214205   3.669   2.845   1.864
 4436SOL     OW14206   4.753   1.770   0.064
 4436SOL    HW114207   4.789   1.767   0.156
 4436SOL    HW214208   4.696   1.852   0.053
 4437SOL     OW14209   3.433   0.852   4.752
 4437SOL    HW114210   3.529   0.863   4.778
 4437SOL    HW214211   3.420   0.881   4.657
 4438SOL     OW14212   4.180   2.935   6.766
 4438SOL    HW114213   4.211   3.017   6.814
 4438SOL    HW214214   4.097   2.956   6.715
 4439SOL     OW14215   1.652   5.709   2.613
 4439SOL    HW114216   1.609   5.798   2.631
 4439SOL    HW214217   1.645   5.688   2.515
 4440SOL     OW14218   1.219   6.594   6.448
 4440SOL    HW114219   1.236   6.528   6.521
 4440SOL    HW214220   1.305   6.636   6.419
 4441SOL     OW14221   5.442   2.470   2.780
 4441SOL    HW114222   5.390   2.543   2.735
 4441SOL    HW214223   5.379   2.397   2.807
 4442SOL     OW14224   3.372   5.920   3.728
 4442SOL    HW114225   3.394   5.943   3.823
 4442SOL    HW214226   3.274   5.934   3.713
 4443SOL     OW14227   2.945   2.063   5.966
 4443SOL    HW114228   2.967   1.980   6.018
 4443SOL    HW214229   2.987   2.142   6.010
 4444SOL     OW14230   5.242   6.946   0.506
 4444SOL    HW114231   5.268   0.025   0.519
 4444SOL    HW214232   5.230   6.928   0.408
 4445SOL     OW14233   1.104   0.674   6.265
 4445SOL    HW114234   1.055   0.617   6.199
 4445SOL    HW214235   1.039   0.717   6.327
 4446SOL     OW14236   6.399   0.252   2.974
 4446SOL    HW114237   6.496   0.243   2.951
 4446SOL    HW214238   6.360   0.329   2.923
 4447SOL     OW14239   5.427   2.057   5.685
 4447SOL    HW114240   5.445   2.145   5.640
 4447SOL    HW214241   5.404   1.989   5.615
 4448SOL     OW14242   2.483   3.500   6.934
 4448SOL    HW114243   2.533   3.474   0.000
 4448SOL    HW214244   2.547   3.517   6.860
 4449SOL     OW14245   1.977   1.116   4.989
 4449SOL    HW114246   1.882   1.087   4.979
 4449SOL    HW214247   2.038   1.039   4.967
 4450SOL     OW14248   3.816   2.959   3.369
 4450SOL    HW114249   3.721   2.948   3.339
 4450SOL    HW214250   3.860   3.031   3.316
 4451SOL     OW14251   6.678   5.059   2.713
 4451SOL    HW114252   6.674   4.973   2.765
 4451SOL    HW214253   6.648   5.043   2.619
 4452SOL     OW14254   6.194   6.477   6.694
 4452SOL    HW114255   6.254   6.404   6.663
 4452SOL    HW214256   6.249   6.557   6.720
 4453SOL     OW14257   5.084   2.237   1.474
 4453SOL    HW114258   5.148   2.222   1.399
 4453SOL    HW214259   5.048   2.330   1.469
 4454SOL     OW14260   5.366   2.543   1.473
 4454SOL    HW114261   5.435   2.488   1.425
 4454SOL    HW214262   5.322   2.605   1.409
 4455SOL     OW14263   3.692   0.888   2.600
 4455SOL    HW114264   3.613   0.920   2.547
 4455SOL    HW214265   3.663   0.813   2.660
 4456SOL     OW14266   1.136   4.962   3.479
 4456SOL    HW114267   1.117   4.983   3.575
 4456SOL    HW214268   1.232   4.983   3.459
 4457SOL     OW14269   5.501   2.265   6.479
 4457SOL    HW114270   5.556   2.200   6.533
 4457SOL    HW214271   5.406   2.235   6.478
 4458SOL     OW14272   3.247   2.399   6.294
 4458SOL    HW114273   3.208   2.475   6.346
 4458SOL    HW214274   3.333   2.371   6.336
 4459SOL     OW14275   4.772   6.528   4.686
 4459SOL    HW114276   4.689   6.482   4.657
 4459SOL    HW214277   4.790   6.606   4.626
 4460SOL     OW14278   2.888   2.403   6.199
 4460SOL    HW114279   2.903   2.334   6.270
 4460SOL    HW214280   2.954   2.388   6.125
 4461SOL     OW14281   2.272   6.877   2.386
 4461SOL    HW114282   2.190   6.840   2.429
 4461SOL    HW214283   2.337   6.906   2.457
 4462SOL     OW14284   6.633   5.466   1.024
 4462SOL    HW114285   6.688   5.382   1.033
 4462SOL    HW214286   6.691   5.540   0.992
 4463SOL     OW14287   1.580   3.340   6.392
 4463SOL    HW114288   1.648   3.383   6.333
 4463SOL    HW214289   1.623   3.266   6.444
 4464SOL     OW14290   5.813   3.322   6.141
 4464SOL    HW114291   5.872   3.348   6.065
 4464SOL    HW214292   5.730   3.279   6.106
 4465SOL     OW14293   1.434   5.886   1.656
 4465SOL    HW114294   1.415   5.983   1.646
 4465SOL    HW214295   1.431   5.861   1.753
 4466SOL     OW14296   1.082   1.847   2.780
 4466SOL    HW114297   1.093   1.912   2.855
 4466SOL    HW214298   1.102   1.893   2.693
 4467SOL     OW14299   1.358   6.583   3.322
 4467SOL    HW114300   1.305   6.662   3.351
 4467SOL    HW214301   1.296   6.513   3.286
 4468SOL     OW14302   1.298   2.783   0.692
 4468SOL    HW114303   1.234   2.834   0.749
 4468SOL    HW214304   1.248   2.740   0.616
 4469SOL     OW14305   4.070   0.155   0.737
 4469SOL    HW114306   4.068   0.196   0.646
 4469SOL    HW214307   3.976   0.139   0.768
 4470SOL     OW14308   4.966   3.969   1.380
 4470SOL    HW114309   5.035   3.899   1.359
 4470SOL    HW214310   4.989   4.013   1.467
 4471SOL     OW14311   6.824   2.865   1.382
 4471SOL    HW114312   6.771   2.781   1.381
 4471SOL    HW214313   6.806   2.915   1.467
 4472SOL     OW14314   1.870   4.057   2.268
 4472SOL    HW114315   1.793   4.120   2.273
 4472SOL    HW214316   1.844   3.977   2.213
 4473SOL     OW14317   6.579   6.859   4.226
 4473SOL    HW114318   6.653   6.795   4.247
 4473SOL    HW214319   6.579   6.878   4.127
 4474SOL     OW14320   4.553   0.554   2.510
 4474SOL    HW114321   4.603   0.470   2.533
 4474SOL    HW214322   4.514   0.592   2.594
 4475SOL     OW14323   1.914   4.439   0.138
 4475SOL    HW114324   1.850   4.475   0.207
 4475SOL    HW214325   1.918   4.503   0.061
 4476SOL     OW14326   4.978   6.650   1.949
 4476SOL    HW114327   5.019   6.734   1.984
 4476SOL    HW214328   5.044   6.576   1.956
 4477SOL     OW14329   1.341   1.172   0.306
 4477SOL    HW114330   1.277   1.135   0.373
 4477SOL    HW214331   1.336   1.272   0.307
 4478SOL     OW14332   2.186   6.456   2.519
 4478SOL    HW114333   2.236   6.428   2.601
 4478SOL    HW214334   2.165   6.554   2.525
 4479SOL     OW14335   1.151   0.416   5.977
 4479SOL    HW114336   1.238   0.366   5.981
 4479SOL    HW214337   1.076   0.354   5.999
 4480SOL     OW14338   1.066   5.062   4.693
 4480SOL    HW114339   1.114   5.016   4.619
 4480SOL    HW214340   1.131   5.082   4.767
 4481SOL     OW14341   0.671   6.333   4.188
 4481SOL    HW114342   0.752   6.320   4.244
 4481SOL    HW214343   0.629   6.421   4.209
 4482SOL     OW14344   0.180   4.745   3.817
 4482SOL    HW114345   0.164   4.707   3.726
 4482SOL    HW214346   0.277   4.736   3.840
 4483SOL     OW14347   5.387   3.400   1.818
 4483SOL    HW114348   5.323   3.326   1.838
 4483SOL    HW214349   5.478   3.363   1.801
 4484SOL     OW14350   3.820   2.466   5.678
 4484SOL    HW114351   3.836   2.422   5.767
 4484SOL    HW214352   3.729   2.508   5.679
 4485SOL     OW14353   5.163   1.481   6.600
 4485SOL    HW114354   5.102   1.425   6.656
 4485SOL    HW214355   5.254   1.481   6.641
 4486SOL     OW14356   6.340   3.363   4.744
 4486SOL    HW114357   6.278   3.404   4.812
 4486SOL    HW214358   6.298   3.281   4.705
 4487SOL     OW14359   3.108   3.263   6.002
 4487SOL    HW114360   3.025   3.259   6.058
 4487SOL    HW214361   3.180   3.311   6.051
 4488SOL     OW14362   6.498   1.815   5.038
 4488SOL    HW114363   6.595   1.794   5.040
 4488SOL    HW214364   6.485   1.911   5.012
 4489SOL     OW14365   5.745   6.009   4.492
 4489SOL    HW114366   5.814   6.005   4.565
 4489SOL    HW214367   5.791   6.001   4.403
 4490SOL     OW14368   6.553   1.839   3.021
 4490SOL    HW114369   6.571   1.932   2.991
 4490SOL    HW214370   6.574   1.775   2.946
 4491SOL     OW14371   0.848   3.810   2.751
 4491SOL    HW114372   0.839   3.751   2.831
 4491SOL    HW214373   0.842   3.754   2.668
 4492SOL     OW14374   4.575   2.626   0.056
 4492SOL    HW114375   4.591   2.527   0.062
 4492SOL    HW214376   4.555   2.661   0.147
 4493SOL     OW14377   5.587   5.989   4.894
 4493SOL    HW114378   5.526   6.019   4.967
 4493SOL    HW214379   5.659   6.057   4.880
 4494SOL     OW14380   0.247   4.084   5.145
 4494SOL    HW114381   0.324   4.082   5.081
 4494SOL    HW214382   0.176   4.145   5.110
 4495SOL     OW14383   4.877   6.551   1.672
 4495SOL    HW114384   4.893   6.601   1.757
 4495SOL    HW214385   4.930   6.467   1.672
 4496SOL     OW14386   5.355   3.744   5.631
 4496SOL    HW114387   5.359   3.653   5.671
 4496SOL    HW214388   5.260   3.767   5.608
 4497SOL     OW14389   5.978   5.161   0.139
 4497SOL    HW114390   6.027   5.093   0.084
 4497SOL    HW214391   5.984   5.137   0.235
 4498SOL     OW14392   0.245   3.452   6.887
 4498SOL    HW114393   0.247   3.402   6.801
 4498SOL    HW214394   0.154   3.446   6.928
 4499SOL     OW14395   6.955   3.308   6.080
 4499SOL    HW114396   6.939   3.259   6.165
 4499SOL    HW214397   6.868   3.342   6.043
 4500SOL     OW14398   2.944   3.725   4.539
 4500SOL    HW114399   2.988   3.643   4.504
 4500SOL    HW214400   2.871   3.700   4.602
 4501SOL     OW14401   6.934   4.591   5.308
 4501SOL    HW114402   7.009   4.527   5.325
 4501SOL    HW214403   6.924   4.653   5.386
 4502SOL     OW14404   1.025   2.404   0.197
 4502SOL    HW114405   1.007   2.500   0.221
 4502SOL    HW214406   0.947   2.366   0.148
 4503SOL     OW14407   1.311   1.652   3.584
 4503SOL    HW114408   1.245   1.680   3.654
 4503SOL    HW214409   1.385   1.601   3.628
 4504SOL     OW14410   5.611   2.835   4.937
 4504SOL    HW114411   5.643   2.924   4.969
 4504SOL    HW214412   5.687   2.770   4.939
 4505SOL     OW14413   1.497   6.230   5.091
 4505SOL    HW114414   1.558   6.234   5.171
 4505SOL    HW214415   1.402   6.227   5.122
 4506SOL     OW14416   3.735   0.683   5.255
 4506SOL    HW114417   3.815   0.722   5.302
 4506SOL    HW214418   3.724   0.588   5.281
 4507SOL     OW14419   5.248   4.040   0.540
 4507SOL    HW114420   5.345   4.062   0.537
 4507SOL    HW214421   5.195   4.125   0.536
 4508SOL     OW14422   1.430   3.555   6.984
 4508SOL    HW114423   1.337   3.582   6.956
 4508SOL    HW214424   1.458   3.474   6.933
 4509SOL     OW14425   3.047   1.981   4.237
 4509SOL    HW114426   3.085   2.060   4.287
 4509SOL    HW214427   3.122   1.925   4.201
 4510SOL     OW14428   5.081   0.048   5.129
 4510SOL    HW114429   5.066   0.038   5.031
 4510SOL    HW214430   5.154   0.114   5.145
 4511SOL     OW14431   6.347   2.453   0.559
 4511SOL    HW114432   6.249   2.430   0.566
 4511SOL    HW214433   6.397   2.373   0.527
 4512SOL     OW14434   2.491   5.965   6.541
 4512SOL    HW114435   2.460   5.877   6.505
 4512SOL    HW214436   2.591   5.970   6.535
 4513SOL     OW14437   5.193   0.445   1.669
 4513SOL    HW114438   5.093   0.442   1.659
 4513SOL    HW214439   5.228   0.531   1.633
 4514SOL     OW14440   3.248   1.268   5.192
 4514SOL    HW114441   3.294   1.206   5.129
 4514SOL    HW214442   3.179   1.321   5.143
 4515SOL     OW14443   0.184   5.006   0.775
 4515SOL    HW114444   0.087   4.987   0.758
 4515SOL    HW214445   0.240   4.955   0.710
 4516SOL     OW14446   1.083   1.571   5.368
 4516SOL    HW114447   1.052   1.651   5.419
 4516SOL    HW214448   1.139   1.513   5.428
 4517SOL     OW14449   3.698   6.908   5.890
 4517SOL    HW114450   3.701   6.821   5.840
 4517SOL    HW214451   3.630   6.901   5.964
 4518SOL     OW14452   1.008   2.371   3.665
 4518SOL    HW114453   1.033   2.417   3.580
 4518SOL    HW214454   0.932   2.308   3.648
 4519SOL     OW14455   0.167   3.256   3.509
 4519SOL    HW114456   0.187   3.234   3.604
 4519SOL    HW214457   0.074   3.228   3.487
 4520SOL     OW14458   0.042   4.877   3.105
 4520SOL    HW114459   6.975   4.856   3.056
 4520SOL    HW214460   0.019   4.909   3.197
 4521SOL     OW14461   5.308   2.885   6.682
 4521SOL    HW114462   5.388   2.825   6.675
 4521SOL    HW214463   5.330   2.963   6.741
 4522SOL     OW14464   6.586   6.951   3.702
 4522SOL    HW114465   6.658   0.001   3.722
 4522SOL    HW214466   6.626   6.860   3.690
 4523SOL     OW14467   3.148   4.215   0.048
 4523SOL    HW114468   3.066   4.158   0.058
 4523SOL    HW214469   3.219   4.182   0.109
 4524SOL     OW14470   5.243   0.814   4.765
 4524SOL    HW114471   5.168   0.831   4.700
 4524SOL    HW214472   5.230   0.871   4.846
 4525SOL     OW14473   6.225   1.404   4.867
 4525SOL    HW114474   6.244   1.418   4.770
 4525SOL    HW214475   6.297   1.347   4.907
 4526SOL     OW14476   4.773   6.861   0.211
 4526SOL    HW114477   4.683   6.889   0.178
 4526SOL    HW214478   4.769   6.846   0.310
 4527SOL     OW14479   4.978   0.855   2.800
 4527SOL    HW114480   4.923   0.822   2.723
 4527SOL    HW214481   5.031   0.935   2.771
 4528SOL     OW14482   5.687   0.139   0.407
 4528SOL    HW114483   5.623   0.073   0.367
 4528SOL    HW214484   5.777   0.127   0.366
 4529SOL     OW14485   3.007   0.281   2.912
 4529SOL    HW114486   2.991   0.344   2.836
 4529SOL    HW214487   3.105   0.261   2.918
 4530SOL     OW14488   0.220   3.348   5.472
 4530SOL    HW114489   0.143   3.324   5.532
 4530SOL    HW214490   0.306   3.331   5.520
 4531SOL     OW14491   0.298   3.176   3.802
 4531SOL    HW114492   0.332   3.083   3.794
 4531SOL    HW214493   0.366   3.233   3.848
 4532SOL     OW14494   6.028   1.181   0.746
 4532SOL    HW114495   5.933   1.201   0.722
 4532SOL    HW214496   6.033   1.097   0.800
 4533SOL     OW14497   1.751   5.888   3.002
 4533SOL    HW114498   1.733   5.984   3.021
 4533SOL    HW214499   1.806   5.880   2.919
 4534SOL     OW14500   6.355   3.873   4.997
 4534SOL    HW114501   6.381   3.795   4.939
 4534SOL    HW214502   6.304   3.939   4.942
 4535SOL     OW14503   4.886   3.232   2.150
 4535SOL    HW114504   4.873   3.274   2.240
 4535SOL    HW214505   4.823   3.156   2.140
 4536SOL     OW14506   5.917   1.370   4.783
 4536SOL    HW114507   6.007   1.384   4.824
 4536SOL    HW214508   5.868   1.299   4.833
 4537SOL     OW14509   4.034   2.630   0.025
 4537SOL    HW114510   4.129   2.608   0.045
 4537SOL    HW214511   4.018   2.625   6.943
 4538SOL     OW14512   2.985   1.657   3.167
 4538SOL    HW114513   2.975   1.665   3.068
 4538SOL    HW214514   2.998   1.561   3.191
 4539SOL     OW14515   2.435   1.811   3.092
 4539SOL    HW114516   2.507   1.881   3.090
 4539SOL    HW214517   2.399   1.797   3.000
 4540SOL     OW14518   3.730   3.126   4.624
 4540SOL    HW114519   3.692   3.131   4.716
 4540SOL    HW214520   3.734   3.217   4.584
 4541SOL     OW14521   5.239   1.800   1.180
 4541SOL    HW114522   5.154   1.799   1.233
 4541SOL    HW214523   5.304   1.862   1.224
 4542SOL     OW14524   6.004   6.943   2.177
 4542SOL    HW114525   6.090   6.990   2.155
 4542SOL    HW214526   6.022   6.847   2.198
 4543SOL     OW14527   5.602   1.696   1.231
 4543SOL    HW114528   5.617   1.721   1.136
 4543SOL    HW214529   5.522   1.636   1.238
 4544SOL     OW14530   3.541   5.729   6.649
 4544SOL    HW114531   3.501   5.812   6.688
 4544SOL    HW214532   3.474   5.686   6.588
 4545SOL     OW14533   4.103   2.244   5.601
 4545SOL    HW114534   4.128   2.260   5.697
 4545SOL    HW214535   4.156   2.167   5.566
 4546SOL     OW14536   0.451   6.693   6.588
 4546SOL    HW114537   0.430   6.693   6.490
 4546SOL    HW214538   0.460   6.598   6.619
 4547SOL     OW14539   5.342   2.309   1.631
 4547SOL    HW114540   5.262   2.251   1.617
 4547SOL    HW214541   5.333   2.393   1.578
 4548SOL     OW14542   0.386   3.942   3.628
 4548SOL    HW114543   0.430   3.948   3.539
 4548SOL    HW214544   0.429   3.870   3.683
 4549SOL     OW14545   6.655   3.403   3.040
 4549SOL    HW114546   6.565   3.359   3.043
 4549SOL    HW214547   6.714   3.363   3.110
 4550SOL     OW14548   0.802   5.877   3.484
 4550SOL    HW114549   0.721   5.855   3.538
 4550SOL    HW214550   0.795   5.970   3.448
 4551SOL     OW14551   0.793   3.240   5.193
 4551SOL    HW114552   0.791   3.218   5.096
 4551SOL    HW214553   0.709   3.209   5.237
 4552SOL     OW14554   0.756   3.048   4.480
 4552SOL    HW114555   0.720   2.992   4.555
 4552SOL    HW214556   0.772   3.141   4.513
 4553SOL     OW14557   4.352   5.181   0.508
 4553SOL    HW114558   4.276   5.131   0.468
 4553SOL    HW214559   4.421   5.199   0.438
 4554SOL     OW14560   4.263   0.134   2.612
 4554SOL    HW114561   4.341   0.195   2.596
 4554SOL    HW214562   4.297   0.043   2.638
 4555SOL     OW14563   5.090   2.648   6.692
 4555SOL    HW114564   5.024   2.678   6.761
 4555SOL    HW214565   5.053   2.665   6.601
 4556SOL     OW14566   4.402   0.809   3.902
 4556SOL    HW114567   4.499   0.811   3.927
 4556SOL    HW214568   4.370   0.902   3.887
 4557SOL     OW14569   5.707   0.286   6.150
 4557SOL    HW114570   5.719   0.224   6.072
 4557SOL    HW214571   5.782   0.352   6.152
 4558SOL     OW14572   6.386   3.565   6.667
 4558SOL    HW114573   6.451   3.489   6.657
 4558SOL    HW214574   6.293   3.529   6.669
 4559SOL     OW14575   1.991   6.160   1.537
 4559SOL    HW114576   1.961   6.255   1.527
 4559SOL    HW214577   1.920   6.108   1.585
 4560SOL     OW14578   5.118   3.305   3.299
 4560SOL    HW114579   5.037   3.265   3.255
 4560SOL    HW214580   5.155   3.377   3.241
 4561SOL     OW14581   3.624   0.541   6.483
 4561SOL    HW114582   3.530   0.537   6.519
 4561SOL    HW214583   3.673   0.458   6.510
 4562SOL     OW14584   2.972   5.796   6.721
 4562SOL    HW114585   2.927   5.876   6.759
 4562SOL    HW214586   2.922   5.713   6.748
 4563SOL     OW14587   5.553   1.817   6.957
 4563SOL    HW114588   5.529   1.768   0.024
 4563SOL    HW214589   5.568   1.914   6.978
 4564SOL     OW14590   1.180   5.996   6.703
 4564SOL    HW114591   1.245   6.070   6.720
 4564SOL    HW214592   1.226   5.923   6.652
 4565SOL     OW14593   1.111   1.179   5.353
 4565SOL    HW114594   1.140   1.186   5.258
 4565SOL    HW214595   1.039   1.110   5.361
 4566SOL     OW14596   0.016   0.813   6.745
 4566SOL    HW114597   6.945   0.860   6.739
 4566SOL    HW214598   0.075   0.859   6.812
 4567SOL     OW14599   6.632   1.526   0.713
 4567SOL    HW114600   6.640   1.483   0.803
 4567SOL    HW214601   6.538   1.518   0.681
 4568SOL     OW14602   3.470   4.381   5.812
 4568SOL    HW114603   3.541   4.425   5.757
 4568SOL    HW214604   3.419   4.318   5.754
 4569SOL     OW14605   1.039   1.872   4.101
 4569SOL    HW114606   1.124   1.909   4.064
 4569SOL    HW214607   1.012   1.925   4.182
 4570SOL     OW14608   6.948   6.042   3.551
 4570SOL    HW114609   6.869   5.996   3.511
 4570SOL    HW214610   6.947   6.032   3.650
 4571SOL     OW14611   3.250   3.414   4.627
 4571SOL    HW114612   3.242   3.409   4.727
 4571SOL    HW214613   3.345   3.400   4.601
 4572SOL     OW14614   1.391   6.899   1.163
 4572SOL    HW114615   1.439   6.922   1.078
 4572SOL    HW214616   1.447   6.927   1.241
 4573SOL     OW14617   5.985   5.602   1.201
 4573SOL    HW114618   5.958   5.628   1.294
 4573SOL    HW214619   6.074   5.558   1.204
 4574SOL     OW14620   6.933   4.310   2.002
 4574SOL    HW114621   6.838   4.280   2.008
 4574SOL    HW214622   6.981   4.255   1.934
 4575SOL     OW14623   6.534   1.377   1.350
 4575SOL    HW114624   6.495   1.354   1.439
 4575SOL    HW214625   6.463   1.372   1.280
 4576SOL     OW14626   3.224   5.783   6.595
 4576SOL    HW114627   3.279   5.848   6.648
 4576SOL    HW214628   3.129   5.789   6.623
 4577SOL     OW14629   1.299   3.707   3.391
 4577SOL    HW114630   1.371   3.659   3.341
 4577SOL    HW214631   1.339   3.756   3.469
 4578SOL     OW14632   0.183   3.788   4.111
 4578SOL    HW114633   0.256   3.736   4.068
 4578SOL    HW214634   0.134   3.731   4.177
 4579SOL     OW14635   5.334   2.019   3.292
 4579SOL    HW114636   5.254   2.045   3.239
 4579SOL    HW214637   5.415   2.063   3.253
 4580SOL     OW14638   5.848   5.918   0.778
 4580SOL    HW114639   5.750   5.935   0.785
 4580SOL    HW214640   5.897   5.981   0.839
 4581SOL     OW14641   3.288   5.636   3.513
 4581SOL    HW114642   3.332   5.546   3.515
 4581SOL    HW214643   3.232   5.643   3.431
 4582SOL     OW14644   5.153   6.309   2.931
 4582SOL    HW114645   5.101   6.363   2.865
 4582SOL    HW214646   5.167   6.362   3.015
 4583SOL     OW14647   3.179   2.219   5.525
 4583SOL    HW114648   3.121   2.158   5.579
 4583SOL    HW214649   3.173   2.312   5.561
 4584SOL     OW14650   0.604   5.355   5.721
 4584SOL    HW114651   0.536   5.303   5.774
 4584SOL    HW214652   0.696   5.333   5.753
 4585SOL     OW14653   3.059   5.845   3.209
 4585SOL    HW114654   3.112   5.930   3.213
 4585SOL    HW214655   3.017   5.836   3.118
 4586SOL     OW14656   3.757   5.531   1.801
 4586SOL    HW114657   3.671   5.561   1.760
 4586SOL    HW214658   3.823   5.605   1.798
 4587SOL     OW14659   2.874   3.174   0.992
 4587SOL    HW114660   2.912   3.082   1.001
 4587SOL    HW214661   2.777   3.168   0.970
 4588SOL     OW14662   3.919   3.471   5.379
 4588SOL    HW114663   3.991   3.402   5.382
 4588SOL    HW214664   3.953   3.556   5.419
 4589SOL     OW14665   5.754   2.277   4.123
 4589SOL    HW114666   5.768   2.360   4.070
 4589SOL    HW214667   5.815   2.278   4.203
 4590SOL     OW14668   4.890   4.943   2.760
 4590SOL    HW114669   4.814   5.000   2.789
 4590SOL    HW214670   4.891   4.859   2.814
 4591SOL     OW14671   5.779   5.375   5.495
 4591SOL    HW114672   5.680   5.376   5.478
 4591SOL    HW214673   5.827   5.347   5.412
 4592SOL     OW14674   3.800   2.435   0.068
 4592SOL    HW114675   3.841   2.387   0.146
 4592SOL    HW214676   3.855   2.516   0.047
 4593SOL     OW14677   3.774   6.449   2.558
 4593SOL    HW114678   3.776   6.482   2.652
 4593SOL    HW214679   3.837   6.371   2.548
 4594SOL     OW14680   2.484   1.824   1.978
 4594SOL    HW114681   2.416   1.752   1.961
 4594SOL    HW214682   2.504   1.828   2.075
 4595SOL     OW14683   4.187   3.115   6.547
 4595SOL    HW114684   4.162   3.122   6.451
 4595SOL    HW214685   4.248   3.036   6.560
 4596SOL     OW14686   5.779   6.960   1.856
 4596SOL    HW114687   5.837   0.005   1.908
 4596SOL    HW214688   5.700   7.010   1.821
 4597SOL     OW14689   5.212   4.211   6.113
 4597SOL    HW114690   5.202   4.295   6.167
 4597SOL    HW214691   5.250   4.138   6.170
 4598SOL     OW14692   2.265   5.607   6.731
 4598SOL    HW114693   2.222   5.657   6.656
 4598SOL    HW214694   2.309   5.524   6.695
 4599SOL     OW14695   1.494   4.824   1.240
 4599SOL    HW114696   1.579   4.874   1.256
 4599SOL    HW214697   1.437   4.827   1.322
 4600SOL     OW14698   3.094   5.884   0.744
 4600SOL    HW114699   3.018   5.912   0.803
 4600SOL    HW214700   3.058   5.846   0.659
 4601SOL     OW14701   2.200   0.641   5.057
 4601SOL    HW114702   2.250   0.622   5.142
 4601SOL    HW214703   2.134   0.568   5.040
 4602SOL     OW14704   1.708   6.948   2.261
 4602SOL    HW114705   1.698   0.022   2.220
 4602SOL    HW214706   1.783   6.948   2.327
 4603SOL     OW14707   3.389   6.950   1.639
 4603SOL    HW114708   3.443   0.018   1.649
 4603SOL    HW214709   3.403   6.892   1.719
 4604SOL     OW14710   3.459   0.276   2.501
 4604SOL    HW114711   3.409   0.337   2.440
 4604SOL    HW214712   3.426   0.286   2.595
 4605SOL     OW14713   5.358   0.557   4.757
 4605SOL    HW114714   5.315   0.648   4.759
 4605SOL    HW214715   5.289   0.488   4.777
 4606SOL     OW14716   6.144   6.131   4.943
 4606SOL    HW114717   6.154   6.213   4.888
 4606SOL    HW214718   6.146   6.050   4.884
 4607SOL     OW14719   3.444   1.155   1.591
 4607SOL    HW114720   3.412   1.084   1.654
 4607SOL    HW214721   3.497   1.223   1.642
 4608SOL     OW14722   1.888   4.411   5.089
 4608SOL    HW114723   1.884   4.355   5.172
 4608SOL    HW214724   1.864   4.505   5.111
 4609SOL     OW14725   4.898   6.726   7.003
 4609SOL    HW114726   4.906   6.633   0.021
 4609SOL    HW214727   4.867   6.786   0.061
 4610SOL     OW14728   0.111   2.752   6.622
 4610SOL    HW114729   0.045   2.826   6.608
 4610SOL    HW214730   0.122   2.736   6.720
 4611SOL     OW14731   0.600   4.086   0.116
 4611SOL    HW114732   0.540   4.086   0.196
 4611SOL    HW214733   0.581   4.005   0.060
 4612SOL     OW14734   2.038   6.455   6.165
 4612SOL    HW114735   2.023   6.381   6.231
 4612SOL    HW214736   2.035   6.543   6.213
 4613SOL     OW14737   3.477   5.505   2.667
 4613SOL    HW114738   3.407   5.516   2.597
 4613SOL    HW214739   3.438   5.454   2.745
 4614SOL     OW14740   1.716   5.381   0.164
 4614SOL    HW114741   1.707   5.334   0.251
 4614SOL    HW214742   1.808   5.419   0.155
 4615SOL     OW14743   1.623   1.863   0.222
 4615SOL    HW114744   1.571   1.843   0.139
 4615SOL    HW214745   1.606   1.957   0.250
 4616SOL     OW14746   6.074   0.788   6.514
 4616SOL    HW114747   5.978   0.812   6.533
 4616SOL    HW214748   6.105   0.721   6.580
 4617SOL     OW14749   0.809   2.566   1.688
 4617SOL    HW114750   0.909   2.564   1.675
 4617SOL    HW214751   0.782   2.657   1.719
 4618SOL     OW14752   0.720   2.408   5.829
 4618SOL    HW114753   0.686   2.458   5.750
 4618SOL    HW214754   0.650   2.407   5.901
 4619SOL     OW14755   4.351   1.046   3.689
 4619SOL    HW114756   4.439   1.091   3.673
 4619SOL    HW214757   4.329   1.050   3.787
 4620SOL     OW14758   2.697   4.266   6.564
 4620SOL    HW114759   2.749   4.219   6.634
 4620SOL    HW214760   2.750   4.270   6.479
 4621SOL     OW14761   0.466   0.823   4.983
 4621SOL    HW114762   0.556   0.832   5.024
 4621SOL    HW214763   0.426   0.735   5.008
 4622SOL     OW14764   1.965   3.106   0.615
 4622SOL    HW114765   1.979   3.013   0.579
 4622SOL    HW214766   1.867   3.124   0.623
 4623SOL     OW14767   6.681   4.912   1.479
 4623SOL    HW114768   6.769   4.891   1.521
 4623SOL    HW214769   6.696   4.950   1.388
 4624SOL     OW14770   4.658   0.403   4.074
 4624SOL    HW114771   4.693   0.312   4.098
 4624SOL    HW214772   4.722   0.473   4.108
 4625SOL     OW14773   0.829   3.742   6.665
 4625SOL    HW114774   0.924   3.772   6.652
 4625SOL    HW214775   0.769   3.822   6.660
 4626SOL     OW14776   6.308   5.006   1.444
 4626SOL    HW114777   6.312   4.991   1.345
 4626SOL    HW214778   6.380   4.953   1.488
 4627SOL     OW14779   3.521   6.167   5.602
 4627SOL    HW114780   3.496   6.240   5.538
 4627SOL    HW214781   3.509   6.198   5.696
 4628SOL     OW14782   6.122   4.577   2.170
 4628SOL    HW114783   6.130   4.559   2.268
 4628SOL    HW214784   6.147   4.495   2.119
 4629SOL     OW14785   2.047   4.772   5.576
 4629SOL    HW114786   2.132   4.825   5.577
 4629SOL    HW214787   2.048   4.709   5.498
 4630SOL     OW14788   2.215   5.756   3.098
 4630SOL    HW114789   2.265   5.781   3.015
 4630SOL    HW214790   2.241   5.664   3.127
 4631SOL     OW14791   3.078   6.588   2.855
 4631SOL    HW114792   3.077   6.536   2.940
 4631SOL    HW214793   3.050   6.528   2.780
 4632SOL     OW14794   4.423   5.598   4.200
 4632SOL    HW114795   4.393   5.525   4.262
 4632SOL    HW214796   4.457   5.557   4.115
 4633SOL     OW14797   6.606   2.268   4.800
 4633SOL    HW114798   6.670   2.284   4.725
 4633SOL    HW214799   6.516   2.303   4.775
 4634SOL     OW14800   2.699   4.577   0.828
 4634SOL    HW114801   2.787   4.558   0.873
 4634SOL    HW214802   2.684   4.675   0.827
 4635SOL     OW14803   5.132   3.249   2.621
 4635SOL    HW114804   5.040   3.210   2.618
 4635SOL    HW214805   5.200   3.175   2.619
 4636SOL     OW14806   3.044   5.788   0.480
 4636SOL    HW114807   3.090   5.702   0.462
 4636SOL    HW214808   2.970   5.802   0.414
 4637SOL     OW14809   1.351   1.046   5.455
 4637SOL    HW114810   1.255   1.071   5.440
 4637SOL    HW214811   1.409   1.101   5.396
 4638SOL     OW14812   4.755   3.041   5.911
 4638SOL    HW114813   4.758   3.134   5.875
 4638SOL    HW214814   4.790   3.040   6.005
 4639SOL     OW14815   0.835   3.752   5.875
 4639SOL    HW114816   0.787   3.794   5.952
 4639SOL    HW214817   0.833   3.652   5.885
 4640SOL     OW14818   5.176   4.423   3.086
 4640SOL    HW114819   5.096   4.368   3.062
 4640SOL    HW214820   5.146   4.515   3.113
 4641SOL     OW14821   2.735   4.723   4.520
 4641SOL    HW114822   2.685   4.644   4.485
 4641SOL    HW214823   2.671   4.788   4.561
 4642SOL     OW14824   6.514   6.047   4.374
 4642SOL    HW114825   6.584   6.034   4.444
 4642SOL    HW214826   6.475   6.138   4.383
 4643SOL     OW14827   3.901   2.314   1.706
 4643SOL    HW114828   3.926   2.410   1.715
 4643SOL    HW214829   3.807   2.301   1.739
 4644SOL     OW14830   1.414   5.927   4.300
 4644SOL    HW114831   1.459   5.989   4.365
 4644SOL    HW214832   1.437   5.955   4.207
 4645SOL     OW14833   1.824   6.486   4.320
 4645SOL    HW114834   1.748   6.478   4.256
 4645SOL    HW214835   1.792   6.468   4.413
 4646SOL     OW14836   2.989   0.281   2.270
 4646SOL    HW114837   3.004   0.352   2.201
 4646SOL    HW214838   3.021   0.193   2.234
 4647SOL     OW14839   6.288   0.353   3.754
 4647SOL    HW114840   6.266   0.444   3.717
 4647SOL    HW214841   6.243   0.341   3.842
 4648SOL     OW14842   2.642   5.782   2.163
 4648SOL    HW114843   2.637   5.781   2.063
 4648SOL    HW214844   2.557   5.744   2.200
 4649SOL     OW14845   4.978   0.753   5.367
 4649SOL    HW114846   5.075   0.733   5.380
 4649SOL    HW214847   4.967   0.845   5.330
 4650SOL     OW14848   4.908   5.350   2.514
 4650SOL    HW114849   4.912   5.396   2.426
 4650SOL    HW214850   4.821   5.371   2.558
 4651SOL     OW14851   0.352   2.140   1.515
 4651SOL    HW114852   0.332   2.071   1.446
 4651SOL    HW214853   0.408   2.212   1.475
 4652SOL     OW14854   6.504   7.006   5.282
 4652SOL    HW114855   6.526   6.928   5.340
 4652SOL    HW214856   6.587   0.023   5.238
 4653SOL     OW14857   0.036   6.258   6.952
 4653SOL    HW114858   0.081   6.347   6.959
 4653SOL    HW214859   0.086   6.190   7.006
 4654SOL     OW14860   0.850   0.112   0.447
 4654SOL    HW114861   0.864   0.162   0.362
 4654SOL    HW214862   0.753   0.089   0.457
 4655SOL     OW14863   0.352   4.516   3.311
 4655SOL    HW114864   0.308   4.560   3.232
 4655SOL    HW214865   0.403   4.585   3.363
 4656SOL     OW14866   1.086   0.858   3.854
 4656SOL    HW114867   1.179   0.866   3.818
 4656SOL    HW214868   1.085   0.889   3.949
 4657SOL     OW14869   5.203   6.974   1.650
 4657SOL    HW114870   5.213   0.056   1.657
 4657SOL    HW214871   5.283   6.936   1.602
 4658SOL     OW14872   4.589   0.329   3.079
 4658SOL    HW114873   4.623   0.312   3.172
 4658SOL    HW214874   4.539   0.416   3.078
 4659SOL     OW14875   2.013   2.616   4.884
 4659SOL    HW114876   2.000   2.554   4.807
 4659SOL    HW214877   1.963   2.582   4.964
 4660SOL     OW14878   0.457   1.478   5.965
 4660SOL    HW114879   0.430   1.389   6.003
 4660SOL    HW214880   0.553   1.474   5.936
 4661SOL     OW14881   3.567   4.115   4.604
 4661SOL    HW114882   3.506   4.183   4.564
 4661SOL    HW214883   3.523   4.025   4.601
 4662SOL     OW14884   5.108   0.455   5.357
 4662SOL    HW114885   5.123   0.429   5.453
 4662SOL    HW214886   5.030   0.404   5.321
 4663SOL     OW14887   6.812   2.621   2.542
 4663SOL    HW114888   6.770   2.580   2.623
 4663SOL    HW214889   6.820   2.720   2.555
 4664SOL     OW14890   3.093   2.437   0.120
 4664SOL    HW114891   3.041   2.398   0.044
 4664SOL    HW214892   3.189   2.445   0.092
 4665SOL     OW14893   4.988   0.208   6.789
 4665SOL    HW114894   4.943   0.128   6.827
 4665SOL    HW214895   5.079   0.183   6.755
 4666SOL     OW14896   2.021   1.649   0.749
 4666SOL    HW114897   2.078   1.603   0.816
 4666SOL    HW214898   2.046   1.746   0.745
 4667SOL     OW14899   0.276   4.908   6.663
 4667SOL    HW114900   0.329   4.947   6.588
 4667SOL    HW214901   0.249   4.815   6.640
 4668SOL     OW14902   6.494   1.790   4.629
 4668SOL    HW114903   6.477   1.833   4.540
 4668SOL    HW214904   6.545   1.852   4.687
 4669SOL     OW14905   1.233   6.811   0.416
 4669SOL    HW114906   1.212   6.909   0.420
 4669SOL    HW214907   1.272   6.783   0.504
 4670SOL     OW14908   2.405   2.139   4.796
 4670SOL    HW114909   2.387   2.113   4.701
 4670SOL    HW214910   2.339   2.208   4.825
 4671SOL     OW14911   5.930   3.044   1.744
 4671SOL    HW114912   5.927   3.121   1.807
 4671SOL    HW214913   5.998   2.977   1.777
 4672SOL     OW14914   2.178   3.869   6.324
 4672SOL    HW114915   2.171   3.930   6.403
 4672SOL    HW214916   2.131   3.783   6.345
 4673SOL     OW14917   3.040   0.936   2.182
 4673SOL    HW114918   3.028   0.989   2.098
 4673SOL    HW214919   3.119   0.971   2.232
 4674SOL     OW14920   4.498   5.798   4.922
 4674SOL    HW114921   4.525   5.873   4.983
 4674SOL    HW214922   4.564   5.723   4.929
 4675SOL     OW14923   1.271   4.051   0.068
 4675SOL    HW114924   1.332   3.973   0.057
 4675SOL    HW214925   1.280   4.088   0.160
 4676SOL     OW14926   1.402   5.523   3.435
 4676SOL    HW114927   1.310   5.507   3.400
 4676SOL    HW214928   1.468   5.468   3.383
 4677SOL     OW14929   1.618   2.619   0.129
 4677SOL    HW114930   1.596   2.657   0.039
 4677SOL    HW214931   1.608   2.520   0.127
 4678SOL     OW14932   1.859   4.308   2.827
 4678SOL    HW114933   1.834   4.368   2.751
 4678SOL    HW214934   1.879   4.216   2.791
 4679SOL     OW14935   5.403   6.891   1.277
 4679SOL    HW114936   5.310   6.878   1.244
 4679SOL    HW214937   5.419   6.831   1.356
 4680SOL     OW14938   2.760   1.261   1.844
 4680SOL    HW114939   2.721   1.229   1.758
 4680SOL    HW214940   2.816   1.189   1.884
 4681SOL     OW14941   5.575   3.925   1.267
 4681SOL    HW114942   5.615   3.836   1.246
 4681SOL    HW214943   5.487   3.912   1.311
 4682SOL     OW14944   4.917   3.715   6.446
 4682SOL    HW114945   5.014   3.698   6.461
 4682SOL    HW214946   4.867   3.629   6.447
 4683SOL     OW14947   6.118   4.186   3.896
 4683SOL    HW114948   6.043   4.178   3.961
 4683SOL    HW214949   6.196   4.132   3.928
 4684SOL     OW14950   4.736   6.472   0.128
 4684SOL    HW114951   4.657   6.518   0.088
 4684SOL    HW214952   4.747   6.503   0.223
 4685SOL     OW14953   2.515   3.659   5.887
 4685SOL    HW114954   2.570   3.736   5.853
 4685SOL    HW214955   2.473   3.684   5.974
 4686SOL     OW14956   3.349   5.969   0.419
 4686SOL    HW114957   3.431   5.912   0.422
 4686SOL    HW214958   3.268   5.911   0.431
 4687SOL     OW14959   3.003   0.763   2.717
 4687SOL    HW114960   3.096   0.745   2.751
 4687SOL    HW214961   2.938   0.705   2.766
 4688SOL     OW14962   5.556   2.973   5.718
 4688SOL    HW114963   5.577   2.993   5.814
 4688SOL    HW214964   5.546   3.059   5.667
 4689SOL     OW14965   5.671   0.550   0.470
 4689SOL    HW114966   5.716   0.468   0.434
 4689SOL    HW214967   5.622   0.596   0.396
 4690SOL     OW14968   2.305   1.266   0.774
 4690SOL    HW114969   2.304   1.220   0.862
 4690SOL    HW214970   2.263   1.207   0.705
 4691SOL     OW14971   5.710   4.692   0.730
 4691SOL    HW114972   5.788   4.652   0.682
 4691SOL    HW214973   5.717   4.792   0.726
 4692SOL     OW14974   6.506   4.468   3.271
 4692SOL    HW114975   6.503   4.435   3.366
 4692SOL    HW214976   6.535   4.393   3.211
 4693SOL     OW14977   1.690   0.960   3.581
 4693SOL    HW114978   1.629   1.001   3.648
 4693SOL    HW214979   1.645   0.956   3.492
 4694SOL     OW14980   2.644   0.958   0.726
 4694SOL    HW114981   2.668   0.961   0.823
 4694SOL    HW214982   2.723   0.984   0.671
 4695SOL     OW14983   1.405   5.936   0.641
 4695SOL    HW114984   1.444   5.846   0.626
 4695SOL    HW214985   1.448   5.979   0.721
 4696SOL     OW14986   1.381   5.337   5.991
 4696SOL    HW114987   1.328   5.284   6.058
 4696SOL    HW214988   1.410   5.423   6.032
 4697SOL     OW14989   2.395   4.401   1.000
 4697SOL    HW114990   2.431   4.451   1.079
 4697SOL    HW214991   2.438   4.311   0.995
 4698SOL     OW14992   4.888   0.855   3.413
 4698SOL    HW114993   4.833   0.854   3.497
 4698SOL    HW214994   4.911   0.950   3.389
 4699SOL     OW14995   0.947   0.534   1.694
 4699SOL    HW114996   0.894   0.471   1.752
 4699SOL    HW214997   1.030   0.488   1.662
 4700SOL     OW14998   5.984   2.302   2.857
 4700SOL    HW114999   5.915   2.232   2.876
 4700SOL    HW215000   5.943   2.376   2.803
 4701SOL     OW15001   3.544   2.004   2.107
 4701SOL    HW115002   3.598   2.087   2.093
 4701SOL    HW215003   3.596   1.939   2.163
 4702SOL     OW15004   4.838   4.960   6.391
 4702SOL    HW115005   4.889   5.022   6.451
 4702SOL    HW215006   4.740   4.972   6.407
 4703SOL     OW15007   0.953   4.847   2.818
 4703SOL    HW115008   0.951   4.749   2.837
 4703SOL    HW215009   0.863   4.877   2.787
 4704SOL     OW15010   0.097   5.806   5.745
 4704SOL    HW115011   0.089   5.888   5.802
 4704SOL    HW215012   0.173   5.750   5.778
 4705SOL     OW15013   3.081   2.801   1.544
 4705SOL    HW115014   3.013   2.819   1.614
 4705SOL    HW215015   3.122   2.888   1.514
 4706SOL     OW15016   1.317   0.510   0.498
 4706SOL    HW115017   1.301   0.556   0.411
 4706SOL    HW215018   1.379   0.433   0.485
 4707SOL     OW15019   1.388   6.675   1.491
 4707SOL    HW115020   1.410   6.665   1.588
 4707SOL    HW215021   1.392   6.771   1.466
 4708SOL     OW15022   0.965   2.479   3.976
 4708SOL    HW115023   0.986   2.544   4.049
 4708SOL    HW215024   1.040   2.412   3.968
 4709SOL     OW15025   4.865   4.050   4.940
 4709SOL    HW115026   4.848   4.077   4.845
 4709SOL    HW215027   4.889   3.953   4.943
 4710SOL     OW15028   5.897   6.359   3.917
 4710SOL    HW115029   5.830   6.307   3.864
 4710SOL    HW215030   5.881   6.342   4.014
 4711SOL     OW15031   5.982   3.437   3.094
 4711SOL    HW115032   5.985   3.342   3.066
 4711SOL    HW215033   6.069   3.463   3.136
 4712SOL     OW15034   4.631   4.171   5.407
 4712SOL    HW115035   4.668   4.140   5.319
 4712SOL    HW215036   4.628   4.271   5.408
 4713SOL     OW15037   5.575   4.103   1.060
 4713SOL    HW115038   5.591   4.016   1.108
 4713SOL    HW215039   5.512   4.159   1.115
 4714SOL     OW15040   6.292   1.313   6.315
 4714SOL    HW115041   6.284   1.221   6.277
 4714SOL    HW215042   6.388   1.332   6.337
 4715SOL     OW15043   6.255   1.995   2.522
 4715SOL    HW115044   6.190   1.921   2.506
 4715SOL    HW215045   6.207   2.074   2.562
 4716SOL     OW15046   3.890   4.857   5.494
 4716SOL    HW115047   3.989   4.863   5.502
 4716SOL    HW215048   3.849   4.942   5.527
 4717SOL     OW15049   3.305   5.217   5.699
 4717SOL    HW115050   3.327   5.175   5.611
 4717SOL    HW215051   3.263   5.148   5.759
 4718SOL     OW15052   5.342   3.441   1.055
 4718SOL    HW115053   5.275   3.449   1.129
 4718SOL    HW215054   5.434   3.450   1.093
 4719SOL     OW15055   6.200   3.468   3.816
 4719SOL    HW115056   6.217   3.417   3.901
 4719SOL    HW215057   6.103   3.460   3.792
 4720SOL     OW15058   2.989   4.687   6.782
 4720SOL    HW115059   3.085   4.664   6.796
 4720SOL    HW215060   2.975   4.716   6.687
 4721SOL     OW15061   6.265   3.301   2.782
 4721SOL    HW115062   6.324   3.282   2.861
 4721SOL    HW215063   6.284   3.393   2.747
 4722SOL     OW15064   1.246   4.238   6.149
 4722SOL    HW115065   1.182   4.251   6.225
 4722SOL    HW215066   1.310   4.315   6.146
 4723SOL     OW15067   3.886   3.929   5.946
 4723SOL    HW115068   3.795   3.931   5.906
 4723SOL    HW215069   3.949   3.882   5.884
 4724SOL     OW15070   0.522   6.559   4.289
 4724SOL    HW115071   0.469   6.476   4.307
 4724SOL    HW215072   0.461   6.638   4.289
 4725SOL     OW15073   5.732   5.027   0.425
 4725SOL    HW115074   5.650   5.026   0.368
 4725SOL    HW215075   5.810   4.996   0.370
 4726SOL     OW15076   2.098   3.176   5.920
 4726SOL    HW115077   2.117   3.078   5.929
 4726SOL    HW215078   2.176   3.228   5.954
 4727SOL     OW15079   0.713   5.949   0.702
 4727SOL    HW115080   0.621   5.922   0.676
 4727SOL    HW215081   0.780   5.890   0.658
 4728SOL     OW15082   6.114   0.813   3.781
 4728SOL    HW115083   6.079   0.849   3.867
 4728SOL    HW215084   6.097   0.879   3.707
 4729SOL     OW15085   6.306   0.700   0.335
 4729SOL    HW115086   6.320   0.785   0.285
 4729SOL    HW215087   6.294   0.624   0.271
 4730SOL     OW15088   3.228   6.418   4.980
 4730SOL    HW115089   3.265   6.435   4.889
 4730SOL    HW215090   3.161   6.489   5.002
 4731SOL     OW15091   2.929   0.070   0.871
 4731SOL    HW115092   2.888   0.063   0.780
 4731SOL    HW215093   3.026   0.046   0.866
 4732SOL     OW15094   0.366   3.538   4.267
 4732SOL    HW115095   0.428   3.561   4.342
 4732SOL    HW215096   0.369   3.439   4.251
 4733SOL     OW15097   2.123   3.447   3.054
 4733SOL    HW115098   2.136   3.366   3.112
 4733SOL    HW215099   2.081   3.420   2.968
 4734SOL     OW15100   5.305   3.775   6.263
 4734SOL    HW115101   5.320   3.873   6.255
 4734SOL    HW215102   5.309   3.732   6.172
 4735SOL     OW15103   6.903   6.383   4.967
 4735SOL    HW115104   6.985   6.393   5.024
 4735SOL    HW215105   6.905   6.293   4.923
 4736SOL     OW15106   6.591   2.133   3.466
 4736SOL    HW115107   6.629   2.173   3.383
 4736SOL    HW215108   6.604   2.195   3.543
 4737SOL     OW15109   1.860   5.207   1.232
 4737SOL    HW115110   1.948   5.199   1.278
 4737SOL    HW215111   1.802   5.129   1.256
 4738SOL     OW15112   2.235   0.599   3.761
 4738SOL    HW115113   2.149   0.649   3.778
 4738SOL    HW215114   2.294   0.604   3.841
 4739SOL     OW15115   6.167   3.399   4.968
 4739SOL    HW115116   6.166   3.367   5.063
 4739SOL    HW215117   6.086   3.454   4.950
 4740SOL     OW15118   0.393   1.098   1.875
 4740SOL    HW115119   0.321   1.091   1.806
 4740SOL    HW215120   0.421   1.193   1.885
 4741SOL     OW15121   4.357   4.768   1.376
 4741SOL    HW115122   4.435   4.705   1.381
 4741SOL    HW215123   4.326   4.775   1.281
 4742SOL     OW15124   2.860   6.005   0.932
 4742SOL    HW115125   2.932   6.068   0.964
 4742SOL    HW215126   2.801   6.054   0.868
 4743SOL     OW15127   2.204   1.639   6.657
 4743SOL    HW115128   2.246   1.688   6.734
 4743SOL    HW215129   2.215   1.540   6.671
 4744SOL     OW15130   1.974   3.497   5.374
 4744SOL    HW115131   2.061   3.452   5.355
 4744SOL    HW215132   1.924   3.513   5.289
 4745SOL     OW15133   3.420   5.301   5.031
 4745SOL    HW115134   3.505   5.264   5.070
 4745SOL    HW215135   3.442   5.367   4.960
 4746SOL     OW15136   6.154   5.908   0.680
 4746SOL    HW115137   6.110   5.908   0.590
 4746SOL    HW215138   6.108   5.972   0.741
 4747SOL     OW15139   6.805   2.091   0.556
 4747SOL    HW115140   6.820   2.005   0.507
 4747SOL    HW215141   6.750   2.074   0.638
 4748SOL     OW15142   1.186   0.450   1.624
 4748SOL    HW115143   1.173   0.385   1.549
 4748SOL    HW215144   1.237   0.529   1.592
 4749SOL     OW15145   2.189   6.408   6.976
 4749SOL    HW115146   2.280   6.439   6.947
 4749SOL    HW215147   2.186   6.405   0.059
 4750SOL     OW15148   6.880   1.061   4.473
 4750SOL    HW115149   6.828   1.070   4.388
 4750SOL    HW215150   6.817   1.038   4.548
 4751SOL     OW15151   1.564   4.995   6.413
 4751SOL    HW115152   1.548   4.977   6.316
 4751SOL    HW215153   1.478   4.984   6.463
 4752SOL     OW15154   2.956   6.493   1.458
 4752SOL    HW115155   2.868   6.524   1.423
 4752SOL    HW215156   2.967   6.523   1.553
 4753SOL     OW15157   5.559   6.988   4.843
 4753SOL    HW115158   5.492   0.037   4.875
 4753SOL    HW215159   5.588   7.012   4.750
 4754SOL     OW15160   0.300   6.843   5.730
 4754SOL    HW115161   0.253   6.794   5.803
 4754SOL    HW215162   0.397   6.849   5.751
 4755SOL     OW15163   2.308   1.625   6.112
 4755SOL    HW115164   2.353   1.695   6.167
 4755SOL    HW215165   2.290   1.544   6.167
 4756SOL     OW15166   4.639   2.742   1.495
 4756SOL    HW115167   4.682   2.674   1.435
 4756SOL    HW215168   4.695   2.753   1.577
 4757SOL     OW15169   2.302   2.337   1.835
 4757SOL    HW115170   2.256   2.256   1.799
 4757SOL    HW215171   2.384   2.355   1.780
 4758SOL     OW15172   5.042   4.735   5.322
 4758SOL    HW115173   5.084   4.825   5.306
 4758SOL    HW215174   4.948   4.748   5.354
 4759SOL     OW15175   5.507   5.944   6.055
 4759SOL    HW115176   5.481   5.907   6.143
 4759SOL    HW215177   5.437   5.921   5.987
 4760SOL     OW15178   2.015   0.949   1.611
 4760SOL    HW115179   2.100   0.984   1.651
 4760SOL    HW215180   2.034   0.910   1.521
 4761SOL     OW15181   6.738   0.203   6.324
 4761SOL    HW115182   6.802   0.130   6.300
 4761SOL    HW215183   6.662   0.203   6.259
 4762SOL     OW15184   3.003   5.133   2.284
 4762SOL    HW115185   3.086   5.170   2.244
 4762SOL    HW215186   2.939   5.109   2.212
 4763SOL     OW15187   5.953   6.480   3.170
 4763SOL    HW115188   5.904   6.450   3.252
 4763SOL    HW215189   5.911   6.439   3.089
 4764SOL     OW15190   4.355   3.558   5.277
 4764SOL    HW115191   4.291   3.569   5.201
 4764SOL    HW215192   4.449   3.569   5.243
 4765SOL     OW15193   4.621   6.175   4.871
 4765SOL    HW115194   4.600   6.265   4.908
 4765SOL    HW215195   4.720   6.160   4.874
 4766SOL     OW15196   2.452   0.280   3.511
 4766SOL    HW115197   2.420   0.193   3.474
 4766SOL    HW215198   2.419   0.355   3.453
 4767SOL     OW15199   3.813   6.859   0.034
 4767SOL    HW115200   3.872   6.803   6.992
 4767SOL    HW215201   3.816   6.822   0.128
 4768SOL     OW15202   5.955   0.674   4.541
 4768SOL    HW115203   5.947   0.761   4.492
 4768SOL    HW215204   5.914   0.601   4.488
 4769SOL     OW15205   4.214   6.394   1.676
 4769SOL    HW115206   4.289   6.418   1.614
 4769SOL    HW215207   4.162   6.318   1.638
 4770SOL     OW15208   2.302   0.671   3.500
 4770SOL    HW115209   2.296   0.649   3.598
 4770SOL    HW215210   2.304   0.586   3.448
 4771SOL     OW15211   3.604   4.237   6.213
 4771SOL    HW115212   3.545   4.313   6.242
 4771SOL    HW215213   3.652   4.262   6.129
 4772SOL     OW15214   2.980   1.137   1.564
 4772SOL    HW115215   2.903   1.077   1.586
 4772SOL    HW215216   3.005   1.191   1.644
 4773SOL     OW15217   0.305   5.915   3.723
 4773SOL    HW115218   0.378   5.874   3.670
 4773SOL    HW215219   0.326   6.011   3.741
 4774SOL     OW15220   1.107   3.610   2.011
 4774SOL    HW115221   1.020   3.656   1.992
 4774SOL    HW215222   1.183   3.673   1.991
 4775SOL     OW15223   4.561   0.306   3.357
 4775SOL    HW115224   4.468   0.269   3.363
 4775SOL    HW215225   4.567   0.391   3.410
 4776SOL     OW15226   3.128   6.185   2.531
 4776SOL    HW115227   3.169   6.119   2.468
 4776SOL    HW215228   3.040   6.150   2.563
 4777SOL     OW15229   2.492   4.550   1.228
 4777SOL    HW115230   2.576   4.545   1.280
 4777SOL    HW215231   2.417   4.581   1.287
 4778SOL     OW15232   4.857   3.614   1.823
 4778SOL    HW115233   4.926   3.611   1.750
 4778SOL    HW215234   4.779   3.556   1.798
 4779SOL     OW15235   6.682   0.245   3.018
 4779SOL    HW115236   6.766   0.299   3.022
 4779SOL    HW215237   6.660   0.224   2.923
 4780SOL     OW15238   1.011   6.733   6.166
 4780SOL    HW115239   0.998   6.634   6.158
 4780SOL    HW215240   1.108   6.755   6.149
 4781SOL     OW15241   2.180   5.244   1.192
 4781SOL    HW115242   2.206   5.167   1.133
 4781SOL    HW215243   2.156   5.210   1.283
 4782SOL     OW15244   5.297   6.510   6.565
 4782SOL    HW115245   5.286   6.578   6.493
 4782SOL    HW215246   5.214   6.506   6.621
 4783SOL     OW15247   5.241   3.986   1.132
 4783SOL    HW115248   5.266   3.921   1.204
 4783SOL    HW215249   5.303   4.064   1.135
 4784SOL     OW15250   5.484   5.121   5.439
 4784SOL    HW115251   5.450   5.214   5.451
 4784SOL    HW215252   5.526   5.112   5.349
 4785SOL     OW15253   6.812   6.407   0.531
 4785SOL    HW115254   6.733   6.355   0.564
 4785SOL    HW215255   6.793   6.444   0.440
 4786SOL     OW15256   1.776   2.950   1.921
 4786SOL    HW115257   1.767   2.942   2.020
 4786SOL    HW215258   1.848   2.888   1.889
 4787SOL     OW15259   3.164   2.126   3.530
 4787SOL    HW115260   3.232   2.141   3.459
 4787SOL    HW215261   3.072   2.129   3.491
 4788SOL     OW15262   0.861   5.078   4.952
 4788SOL    HW115263   0.769   5.108   4.928
 4788SOL    HW215264   0.922   5.156   4.957
 4789SOL     OW15265   5.705   0.445   6.687
 4789SOL    HW115266   5.735   0.519   6.747
 4789SOL    HW215267   5.786   0.401   6.647
 4790SOL     OW15268   5.834   2.344   6.448
 4790SOL    HW115269   5.843   2.425   6.505
 4790SOL    HW215270   5.867   2.264   6.499
 4791SOL     OW15271   5.248   6.907   2.169
 4791SOL    HW115272   5.331   6.963   2.176
 4791SOL    HW215273   5.214   6.888   2.261
 4792SOL     OW15274   2.204   2.768   3.044
 4792SOL    HW115275   2.124   2.776   2.984
 4792SOL    HW215276   2.224   2.857   3.085
 4793SOL     OW15277   1.468   0.241   6.514
 4793SOL    HW115278   1.408   0.180   6.462
 4793SOL    HW215279   1.460   0.334   6.479
 4794SOL     OW15280   2.393   6.311   3.282
 4794SOL    HW115281   2.388   6.408   3.304
 4794SOL    HW215282   2.320   6.262   3.329
 4795SOL     OW15283   6.340   3.166   4.484
 4795SOL    HW115284   6.270   3.112   4.531
 4795SOL    HW215285   6.395   3.106   4.426
 4796SOL     OW15286   5.810   3.789   0.235
 4796SOL    HW115287   5.853   3.812   0.323
 4796SOL    HW215288   5.837   3.857   0.167
 4797SOL     OW15289   0.858   4.821   5.854
 4797SOL    HW115290   0.926   4.873   5.906
 4797SOL    HW215291   0.891   4.728   5.838
 4798SOL     OW15292   0.338   4.403   4.056
 4798SOL    HW115293   0.336   4.477   4.124
 4798SOL    HW215294   0.290   4.323   4.092
 4799SOL     OW15295   5.153   1.370   4.816
 4799SOL    HW115296   5.113   1.364   4.725
 4799SOL    HW215297   5.202   1.285   4.836
 4800SOL     OW15298   2.829   2.812   5.719
 4800SOL    HW115299   2.747   2.755   5.723
 4800SOL    HW215300   2.853   2.828   5.623
 4801SOL     OW15301   1.635   1.598   0.653
 4801SOL    HW115302   1.572   1.522   0.635
 4801SOL    HW215303   1.716   1.589   0.595
 4802SOL     OW15304   2.683   7.014   1.579
 4802SOL    HW115305   2.731   0.084   1.574
 4802SOL    HW215306   2.673   6.975   1.488
 4803SOL     OW15307   0.481   6.683   0.711
 4803SOL    HW115308   0.452   6.588   0.698
 4803SOL    HW215309   0.536   6.712   0.632
 4804SOL     OW15310   4.314   5.042   6.120
 4804SOL    HW115311   4.289   4.958   6.072
 4804SOL    HW215312   4.303   5.120   6.059
 4805SOL     OW15313   7.008   1.501   0.138
 4805SOL    HW115314   0.001   1.466   0.045
 4805SOL    HW215315   0.006   1.600   0.138
 4806SOL     OW15316   0.300   3.857   3.097
 4806SOL    HW115317   0.373   3.790   3.105
 4806SOL    HW215318   0.253   3.867   3.185
 4807SOL     OW15319   0.832   5.772   1.553
 4807SOL    HW115320   0.745   5.817   1.533
 4807SOL    HW215321   0.889   5.832   1.609
 4808SOL     OW15322   5.194   3.440   1.613
 4808SOL    HW115323   5.167   3.356   1.566
 4808SOL    HW215324   5.269   3.421   1.676
 4809SOL     OW15325   3.309   5.051   6.857
 4809SOL    HW115326   3.231   5.114   6.851
 4809SOL    HW215327   3.392   5.103   6.877
 4810SOL     OW15328   0.892   5.505   1.520
 4810SOL    HW115329   0.882   5.602   1.539
 4810SOL    HW215330   0.966   5.492   1.454
 4811SOL     OW15331   3.639   5.178   1.873
 4811SOL    HW115332   3.673   5.099   1.925
 4811SOL    HW215333   3.634   5.154   1.776
 4812SOL     OW15334   0.214   5.504   4.131
 4812SOL    HW115335   0.176   5.508   4.223
 4812SOL    HW215336   0.291   5.568   4.124
 4813SOL     OW15337   4.802   1.552   2.363
 4813SOL    HW115338   4.823   1.644   2.330
 4813SOL    HW215339   4.761   1.558   2.454
 4814SOL     OW15340   6.935   3.762   1.094
 4814SOL    HW115341   6.963   3.857   1.109
 4814SOL    HW215342   6.842   3.760   1.059
 4815SOL     OW15343   4.554   5.341   1.695
 4815SOL    HW115344   4.535   5.243   1.707
 4815SOL    HW215345   4.555   5.385   1.785
 4816SOL     OW15346   5.213   5.268   2.558
 4816SOL    HW115347   5.159   5.186   2.541
 4816SOL    HW215348   5.219   5.284   2.657
 4817SOL     OW15349   1.477   2.295   5.782
 4817SOL    HW115350   1.394   2.240   5.777
 4817SOL    HW215351   1.465   2.366   5.852
 4818SOL     OW15352   0.046   0.032   3.881
 4818SOL    HW115353   0.070   6.954   3.862
 4818SOL    HW215354   0.052   0.049   3.979
 4819SOL     OW15355   1.396   3.131   6.933
 4819SOL    HW115356   1.482   3.165   6.897
 4819SOL    HW215357   1.394   3.031   6.925
 4820SOL     OW15358   6.626   3.239   2.389
 4820SOL    HW115359   6.601   3.179   2.313
 4820SOL    HW215360   6.721   3.269   2.378
 4821SOL     OW15361   6.689   5.973   2.511
 4821SOL    HW115362   6.724   5.965   2.418
 4821SOL    HW215363   6.685   6.070   2.537
 4822SOL     OW15364   1.179   3.854   4.065
 4822SOL    HW115365   1.116   3.873   4.140
 4822SOL    HW215366   1.225   3.766   4.082
 4823SOL     OW15367   1.589   2.731   2.066
 4823SOL    HW115368   1.530   2.812   2.069
 4823SOL    HW215369   1.669   2.745   2.125
 4824SOL     OW15370   5.285   0.480   5.163
 4824SOL    HW115371   5.214   0.492   5.233
 4824SOL    HW215372   5.265   0.397   5.111
 4825SOL     OW15373   1.330   0.618   4.560
 4825SOL    HW115374   1.244   0.618   4.509
 4825SOL    HW215375   1.347   0.708   4.599
 4826SOL     OW15376   4.259   0.271   1.232
 4826SOL    HW115377   4.352   0.240   1.250
 4826SOL    HW215378   4.259   0.337   1.157
 4827SOL     OW15379   6.708   2.008   1.044
 4827SOL    HW115380   6.781   2.063   1.003
 4827SOL    HW215381   6.748   1.946   1.113
 4828SOL     OW15382   4.492   0.727   2.307
 4828SOL    HW115383   4.503   0.647   2.366
 4828SOL    HW215384   4.443   0.799   2.357
 4829SOL     OW15385   3.647   0.096   5.644
 4829SOL    HW115386   3.654   0.028   5.717
 4829SOL    HW215387   3.739   0.126   5.618
 4830SOL     OW15388   3.131   5.804   3.727
 4830SOL    HW115389   3.198   5.790   3.654
 4830SOL    HW215390   3.051   5.747   3.711
 4831SOL     OW15391   3.405   5.031   6.062
 4831SOL    HW115392   3.363   5.044   6.152
 4831SOL    HW215393   3.334   5.012   5.994
 4832SOL     OW15394   3.119   3.148   4.624
 4832SOL    HW115395   3.189   3.218   4.634
 4832SOL    HW215396   3.048   3.180   4.561
 4833SOL     OW15397   6.525   2.764   4.653
 4833SOL    HW115398   6.603   2.822   4.632
 4833SOL    HW215399   6.441   2.809   4.621
 4834SOL     OW15400   2.317   5.532   1.651
 4834SOL    HW115401   2.235   5.522   1.595
 4834SOL    HW215402   2.291   5.544   1.747
 4835SOL     OW15403   6.990   3.004   5.201
 4835SOL    HW115404   6.968   3.101   5.209
 4835SOL    HW215405   6.915   2.950   5.240
 4836SOL     OW15406   5.339   1.140   4.840
 4836SOL    HW115407   5.256   1.085   4.842
 4836SOL    HW215408   5.410   1.093   4.788
 4837SOL     OW15409   7.012   3.575   4.578
 4837SOL    HW115410   7.001   3.658   4.633
 4837SOL    HW215411   0.012   3.497   4.638
 4838SOL     OW15412   1.310   4.537   6.355
 4838SOL    HW115413   1.398   4.508   6.393
 4838SOL    HW215414   1.267   4.603   6.416
 4839SOL     OW15415   2.442   1.904   0.721
 4839SOL    HW115416   2.453   1.949   0.810
 4839SOL    HW215417   2.482   1.813   0.725
 4840SOL     OW15418   5.444   3.265   5.155
 4840SOL    HW115419   5.449   3.232   5.061
 4840SOL    HW215420   5.534   3.300   5.183
 4841SOL     OW15421   3.255   5.365   3.129
 4841SOL    HW115422   3.234   5.341   3.223
 4841SOL    HW215423   3.346   5.407   3.124
 4842SOL     OW15424   2.803   5.404   3.012
 4842SOL    HW115425   2.704   5.405   3.026
 4842SOL    HW215426   2.828   5.322   2.960
 4843SOL     OW15427   0.324   2.493   2.548
 4843SOL    HW115428   0.245   2.540   2.509
 4843SOL    HW215429   0.346   2.413   2.492
 4844SOL     OW15430   0.888   5.594   5.153
 4844SOL    HW115431   0.836   5.509   5.149
 4844SOL    HW215432   0.943   5.604   5.071
 4845SOL     OW15433   4.766   4.151   4.702
 4845SOL    HW115434   4.690   4.091   4.680
 4845SOL    HW215435   4.731   4.243   4.721
 4846SOL     OW15436   6.862   3.870   5.314
 4846SOL    HW115437   6.879   3.901   5.220
 4846SOL    HW215438   6.908   3.782   5.328
 4847SOL     OW15439   2.568   6.278   5.983
 4847SOL    HW115440   2.469   6.268   5.976
 4847SOL    HW215441   2.609   6.191   6.009
 4848SOL     OW15442   2.616   0.771   4.025
 4848SOL    HW115443   2.700   0.724   3.999
 4848SOL    HW215444   2.626   0.869   4.006
 4849SOL     OW15445   2.070   6.646   1.401
 4849SOL    HW115446   2.059   6.726   1.342
 4849SOL    HW215447   2.103   6.675   1.491
 4850SOL     OW15448   4.571   0.752   0.480
 4850SOL    HW115449   4.588   0.743   0.382
 4850SOL    HW215450   4.654   0.727   0.531
 4851SOL     OW15451   3.732   5.670   6.853
 4851SOL    HW115452   3.682   5.682   6.767
 4851SOL    HW215453   3.771   5.578   6.856
 4852SOL     OW15454   4.277   5.076   4.794
 4852SOL    HW115455   4.207   5.117   4.736
 4852SOL    HW215456   4.298   5.137   4.870
 4853SOL     OW15457   3.747   1.269   3.152
 4853SOL    HW115458   3.734   1.171   3.138
 4853SOL    HW215459   3.787   1.309   3.069
 4854SOL     OW15460   6.243   6.276   1.683
 4854SOL    HW115461   6.324   6.224   1.710
 4854SOL    HW215462   6.202   6.234   1.602
 4855SOL     OW15463   6.323   4.861   4.505
 4855SOL    HW115464   6.339   4.763   4.496
 4855SOL    HW215465   6.381   4.911   4.442
 4856SOL     OW15466   0.200   3.705   2.904
 4856SOL    HW115467   0.231   3.775   2.969
 4856SOL    HW215468   0.168   3.625   2.954
 4857SOL     OW15469   2.590   1.914   4.780
 4857SOL    HW115470   2.522   1.987   4.785
 4857SOL    HW215471   2.599   1.883   4.686
 4858SOL     OW15472   0.377   6.310   4.687
 4858SOL    HW115473   0.401   6.255   4.767
 4858SOL    HW215474   0.327   6.392   4.716
 4859SOL     OW15475   0.616   6.007   2.244
 4859SOL    HW115476   0.688   5.969   2.187
 4859SOL    HW215477   0.657   6.070   2.311
 4860SOL     OW15478   5.068   5.457   0.815
 4860SOL    HW115479   5.048   5.536   0.872
 4860SOL    HW215480   5.118   5.389   0.868
 4861SOL     OW15481   0.719   4.784   6.489
 4861SOL    HW115482   0.712   4.686   6.511
 4861SOL    HW215483   0.783   4.796   6.413
 4862SOL     OW15484   2.810   4.726   5.349
 4862SOL    HW115485   2.771   4.698   5.261
 4862SOL    HW215486   2.904   4.694   5.355
 4863SOL     OW15487   4.425   2.324   3.113
 4863SOL    HW115488   4.477   2.253   3.161
 4863SOL    HW215489   4.329   2.295   3.106
 4864SOL     OW15490   3.107   1.163   2.003
 4864SOL    HW115491   3.162   1.181   2.084
 4864SOL    HW215492   3.116   1.239   1.939
 4865SOL     OW15493   3.743   5.777   5.529
 4865SOL    HW115494   3.834   5.737   5.517
 4865SOL    HW215495   3.750   5.877   5.526
 4866SOL     OW15496   5.879   4.469   1.077
 4866SOL    HW115497   5.932   4.444   1.158
 4866SOL    HW215498   5.788   4.499   1.105
 4867SOL     OW15499   5.002   5.999   2.548
 4867SOL    HW115500   4.908   6.007   2.581
 4867SOL    HW215501   5.051   5.932   2.604
 4868SOL     OW15502   0.452   5.650   1.400
 4868SOL    HW115503   0.514   5.729   1.403
 4868SOL    HW215504   0.414   5.634   1.491
 4869SOL     OW15505   0.074   1.385   6.911
 4869SOL    HW115506   0.116   1.353   6.826
 4869SOL    HW215507   6.991   1.383   6.901
 4870SOL     OW15508   5.888   6.714   2.373
 4870SOL    HW115509   5.841   6.689   2.458
 4870SOL    HW215510   5.826   6.700   2.296
 4871SOL     OW15511   1.359   3.322   4.153
 4871SOL    HW115512   1.408   3.390   4.208
 4871SOL    HW215513   1.358   3.353   4.057
 4872SOL     OW15514   1.240   0.540   2.759
 4872SOL    HW115515   1.308   0.553   2.687
 4872SOL    HW215516   1.271   0.587   2.842
 4873SOL     OW15517   0.094   5.547   5.203
 4873SOL    HW115518   0.172   5.591   5.159
 4873SOL    HW215519   0.112   5.537   5.301
 4874SOL     OW15520   5.234   3.504   3.148
 4874SOL    HW115521   5.332   3.517   3.165
 4874SOL    HW215522   5.198   3.583   3.099
 4875SOL     OW15523   5.785   2.172   0.716
 4875SOL    HW115524   5.735   2.250   0.753
 4875SOL    HW215525   5.867   2.205   0.669
 4876SOL     OW15526   0.330   1.412   0.039
 4876SOL    HW115527   0.370   1.366   0.118
 4876SOL    HW215528   0.232   1.391   0.033
 4877SOL     OW15529   6.215   1.020   1.313
 4877SOL    HW115530   6.242   0.932   1.353
 4877SOL    HW215531   6.148   1.065   1.372
 4878SOL     OW15532   6.823   2.130   2.005
 4878SOL    HW115533   6.784   2.053   2.056
 4878SOL    HW215534   6.857   2.098   1.917
 4879SOL     OW15535   4.473   5.347   3.461
 4879SOL    HW115536   4.425   5.430   3.431
 4879SOL    HW215537   4.514   5.302   3.382
 4880SOL     OW15538   5.845   1.786   6.313
 4880SOL    HW115539   5.930   1.743   6.344
 4880SOL    HW215540   5.865   1.876   6.275
 4881SOL     OW15541   4.000   6.286   6.459
 4881SOL    HW115542   3.960   6.242   6.379
 4881SOL    HW215543   4.001   6.222   6.536
 4882SOL     OW15544   5.648   0.617   5.485
 4882SOL    HW115545   5.682   0.525   5.503
 4882SOL    HW215546   5.598   0.651   5.565
 4883SOL     OW15547   6.821   4.687   1.751
 4883SOL    HW115548   6.758   4.748   1.797
 4883SOL    HW215549   6.882   4.644   1.818
 4884SOL     OW15550   3.238   6.237   1.627
 4884SOL    HW115551   3.274   6.304   1.562
 4884SOL    HW215552   3.281   6.148   1.610
 4885SOL     OW15553   2.018   0.047   1.500
 4885SOL    HW115554   2.105   0.032   1.546
 4885SOL    HW215555   2.030   0.114   1.426
 4886SOL     OW15556   6.357   0.387   0.171
 4886SOL    HW115557   6.395   0.304   0.131
 4886SOL    HW215558   6.425   0.460   0.166
 4887SOL     OW15559   0.304   2.411   3.609
 4887SOL    HW115560   0.206   2.433   3.607
 4887SOL    HW215561   0.338   2.404   3.516
 4888SOL     OW15562   2.367   5.524   2.902
 4888SOL    HW115563   2.317   5.505   2.818
 4888SOL    HW215564   2.397   5.619   2.903
 4889SOL     OW15565   0.844   1.797   0.303
 4889SOL    HW115566   0.761   1.801   0.359
 4889SOL    HW215567   0.921   1.834   0.354
 4890SOL     OW15568   1.271   0.972   4.390
 4890SOL    HW115569   1.273   1.059   4.439
 4890SOL    HW215570   1.183   0.927   4.404
 4891SOL     OW15571   0.759   4.981   0.563
 4891SOL    HW115572   0.802   4.947   0.647
 4891SOL    HW215573   0.668   4.941   0.553
 4892SOL     OW15574   0.677   5.654   0.769
 4892SOL    HW115575   0.603   5.604   0.725
 4892SOL    HW215576   0.650   5.679   0.862
 4893SOL     OW15577   0.454   3.366   6.479
 4893SOL    HW115578   0.426   3.412   6.395
 4893SOL    HW215579   0.501   3.280   6.456
 4894SOL     OW15580   2.177   1.695   3.149
 4894SOL    HW115581   2.272   1.724   3.162
 4894SOL    HW215582   2.148   1.640   3.228
 4895SOL     OW15583   0.892   2.933   0.336
 4895SOL    HW115584   0.876   2.947   0.434
 4895SOL    HW215585   0.940   3.012   0.299
 4896SOL     OW15586   3.541   4.974   4.672
 4896SOL    HW115587   3.494   4.936   4.592
 4896SOL    HW215588   3.475   5.027   4.726
 4897SOL     OW15589   3.723   5.812   6.482
 4897SOL    HW115590   3.780   5.731   6.472
 4897SOL    HW215591   3.640   5.789   6.533
 4898SOL     OW15592   5.428   1.708   5.324
 4898SOL    HW115593   5.424   1.609   5.305
 4898SOL    HW215594   5.491   1.725   5.399
 4899SOL     OW15595   5.769   4.407   3.785
 4899SOL    HW115596   5.761   4.307   3.787
 4899SOL    HW215597   5.757   4.439   3.691
 4900SOL     OW15598   0.965   6.907   5.484
 4900SOL    HW115599   0.974   6.808   5.481
 4900SOL    HW215600   1.055   6.949   5.471
 4901SOL     OW15601   0.756   0.209   4.026
 4901SOL    HW115602   0.776   0.111   4.028
 4901SOL    HW215603   0.779   0.246   3.936
 4902SOL     OW15604   2.167   4.378   1.614
 4902SOL    HW115605   2.098   4.334   1.557
 4902SOL    HW215606   2.124   4.418   1.695
 4903SOL     OW15607   4.994   6.966   6.568
 4903SOL    HW115608   5.043   6.999   6.648
 4903SOL    HW215609   4.897   6.990   6.576
 4904SOL     OW15610   2.775   5.891   4.080
 4904SOL    HW115611   2.804   5.863   4.171
 4904SOL    HW215612   2.855   5.905   4.021
 4905SOL     OW15613   4.936   3.164   1.891
 4905SOL    HW115614   4.838   3.143   1.885
 4905SOL    HW215615   4.956   3.203   1.981
 4906SOL     OW15616   5.167   0.375   6.990
 4906SOL    HW115617   5.234   0.314   0.015
 4906SOL    HW215618   5.092   0.322   6.951
 4907SOL     OW15619   3.505   0.799   3.679
 4907SOL    HW115620   3.571   0.805   3.753
 4907SOL    HW215621   3.542   0.843   3.597
 4908SOL     OW15622   3.444   6.484   6.668
 4908SOL    HW115623   3.535   6.445   6.651
 4908SOL    HW215624   3.375   6.426   6.624
 4909SOL     OW15625   6.438   6.461   5.405
 4909SOL    HW115626   6.391   6.518   5.337
 4909SOL    HW215627   6.370   6.408   5.457
 4910SOL     OW15628   5.708   0.293   5.307
 4910SOL    HW115629   5.806   0.310   5.320
 4910SOL    HW215630   5.695   0.242   5.222
 4911SOL     OW15631   6.677   2.717   6.171
 4911SOL    HW115632   6.655   2.801   6.121
 4911SOL    HW215633   6.760   2.730   6.225
 4912SOL     OW15634   2.754   2.180   2.559
 4912SOL    HW115635   2.667   2.184   2.510
 4912SOL    HW215636   2.826   2.222   2.504
 4913SOL     OW15637   3.046   3.998   3.126
 4913SOL    HW115638   3.139   3.976   3.155
 4913SOL    HW215639   3.034   3.971   3.030
 4914SOL     OW15640   2.720   6.744   3.653
 4914SOL    HW115641   2.647   6.705   3.597
 4914SOL    HW215642   2.801   6.685   3.648
 4915SOL     OW15643   3.260   5.687   3.945
 4915SOL    HW115644   3.340   5.746   3.959
 4915SOL    HW215645   3.194   5.734   3.886
 4916SOL     OW15646   2.035   1.563   2.705
 4916SOL    HW115647   1.987   1.596   2.786
 4916SOL    HW215648   2.012   1.620   2.626
 4917SOL     OW15649   2.281   4.683   0.899
 4917SOL    HW115650   2.247   4.672   0.993
 4917SOL    HW215651   2.347   4.610   0.879
 4918SOL     OW15652   2.223   0.304   2.230
 4918SOL    HW115653   2.306   0.289   2.175
 4918SOL    HW215654   2.146   0.256   2.187
 4919SOL     OW15655   2.380   2.640   1.803
 4919SOL    HW115656   2.442   2.577   1.757
 4919SOL    HW215657   2.365   2.608   1.897
 4920SOL     OW15658   4.282   0.750   0.374
 4920SOL    HW115659   4.211   0.821   0.365
 4920SOL    HW215660   4.350   0.780   0.441
 4921SOL     OW15661   1.044   4.522   1.492
 4921SOL    HW115662   0.953   4.505   1.528
 4921SOL    HW215663   1.046   4.610   1.445
 4922SOL     OW15664   1.422   2.772   5.188
 4922SOL    HW115665   1.490   2.836   5.150
 4922SOL    HW215666   1.470   2.696   5.232
 4923SOL     OW15667   4.771   0.931   1.381
 4923SOL    HW115668   4.763   0.996   1.305
 4923SOL    HW215669   4.829   0.854   1.353
 4924SOL     OW15670   0.689   4.079   4.582
 4924SOL    HW115671   0.767   4.032   4.622
 4924SOL    HW215672   0.605   4.053   4.630
 4925SOL     OW15673   4.629   6.089   0.017
 4925SOL    HW115674   4.614   6.129   0.108
 4925SOL    HW215675   4.711   6.031   0.020
 4926SOL     OW15676   4.858   2.626   1.939
 4926SOL    HW115677   4.816   2.550   1.988
 4926SOL    HW215678   4.788   2.674   1.886
 4927SOL     OW15679   3.375   2.891   3.668
 4927SOL    HW115680   3.456   2.900   3.727
 4927SOL    HW215681   3.404   2.866   3.576
 4928SOL     OW15682   0.461   5.870   6.977
 4928SOL    HW115683   0.481   5.967   6.975
 4928SOL    HW215684   0.375   5.853   6.928
 4929SOL     OW15685   1.113   5.173   4.262
 4929SOL    HW115686   1.195   5.133   4.304
 4929SOL    HW215687   1.130   5.190   4.165
 4930SOL     OW15688   0.413   2.027   0.793
 4930SOL    HW115689   0.417   1.930   0.817
 4930SOL    HW215690   0.429   2.083   0.874
 4931SOL     OW15691   0.117   0.678   0.184
 4931SOL    HW115692   0.029   0.683   0.137
 4931SOL    HW215693   0.181   0.625   0.129
 4932SOL     OW15694   2.890   2.171   1.440
 4932SOL    HW115695   2.885   2.087   1.495
 4932SOL    HW215696   2.869   2.250   1.498
 4933SOL     OW15697   2.586   1.073   4.047
 4933SOL    HW115698   2.586   1.147   3.979
 4933SOL    HW215699   2.493   1.044   4.064
 4934SOL     OW15700   1.101   6.029   4.631
 4934SOL    HW115701   1.071   5.934   4.629
 4934SOL    HW215702   1.024   6.089   4.612
 4935SOL     OW15703   1.302   0.813   0.507
 4935SOL    HW115704   1.250   0.898   0.501
 4935SOL    HW215705   1.254   0.747   0.564
 4936SOL     OW15706   3.965   5.495   1.042
 4936SOL    HW115707   3.897   5.564   1.067
 4936SOL    HW215708   3.944   5.409   1.089
 4937SOL     OW15709   0.668   2.748   5.932
 4937SOL    HW115710   0.668   2.721   6.029
 4937SOL    HW215711   0.695   2.844   5.925
 4938SOL     OW15712   3.449   4.467   1.601
 4938SOL    HW115713   3.481   4.516   1.682
 4938SOL    HW215714   3.370   4.515   1.562
 4939SOL     OW15715   1.615   1.657   1.712
 4939SOL    HW115716   1.602   1.573   1.764
 4939SOL    HW215717   1.571   1.648   1.623
 4940SOL     OW15718   0.419   2.980   4.310
 4940SOL    HW115719   0.500   2.924   4.297
 4940SOL    HW215720   0.367   2.945   4.388
 4941SOL     OW15721   3.910   2.446   5.338
 4941SOL    HW115722   3.830   2.502   5.316
 4941SOL    HW215723   3.991   2.485   5.292
 4942SOL     OW15724   5.729   2.040   4.000
 4942SOL    HW115725   5.761   2.128   4.033
 4942SOL    HW215726   5.638   2.021   4.036
 4943SOL     OW15727   5.868   3.054   6.429
 4943SOL    HW115728   5.911   3.143   6.408
 4943SOL    HW215729   5.890   2.989   6.356
 4944SOL     OW15730   1.465   5.549   1.125
 4944SOL    HW115731   1.454   5.505   1.214
 4944SOL    HW215732   1.544   5.610   1.128
 4945SOL     OW15733   1.908   0.894   5.236
 4945SOL    HW115734   1.940   0.809   5.193
 4945SOL    HW215735   1.954   0.906   5.324
 4946SOL     OW15736   2.007   5.233   0.149
 4946SOL    HW115737   1.996   5.319   0.199
 4946SOL    HW215738   2.097   5.229   0.107
 4947SOL     OW15739   1.751   0.772   1.545
 4947SOL    HW115740   1.826   0.797   1.484
 4947SOL    HW215741   1.702   0.855   1.572
 4948SOL     OW15742   1.360   2.433   1.718
 4948SOL    HW115743   1.423   2.425   1.641
 4948SOL    HW215744   1.366   2.524   1.758
 4949SOL     OW15745   6.659   3.504   0.272
 4949SOL    HW115746   6.677   3.547   0.183
 4949SOL    HW215747   6.561   3.501   0.289
 4950SOL     OW15748   2.126   4.209   5.239
 4950SOL    HW115749   2.139   4.142   5.165
 4950SOL    HW215750   2.208   4.267   5.245
 4951SOL     OW15751   5.183   5.697   3.255
 4951SOL    HW115752   5.086   5.688   3.236
 4951SOL    HW215753   5.208   5.632   3.328
 4952SOL     OW15754   0.731   6.225   5.701
 4952SOL    HW115755   0.705   6.129   5.695
 4952SOL    HW215756   0.658   6.282   5.664
 4953SOL     OW15757   1.351   2.264   4.639
 4953SOL    HW115758   1.445   2.290   4.614
 4953SOL    HW215759   1.311   2.211   4.565
 4954SOL     OW15760   3.082   4.101   4.865
 4954SOL    HW115761   3.045   4.194   4.856
 4954SOL    HW215762   3.039   4.055   4.943
 4955SOL     OW15763   3.326   5.788   7.009
 4955SOL    HW115764   3.264   5.723   0.037
 4955SOL    HW215765   3.337   5.869   0.051
 4956SOL     OW15766   2.483   6.849   4.869
 4956SOL    HW115767   2.500   6.944   4.842
 4956SOL    HW215768   2.433   6.802   4.797
 4957SOL     OW15769   6.547   4.620   0.011
 4957SOL    HW115770   6.479   4.690   7.006
 4957SOL    HW215771   6.541   4.546   6.960
 4958SOL     OW15772   2.721   6.580   0.305
 4958SOL    HW115773   2.632   6.611   0.273
 4958SOL    HW215774   2.790   6.597   0.234
 4959SOL     OW15775   0.401   3.315   2.203
 4959SOL    HW115776   0.406   3.220   2.172
 4959SOL    HW215777   0.486   3.362   2.179
 4960SOL     OW15778   4.136   5.776   4.257
 4960SOL    HW115779   4.053   5.831   4.266
 4960SOL    HW215780   4.204   5.826   4.204
 4961SOL     OW15781   3.617   1.149   0.686
 4961SOL    HW115782   3.601   1.051   0.688
 4961SOL    HW215783   3.579   1.191   0.768
 4962SOL     OW15784   0.905   4.331   1.251
 4962SOL    HW115785   0.957   4.409   1.216
 4962SOL    HW215786   0.968   4.263   1.288
 4963SOL     OW15787   0.881   4.030   6.263
 4963SOL    HW115788   0.914   3.940   6.234
 4963SOL    HW215789   0.893   4.095   6.189
 4964SOL     OW15790   3.031   6.985   4.859
 4964SOL    HW115791   3.115   6.946   4.822
 4964SOL    HW215792   3.053   0.041   4.924
 4965SOL     OW15793   1.486   6.344   2.735
 4965SOL    HW115794   1.474   6.438   2.765
 4965SOL    HW215795   1.466   6.282   2.812
 4966SOL     OW15796   3.761   5.913   4.208
 4966SOL    HW115797   3.716   5.847   4.148
 4966SOL    HW215798   3.765   5.876   4.301
 4967SOL     OW15799   4.113   4.759   5.120
 4967SOL    HW115800   4.151   4.851   5.110
 4967SOL    HW215801   4.176   4.692   5.080
 4968SOL     OW15802   0.210   1.813   4.030
 4968SOL    HW115803   0.113   1.816   4.052
 4968SOL    HW215804   0.253   1.737   4.078
 4969SOL     OW15805   0.760   6.015   2.892
 4969SOL    HW115806   0.701   6.095   2.899
 4969SOL    HW215807   0.705   5.934   2.873
 4970SOL     OW15808   1.887   1.421   1.675
 4970SOL    HW115809   1.857   1.409   1.770
 4970SOL    HW215810   1.810   1.453   1.620
 4971SOL     OW15811   6.429   6.430   2.935
 4971SOL    HW115812   6.343   6.466   2.900
 4971SOL    HW215813   6.412   6.346   2.986
 4972SOL     OW15814   1.736   4.125   1.302
 4972SOL    HW115815   1.651   4.174   1.323
 4972SOL    HW215816   1.716   4.028   1.289
 4973SOL     OW15817   0.170   0.664   1.013
 4973SOL    HW115818   0.234   0.687   1.087
 4973SOL    HW215819   0.173   0.566   0.996
 4974SOL     OW15820   3.628   4.996   4.953
 4974SOL    HW115821   3.616   4.974   4.856
 4974SOL    HW215822   3.713   4.954   4.986
 4975SOL     OW15823   6.165   3.203   0.603
 4975SOL    HW115824   6.075   3.175   0.637
 4975SOL    HW215825   6.160   3.296   0.566
 4976SOL     OW15826   1.425   6.590   4.363
 4976SOL    HW115827   1.403   6.542   4.447
 4976SOL    HW215828   1.484   6.533   4.306
 4977SOL     OW15829   2.554   5.181   6.413
 4977SOL    HW115830   2.633   5.228   6.376
 4977SOL    HW215831   2.583   5.109   6.476
 4978SOL     OW15832   5.123   4.726   5.051
 4978SOL    HW115833   5.215   4.704   5.018
 4978SOL    HW215834   5.115   4.698   5.147
 4979SOL     OW15835   1.731   6.511   6.264
 4979SOL    HW115836   1.802   6.552   6.206
 4979SOL    HW215837   1.682   6.584   6.312
 4980SOL     OW15838   6.052   4.116   3.007
 4980SOL    HW115839   5.990   4.042   3.030
 4980SOL    HW215840   6.144   4.079   2.990
 4981SOL     OW15841   3.720   4.933   1.999
 4981SOL    HW115842   3.780   4.890   1.931
 4981SOL    HW215843   3.630   4.890   1.995
 4982SOL     OW15844   4.570   1.131   6.764
 4982SOL    HW115845   4.550   1.041   6.725
 4982SOL    HW215846   4.485   1.184   6.771
 4983SOL     OW15847   6.891   5.314   2.827
 4983SOL    HW115848   6.972   5.365   2.796
 4983SOL    HW215849   6.810   5.351   2.783
 4984SOL     OW15850   4.894   4.583   2.825
 4984SOL    HW115851   4.943   4.496   2.830
 4984SOL    HW215852   4.886   4.622   2.917
 4985SOL     OW15853   5.962   5.499   2.998
 4985SOL    HW115854   5.933   5.442   3.075
 4985SOL    HW215855   5.894   5.571   2.984
 4986SOL     OW15856   1.169   5.159   2.055
 4986SOL    HW115857   1.227   5.149   2.136
 4986SOL    HW215858   1.128   5.071   2.032
 4987SOL     OW15859   0.864   0.555   2.021
 4987SOL    HW115860   0.944   0.521   2.071
 4987SOL    HW215861   0.840   0.492   1.948
 4988SOL     OW15862   6.046   7.000   3.186
 4988SOL    HW115863   5.997   6.926   3.138
 4988SOL    HW215864   5.995   0.008   3.269
 4989SOL     OW15865   4.130   1.358   2.454
 4989SOL    HW115866   4.169   1.282   2.505
 4989SOL    HW215867   4.055   1.398   2.506
 4990SOL     OW15868   4.677   1.736   5.413
 4990SOL    HW115869   4.765   1.776   5.387
 4990SOL    HW215870   4.663   1.748   5.511
 4991SOL     OW15871   0.700   5.421   5.222
 4991SOL    HW115872   0.664   5.336   5.185
 4991SOL    HW215873   0.674   5.429   5.318
 4992SOL     OW15874   6.811   1.634   3.657
 4992SOL    HW115875   6.897   1.586   3.640
 4992SOL    HW215876   6.794   1.700   3.584
 4993SOL     OW15877   4.325   6.153   4.551
 4993SOL    HW115878   4.338   6.071   4.495
 4993SOL    HW215879   4.413   6.186   4.584
 4994SOL     OW15880   2.993   5.370   6.080
 4994SOL    HW115881   2.979   5.316   5.997
 4994SOL    HW215882   2.915   5.430   6.093
 4995SOL     OW15883   0.785   0.823   4.823
 4995SOL    HW115884   0.858   0.790   4.763
 4995SOL    HW215885   0.698   0.782   4.795
 4996SOL     OW15886   6.627   1.233   4.553
 4996SOL    HW115887   6.654   1.196   4.642
 4996SOL    HW215888   6.547   1.291   4.564
 4997SOL     OW15889   3.115   1.959   1.658
 4997SOL    HW115890   3.046   1.891   1.634
 4997SOL    HW215891   3.202   1.934   1.614
 4998SOL     OW15892   0.958   2.967   4.020
 4998SOL    HW115893   1.014   3.014   4.089
 4998SOL    HW215894   0.861   2.984   4.038
 4999SOL     OW15895   0.817   3.921   4.750
 4999SOL    HW115896   0.755   3.874   4.813
 4999SOL    HW215897   0.856   3.855   4.686
 5000SOL     OW15898   2.960   5.883   3.479
 5000SOL    HW115899   2.992   5.969   3.519
 5000SOL    HW215900   3.009   5.864   3.394
 5001SOL     OW15901   1.119   5.434   2.606
 5001SOL    HW115902   1.208   5.472   2.631
 5001SOL    HW215903   1.052   5.507   2.598
 5002SOL     OW15904   0.830   3.625   2.974
 5002SOL    HW115905   0.835   3.671   3.063
 5002SOL    HW215906   0.905   3.558   2.968
 5003SOL     OW15907   4.115   6.145   3.720
 5003SOL    HW115908   4.055   6.207   3.772
 5003SOL    HW215909   4.110   6.168   3.623
 5004SOL     OW15910   2.775   6.038   6.457
 5004SOL    HW115911   2.762   6.109   6.526
 5004SOL    HW215912   2.873   6.016   6.451
 5005SOL     OW15913   2.944   2.982   6.101
 5005SOL    HW115914   2.930   3.021   6.010
 5005SOL    HW215915   3.011   2.907   6.096
 5006SOL     OW15916   5.150   1.625   1.928
 5006SOL    HW115917   5.164   1.710   1.979
 5006SOL    HW215918   5.147   1.644   1.830
 5007SOL     OW15919   6.299   0.362   1.660
 5007SOL    HW115920   6.327   0.430   1.728
 5007SOL    HW215921   6.291   0.406   1.570
 5008SOL     OW15922   6.350   6.738   1.724
 5008SOL    HW115923   6.442   6.704   1.707
 5008SOL    HW215924   6.296   6.667   1.770
 5009SOL     OW15925   1.429   2.282   0.570
 5009SOL    HW115926   1.414   2.327   0.658
 5009SOL    HW215927   1.360   2.314   0.504
 5010SOL     OW15928   3.889   2.665   0.735
 5010SOL    HW115929   3.907   2.574   0.771
 5010SOL    HW215930   3.792   2.674   0.712
 5011SOL     OW15931   2.100   3.738   6.819
 5011SOL    HW115932   2.188   3.689   6.816
 5011SOL    HW215933   2.115   3.830   6.856
 5012SOL     OW15934   5.877   1.684   5.687
 5012SOL    HW115935   5.843   1.726   5.603
 5012SOL    HW215936   5.869   1.585   5.681
 5013SOL     OW15937   6.154   0.051   5.773
 5013SOL    HW115938   6.076   7.011   5.801
 5013SOL    HW215939   6.230   7.009   5.747
 5014SOL     OW15940   6.306   3.093   1.741
 5014SOL    HW115941   6.398   3.130   1.760
 5014SOL    HW215942   6.294   3.083   1.642
 5015SOL     OW15943   5.676   0.083   4.291
 5015SOL    HW115944   5.695   0.164   4.346
 5015SOL    HW215945   5.750   0.017   4.303
 5016SOL     OW15946   1.132   3.239   4.842
 5016SOL    HW115947   1.104   3.151   4.805
 5016SOL    HW215948   1.228   3.235   4.869
 5017SOL     OW15949   0.640   2.462   1.149
 5017SOL    HW115950   0.738   2.475   1.136
 5017SOL    HW215951   0.604   2.536   1.206
 5018SOL     OW15952   0.728   5.381   1.724
 5018SOL    HW115953   0.780   5.424   1.650
 5018SOL    HW215954   0.696   5.452   1.787
 5019SOL     OW15955   1.501   5.365   5.259
 5019SOL    HW115956   1.593   5.371   5.218
 5019SOL    HW215957   1.503   5.299   5.334
 5020SOL     OW15958   0.412   6.868   4.539
 5020SOL    HW115959   0.422   6.967   4.532
 5020SOL    HW215960   0.391   6.830   4.449
 5021SOL     OW15961   1.877   0.912   0.938
 5021SOL    HW115962   1.889   0.997   0.888
 5021SOL    HW215963   1.962   0.859   0.936
 5022SOL     OW15964   0.490   3.180   1.494
 5022SOL    HW115965   0.489   3.150   1.590
 5022SOL    HW215966   0.499   3.100   1.435
 5023SOL     OW15967   0.570   4.266   1.897
 5023SOL    HW115968   0.549   4.364   1.900
 5023SOL    HW215969   0.638   4.244   1.967
 5024SOL     OW15970   5.317   3.840   1.384
 5024SOL    HW115971   5.242   3.782   1.355
 5024SOL    HW215972   5.318   3.847   1.484
 5025SOL     OW15973   4.107   1.319   3.956
 5025SOL    HW115974   4.191   1.340   3.907
 5025SOL    HW215975   4.083   1.395   4.015
 5026SOL     OW15976   5.796   6.185   4.880
 5026SOL    HW115977   5.741   6.268   4.867
 5026SOL    HW215978   5.871   6.205   4.943
 5027SOL     OW15979   5.076   0.608   0.066
 5027SOL    HW115980   5.157   0.651   0.106
 5027SOL    HW215981   5.097   0.514   0.041
 5028SOL     OW15982   7.015   2.363   2.532
 5028SOL    HW115983   0.032   2.456   2.519
 5028SOL    HW215984   6.967   2.332   2.449
 5029SOL     OW15985   6.440   2.555   2.101
 5029SOL    HW115986   6.530   2.542   2.061
 5029SOL    HW215987   6.407   2.647   2.078
 5030SOL     OW15988   6.966   5.036   6.397
 5030SOL    HW115989   6.932   4.947   6.426
 5030SOL    HW215990   7.006   5.029   6.305
 5031SOL     OW15991   0.081   0.857   5.305
 5031SOL    HW115992   0.049   0.886   5.396
 5031SOL    HW215993   0.123   0.935   5.259
 5032SOL     OW15994   3.718   2.810   5.515
 5032SOL    HW115995   3.691   2.759   5.432
 5032SOL    HW215996   3.817   2.810   5.522
 5033SOL     OW15997   1.880   1.140   0.766
 5033SOL    HW115998   1.839   1.231   0.780
 5033SOL    HW215999   1.915   1.134   0.673
 5034SOL     OW16000   4.648   6.123   3.949
 5034SOL    HW116001   4.586   6.150   4.022
 5034SOL    HW216002   4.594   6.094   3.869
 5035SOL     OW16003   0.558   4.487   4.557
 5035SOL    HW116004   0.571   4.504   4.459
 5035SOL    HW216005   0.647   4.483   4.603
 5036SOL     OW16006   6.221   3.734   5.381
 5036SOL    HW116007   6.298   3.726   5.318
 5036SOL    HW216008   6.161   3.807   5.351
 5037SOL     OW16009   4.551   4.543   1.382
 5037SOL    HW116010   4.633   4.551   1.440
 5037SOL    HW216011   4.508   4.454   1.397
 5038SOL     OW16012   3.267   3.521   4.297
 5038SOL    HW116013   3.328   3.520   4.376
 5038SOL    HW216014   3.309   3.471   4.222
 5039SOL     OW16015   2.024   3.189   6.225
 5039SOL    HW116016   1.951   3.135   6.185
 5039SOL    HW216017   2.036   3.273   6.172
 5040SOL     OW16018   1.277   4.830   5.441
 5040SOL    HW116019   1.336   4.890   5.494
 5040SOL    HW216020   1.186   4.871   5.432
 5041SOL     OW16021   0.655   3.425   2.104
 5041SOL    HW116022   0.742   3.467   2.128
 5041SOL    HW216023   0.669   3.329   2.082
 5042SOL     OW16024   0.074   3.988   6.225
 5042SOL    HW116025   0.172   4.005   6.212
 5042SOL    HW216026   0.027   4.075   6.241
 5043SOL     OW16027   4.026   0.601   0.389
 5043SOL    HW116028   4.092   0.672   0.414
 5043SOL    HW216029   4.043   0.519   0.443
 5044SOL     OW16030   6.867   5.542   0.719
 5044SOL    HW116031   6.876   5.456   0.669
 5044SOL    HW216032   6.803   5.602   0.670
 5045SOL     OW16033   6.134   4.258   6.520
 5045SOL    HW116034   6.094   4.339   6.561
 5045SOL    HW216035   6.232   4.271   6.508
 5046SOL     OW16036   3.415   3.480   3.695
 5046SOL    HW116037   3.397   3.386   3.665
 5046SOL    HW216038   3.394   3.543   3.620
 5047SOL     OW16039   1.768   3.609   2.964
 5047SOL    HW116040   1.769   3.679   3.036
 5047SOL    HW216041   1.859   3.601   2.924
 5048SOL     OW16042   1.933   1.166   5.526
 5048SOL    HW116043   1.931   1.251   5.579
 5048SOL    HW216044   1.840   1.142   5.499
 5049SOL     OW16045   6.280   0.698   5.818
 5049SOL    HW116046   6.216   0.709   5.894
 5049SOL    HW216047   6.275   0.604   5.784
 5050SOL     OW16048   1.952   1.180   0.148
 5050SOL    HW116049   1.966   1.236   0.067
 5050SOL    HW216050   1.938   1.240   0.228
 5051SOL     OW16051   3.617   4.548   1.258
 5051SOL    HW116052   3.548   4.499   1.312
 5051SOL    HW216053   3.675   4.482   1.210
 5052SOL     OW16054   3.476   2.279   5.704
 5052SOL    HW116055   3.470   2.191   5.657
 5052SOL    HW216056   3.562   2.323   5.681
 5053SOL     OW16057   0.419   5.087   2.491
 5053SOL    HW116058   0.405   5.084   2.392
 5053SOL    HW216059   0.517   5.090   2.510
 5054SOL     OW16060   3.984   4.596   5.311
 5054SOL    HW116061   4.040   4.665   5.265
 5054SOL    HW216062   3.898   4.638   5.342
 5055SOL     OW16063   6.927   3.614   6.228
 5055SOL    HW116064   6.984   3.542   6.268
 5055SOL    HW216065   6.929   3.695   6.287
 5056SOL     OW16066   5.366   3.932   4.964
 5056SOL    HW116067   5.298   3.859   4.973
 5056SOL    HW216068   5.360   3.972   4.873
 5057SOL     OW16069   1.105   6.707   2.013
 5057SOL    HW116070   1.076   6.755   1.930
 5057SOL    HW216071   1.026   6.695   2.073
 5058SOL     OW16072   2.992   4.974   6.648
 5058SOL    HW116073   3.082   5.010   6.625
 5058SOL    HW216074   2.984   4.965   6.748
 5059SOL     OW16075   0.295   0.020   2.833
 5059SOL    HW116076   0.299   7.007   2.929
 5059SOL    HW216077   0.291   6.956   2.774
 5060SOL     OW16078   6.365   1.852   6.128
 5060SOL    HW116079   6.362   1.837   6.227
 5060SOL    HW216080   6.278   1.824   6.087
 5061SOL     OW16081   4.311   2.960   0.159
 5061SOL    HW116082   4.284   3.035   0.220
 5061SOL    HW216083   4.270   2.875   0.191
 5062SOL     OW16084   0.498   6.887   1.544
 5062SOL    HW116085   0.439   6.967   1.554
 5062SOL    HW216086   0.559   6.880   1.622
 5063SOL     OW16087   0.566   6.822   1.870
 5063SOL    HW116088   0.642   6.881   1.895
 5063SOL    HW216089   0.519   6.791   1.953
 5064SOL     OW16090   4.604   2.999   0.624
 5064SOL    HW116091   4.635   2.915   0.668
 5064SOL    HW216092   4.669   3.073   0.644
 5065SOL     OW16093   2.541   6.772   5.308
 5065SOL    HW116094   2.616   6.712   5.336
 5065SOL    HW216095   2.579   6.852   5.261
 5066SOL     OW16096   5.488   4.042   1.570
 5066SOL    HW116097   5.396   4.064   1.601
 5066SOL    HW216098   5.527   4.121   1.521
 5067SOL     OW16099   5.509   1.125   0.028
 5067SOL    HW116100   5.508   1.132   6.944
 5067SOL    HW216101   5.415   1.133   0.062
 5068SOL     OW16102   3.294   4.635   0.638
 5068SOL    HW116103   3.251   4.640   0.728
 5068SOL    HW216104   3.225   4.610   0.570
 5069SOL     OW16105   0.568   4.697   3.094
 5069SOL    HW116106   0.621   4.664   3.016
 5069SOL    HW216107   0.472   4.707   3.067
 5070SOL     OW16108   5.035   3.275   4.225
 5070SOL    HW116109   5.072   3.328   4.302
 5070SOL    HW216110   5.069   3.313   4.139
 5071SOL     OW16111   4.317   2.078   5.551
 5071SOL    HW116112   4.394   2.061   5.612
 5071SOL    HW216113   4.349   2.086   5.457
 5072SOL     OW16114   0.211   4.723   0.871
 5072SOL    HW116115   0.138   4.678   0.923
 5072SOL    HW216116   0.178   4.810   0.835
 5073SOL     OW16117   6.360   6.800   2.236
 5073SOL    HW116118   6.298   6.807   2.315
 5073SOL    HW216119   6.306   6.789   2.152
 5074SOL     OW16120   2.849   4.057   6.700
 5074SOL    HW116121   2.834   3.963   6.731
 5074SOL    HW216122   2.947   4.070   6.680
 5075SOL     OW16123   0.175   6.149   5.618
 5075SOL    HW116124   0.229   6.129   5.536
 5075SOL    HW216125   0.078   6.134   5.598
 5076SOL     OW16126   3.046   0.512   0.895
 5076SOL    HW116127   3.083   0.494   0.803
 5076SOL    HW216128   2.988   0.436   0.923
 5077SOL     OW16129   1.605   2.615   3.738
 5077SOL    HW116130   1.640   2.695   3.787
 5077SOL    HW216131   1.674   2.582   3.674
 5078SOL     OW16132   1.560   1.893   4.511
 5078SOL    HW116133   1.646   1.901   4.562
 5078SOL    HW216134   1.493   1.844   4.567
 5079SOL     OW16135   3.446   4.935   5.553
 5079SOL    HW116136   3.359   4.945   5.504
 5079SOL    HW216137   3.436   4.867   5.625
 5080SOL     OW16138   5.711   6.865   5.019
 5080SOL    HW116139   5.650   6.901   4.948
 5080SOL    HW216140   5.752   6.779   4.988
 5081SOL     OW16141   3.157   3.412   3.378
 5081SOL    HW116142   3.114   3.436   3.290
 5081SOL    HW216143   3.163   3.494   3.434
 5082SOL     OW16144   5.313   5.887   5.902
 5082SOL    HW116145   5.261   5.804   5.882
 5082SOL    HW216146   5.250   5.965   5.910
 5083SOL     OW16147   1.326   6.426   2.051
 5083SOL    HW116148   1.299   6.497   2.115
 5083SOL    HW216149   1.250   6.362   2.037
 5084SOL     OW16150   1.407   5.358   3.955
 5084SOL    HW116151   1.401   5.434   3.891
 5084SOL    HW216152   1.501   5.350   3.989
 5085SOL     OW16153   5.734   1.292   6.731
 5085SOL    HW116154   5.679   1.350   6.791
 5085SOL    HW216155   5.796   1.349   6.677
 5086SOL     OW16156   6.477   4.740   3.605
 5086SOL    HW116157   6.508   4.653   3.644
 5086SOL    HW216158   6.401   4.776   3.658
 5087SOL     OW16159   6.410   5.704   4.927
 5087SOL    HW116160   6.400   5.651   4.844
 5087SOL    HW216161   6.320   5.726   4.965
 5088SOL     OW16162   6.058   0.490   5.485
 5088SOL    HW116163   6.013   0.401   5.494
 5088SOL    HW216164   6.115   0.490   5.403
 5089SOL     OW16165   6.014   3.073   2.751
 5089SOL    HW116166   6.029   3.113   2.661
 5089SOL    HW216167   6.097   3.025   2.781
 5090SOL     OW16168   2.228   4.973   1.142
 5090SOL    HW116169   2.245   4.949   1.238
 5090SOL    HW216170   2.215   4.890   1.088
 5091SOL     OW16171   1.303   6.200   2.555
 5091SOL    HW116172   1.298   6.253   2.470
 5091SOL    HW216173   1.331   6.259   2.630
 5092SOL     OW16174   3.652   2.110   1.009
 5092SOL    HW116175   3.724   2.042   1.020
 5092SOL    HW216176   3.665   2.159   0.923
 5093SOL     OW16177   1.428   1.783   2.452
 5093SOL    HW116178   1.468   1.827   2.372
 5093SOL    HW216179   1.368   1.847   2.500
 5094SOL     OW16180   0.988   6.196   4.918
 5094SOL    HW116181   0.958   6.158   5.005
 5094SOL    HW216182   0.975   6.128   4.846
 5095SOL     OW16183   2.072   0.409   5.037
 5095SOL    HW116184   2.139   0.335   5.046
 5095SOL    HW216185   1.993   0.375   4.985
 5096SOL     OW16186   5.019   3.525   0.867
 5096SOL    HW116187   4.982   3.592   0.931
 5096SOL    HW216188   5.115   3.545   0.850
 5097SOL     OW16189   1.605   6.805   5.703
 5097SOL    HW116190   1.507   6.786   5.695
 5097SOL    HW216191   1.631   6.803   5.800
 5098SOL     OW16192   0.260   1.588   2.456
 5098SOL    HW116193   0.205   1.619   2.534
 5098SOL    HW216194   0.353   1.625   2.464
 5099SOL     OW16195   1.021   0.018   5.211
 5099SOL    HW116196   1.024   0.094   5.146
 5099SOL    HW216197   0.940   0.027   5.269
 5100SOL     OW16198   5.698   6.259   0.448
 5100SOL    HW116199   5.764   6.320   0.491
 5100SOL    HW216200   5.702   6.269   0.349
 5101SOL     OW16201   4.346   6.428   6.869
 5101SOL    HW116202   4.424   6.483   6.900
 5101SOL    HW216203   4.341   6.430   6.770
 5102SOL     OW16204   4.434   0.079   5.192
 5102SOL    HW116205   4.472   0.158   5.240
 5102SOL    HW216206   4.384   0.022   5.257
 5103SOL     OW16207   0.498   1.002   4.147
 5103SOL    HW116208   0.567   1.054   4.196
 5103SOL    HW216209   0.532   0.978   4.056
 5104SOL     OW16210   1.771   1.011   1.928
 5104SOL    HW116211   1.802   1.070   1.853
 5104SOL    HW216212   1.743   0.922   1.891
 5105SOL     OW16213   3.639   3.744   6.358
 5105SOL    HW116214   3.662   3.820   6.419
 5105SOL    HW216215   3.593   3.779   6.277
 5106SOL     OW16216   3.582   0.036   2.744
 5106SOL    HW116217   3.518   0.020   2.819
 5106SOL    HW216218   3.545   7.013   2.660
 5107SOL     OW16219   2.542   0.001   6.153
 5107SOL    HW116220   2.523   0.047   6.067
 5107SOL    HW216221   2.456   6.997   6.200
 5108SOL     OW16222   2.904   3.519   4.064
 5108SOL    HW116223   2.808   3.541   4.050
 5108SOL    HW216224   2.946   3.497   3.976
 5109SOL     OW16225   0.730   1.044   1.050
 5109SOL    HW116226   0.642   1.092   1.047
 5109SOL    HW216227   0.791   1.091   1.114
 5110SOL     OW16228   1.809   5.967   5.329
 5110SOL    HW116229   1.780   6.058   5.299
 5110SOL    HW216230   1.728   5.908   5.336
 5111SOL     OW16231   1.512   1.245   6.566
 5111SOL    HW116232   1.545   1.156   6.536
 5111SOL    HW216233   1.412   1.248   6.559
 5112SOL     OW16234   0.405   6.287   4.061
 5112SOL    HW116235   0.476   6.284   4.132
 5112SOL    HW216236   0.374   6.194   4.042
 5113SOL     OW16237   1.148   0.552   0.226
 5113SOL    HW116238   1.101   0.612   0.291
 5113SOL    HW216239   1.210   0.607   0.169
 5114SOL     OW16240   3.580   4.866   6.692
 5114SOL    HW116241   3.606   4.932   6.621
 5114SOL    HW216242   3.494   4.894   6.733
 5115SOL     OW16243   1.407   3.491   5.594
 5115SOL    HW116244   1.402   3.405   5.543
 5115SOL    HW216245   1.442   3.473   5.685
 5116SOL     OW16246   5.901   4.832   0.290
 5116SOL    HW116247   5.869   4.811   0.197
 5116SOL    HW216248   5.902   4.748   0.344
 5117SOL     OW16249   2.350   4.449   4.713
 5117SOL    HW116250   2.270   4.461   4.654
 5117SOL    HW216251   2.334   4.496   4.800
 5118SOL     OW16252   4.039   5.784   0.017
 5118SOL    HW116253   4.010   5.789   6.938
 5118SOL    HW216254   4.066   5.875   0.048
 5119SOL     OW16255   5.965   0.544   1.990
 5119SOL    HW116256   5.941   0.640   1.997
 5119SOL    HW216257   6.059   0.531   2.022
 5120SOL     OW16258   5.002   1.334   2.476
 5120SOL    HW116259   4.996   1.364   2.381
 5120SOL    HW216260   4.921   1.366   2.527
 5121SOL     OW16261   0.078   3.546   5.729
 5121SOL    HW116262   0.147   3.586   5.668
 5121SOL    HW216263   7.008   3.595   5.718
 5122SOL     OW16264   2.075   0.048   3.648
 5122SOL    HW116265   2.149   0.104   3.686
 5122SOL    HW216266   2.112   6.978   3.616
 5123SOL     OW16267   4.672   4.295   2.863
 5123SOL    HW116268   4.643   4.270   2.955
 5123SOL    HW216269   4.769   4.277   2.853
 5124SOL     OW16270   3.036   6.685   6.800
 5124SOL    HW116271   2.936   6.695   6.797
 5124SOL    HW216272   3.062   6.629   6.878
 5125SOL     OW16273   6.874   3.133   4.295
 5125SOL    HW116274   6.839   3.103   4.206
 5125SOL    HW216275   6.813   3.203   4.333
 5126SOL     OW16276   6.180   4.745   5.993
 5126SOL    HW116277   6.163   4.651   5.964
 5126SOL    HW216278   6.125   4.807   5.937
 5127SOL     OW16279   5.485   3.333   6.693
 5127SOL    HW116280   5.436   3.248   6.708
 5127SOL    HW216281   5.465   3.397   6.767
 5128SOL     OW16282   0.120   0.637   6.534
 5128SOL    HW116283   0.065   0.622   6.452
 5128SOL    HW216284   0.064   0.682   6.604
 5129SOL     OW16285   4.499   1.599   2.244
 5129SOL    HW116286   4.569   1.565   2.181
 5129SOL    HW216287   4.532   1.590   2.338
 5130SOL     OW16288   1.183   5.221   3.996
 5130SOL    HW116289   1.171   5.177   3.908
 5130SOL    HW216290   1.272   5.268   3.998
 5131SOL     OW16291   3.063   5.157   3.068
 5131SOL    HW116292   3.122   5.233   3.093
 5131SOL    HW216293   3.085   5.126   2.975
 5132SOL     OW16294   3.805   1.589   0.119
 5132SOL    HW116295   3.852   1.503   0.141
 5132SOL    HW216296   3.708   1.581   0.144
 5133SOL     OW16297   4.229   4.704   6.359
 5133SOL    HW116298   4.239   4.659   6.448
 5133SOL    HW216299   4.230   4.634   6.287
 5134SOL     OW16300   6.656   6.377   1.543
 5134SOL    HW116301   6.688   6.319   1.618
 5134SOL    HW216302   6.618   6.320   1.470
 5135SOL     OW16303   6.052   3.205   2.039
 5135SOL    HW116304   5.997   3.244   1.965
 5135SOL    HW216305   5.990   3.174   2.112
 5136SOL     OW16306   0.799   0.793   5.989
 5136SOL    HW116307   0.708   0.752   5.986
 5136SOL    HW216308   0.841   0.787   5.898
 5137SOL     OW16309   5.449   1.246   5.347
 5137SOL    HW116310   5.546   1.248   5.321
 5137SOL    HW216311   5.433   1.172   5.412
 5138SOL     OW16312   3.517   2.918   4.453
 5138SOL    HW116313   3.430   2.886   4.489
 5138SOL    HW216314   3.528   3.015   4.475
 5139SOL     OW16315   1.687   0.130   4.744
 5139SOL    HW116316   1.621   0.165   4.678
 5139SOL    HW216317   1.780   0.149   4.712
 5140SOL     OW16318   4.423   2.450   6.409
 5140SOL    HW116319   4.389   2.475   6.319
 5140SOL    HW216320   4.350   2.405   6.461
 5141SOL     OW16321   6.603   2.857   1.896
 5141SOL    HW116322   6.519   2.829   1.943
 5141SOL    HW216323   6.670   2.890   1.963
 5142SOL     OW16324   6.796   0.061   2.662
 5142SOL    HW116325   6.889   0.086   2.689
 5142SOL    HW216326   6.733   0.136   2.683
 5143SOL     OW16327   0.578   5.037   4.282
 5143SOL    HW116328   0.600   5.093   4.362
 5143SOL    HW216329   0.639   5.061   4.207
 5144SOL     OW16330   2.405   3.158   6.343
 5144SOL    HW116331   2.365   3.224   6.280
 5144SOL    HW216332   2.334   3.095   6.376
 5145SOL     OW16333   2.820   6.436   6.988
 5145SOL    HW116334   2.917   6.455   7.001
 5145SOL    HW216335   2.776   6.516   6.949
 5146SOL     OW16336   5.313   5.060   6.004
 5146SOL    HW116337   5.404   5.022   5.994
 5146SOL    HW216338   5.269   5.023   6.086
 5147SOL     OW16339   4.669   2.602   3.546
 5147SOL    HW116340   4.659   2.627   3.642
 5147SOL    HW216341   4.586   2.557   3.514
 5148SOL     OW16342   0.640   6.656   1.148
 5148SOL    HW116343   0.580   6.721   1.194
 5148SOL    HW216344   0.723   6.642   1.202
 5149SOL     OW16345   5.637   4.500   3.212
 5149SOL    HW116346   5.710   4.448   3.168
 5149SOL    HW216347   5.550   4.452   3.201
 5150SOL     OW16348   0.668   5.741   4.105
 5150SOL    HW116349   0.695   5.659   4.053
 5150SOL    HW216350   0.643   5.714   4.198
 5151SOL     OW16351   5.686   4.688   1.451
 5151SOL    HW116352   5.609   4.752   1.456
 5151SOL    HW216353   5.721   4.672   1.544
 5152SOL     OW16354   1.003   1.131   6.253
 5152SOL    HW116355   0.914   1.089   6.238
 5152SOL    HW216356   1.055   1.132   6.167
 5153SOL     OW16357   0.841   1.841   1.017
 5153SOL    HW116358   0.887   1.816   0.932
 5153SOL    HW216359   0.766   1.778   1.034
 5154SOL     OW16360   0.228   2.512   6.855
 5154SOL    HW116361   0.210   2.483   6.949
 5154SOL    HW216362   0.182   2.598   6.837
 5155SOL     OW16363   1.600   1.363   0.865
 5155SOL    HW116364   1.603   1.321   0.956
 5155SOL    HW216365   1.666   1.438   0.860
 5156SOL     OW16366   5.202   5.166   5.626
 5156SOL    HW116367   5.197   5.207   5.535
 5156SOL    HW216368   5.233   5.234   5.691
 5157SOL     OW16369   4.111   0.185   1.771
 5157SOL    HW116370   4.204   0.168   1.738
 5157SOL    HW216371   4.067   0.254   1.713
 5158SOL     OW16372   2.747   1.600   2.345
 5158SOL    HW116373   2.796   1.523   2.305
 5158SOL    HW216374   2.649   1.594   2.322
 5159SOL     OW16375   6.393   3.003   5.467
 5159SOL    HW116376   6.406   2.962   5.377
 5159SOL    HW216377   6.320   2.955   5.515
 5160SOL     OW16378   6.820   6.356   3.602
 5160SOL    HW116379   6.833   6.446   3.644
 5160SOL    HW216380   6.726   6.326   3.618
 5161SOL     OW16381   0.994   3.487   0.278
 5161SOL    HW116382   0.919   3.453   0.335
 5161SOL    HW216383   1.078   3.492   0.332
 5162SOL     OW16384   6.844   6.507   3.025
 5162SOL    HW116385   6.933   6.475   3.056
 5162SOL    HW216386   6.854   6.594   2.976
 5163SOL     OW16387   2.993   6.919   2.416
 5163SOL    HW116388   2.909   6.971   2.431
 5163SOL    HW216389   3.072   6.972   2.447
 5164SOL     OW16390   3.462   3.459   0.923
 5164SOL    HW116391   3.449   3.470   0.825
 5164SOL    HW216392   3.554   3.490   0.947
 5165SOL     OW16393   1.422   4.627   6.739
 5165SOL    HW116394   1.340   4.682   6.756
 5165SOL    HW216395   1.395   4.537   6.704
 5166SOL     OW16396   1.734   5.761   1.801
 5166SOL    HW116397   1.661   5.693   1.795
 5166SOL    HW216398   1.717   5.821   1.879
 5167SOL     OW16399   4.861   2.323   5.101
 5167SOL    HW116400   4.785   2.388   5.106
 5167SOL    HW216401   4.902   2.326   5.010
 5168SOL     OW16402   4.557   2.264   2.493
 5168SOL    HW116403   4.476   2.312   2.526
 5168SOL    HW216404   4.551   2.254   2.394
 5169SOL     OW16405   3.912   6.951   3.367
 5169SOL    HW116406   3.874   6.869   3.325
 5169SOL    HW216407   3.963   6.927   3.449
 5170SOL     OW16408   0.682   3.184   6.244
 5170SOL    HW116409   0.776   3.213   6.225
 5170SOL    HW216410   0.676   3.149   6.337
 5171SOL     OW16411   2.054   5.625   4.986
 5171SOL    HW116412   2.071   5.696   5.054
 5171SOL    HW216413   1.967   5.645   4.939
 5172SOL     OW16414   0.002   5.565   3.733
 5172SOL    HW116415   0.066   5.562   3.656
 5172SOL    HW216416   6.957   5.643   3.722
 5173SOL     OW16417   4.786   3.918   5.707
 5173SOL    HW116418   4.746   3.844   5.654
 5173SOL    HW216419   4.738   4.004   5.687
 5174SOL     OW16420   2.852   6.504   3.248
 5174SOL    HW116421   2.842   6.503   3.149
 5174SOL    HW216422   2.808   6.424   3.288
 5175SOL     OW16423   2.742   4.357   6.884
 5175SOL    HW116424   2.796   4.420   6.939
 5175SOL    HW216425   2.695   4.407   6.811
 5176SOL     OW16426   5.516   5.494   0.643
 5176SOL    HW116427   5.564   5.580   0.625
 5176SOL    HW216428   5.523   5.434   0.563
 5177SOL     OW16429   5.362   0.865   6.842
 5177SOL    HW116430   5.347   0.766   6.833
 5177SOL    HW216431   5.429   0.881   6.914
 5178SOL     OW16432   1.129   3.947   1.850
 5178SOL    HW116433   1.157   3.862   1.805
 5178SOL    HW216434   1.199   4.017   1.837
 5179SOL     OW16435   6.023   4.345   2.870
 5179SOL    HW116436   6.049   4.270   2.932
 5179SOL    HW216437   6.103   4.401   2.851
 5180SOL     OW16438   2.260   7.014   2.143
 5180SOL    HW116439   2.339   6.982   2.090
 5180SOL    HW216440   2.250   6.957   2.225
 5181SOL     OW16441   0.709   0.055   5.949
 5181SOL    HW116442   0.745   7.002   6.010
 5181SOL    HW216443   0.629   0.098   5.989
 5182SOL     OW16444   3.681   5.426   3.110
 5182SOL    HW116445   3.612   5.498   3.121
 5182SOL    HW216446   3.659   5.373   3.027
 5183SOL     OW16447   4.430   1.620   3.795
 5183SOL    HW116448   4.403   1.531   3.833
 5183SOL    HW216449   4.425   1.689   3.867
 5184SOL     OW16450   2.307   1.019   4.078
 5184SOL    HW116451   2.258   1.007   3.992
 5184SOL    HW216452   2.307   1.116   4.103
 5185SOL     OW16453   6.144   0.932   1.656
 5185SOL    HW116454   6.077   0.929   1.581
 5185SOL    HW216455   6.102   0.976   1.735
 5186SOL     OW16456   6.632   3.656   6.337
 5186SOL    HW116457   6.628   3.561   6.305
 5186SOL    HW216458   6.726   3.678   6.362
 5187SOL     OW16459   2.146   4.870   5.059
 5187SOL    HW116460   2.160   4.799   4.990
 5187SOL    HW216461   2.090   4.943   5.021
 5188SOL     OW16462   6.604   6.911   2.519
 5188SOL    HW116463   6.592   6.918   2.420
 5188SOL    HW216464   6.538   6.970   2.565
 5189SOL     OW16465   4.996   6.838   5.945
 5189SOL    HW116466   4.900   6.818   5.964
 5189SOL    HW216467   5.006   6.934   5.919
 5190SOL     OW16468   1.691   3.871   1.277
 5190SOL    HW116469   1.724   3.790   1.328
 5190SOL    HW216470   1.635   3.841   1.200
 5191SOL     OW16471   3.430   5.096   2.276
 5191SOL    HW116472   3.369   5.174   2.261
 5191SOL    HW216473   3.411   5.025   2.208
 5192SOL     OW16474   2.280   4.907   2.367
 5192SOL    HW116475   2.292   5.003   2.341
 5192SOL    HW216476   2.367   4.870   2.400
 5193SOL     OW16477   6.093   0.606   6.710
 5193SOL    HW116478   6.076   0.606   6.809
 5193SOL    HW216479   6.057   0.521   6.671
 5194SOL     OW16480   4.830   2.320   6.670
 5194SOL    HW116481   4.745   2.349   6.626
 5194SOL    HW216482   4.906   2.375   6.635
 5195SOL     OW16483   6.716   0.538   4.900
 5195SOL    HW116484   6.732   0.449   4.856
 5195SOL    HW216485   6.618   0.550   4.916
 5196SOL     OW16486   5.684   6.132   2.650
 5196SOL    HW116487   5.598   6.168   2.685
 5196SOL    HW216488   5.669   6.043   2.608
 5197SOL     OW16489   1.216   4.099   5.925
 5197SOL    HW116490   1.123   4.065   5.937
 5197SOL    HW216491   1.251   4.131   6.013
 5198SOL     OW16492   5.367   5.504   2.510
 5198SOL    HW116493   5.455   5.503   2.464
 5198SOL    HW216494   5.324   5.414   2.503
 5199SOL     OW16495   6.783   4.937   1.108
 5199SOL    HW116496   6.842   4.858   1.127
 5199SOL    HW216497   6.719   4.914   1.035
 5200SOL     OW16498   0.487   3.763   5.376
 5200SOL    HW116499   0.472   3.840   5.437
 5200SOL    HW216500   0.584   3.737   5.377
 5201SOL     OW16501   1.666   5.355   3.994
 5201SOL    HW116502   1.697   5.260   3.985
 5201SOL    HW216503   1.707   5.411   3.922
 5202SOL     OW16504   6.761   4.056   0.652
 5202SOL    HW116505   6.846   4.014   0.685
 5202SOL    HW216506   6.722   4.114   0.724
 5203SOL     OW16507   1.094   2.579   6.848
 5203SOL    HW116508   1.176   2.606   6.898
 5203SOL    HW216509   1.040   2.660   6.826
 5204SOL     OW16510   4.467   5.209   7.009
 5204SOL    HW116511   4.464   5.295   6.959
 5204SOL    HW216512   4.375   5.172   0.001
 5205SOL     OW16513   1.711   0.195   2.175
 5205SOL    HW116514   1.789   0.253   2.200
 5205SOL    HW216515   1.658   0.240   2.102
 5206SOL     OW16516   0.681   4.403   6.781
 5206SOL    HW116517   0.640   4.376   6.868
 5206SOL    HW216518   0.757   4.342   6.760
 5207SOL     OW16519   1.384   5.132   4.369
 5207SOL    HW116520   1.428   5.098   4.285
 5207SOL    HW216521   1.434   5.211   4.403
 5208SOL     OW16522   3.842   1.214   0.310
 5208SOL    HW116523   3.935   1.216   0.272
 5208SOL    HW216524   3.777   1.192   0.238
 5209SOL     OW16525   6.102   5.774   3.442
 5209SOL    HW116526   6.059   5.767   3.352
 5209SOL    HW216527   6.187   5.825   3.434
 5210SOL     OW16528   5.201   4.756   4.086
 5210SOL    HW116529   5.262   4.818   4.037
 5210SOL    HW216530   5.106   4.775   4.060
 5211SOL     OW16531   3.587   3.186   3.672
 5211SOL    HW116532   3.610   3.088   3.667
 5211SOL    HW216533   3.534   3.211   3.591
 5212SOL     OW16534   0.750   2.163   0.859
 5212SOL    HW116535   0.660   2.205   0.848
 5212SOL    HW216536   0.770   2.152   0.957
 5213SOL     OW16537   4.845   2.514   5.778
 5213SOL    HW116538   4.858   2.457   5.860
 5213SOL    HW216539   4.879   2.606   5.795
 5214SOL     OW16540   5.431   1.760   5.824
 5214SOL    HW116541   5.401   1.680   5.875
 5214SOL    HW216542   5.445   1.837   5.887
 5215SOL     OW16543   4.777   4.938   3.276
 5215SOL    HW116544   4.733   4.983   3.198
 5215SOL    HW216545   4.709   4.919   3.346
 5216SOL     OW16546   4.828   5.062   0.592
 5216SOL    HW116547   4.753   5.078   0.528
 5216SOL    HW216548   4.861   4.968   0.581
 5217SOL     OW16549   3.300   5.406   3.858
 5217SOL    HW116550   3.313   5.331   3.922
 5217SOL    HW216551   3.297   5.493   3.908
 5218SOL     OW16552   1.336   6.534   3.582
 5218SOL    HW116553   1.343   6.602   3.655
 5218SOL    HW216554   1.324   6.580   3.494
 5219SOL     OW16555   3.383   6.945   6.472
 5219SOL    HW116556   3.338   6.989   6.550
 5219SOL    HW216557   3.377   6.846   6.483
 5220SOL     OW16558   0.331   6.147   2.701
 5220SOL    HW116559   0.236   6.127   2.678
 5220SOL    HW216560   0.386   6.064   2.690
 5221SOL     OW16561   5.682   0.961   4.495
 5221SOL    HW116562   5.621   0.942   4.572
 5221SOL    HW216563   5.686   1.060   4.481
 5222SOL     OW16564   1.841   0.604   3.639
 5222SOL    HW116565   1.894   0.673   3.689
 5222SOL    HW216566   1.886   0.584   3.552
 5223SOL     OW16567   4.925   0.609   1.578
 5223SOL    HW116568   4.928   0.638   1.483
 5223SOL    HW216569   4.837   0.566   1.598
 5224SOL     OW16570   6.402   1.806   2.689
 5224SOL    HW116571   6.418   1.737   2.619
 5224SOL    HW216572   6.406   1.897   2.648
 5225SOL     OW16573   6.294   6.183   4.118
 5225SOL    HW116574   6.307   6.248   4.193
 5225SOL    HW216575   6.298   6.231   4.031
 5226SOL     OW16576   0.816   6.734   4.099
 5226SOL    HW116577   0.891   6.683   4.141
 5226SOL    HW216578   0.746   6.671   4.066
 5227SOL     OW16579   6.341   4.679   3.342
 5227SOL    HW116580   6.382   4.590   3.318
 5227SOL    HW216581   6.407   4.733   3.394
 5228SOL     OW16582   5.576   1.717   0.546
 5228SOL    HW116583   5.567   1.666   0.631
 5228SOL    HW216584   5.632   1.664   0.481
 5229SOL     OW16585   1.270   3.667   6.048
 5229SOL    HW116586   1.247   3.602   6.120
 5229SOL    HW216587   1.351   3.720   6.074
 5230SOL     OW16588   0.184   0.235   0.297
 5230SOL    HW116589   0.177   0.175   0.377
 5230SOL    HW216590   0.178   0.331   0.327
 5231SOL     OW16591   3.965   3.364   4.009
 5231SOL    HW116592   3.907   3.380   3.930
 5231SOL    HW216593   3.942   3.275   4.050
 5232SOL     OW16594   4.575   2.347   0.067
 5232SOL    HW116595   4.602   2.306   6.997
 5232SOL    HW216596   4.509   2.288   0.113
 5233SOL     OW16597   6.905   6.060   2.159
 5233SOL    HW116598   6.894   6.148   2.206
 5233SOL    HW216599   6.989   6.062   2.105
 5234SOL     OW16600   3.303   6.852   0.571
 5234SOL    HW116601   3.397   6.887   0.566
 5234SOL    HW216602   3.293   6.776   0.507
 5235SOL     OW16603   1.630   3.118   0.934
 5235SOL    HW116604   1.710   3.076   0.976
 5235SOL    HW216605   1.547   3.081   0.976
 5236SOL     OW16606   5.127   3.711   1.233
 5236SOL    HW116607   5.155   3.615   1.238
 5236SOL    HW216608   5.053   3.720   1.166
 5237SOL     OW16609   2.465   1.777   5.263
 5237SOL    HW116610   2.462   1.699   5.325
 5237SOL    HW216611   2.432   1.858   5.311
 5238SOL     OW16612   1.522   4.932   0.520
 5238SOL    HW116613   1.516   4.834   0.542
 5238SOL    HW216614   1.587   4.975   0.583
 5239SOL     OW16615   3.290   2.921   3.975
 5239SOL    HW116616   3.240   2.858   3.915
 5239SOL    HW216617   3.323   2.999   3.922
 5240SOL     OW16618   3.402   2.259   5.379
 5240SOL    HW116619   3.339   2.225   5.449
 5240SOL    HW216620   3.350   2.302   5.305
 5241SOL     OW16621   1.294   6.236   6.049
 5241SOL    HW116622   1.337   6.146   6.048
 5241SOL    HW216623   1.265   6.257   6.143
 5242SOL     OW16624   5.989   1.029   5.921
 5242SOL    HW116625   5.941   0.998   6.003
 5242SOL    HW216626   5.949   0.985   5.840
 5243SOL     OW16627   1.123   5.338   0.831
 5243SOL    HW116628   1.033   5.381   0.834
 5243SOL    HW216629   1.165   5.355   0.742
 5244SOL     OW16630   4.424   4.418   5.815
 5244SOL    HW116631   4.403   4.322   5.835
 5244SOL    HW216632   4.342   4.463   5.779
 5245SOL     OW16633   4.221   3.760   6.644
 5245SOL    HW116634   4.298   3.784   6.584
 5245SOL    HW216635   4.186   3.670   6.619
 5246SOL     OW16636   0.716   3.361   2.435
 5246SOL    HW116637   0.626   3.350   2.392
 5246SOL    HW216638   0.785   3.318   2.377
 5247SOL     OW16639   6.949   5.262   0.600
 5247SOL    HW116640   6.864   5.274   0.652
 5247SOL    HW216641   6.940   5.183   0.539
 5248SOL     OW16642   5.481   0.995   6.174
 5248SOL    HW116643   5.393   0.948   6.161
 5248SOL    HW216644   5.488   1.072   6.112
 5249SOL     OW16645   0.809   4.627   5.271
 5249SOL    HW116646   0.826   4.705   5.211
 5249SOL    HW216647   0.778   4.660   5.360
 5250SOL     OW16648   0.103   2.013   5.785
 5250SOL    HW116649   0.165   1.984   5.859
 5250SOL    HW216650   0.108   2.112   5.775
 5251SOL     OW16651   6.298   3.273   1.463
 5251SOL    HW116652   6.281   3.332   1.385
 5251SOL    HW216653   6.307   3.178   1.432
 5252SOL     OW16654   3.471   6.628   1.103
 5252SOL    HW116655   3.545   6.658   1.163
 5252SOL    HW216656   3.482   6.531   1.082
 5253SOL     OW16657   5.731   3.635   4.609
 5253SOL    HW116658   5.636   3.604   4.602
 5253SOL    HW216659   5.733   3.730   4.643
 5254SOL     OW16660   4.468   0.944   4.201
 5254SOL    HW116661   4.440   0.859   4.245
 5254SOL    HW216662   4.388   1.005   4.194
 5255SOL     OW16663   3.066   6.526   5.323
 5255SOL    HW116664   3.144   6.540   5.384
 5255SOL    HW216665   3.089   6.559   5.232
 5256SOL     OW16666   5.068   0.664   3.422
 5256SOL    HW116667   5.099   0.634   3.332
 5256SOL    HW216668   4.988   0.724   3.412
 5257SOL     OW16669   3.667   6.794   0.293
 5257SOL    HW116670   3.597   6.859   0.267
 5257SOL    HW216671   3.653   6.708   0.243
 5258SOL     OW16672   4.670   4.284   2.463
 5258SOL    HW116673   4.721   4.361   2.501
 5258SOL    HW216674   4.572   4.301   2.472
 5259SOL     OW16675   4.153   6.241   2.647
 5259SOL    HW116676   4.156   6.340   2.654
 5259SOL    HW216677   4.244   6.206   2.625
 5260SOL     OW16678   5.909   3.330   1.133
 5260SOL    HW116679   5.821   3.302   1.094
 5260SOL    HW216680   5.896   3.412   1.189
 5261SOL     OW16681   0.376   2.721   4.635
 5261SOL    HW116682   0.384   2.692   4.731
 5261SOL    HW216683   0.457   2.691   4.585
 5262SOL     OW16684   2.672   6.571   2.278
 5262SOL    HW116685   2.677   6.647   2.213
 5262SOL    HW216686   2.604   6.591   2.348
 5263SOL     OW16687   1.531   6.939   6.185
 5263SOL    HW116688   1.585   6.888   6.120
 5263SOL    HW216689   1.580   0.006   6.212
 5264SOL     OW16690   6.776   1.491   1.344
 5264SOL    HW116691   6.806   1.518   1.435
 5264SOL    HW216692   6.686   1.446   1.350
 5265SOL     OW16693   5.436   4.811   2.284
 5265SOL    HW116694   5.481   4.728   2.317
 5265SOL    HW216695   5.395   4.859   2.361
 5266SOL     OW16696   1.471   6.302   1.827
 5266SOL    HW116697   1.395   6.352   1.868
 5266SOL    HW216698   1.520   6.363   1.764
 5267SOL     OW16699   4.775   5.072   5.125
 5267SOL    HW116700   4.867   5.046   5.097
 5267SOL    HW216701   4.776   5.105   5.219
 5268SOL     OW16702   6.687   5.064   5.637
 5268SOL    HW116703   6.769   5.035   5.685
 5268SOL    HW216704   6.614   5.084   5.703
 5269SOL     OW16705   1.608   5.330   4.419
 5269SOL    HW116706   1.604   5.403   4.351
 5269SOL    HW216707   1.677   5.262   4.392
 5270SOL     OW16708   5.920   2.754   1.809
 5270SOL    HW116709   5.886   2.834   1.858
 5270SOL    HW216710   5.854   2.680   1.816
 5271SOL     OW16711   4.982   4.629   4.818
 5271SOL    HW116712   4.891   4.671   4.814
 5271SOL    HW216713   5.035   4.673   4.891
 5272SOL     OW16714   0.036   6.284   4.655
 5272SOL    HW116715   0.124   6.240   4.673
 5272SOL    HW216716   6.981   6.238   4.707
 5273SOL     OW16717   0.536   2.039   3.930
 5273SOL    HW116718   0.585   2.079   3.853
 5273SOL    HW216719   0.452   1.997   3.898
 5274SOL     OW16720   6.930   4.784   3.904
 5274SOL    HW116721   7.015   4.767   3.856
 5274SOL    HW216722   6.857   4.802   3.838
 5275SOL     OW16723   2.294   0.008   6.291
 5275SOL    HW116724   2.296   0.068   6.371
 5275SOL    HW216725   2.217   0.032   6.233
 5276SOL     OW16726   7.007   7.015   1.485
 5276SOL    HW116727   7.010   0.011   1.584
 5276SOL    HW216728   6.992   6.919   1.465
 5277SOL     OW16729   1.207   1.711   3.285
 5277SOL    HW116730   1.114   1.675   3.278
 5277SOL    HW216731   1.244   1.692   3.376
 5278SOL     OW16732   0.455   6.168   6.024
 5278SOL    HW116733   0.448   6.119   5.937
 5278SOL    HW216734   0.545   6.153   6.064
 5279SOL     OW16735   1.572   5.768   6.115
 5279SOL    HW116736   1.614   5.801   6.200
 5279SOL    HW216737   1.643   5.733   6.055
 5280SOL     OW16738   3.585   6.397   4.710
 5280SOL    HW116739   3.614   6.324   4.649
 5280SOL    HW216740   3.509   6.365   4.767
 5281SOL     OW16741   1.317   1.213   4.148
 5281SOL    HW116742   1.231   1.211   4.200
 5281SOL    HW216743   1.393   1.194   4.210
 5282SOL     OW16744   1.645   0.284   2.764
 5282SOL    HW116745   1.655   0.186   2.747
 5282SOL    HW216746   1.565   0.299   2.822
 5283SOL     OW16747   0.377   0.737   3.815
 5283SOL    HW116748   0.410   0.824   3.853
 5283SOL    HW216749   0.339   0.681   3.888
 5284SOL     OW16750   5.230   1.877   2.031
 5284SOL    HW116751   5.197   1.907   2.120
 5284SOL    HW216752   5.219   1.951   1.965
 5285SOL     OW16753   0.950   3.129   3.522
 5285SOL    HW116754   0.997   3.091   3.601
 5285SOL    HW216755   1.013   3.187   3.469
 5286SOL     OW16756   6.320   2.870   0.797
 5286SOL    HW116757   6.358   2.938   0.735
 5286SOL    HW216758   6.240   2.908   0.843
 5287SOL     OW16759   3.455   5.314   1.416
 5287SOL    HW116760   3.464   5.412   1.400
 5287SOL    HW216761   3.417   5.270   1.335
 5288SOL     OW16762   5.345   0.127   1.419
 5288SOL    HW116763   5.417   0.193   1.399
 5288SOL    HW216764   5.356   0.046   1.361
 5289SOL     OW16765   1.908   5.247   6.719
 5289SOL    HW116766   1.827   5.189   6.727
 5289SOL    HW216767   1.964   5.216   6.642
 5290SOL     OW16768   1.821   3.837   5.853
 5290SOL    HW116769   1.885   3.914   5.859
 5290SOL    HW216770   1.803   3.816   5.757
 5291SOL     OW16771   3.059   3.891   5.537
 5291SOL    HW116772   3.096   3.800   5.557
 5291SOL    HW216773   3.100   3.925   5.453
 5292SOL     OW16774   0.098   4.451   6.478
 5292SOL    HW116775   0.048   4.528   6.438
 5292SOL    HW216776   0.041   4.407   6.547
 5293SOL     OW16777   2.191   5.232   4.594
 5293SOL    HW116778   2.190   5.329   4.570
 5293SOL    HW216779   2.275   5.211   4.644
 5294SOL     OW16780   4.379   0.563   5.027
 5294SOL    HW116781   4.442   0.611   5.087
 5294SOL    HW216782   4.362   0.471   5.064
 5295SOL     OW16783   3.171   0.813   3.005
 5295SOL    HW116784   3.097   0.866   2.963
 5295SOL    HW216785   3.136   0.762   3.084
 5296SOL     OW16786   3.658   4.444   0.688
 5296SOL    HW116787   3.700   4.358   0.659
 5296SOL    HW216788   3.722   4.519   0.671
 5297SOL     OW16789   2.806   3.457   0.433
 5297SOL    HW116790   2.860   3.499   0.507
 5297SOL    HW216791   2.715   3.498   0.431
 5298SOL     OW16792   2.477   6.589   0.155
 5298SOL    HW116793   2.457   6.605   0.058
 5298SOL    HW216794   2.486   6.491   0.171
 5299SOL     OW16795   2.910   1.965   0.808
 5299SOL    HW116796   2.955   2.053   0.826
 5299SOL    HW216797   2.935   1.933   0.717
 5300SOL     OW16798   1.392   4.465   0.363
 5300SOL    HW116799   1.397   4.436   0.268
 5300SOL    HW216800   1.298   4.485   0.388
 5301SOL     OW16801   4.409   0.612   6.868
 5301SOL    HW116802   4.480   0.542   6.864
 5301SOL    HW216803   4.372   0.618   6.961
 5302SOL     OW16804   4.610   5.997   3.388
 5302SOL    HW116805   4.549   6.039   3.455
 5302SOL    HW216806   4.567   5.915   3.349
 5303SOL     OW16807   6.734   5.208   6.388
 5303SOL    HW116808   6.689   5.238   6.304
 5303SOL    HW216809   6.809   5.145   6.366
 5304SOL     OW16810   5.875   1.507   0.839
 5304SOL    HW116811   5.874   1.518   0.938
 5304SOL    HW216812   5.944   1.567   0.799
 5305SOL     OW16813   1.284   5.509   2.877
 5305SOL    HW116814   1.231   5.472   2.953
 5305SOL    HW216815   1.362   5.450   2.858
 5306SOL     OW16816   0.413   4.281   5.846
 5306SOL    HW116817   0.422   4.379   5.826
 5306SOL    HW216818   0.332   4.245   5.799
 5307SOL     OW16819   4.624   2.395   0.412
 5307SOL    HW116820   4.706   2.392   0.354
 5307SOL    HW216821   4.546   2.425   0.357
 5308SOL     OW16822   1.376   4.765   2.705
 5308SOL    HW116823   1.450   4.832   2.703
 5308SOL    HW216824   1.410   4.676   2.675
 5309SOL     OW16825   3.808   6.030   2.651
 5309SOL    HW116826   3.821   5.970   2.730
 5309SOL    HW216827   3.710   6.043   2.636
 5310SOL     OW16828   6.033   3.159   2.497
 5310SOL    HW116829   6.130   3.183   2.503
 5310SOL    HW216830   6.015   3.119   2.407
 5311SOL     OW16831   5.897   0.235   6.948
 5311SOL    HW116832   5.801   0.248   6.974
 5311SOL    HW216833   5.907   0.149   6.899
 5312SOL     OW16834   0.134   6.048   1.538
 5312SOL    HW116835   0.076   6.108   1.483
 5312SOL    HW216836   0.077   5.992   1.599
 5313SOL     OW16837   6.942   4.733   5.539
 5313SOL    HW116838   6.876   4.804   5.513
 5313SOL    HW216839   0.017   4.773   5.547
 5314SOL     OW16840   5.487   6.754   0.545
 5314SOL    HW116841   5.460   6.704   0.628
 5314SOL    HW216842   5.438   6.717   0.467
 5315SOL     OW16843   4.469   2.206   3.436
 5315SOL    HW116844   4.496   2.173   3.527
 5315SOL    HW216845   4.538   2.179   3.369
 5316SOL     OW16846   0.807   3.541   5.217
 5316SOL    HW116847   0.779   3.511   5.126
 5316SOL    HW216848   0.873   3.476   5.254
 5317SOL     OW16849   0.038   1.416   5.769
 5317SOL    HW116850   0.119   1.474   5.776
 5317SOL    HW216851   6.975   1.471   5.748
 5318SOL     OW16852   0.258   2.855   0.401
 5318SOL    HW116853   0.301   2.818   0.484
 5318SOL    HW216854   0.161   2.872   0.418
 5319SOL     OW16855   4.629   6.552   0.637
 5319SOL    HW116856   4.535   6.523   0.624
 5319SOL    HW216857   4.678   6.549   0.550
 5320SOL     OW16858   4.155   5.953   1.306
 5320SOL    HW116859   4.082   6.018   1.285
 5320SOL    HW216860   4.114   5.864   1.327
 5321SOL     OW16861   1.898   4.168   4.875
 5321SOL    HW116862   1.811   4.204   4.841
 5321SOL    HW216863   1.972   4.232   4.853
 5322SOL     OW16864   5.557   0.210   0.630
 5322SOL    HW116865   5.618   0.183   0.556
 5322SOL    HW216866   5.564   0.144   0.705
 5323SOL     OW16867   4.333   1.263   5.762
 5323SOL    HW116868   4.327   1.171   5.800
 5323SOL    HW216869   4.413   1.309   5.800
 5324SOL     OW16870   2.738   2.149   6.848
 5324SOL    HW116871   2.747   2.183   6.754
 5324SOL    HW216872   2.641   2.132   6.868
 5325SOL     OW16873   2.748   1.623   5.339
 5325SOL    HW116874   2.739   1.558   5.263
 5325SOL    HW216875   2.759   1.716   5.302
 5326SOL     OW16876   6.300   5.992   3.380
 5326SOL    HW116877   6.276   6.011   3.475
 5326SOL    HW216878   6.246   6.051   3.320
 5327SOL     OW16879   5.775   2.608   5.033
 5327SOL    HW116880   5.714   2.553   5.090
 5327SOL    HW216881   5.869   2.577   5.044
 5328SOL     OW16882   4.078   3.795   5.819
 5328SOL    HW116883   4.093   3.708   5.772
 5328SOL    HW216884   4.165   3.832   5.850
 5329SOL     OW16885   1.143   5.388   6.361
 5329SOL    HW116886   1.122   5.448   6.283
 5329SOL    HW216887   1.144   5.442   6.445
 5330SOL     OW16888   3.667   4.167   0.607
 5330SOL    HW116889   3.743   4.116   0.566
 5330SOL    HW216890   3.581   4.119   0.590
 5331SOL     OW16891   6.354   1.911   6.735
 5331SOL    HW116892   6.288   1.955   6.673
 5331SOL    HW216893   6.446   1.946   6.715
 5332SOL     OW16894   1.732   4.113   1.599
 5332SOL    HW116895   1.697   4.202   1.631
 5332SOL    HW216896   1.745   4.116   1.500
 5333SOL     OW16897   1.106   0.927   2.971
 5333SOL    HW116898   1.076   1.019   2.946
 5333SOL    HW216899   1.049   0.893   3.047
 5334SOL     OW16900   3.044   0.670   5.385
 5334SOL    HW116901   2.976   0.736   5.418
 5334SOL    HW216902   3.036   0.660   5.286
 5335SOL     OW16903   6.091   5.941   1.008
 5335SOL    HW116904   6.012   5.948   1.069
 5335SOL    HW216905   6.131   5.850   1.017
 5336SOL     OW16906   1.836   3.344   2.164
 5336SOL    HW116907   1.858   3.271   2.229
 5336SOL    HW216908   1.822   3.305   2.073
 5337SOL     OW16909   4.706   3.881   1.462
 5337SOL    HW116910   4.803   3.870   1.442
 5337SOL    HW216911   4.694   3.954   1.530
 5338SOL     OW16912   5.967   1.874   6.871
 5338SOL    HW116913   6.053   1.856   6.823
 5338SOL    HW216914   5.892   1.829   6.823
 5339SOL     OW16915   6.423   2.033   3.834
 5339SOL    HW116916   6.491   2.013   3.764
 5339SOL    HW216917   6.447   1.988   3.919
 5340SOL     OW16918   5.904   3.104   0.211
 5340SOL    HW116919   5.822   3.147   0.173
 5340SOL    HW216920   5.881   3.063   0.300
 5341SOL     OW16921   4.003   2.381   5.886
 5341SOL    HW116922   4.088   2.402   5.838
 5341SOL    HW216923   4.000   2.284   5.908
 5342SOL     OW16924   3.713   0.413   5.267
 5342SOL    HW116925   3.618   0.385   5.284
 5342SOL    HW216926   3.766   0.333   5.239
 5343SOL     OW16927   3.518   3.602   3.390
 5343SOL    HW116928   3.448   3.642   3.331
 5343SOL    HW216929   3.504   3.503   3.395
 5344SOL     OW16930   1.616   2.842   2.738
 5344SOL    HW116931   1.676   2.914   2.775
 5344SOL    HW216932   1.609   2.768   2.804
 5345SOL     OW16933   4.619   6.161   0.860
 5345SOL    HW116934   4.704   6.112   0.843
 5345SOL    HW216935   4.560   6.154   0.779
 5346SOL     OW16936   3.311   6.379   3.690
 5346SOL    HW116937   3.217   6.401   3.713
 5346SOL    HW216938   3.314   6.291   3.641
 5347SOL     OW16939   6.997   2.273   2.225
 5347SOL    HW116940   6.916   2.328   2.242
 5347SOL    HW216941   7.013   2.267   2.126
 5348SOL     OW16942   0.977   1.454   0.478
 5348SOL    HW116943   1.069   1.494   0.485
 5348SOL    HW216944   0.953   1.411   0.565
 5349SOL     OW16945   0.752   2.358   0.483
 5349SOL    HW116946   0.661   2.363   0.525
 5349SOL    HW216947   0.811   2.301   0.540
 5350SOL     OW16948   2.582   0.442   6.234
 5350SOL    HW116949   2.567   0.525   6.288
 5350SOL    HW216950   2.576   0.463   6.137
 5351SOL     OW16951   4.787   5.758   1.668
 5351SOL    HW116952   4.791   5.660   1.647
 5351SOL    HW216953   4.798   5.771   1.767
 5352SOL     OW16954   2.181   6.194   3.795
 5352SOL    HW116955   2.157   6.256   3.721
 5352SOL    HW216956   2.098   6.159   3.838
 5353SOL     OW16957   4.204   6.363   4.406
 5353SOL    HW116958   4.222   6.269   4.435
 5353SOL    HW216959   4.126   6.363   4.343
 5354SOL     OW16960   2.502   4.541   2.619
 5354SOL    HW116961   2.587   4.586   2.646
 5354SOL    HW216962   2.424   4.592   2.656
 5355SOL     OW16963   4.516   2.103   3.720
 5355SOL    HW116964   4.536   2.012   3.685
 5355SOL    HW216965   4.443   2.097   3.788
 5356SOL     OW16966   6.023   3.933   1.712
 5356SOL    HW116967   5.986   3.890   1.794
 5356SOL    HW216968   5.956   3.928   1.638
 5357SOL     OW16969   3.334   1.181   1.044
 5357SOL    HW116970   3.239   1.198   1.018
 5357SOL    HW216971   3.336   1.137   1.134
 5358SOL     OW16972   4.204   2.306   0.630
 5358SOL    HW116973   4.280   2.365   0.603
 5358SOL    HW216974   4.213   2.281   0.727
 5359SOL     OW16975   2.196   1.476   0.910
 5359SOL    HW116976   2.257   1.415   0.860
 5359SOL    HW216977   2.124   1.423   0.954
 5360SOL     OW16978   4.087   6.946   4.902
 5360SOL    HW116979   4.058   0.007   4.958
 5360SOL    HW216980   4.139   6.882   4.958
 5361SOL     OW16981   2.563   1.237   4.504
 5361SOL    HW116982   2.490   1.281   4.556
 5361SOL    HW216983   2.648   1.288   4.517
 5362SOL     OW16984   5.042   4.525   3.511
 5362SOL    HW116985   4.985   4.605   3.522
 5362SOL    HW216986   5.129   4.551   3.468
 5363SOL     OW16987   0.897   6.041   5.907
 5363SOL    HW116988   0.964   6.115   5.904
 5363SOL    HW216989   0.876   6.011   5.814
 5364SOL     OW16990   6.209   5.348   1.003
 5364SOL    HW116991   6.306   5.356   1.025
 5364SOL    HW216992   6.180   5.427   0.949
 5365SOL     OW16993   4.602   3.219   6.282
 5365SOL    HW116994   4.505   3.196   6.295
 5365SOL    HW216995   4.639   3.164   6.207
 5366SOL     OW16996   4.833   4.924   0.984
 5366SOL    HW116997   4.777   4.885   0.912
 5366SOL    HW216998   4.825   4.868   1.067
 5367SOL     OW16999   0.625   5.168   0.320
 5367SOL    HW117000   0.527   5.179   0.333
 5367SOL    HW217001   0.670   5.164   0.409
 5368SOL     OW17002   5.264   1.734   2.712
 5368SOL    HW117003   5.318   1.655   2.684
 5368SOL    HW217004   5.167   1.711   2.709
 5369SOL     OW17005   2.413   5.591   3.388
 5369SOL    HW117006   2.348   5.563   3.459
 5369SOL    HW217007   2.373   5.576   3.298
 5370SOL     OW17008   4.161   2.970   1.629
 5370SOL    HW117009   4.199   2.884   1.594
 5370SOL    HW217010   4.153   3.035   1.553
 5371SOL     OW17011   2.164   4.418   4.335
 5371SOL    HW117012   2.089   4.471   4.295
 5371SOL    HW217013   2.148   4.406   4.433
 5372SOL     OW17014   2.943   5.581   2.281
 5372SOL    HW117015   3.004   5.631   2.343
 5372SOL    HW217016   2.876   5.644   2.242
 5373SOL     OW17017   2.908   4.836   4.332
 5373SOL    HW117018   2.888   4.816   4.236
 5373SOL    HW217019   2.871   4.764   4.390
 5374SOL     OW17020   1.133   3.510   6.647
 5374SOL    HW117021   1.155   3.427   6.699
 5374SOL    HW217022   1.211   3.534   6.589
 5375SOL     OW17023   0.932   4.616   4.932
 5375SOL    HW117024   0.839   4.631   4.900
 5375SOL    HW217025   0.933   4.544   5.002
 5376SOL     OW17026   1.454   3.339   1.530
 5376SOL    HW117027   1.437   3.364   1.435
 5376SOL    HW217028   1.540   3.288   1.536
 5377SOL     OW17029   6.735   0.336   1.735
 5377SOL    HW117030   6.801   0.365   1.805
 5377SOL    HW217031   6.664   0.280   1.776
 5378SOL     OW17032   6.550   0.873   0.900
 5378SOL    HW117033   6.606   0.955   0.887
 5378SOL    HW217034   6.474   0.874   0.835
 5379SOL     OW17035   0.289   5.131   3.767
 5379SOL    HW117036   0.200   5.094   3.743
 5379SOL    HW217037   0.360   5.065   3.745
 5380SOL     OW17038   2.000   1.270   3.335
 5380SOL    HW117039   1.984   1.191   3.394
 5380SOL    HW217040   1.917   1.292   3.285
 5381SOL     OW17041   6.533   3.913   0.799
 5381SOL    HW117042   6.496   4.005   0.786
 5381SOL    HW217043   6.500   3.853   0.726
 5382SOL     OW17044   3.080   0.122   1.537
 5382SOL    HW117045   3.116   0.029   1.524
 5382SOL    HW217046   3.111   0.181   1.462
 5383SOL     OW17047   2.950   2.277   5.252
 5383SOL    HW117048   2.906   2.205   5.199
 5383SOL    HW217049   3.043   2.291   5.218
 5384SOL     OW17050   6.366   6.775   4.002
 5384SOL    HW117051   6.451   6.724   4.017
 5384SOL    HW217052   6.386   6.871   3.988
 5385SOL     OW17053   2.950   3.689   3.069
 5385SOL    HW117054   2.911   3.670   2.979
 5385SOL    HW217055   3.027   3.752   3.059
 5386SOL     OW17056   4.838   6.332   4.132
 5386SOL    HW117057   4.892   6.268   4.076
 5386SOL    HW217058   4.873   6.331   4.226
 5387SOL     OW17059   2.522   5.894   2.657
 5387SOL    HW117060   2.578   5.852   2.586
 5387SOL    HW217061   2.493   5.985   2.627
 5388SOL     OW17062   5.424   6.144   2.737
 5388SOL    HW117063   5.358   6.181   2.672
 5388SOL    HW217064   5.394   6.054   2.766
 5389SOL     OW17065   5.136   0.865   1.432
 5389SOL    HW117066   5.112   0.925   1.508
 5389SOL    HW217067   5.054   0.819   1.398
 5390SOL     OW17068   4.522   5.260   4.208
 5390SOL    HW117069   4.477   5.323   4.271
 5390SOL    HW217070   4.605   5.302   4.172
 5391SOL     OW17071   2.436   3.312   0.503
 5391SOL    HW117072   2.376   3.387   0.477
 5391SOL    HW217073   2.402   3.227   0.463
 5392SOL     OW17074   6.184   3.433   1.209
 5392SOL    HW117075   6.090   3.463   1.200
 5392SOL    HW217076   6.204   3.363   1.140
 5393SOL     OW17077   6.685   6.740   0.040
 5393SOL    HW117078   6.594   6.765   0.073
 5393SOL    HW217079   6.678   6.660   6.997
 5394SOL     OW17080   0.290   3.744   6.424
 5394SOL    HW117081   0.372   3.747   6.482
 5394SOL    HW217082   0.308   3.794   6.339
 5395SOL     OW17083   4.918   0.700   1.327
 5395SOL    HW117084   4.990   0.661   1.270
 5395SOL    HW217085   4.829   0.679   1.287
 5396SOL     OW17086   5.197   3.644   2.700
 5396SOL    HW117087   5.196   3.729   2.753
 5396SOL    HW217088   5.267   3.583   2.737
 5397SOL     OW17089   6.938   3.115   2.158
 5397SOL    HW117090   6.971   3.202   2.193
 5397SOL    HW217091   7.016   3.059   2.129
 5398SOL     OW17092   3.379   2.560   1.645
 5398SOL    HW117093   3.303   2.497   1.661
 5398SOL    HW217094   3.464   2.508   1.636
 5399SOL     OW17095   2.469   6.578   0.938
 5399SOL    HW117096   2.425   6.488   0.933
 5399SOL    HW217097   2.564   6.570   0.908
 5400SOL     OW17098   2.813   4.126   0.897
 5400SOL    HW117099   2.714   4.126   0.912
 5400SOL    HW217100   2.831   4.135   0.799
 5401SOL     OW17101   5.834   3.141   2.220
 5401SOL    HW117102   5.825   3.239   2.203
 5401SOL    HW217103   5.744   3.102   2.238
 5402SOL     OW17104   2.536   5.711   1.905
 5402SOL    HW117105   2.549   5.799   1.859
 5402SOL    HW217106   2.608   5.647   1.877
 5403SOL     OW17107   6.772   3.468   6.547
 5403SOL    HW117108   6.845   3.402   6.530
 5403SOL    HW217109   6.697   3.452   6.483
 5404SOL     OW17110   1.080   2.626   3.743
 5404SOL    HW117111   1.060   2.539   3.788
 5404SOL    HW217112   1.079   2.613   3.643
 5405SOL     OW17113   6.615   5.113   6.979
 5405SOL    HW117114   6.684   5.176   6.944
 5405SOL    HW217115   6.646   5.019   6.966
 5406SOL     OW17116   2.387   1.637   6.970
 5406SOL    HW117117   2.348   1.715   6.921
 5406SOL    HW217118   2.486   1.648   6.976
 5407SOL     OW17119   4.243   3.131   0.477
 5407SOL    HW117120   4.286   3.078   0.550
 5407SOL    HW217121   4.313   3.164   0.414
 5408SOL     OW17122   2.609   1.150   5.237
 5408SOL    HW117123   2.638   1.062   5.273
 5408SOL    HW217124   2.512   1.147   5.214
 5409SOL     OW17125   5.401   0.142   3.100
 5409SOL    HW117126   5.402   0.222   3.041
 5409SOL    HW217127   5.494   0.112   3.119
 5410SOL     OW17128   2.563   2.431   1.779
 5410SOL    HW117129   2.634   2.419   1.710
 5410SOL    HW217130   2.576   2.364   1.852
 5411SOL     OW17131   6.479   5.090   6.261
 5411SOL    HW117132   6.391   5.083   6.214
 5411SOL    HW217133   6.550   5.119   6.197
 5412SOL     OW17134   5.097   2.918   0.523
 5412SOL    HW117135   5.133   2.831   0.557
 5412SOL    HW217136   5.011   2.903   0.475
 5413SOL     OW17137   3.058   1.366   1.705
 5413SOL    HW117138   3.026   1.411   1.788
 5413SOL    HW217139   3.137   1.417   1.668
 5414SOL     OW17140   5.130   1.769   4.571
 5414SOL    HW117141   5.049   1.772   4.512
 5414SOL    HW217142   5.138   1.856   4.621
 5415SOL     OW17143   0.613   5.889   1.416
 5415SOL    HW117144   0.542   5.959   1.429
 5415SOL    HW217145   0.641   5.888   1.321
 5416SOL     OW17146   4.207   5.140   5.362
 5416SOL    HW117147   4.158   5.206   5.304
 5416SOL    HW217148   4.288   5.184   5.401
 5417SOL     OW17149   3.620   6.681   5.740
 5417SOL    HW117150   3.595   6.655   5.647
 5417SOL    HW217151   3.537   6.702   5.792
 5418SOL     OW17152   3.255   0.231   3.067
 5418SOL    HW117153   3.251   0.171   3.147
 5418SOL    HW217154   3.235   0.325   3.095
 5419SOL     OW17155   3.534   4.859   0.131
 5419SOL    HW117156   3.609   4.921   0.156
 5419SOL    HW217157   3.569   4.785   0.073
 5420SOL     OW17158   2.246   3.014   3.144
 5420SOL    HW117159   2.339   3.049   3.152
 5420SOL    HW217160   2.182   3.091   3.147
 5421SOL     OW17161   1.730   3.620   1.388
 5421SOL    HW117162   1.808   3.561   1.371
 5421SOL    HW217163   1.692   3.601   1.479
 5422SOL     OW17164   0.672   4.747   0.862
 5422SOL    HW117165   0.597   4.811   0.851
 5422SOL    HW217166   0.759   4.794   0.847
 5423SOL     OW17167   6.542   3.145   6.981
 5423SOL    HW117168   6.509   3.218   6.921
 5423SOL    HW217169   6.469   3.116   0.025
 5424SOL     OW17170   5.310   3.086   4.460
 5424SOL    HW117171   5.275   3.034   4.382
 5424SOL    HW217172   5.234   3.110   4.520
 5425SOL     OW17173   4.247   0.994   4.818
 5425SOL    HW117174   4.213   0.942   4.897
 5425SOL    HW217175   4.314   1.062   4.850
 5426SOL     OW17176   5.819   6.308   4.167
 5426SOL    HW117177   5.739   6.265   4.209
 5426SOL    HW217178   5.892   6.316   4.235
 5427SOL     OW17179   4.536   5.786   6.579
 5427SOL    HW117180   4.541   5.844   6.497
 5427SOL    HW217181   4.619   5.797   6.633
 5428SOL     OW17182   0.375   0.099   1.166
 5428SOL    HW117183   0.423   0.179   1.203
 5428SOL    HW217184   0.290   0.085   1.218
 5429SOL     OW17185   1.790   1.999   6.930
 5429SOL    HW117186   1.738   2.056   6.994
 5429SOL    HW217187   1.823   2.056   6.855
 5430SOL     OW17188   0.164   2.296   5.719
 5430SOL    HW117189   0.232   2.331   5.655
 5430SOL    HW217190   0.204   2.290   5.810
 5431SOL     OW17191   3.555   6.250   6.949
 5431SOL    HW117192   3.565   6.153   6.925
 5431SOL    HW217193   3.590   6.306   6.874
 5432SOL     OW17194   5.524   0.025   6.674
 5432SOL    HW117195   5.471   6.992   6.604
 5432SOL    HW217196   5.539   6.982   6.753
 5433SOL     OW17197   0.300   2.123   4.482
 5433SOL    HW117198   0.323   2.110   4.385
 5433SOL    HW217199   0.321   2.216   4.510
 5434SOL     OW17200   2.964   0.402   5.741
 5434SOL    HW117201   2.943   0.496   5.714
 5434SOL    HW217202   3.055   0.377   5.708
 5435SOL     OW17203   5.484   0.496   1.862
 5435SOL    HW117204   5.553   0.435   1.901
 5435SOL    HW217205   5.476   0.477   1.764
 5436SOL     OW17206   4.871   3.996   4.050
 5436SOL    HW117207   4.824   4.048   4.121
 5436SOL    HW217208   4.841   3.901   4.053
 5437SOL     OW17209   2.688   4.280   0.219
 5437SOL    HW117210   2.777   4.316   0.245
 5437SOL    HW217211   2.698   4.214   0.145
 5438SOL     OW17212   0.026   2.519   1.811
 5438SOL    HW117213   0.048   2.590   1.744
 5438SOL    HW217214   6.992   2.559   1.887
 5439SOL     OW17215   1.255   1.604   1.609
 5439SOL    HW117216   1.244   1.683   1.549
 5439SOL    HW217217   1.309   1.629   1.689
 5440SOL     OW17218   1.511   1.301   1.132
 5440SOL    HW117219   1.473   1.277   1.221
 5440SOL    HW217220   1.530   1.399   1.129
 5441SOL     OW17221   3.967   1.747   3.898
 5441SOL    HW117222   4.005   1.682   3.832
 5441SOL    HW217223   4.013   1.835   3.888
 5442SOL     OW17224   4.362   6.866   2.593
 5442SOL    HW117225   4.386   6.881   2.497
 5442SOL    HW217226   4.268   6.831   2.599
 5443SOL     OW17227   3.574   6.634   5.020
 5443SOL    HW117228   3.517   6.669   4.945
 5443SOL    HW217229   3.533   6.550   5.056
 5444SOL     OW17230   1.048   0.935   4.101
 5444SOL    HW117231   1.038   0.967   4.195
 5444SOL    HW217232   0.994   0.852   4.089
 5445SOL     OW17233   6.503   4.124   3.427
 5445SOL    HW117234   6.425   4.125   3.490
 5445SOL    HW217235   6.587   4.111   3.479
 5446SOL     OW17236   6.365   5.546   4.696
 5446SOL    HW117237   6.421   5.538   4.613
 5446SOL    HW217238   6.285   5.486   4.687
 5447SOL     OW17239   2.962   2.303   6.947
 5447SOL    HW117240   3.034   2.312   6.878
 5447SOL    HW217241   2.891   2.243   6.913
 5448SOL     OW17242   4.234   2.715   5.433
 5448SOL    HW117243   4.207   2.655   5.359
 5448SOL    HW217244   4.297   2.785   5.399
 5449SOL     OW17245   1.570   2.642   6.125
 5449SOL    HW117246   1.591   2.648   6.222
 5449SOL    HW217247   1.653   2.658   6.072
 5450SOL     OW17248   2.181   0.750   1.916
 5450SOL    HW117249   2.277   0.729   1.898
 5450SOL    HW217250   2.125   0.725   1.837
 5451SOL     OW17251   1.841   6.025   3.277
 5451SOL    HW117252   1.889   6.078   3.207
 5451SOL    HW217253   1.797   5.946   3.234
 5452SOL     OW17254   2.229   4.587   6.728
 5452SOL    HW117255   2.280   4.516   6.777
 5452SOL    HW217256   2.282   4.619   6.650
 5453SOL     OW17257   6.378   4.158   0.817
 5453SOL    HW117258   6.401   4.233   0.879
 5453SOL    HW217259   6.335   4.195   0.734
 5454SOL     OW17260   0.122   4.129   6.946
 5454SOL    HW117261   0.124   4.086   0.020
 5454SOL    HW217262   0.086   4.222   6.955
 5455SOL     OW17263   6.396   3.039   0.630
 5455SOL    HW117264   6.461   3.069   0.560
 5455SOL    HW217265   6.316   3.099   0.629
 5456SOL     OW17266   3.526   0.137   6.262
 5456SOL    HW117267   3.463   0.099   6.329
 5456SOL    HW217268   3.616   0.150   6.305
 5457SOL     OW17269   5.266   2.236   1.235
 5457SOL    HW117270   5.216   2.291   1.169
 5457SOL    HW217271   5.299   2.153   1.191
 5458SOL     OW17272   0.919   4.672   6.891
 5458SOL    HW117273   0.951   4.590   6.845
 5458SOL    HW217274   0.931   4.662   6.990
 5459SOL     OW17275   1.719   5.295   0.407
 5459SOL    HW117276   1.799   5.267   0.459
 5459SOL    HW217277   1.638   5.294   0.466
 5460SOL     OW17278   3.086   0.135   1.822
 5460SOL    HW117279   3.083   0.047   1.869
 5460SOL    HW217280   3.067   0.122   1.725
 5461SOL     OW17281   5.800   6.597   4.955
 5461SOL    HW117282   5.742   6.519   4.933
 5461SOL    HW217283   5.893   6.565   4.971
 5462SOL     OW17284   1.737   0.523   0.859
 5462SOL    HW117285   1.773   0.530   0.766
 5462SOL    HW217286   1.702   0.612   0.889
 5463SOL     OW17287   6.099   2.093   0.363
 5463SOL    HW117288   6.185   2.138   0.390
 5463SOL    HW217289   6.023   2.156   0.375
 5464SOL     OW17290   1.422   0.784   4.281
 5464SOL    HW117291   1.360   0.836   4.340
 5464SOL    HW217292   1.446   0.839   4.201
 5465SOL     OW17293   3.610   6.924   3.464
 5465SOL    HW117294   3.629   6.991   3.391
 5465SOL    HW217295   3.613   6.832   3.425
 5466SOL     OW17296   5.627   4.812   4.841
 5466SOL    HW117297   5.624   4.909   4.816
 5466SOL    HW217298   5.705   4.795   4.901
 5467SOL     OW17299   5.221   1.957   2.873
 5467SOL    HW117300   5.194   1.921   2.962
 5467SOL    HW217301   5.259   1.883   2.818
 5468SOL     OW17302   4.904   1.606   4.282
 5468SOL    HW117303   4.892   1.600   4.381
 5468SOL    HW217304   4.815   1.599   4.237
 5469SOL     OW17305   3.581   4.659   6.249
 5469SOL    HW117306   3.525   4.581   6.222
 5469SOL    HW217307   3.578   4.729   6.177
 5470SOL     OW17308   1.833   4.999   3.291
 5470SOL    HW117309   1.868   4.941   3.217
 5470SOL    HW217310   1.803   5.087   3.254
 5471SOL     OW17311   5.392   6.526   1.158
 5471SOL    HW117312   5.463   6.456   1.166
 5471SOL    HW217313   5.434   6.616   1.149
 5472SOL     OW17314   4.642   3.905   6.339
 5472SOL    HW117315   4.718   3.856   6.295
 5472SOL    HW217316   4.622   3.988   6.287
 5473SOL     OW17317   0.771   3.640   3.442
 5473SOL    HW117318   0.868   3.665   3.447
 5473SOL    HW217319   0.717   3.707   3.493
 5474SOL     OW17320   1.650   4.845   4.580
 5474SOL    HW117321   1.728   4.787   4.558
 5474SOL    HW217322   1.643   4.857   4.679
 5475SOL     OW17323   3.535   2.473   1.293
 5475SOL    HW117324   3.475   2.414   1.348
 5475SOL    HW217325   3.615   2.499   1.348
 5476SOL     OW17326   2.502   3.466   6.223
 5476SOL    HW117327   2.487   3.565   6.231
 5476SOL    HW217328   2.530   3.445   6.130
 5477SOL     OW17329   2.102   3.549   3.358
 5477SOL    HW117330   2.147   3.518   3.442
 5477SOL    HW217331   2.018   3.597   3.382
 5478SOL     OW17332   5.760   5.854   6.499
 5478SOL    HW117333   5.822   5.825   6.572
 5478SOL    HW217334   5.724   5.945   6.521
 5479SOL     OW17335   4.816   0.719   4.985
 5479SOL    HW117336   4.801   0.677   5.074
 5479SOL    HW217337   4.863   0.807   4.996
 5480SOL     OW17338   1.096   4.053   4.425
 5480SOL    HW117339   1.046   4.131   4.391
 5480SOL    HW217340   1.063   3.969   4.382
 5481SOL     OW17341   2.940   0.280   4.704
 5481SOL    HW117342   2.869   0.217   4.672
 5481SOL    HW217343   2.897   0.359   4.747
 5482SOL     OW17344   3.748   4.613   1.613
 5482SOL    HW117345   3.694   4.603   1.697
 5482SOL    HW217346   3.686   4.613   1.534
 5483SOL     OW17347   0.829   2.838   5.524
 5483SOL    HW117348   0.757   2.774   5.498
 5483SOL    HW217349   0.918   2.796   5.506
 5484SOL     OW17350   4.522   0.230   4.815
 5484SOL    HW117351   4.433   0.218   4.860
 5484SOL    HW217352   4.525   0.320   4.773
 5485SOL     OW17353   2.789   6.638   5.321
 5485SOL    HW117354   2.798   6.728   5.279
 5485SOL    HW217355   2.879   6.596   5.330
 5486SOL     OW17356   2.539   5.926   5.025
 5486SOL    HW117357   2.551   6.001   5.090
 5486SOL    HW217358   2.592   5.945   4.942
 5487SOL     OW17359   2.856   4.401   6.027
 5487SOL    HW117360   2.882   4.470   6.095
 5487SOL    HW217361   2.845   4.445   5.938
 5488SOL     OW17362   6.478   1.306   0.358
 5488SOL    HW117363   6.424   1.351   0.286
 5488SOL    HW217364   6.495   1.372   0.432
 5489SOL     OW17365   6.530   3.122   2.128
 5489SOL    HW117366   6.593   3.181   2.078
 5489SOL    HW217367   6.453   3.098   2.069
 5490SOL     OW17368   1.231   6.901   2.330
 5490SOL    HW117369   1.140   6.895   2.370
 5490SOL    HW217370   1.294   6.942   2.396
 5491SOL     OW17371   6.863   3.024   0.620
 5491SOL    HW117372   6.939   3.033   0.684
 5491SOL    HW217373   6.818   3.113   0.609
 5492SOL     OW17374   0.714   2.600   5.432
 5492SOL    HW117375   0.712   2.500   5.427
 5492SOL    HW217376   0.770   2.637   5.358
 5493SOL     OW17377   4.180   3.542   1.840
 5493SOL    HW117378   4.142   3.564   1.930
 5493SOL    HW217379   4.195   3.443   1.835
 5494SOL     OW17380   6.123   4.378   4.919
 5494SOL    HW117381   6.200   4.332   4.965
 5494SOL    HW217382   6.102   4.330   4.834
 5495SOL     OW17383   6.502   0.561   0.532
 5495SOL    HW117384   6.408   0.556   0.497
 5495SOL    HW217385   6.500   0.577   0.631
 5496SOL     OW17386   4.445   0.512   4.209
 5496SOL    HW117387   4.365   0.453   4.199
 5496SOL    HW217388   4.528   0.458   4.193
 5497SOL     OW17389   0.601   0.796   5.763
 5497SOL    HW117390   0.529   0.779   5.696
 5497SOL    HW217391   0.573   0.762   5.852
 5498SOL     OW17392   0.365   4.718   1.786
 5498SOL    HW117393   0.312   4.798   1.815
 5498SOL    HW217394   0.304   4.651   1.744
 5499SOL     OW17395   0.143   0.516   4.383
 5499SOL    HW117396   0.240   0.530   4.366
 5499SOL    HW217397   0.104   0.601   4.419
 5500SOL     OW17398   1.902   0.657   0.437
 5500SOL    HW117399   1.828   0.611   0.486
 5500SOL    HW217400   1.989   0.613   0.459
 5501SOL     OW17401   4.184   1.923   0.313
 5501SOL    HW117402   4.088   1.896   0.301
 5501SOL    HW217403   4.243   1.843   0.300
 5502SOL     OW17404   5.352   3.540   6.548
 5502SOL    HW117405   5.407   3.623   6.540
 5502SOL    HW217406   5.401   3.473   6.605
 5503SOL     OW17407   0.498   3.471   0.216
 5503SOL    HW117408   0.499   3.567   0.189
 5503SOL    HW217409   0.418   3.426   0.176
 5504SOL     OW17410   3.900   1.146   6.847
 5504SOL    HW117411   3.995   1.117   6.853
 5504SOL    HW217412   3.843   1.069   6.820
 5505SOL     OW17413   2.277   4.210   4.028
 5505SOL    HW117414   2.282   4.132   3.965
 5505SOL    HW217415   2.320   4.290   3.987
 5506SOL     OW17416   0.322   3.676   6.140
 5506SOL    HW117417   0.374   3.757   6.111
 5506SOL    HW217418   0.258   3.651   6.068
 5507SOL     OW17419   3.026   6.985   6.275
 5507SOL    HW117420   2.979   6.976   6.363
 5507SOL    HW217421   3.125   6.984   6.290
 5508SOL     OW17422   1.059   1.011   6.949
 5508SOL    HW117423   0.999   0.998   6.871
 5508SOL    HW217424   1.044   0.938   7.016
 5509SOL     OW17425   0.190   5.400   1.055
 5509SOL    HW117426   0.228   5.372   1.143
 5509SOL    HW217427   0.155   5.494   1.063
 5510SOL     OW17428   4.235   5.569   6.857
 5510SOL    HW117429   4.245   5.599   6.951
 5510SOL    HW217430   4.183   5.637   6.805
 5511SOL     OW17431   0.469   1.629   5.529
 5511SOL    HW117432   0.438   1.596   5.439
 5511SOL    HW217433   0.565   1.657   5.523
 5512SOL     OW17434   3.836   0.873   2.134
 5512SOL    HW117435   3.860   0.840   2.042
 5512SOL    HW217436   3.771   0.810   2.176
 5513SOL     OW17437   4.354   4.498   6.516
 5513SOL    HW117438   4.425   4.493   6.446
 5513SOL    HW217439   4.383   4.444   6.595
 5514SOL     OW17440   2.920   6.785   5.626
 5514SOL    HW117441   2.872   6.845   5.563
 5514SOL    HW217442   2.874   6.697   5.630
 5515SOL     OW17443   1.950   5.679   2.031
 5515SOL    HW117444   1.984   5.598   1.984
 5515SOL    HW217445   1.908   5.652   2.118
 5516SOL     OW17446   2.572   2.757   5.322
 5516SOL    HW117447   2.493   2.702   5.295
 5516SOL    HW217448   2.559   2.852   5.292
 5517SOL     OW17449   1.714   3.919   2.754
 5517SOL    HW117450   1.747   3.850   2.690
 5517SOL    HW217451   1.672   3.875   2.833
 5518SOL     OW17452   4.857   4.491   5.238
 5518SOL    HW117453   4.910   4.418   5.281
 5518SOL    HW217454   4.806   4.455   5.161
 5519SOL     OW17455   4.399   2.417   3.740
 5519SOL    HW117456   4.397   2.433   3.641
 5519SOL    HW217457   4.322   2.360   3.766
 5520SOL     OW17458   5.445   6.365   2.337
 5520SOL    HW117459   5.518   6.349   2.270
 5520SOL    HW217460   5.479   6.422   2.411
 5521SOL     OW17461   5.400   5.462   1.992
 5521SOL    HW117462   5.392   5.380   2.049
 5521SOL    HW217463   5.332   5.458   1.919
 5522SOL     OW17464   5.548   5.159   0.910
 5522SOL    HW117465   5.535   5.258   0.908
 5522SOL    HW217466   5.564   5.126   0.817
 5523SOL     OW17467   6.039   1.387   2.441
 5523SOL    HW117468   5.999   1.296   2.434
 5523SOL    HW217469   6.087   1.409   2.356
 5524SOL     OW17470   3.015   0.755   4.823
 5524SOL    HW117471   3.029   0.853   4.812
 5524SOL    HW217472   3.092   0.705   4.784
 5525SOL     OW17473   6.598   2.699   1.263
 5525SOL    HW117474   6.611   2.797   1.246
 5525SOL    HW217475   6.523   2.665   1.206
 5526SOL     OW17476   4.570   4.911   3.458
 5526SOL    HW117477   4.556   4.813   3.471
 5526SOL    HW217478   4.484   4.953   3.429
 5527SOL     OW17479   5.106   2.381   4.196
 5527SOL    HW117480   5.132   2.455   4.134
 5527SOL    HW217481   5.188   2.334   4.229
 5528SOL     OW17482   1.008   1.502   1.501
 5528SOL    HW117483   0.963   1.524   1.414
 5528SOL    HW217484   1.064   1.580   1.530
 5529SOL     OW17485   3.294   0.673   2.614
 5529SOL    HW117486   3.220   0.688   2.548
 5529SOL    HW217487   3.319   0.760   2.656
 5530SOL     OW17488   6.777   2.287   1.411
 5530SOL    HW117489   6.699   2.289   1.474
 5530SOL    HW217490   6.843   2.218   1.441
 5531SOL     OW17491   3.576   3.782   1.060
 5531SOL    HW117492   3.483   3.780   1.097
 5531SOL    HW217493   3.610   3.689   1.050
 5532SOL     OW17494   1.706   2.971   1.319
 5532SOL    HW117495   1.722   2.887   1.267
 5532SOL    HW217496   1.608   2.981   1.337
 5533SOL     OW17497   4.042   1.836   4.280
 5533SOL    HW117498   4.003   1.928   4.282
 5533SOL    HW217499   4.126   1.834   4.333
 5534SOL     OW17500   1.122   1.679   5.774
 5534SOL    HW117501   1.075   1.727   5.701
 5534SOL    HW217502   1.170   1.745   5.832
 5535SOL     OW17503   1.016   2.258   3.212
 5535SOL    HW117504   1.106   2.241   3.253
 5535SOL    HW217505   0.959   2.176   3.222
 5536SOL     OW17506   3.119   0.620   4.500
 5536SOL    HW117507   3.181   0.635   4.577
 5536SOL    HW217508   3.122   0.699   4.439
 5537SOL     OW17509   2.718   0.833   2.964
 5537SOL    HW117510   2.788   0.767   2.938
 5537SOL    HW217511   2.671   0.802   3.046
 5538SOL     OW17512   4.861   5.880   4.815
 5538SOL    HW117513   4.881   5.970   4.853
 5538SOL    HW217514   4.781   5.885   4.756
 5539SOL     OW17515   2.563   2.791   1.018
 5539SOL    HW117516   2.464   2.788   1.026
 5539SOL    HW217517   2.591   2.748   0.932
 5540SOL     OW17518   4.796   4.745   3.062
 5540SOL    HW117519   4.741   4.753   2.978
 5540SOL    HW217520   4.782   4.827   3.118
 5541SOL     OW17521   5.173   1.026   5.510
 5541SOL    HW117522   5.141   1.106   5.460
 5541SOL    HW217523   5.143   0.943   5.463
 5542SOL     OW17524   4.300   4.533   6.156
 5542SOL    HW117525   4.394   4.558   6.181
 5542SOL    HW217526   4.295   4.434   6.141
 5543SOL     OW17527   6.445   2.784   6.363
 5543SOL    HW117528   6.482   2.719   6.296
 5543SOL    HW217529   6.348   2.766   6.376
 5544SOL     OW17530   6.116   0.775   5.516
 5544SOL    HW117531   6.024   0.814   5.518
 5544SOL    HW217532   6.110   0.675   5.512
 5545SOL     OW17533   3.342   2.081   2.351
 5545SOL    HW117534   3.361   2.151   2.282
 5545SOL    HW217535   3.423   2.066   2.407
 5546SOL     OW17536   1.793   5.110   5.601
 5546SOL    HW117537   1.892   5.100   5.593
 5546SOL    HW217538   1.769   5.127   5.697
 5547SOL     OW17539   3.216   5.416   5.232
 5547SOL    HW117540   3.256   5.342   5.178
 5547SOL    HW217541   3.207   5.498   5.175
 5548SOL     OW17542   6.623   3.506   5.209
 5548SOL    HW117543   6.699   3.536   5.152
 5548SOL    HW217544   6.549   3.574   5.205
 5549SOL     OW17545   2.665   5.150   6.834
 5549SOL    HW117546   2.701   5.137   6.742
 5549SOL    HW217547   2.566   5.141   6.833
 5550SOL     OW17548   4.414   6.533   1.392
 5550SOL    HW117549   4.412   6.627   1.426
 5550SOL    HW217550   4.508   6.508   1.370
 5551SOL     OW17551   0.928   1.720   2.984
 5551SOL    HW117552   0.884   1.810   2.977
 5551SOL    HW217553   1.004   1.714   2.920
 5552SOL     OW17554   0.103   2.736   1.658
 5552SOL    HW117555   0.126   2.806   1.726
 5552SOL    HW217556   0.100   2.777   1.567
 5553SOL     OW17557   5.189   5.894   0.797
 5553SOL    HW117558   5.182   5.876   0.699
 5553SOL    HW217559   5.278   5.862   0.830
 5554SOL     OW17560   2.891   2.023   4.592
 5554SOL    HW117561   2.980   1.981   4.614
 5554SOL    HW217562   2.905   2.118   4.566
 5555SOL     OW17563   0.269   5.689   3.241
 5555SOL    HW117564   0.303   5.617   3.301
 5555SOL    HW217565   0.267   5.776   3.291
 5556SOL     OW17566   0.330   1.873   4.926
 5556SOL    HW117567   0.280   1.810   4.986
 5556SOL    HW217568   0.292   1.966   4.936
 5557SOL     OW17569   2.306   0.214   3.738
 5557SOL    HW117570   2.388   0.218   3.680
 5557SOL    HW217571   2.233   0.268   3.696
 5558SOL     OW17572   5.084   3.276   5.208
 5558SOL    HW117573   5.056   3.188   5.249
 5558SOL    HW217574   5.003   3.324   5.174
 5559SOL     OW17575   1.974   0.443   1.409
 5559SOL    HW117576   1.900   0.384   1.441
 5559SOL    HW217577   1.953   0.474   1.316
 5560SOL     OW17578   0.064   1.533   3.862
 5560SOL    HW117579   0.138   1.466   3.869
 5560SOL    HW217580   0.031   1.557   3.953
 5561SOL     OW17581   1.577   2.800   3.476
 5561SOL    HW117582   1.586   2.765   3.570
 5561SOL    HW217583   1.636   2.747   3.415
 5562SOL     OW17584   2.465   2.629   5.965
 5562SOL    HW117585   2.438   2.719   6.000
 5562SOL    HW217586   2.518   2.580   6.035
 5563SOL     OW17587   4.390   6.027   1.976
 5563SOL    HW117588   4.446   6.086   1.919
 5563SOL    HW217589   4.295   6.059   1.974
 5564SOL     OW17590   5.545   3.920   1.835
 5564SOL    HW117591   5.556   3.943   1.738
 5564SOL    HW217592   5.448   3.909   1.856
 5565SOL     OW17593   3.337   3.339   5.444
 5565SOL    HW117594   3.433   3.312   5.435
 5565SOL    HW217595   3.316   3.411   5.379
 5566SOL     OW17596   1.717   4.949   1.348
 5566SOL    HW117597   1.739   4.975   1.442
 5566SOL    HW217598   1.798   4.907   1.305
 5567SOL     OW17599   1.553   5.562   1.753
 5567SOL    HW117600   1.472   5.518   1.792
 5567SOL    HW217601   1.623   5.493   1.735
 5568SOL     OW17602   3.220   2.317   1.652
 5568SOL    HW117603   3.235   2.261   1.571
 5568SOL    HW217604   3.137   2.287   1.700
 5569SOL     OW17605   5.224   1.729   6.917
 5569SOL    HW117606   5.313   1.741   6.962
 5569SOL    HW217607   5.151   1.750   6.982
 5570SOL     OW17608   6.958   4.530   5.715
 5570SOL    HW117609   0.032   4.489   5.707
 5570SOL    HW217610   6.940   4.586   5.634
 5571SOL     OW17611   0.003   4.804   6.082
 5571SOL    HW117612   0.006   4.738   6.157
 5571SOL    HW217613   0.084   4.792   6.024
 5572SOL     OW17614   5.193   2.274   6.152
 5572SOL    HW117615   5.135   2.354   6.135
 5572SOL    HW217616   5.286   2.294   6.121
 5573SOL     OW17617   0.834   3.840   0.266
 5573SOL    HW117618   0.799   3.818   0.175
 5573SOL    HW217619   0.932   3.860   0.259
 5574SOL     OW17620   0.551   5.915   4.863
 5574SOL    HW117621   0.556   5.833   4.920
 5574SOL    HW217622   0.559   5.889   4.767
 5575SOL     OW17623   1.652   0.784   0.857
 5575SOL    HW117624   1.623   0.792   0.762
 5575SOL    HW217625   1.737   0.834   0.871
 5576SOL     OW17626   6.125   5.779   6.989
 5576SOL    HW117627   6.068   5.860   6.972
 5576SOL    HW217628   6.148   5.736   6.902
 5577SOL     OW17629   2.127   3.739   5.396
 5577SOL    HW117630   2.090   3.651   5.424
 5577SOL    HW217631   2.152   3.736   5.299
 5578SOL     OW17632   3.928   2.584   6.775
 5578SOL    HW117633   3.988   2.606   6.698
 5578SOL    HW217634   3.835   2.567   6.741
 5579SOL     OW17635   4.823   4.452   0.221
 5579SOL    HW117636   4.822   4.374   0.158
 5579SOL    HW217637   4.916   4.486   0.230
 5580SOL     OW17638   6.064   1.481   0.428
 5580SOL    HW117639   6.071   1.384   0.451
 5580SOL    HW217640   6.107   1.535   0.500
 5581SOL     OW17641   2.228   2.143   6.821
 5581SOL    HW117642   2.203   2.237   6.840
 5581SOL    HW217643   2.305   2.116   6.880
 5582SOL     OW17644   4.022   3.773   3.234
 5582SOL    HW117645   3.934   3.730   3.259
 5582SOL    HW217646   4.094   3.736   3.293
 5583SOL     OW17647   4.333   0.095   0.977
 5583SOL    HW117648   4.294   0.101   1.069
 5583SOL    HW217649   4.432   0.079   0.983
 5584SOL     OW17650   6.308   3.198   3.502
 5584SOL    HW117651   6.292   3.105   3.470
 5584SOL    HW217652   6.240   3.259   3.461
 5585SOL     OW17653   6.124   0.012   4.032
 5585SOL    HW117654   6.202   0.020   3.970
 5585SOL    HW217655   6.100   0.102   4.068
 5586SOL     OW17656   1.981   1.114   6.563
 5586SOL    HW117657   1.915   1.165   6.618
 5586SOL    HW217658   1.935   1.078   6.482
 5587SOL     OW17659   3.591   6.977   4.357
 5587SOL    HW117660   3.630   6.915   4.288
 5587SOL    HW217661   3.583   0.052   4.319
 5588SOL     OW17662   3.912   0.429   6.348
 5588SOL    HW117663   3.910   0.329   6.350
 5588SOL    HW217664   3.920   0.460   6.253
 5589SOL     OW17665   4.335   3.151   6.931
 5589SOL    HW117666   4.415   3.207   6.952
 5589SOL    HW217667   4.328   3.076   6.997
 5590SOL     OW17668   0.457   6.469   3.258
 5590SOL    HW117669   0.518   6.429   3.326
 5590SOL    HW217670   0.461   6.415   3.174
 5591SOL     OW17671   4.729   0.935   0.207
 5591SOL    HW117672   4.647   0.914   0.154
 5591SOL    HW217673   4.810   0.907   0.157
 5592SOL     OW17674   1.959   2.885   2.564
 5592SOL    HW117675   1.982   2.793   2.597
 5592SOL    HW217676   1.927   2.941   2.640
 5593SOL     OW17677   1.794   3.179   5.314
 5593SOL    HW117678   1.821   3.189   5.409
 5593SOL    HW217679   1.821   3.260   5.263
 5594SOL     OW17680   2.557   0.711   0.140
 5594SOL    HW117681   2.486   0.677   0.201
 5594SOL    HW217682   2.553   0.661   0.053
 5595SOL     OW17683   0.032   1.985   5.529
 5595SOL    HW117684   0.083   1.994   5.614
 5595SOL    HW217685   0.026   1.888   5.505
 5596SOL     OW17686   5.105   1.169   2.937
 5596SOL    HW117687   5.099   1.253   2.991
 5596SOL    HW217688   5.166   1.183   2.859
 5597SOL     OW17689   0.219   1.071   6.108
 5597SOL    HW117690   0.127   1.057   6.143
 5597SOL    HW217691   0.214   1.097   6.011
 5598SOL     OW17692   6.699   2.213   4.188
 5598SOL    HW117693   6.617   2.194   4.243
 5598SOL    HW217694   6.713   2.138   4.123
 5599SOL     OW17695   4.934   2.702   3.405
 5599SOL    HW117696   4.931   2.667   3.498
 5599SOL    HW217697   4.842   2.731   3.377
 5600SOL     OW17698   2.789   1.562   2.011
 5600SOL    HW117699   2.781   1.661   1.999
 5600SOL    HW217700   2.707   1.518   1.975
 5601SOL     OW17701   5.865   3.083   5.364
 5601SOL    HW117702   5.924   3.028   5.305
 5601SOL    HW217703   5.775   3.040   5.372
 5602SOL     OW17704   6.499   2.349   2.795
 5602SOL    HW117705   6.547   2.437   2.802
 5602SOL    HW217706   6.544   2.292   2.726
 5603SOL     OW17707   4.219   1.530   5.395
 5603SOL    HW117708   4.205   1.442   5.350
 5603SOL    HW217709   4.315   1.556   5.387
 5604SOL     OW17710   1.124   0.645   4.333
 5604SOL    HW117711   1.050   0.666   4.270
 5604SOL    HW217712   1.211   0.643   4.284
 5605SOL     OW17713   3.595   6.220   4.528
 5605SOL    HW117714   3.544   6.136   4.513
 5605SOL    HW217715   3.576   6.285   4.454
 5606SOL     OW17716   4.500   2.692   0.336
 5606SOL    HW117717   4.535   2.658   0.423
 5606SOL    HW217718   4.422   2.636   0.308
 5607SOL     OW17719   6.314   2.424   2.544
 5607SOL    HW117720   6.384   2.355   2.524
 5607SOL    HW217721   6.246   2.385   2.606
 5608SOL     OW17722   4.952   0.303   3.285
 5608SOL    HW117723   5.030   0.334   3.340
 5608SOL    HW217724   4.868   0.311   3.339
 5609SOL     OW17725   0.168   0.112   0.611
 5609SOL    HW117726   0.256   0.146   0.577
 5609SOL    HW217727   0.182   0.025   0.658
 5610SOL     OW17728   5.262   4.452   0.546
 5610SOL    HW117729   5.271   4.428   0.642
 5610SOL    HW217730   5.202   4.386   0.500
 5611SOL     OW17731   6.269   4.671   1.500
 5611SOL    HW117732   6.209   4.739   1.541
 5611SOL    HW217733   6.252   4.582   1.542
 5612SOL     OW17734   3.091   1.667   0.583
 5612SOL    HW117735   3.170   1.649   0.643
 5612SOL    HW217736   3.077   1.588   0.523
 5613SOL     OW17737   6.004   4.931   5.872
 5613SOL    HW117738   5.943   4.924   5.792
 5613SOL    HW217739   6.031   5.027   5.885
 5614SOL     OW17740   5.340   3.216   4.100
 5614SOL    HW117741   5.321   3.238   4.196
 5614SOL    HW217742   5.294   3.130   4.076
 5615SOL     OW17743   0.201   2.681   2.944
 5615SOL    HW117744   0.169   2.586   2.943
 5615SOL    HW217745   0.122   2.743   2.945
 5616SOL     OW17746   1.474   3.196   2.425
 5616SOL    HW117747   1.490   3.235   2.334
 5616SOL    HW217748   1.500   3.099   2.424
 5617SOL     OW17749   2.086   5.129   6.129
 5617SOL    HW117750   2.176   5.172   6.141
 5617SOL    HW217751   2.096   5.044   6.078
 5618SOL     OW17752   6.175   5.933   2.966
 5618SOL    HW117753   6.141   5.995   2.894
 5618SOL    HW217754   6.264   5.897   2.939
 5619SOL     OW17755   3.841   2.953   3.879
 5619SOL    HW117756   3.884   2.966   3.969
 5619SOL    HW217757   3.749   2.916   3.892
 5620SOL     OW17758   5.213   4.179   5.037
 5620SOL    HW117759   5.177   4.220   4.953
 5620SOL    HW217760   5.246   4.086   5.018
 5621SOL     OW17761   1.572   2.003   5.457
 5621SOL    HW117762   1.625   1.980   5.538
 5621SOL    HW217763   1.610   1.955   5.378
 5622SOL     OW17764   4.737   5.619   4.297
 5622SOL    HW117765   4.743   5.594   4.200
 5622SOL    HW217766   4.767   5.542   4.353
 5623SOL     OW17767   4.904   5.543   3.517
 5623SOL    HW117768   4.876   5.536   3.422
 5623SOL    HW217769   4.962   5.623   3.529
 5624SOL     OW17770   6.129   5.189   3.400
 5624SOL    HW117771   6.049   5.166   3.454
 5624SOL    HW217772   6.160   5.281   3.424
 5625SOL     OW17773   1.256   6.335   5.158
 5625SOL    HW117774   1.274   6.332   5.060
 5625SOL    HW217775   1.186   6.404   5.177
 5626SOL     OW17776   0.814   4.347   6.330
 5626SOL    HW117777   0.836   4.358   6.233
 5626SOL    HW217778   0.757   4.266   6.343
 5627SOL     OW17779   0.556   6.152   6.938
 5627SOL    HW117780   0.634   6.125   6.995
 5627SOL    HW217781   0.520   6.239   6.970
 5628SOL     OW17782   2.341   2.295   1.519
 5628SOL    HW117783   2.254   2.245   1.513
 5628SOL    HW217784   2.322   2.392   1.534
 5629SOL     OW17785   5.619   3.448   2.410
 5629SOL    HW117786   5.647   3.539   2.441
 5629SOL    HW217787   5.667   3.378   2.463
 5630SOL     OW17788   1.457   3.826   0.063
 5630SOL    HW117789   1.465   3.738   0.016
 5630SOL    HW217790   1.548   3.863   0.080
 5631SOL     OW17791   3.959   1.718   1.852
 5631SOL    HW117792   3.917   1.771   1.926
 5631SOL    HW217793   4.010   1.779   1.792
 5632SOL     OW17794   5.371   6.954   5.813
 5632SOL    HW117795   5.312   6.957   5.732
 5632SOL    HW217796   5.466   6.969   5.786
 5633SOL     OW17797   0.855   5.009   5.643
 5633SOL    HW117798   0.879   4.945   5.717
 5633SOL    HW217799   0.929   5.075   5.631
 5634SOL     OW17800   2.448   6.957   1.290
 5634SOL    HW117801   2.400   0.005   1.231
 5634SOL    HW217802   2.546   6.960   1.269
 5635SOL     OW17803   2.703   0.613   0.463
 5635SOL    HW117804   2.764   0.663   0.401
 5635SOL    HW217805   2.634   0.675   0.500
 5636SOL     OW17806   5.882   1.411   5.669
 5636SOL    HW117807   5.896   1.392   5.766
 5636SOL    HW217808   5.951   1.362   5.615
 5637SOL     OW17809   4.730   6.712   4.470
 5637SOL    HW117810   4.736   6.643   4.397
 5637SOL    HW217811   4.788   6.790   4.447
 5638SOL     OW17812   6.098   5.351   1.255
 5638SOL    HW117813   6.037   5.272   1.248
 5638SOL    HW217814   6.157   5.354   1.174
 5639SOL     OW17815   1.731   0.278   1.342
 5639SOL    HW117816   1.707   0.315   1.252
 5639SOL    HW217817   1.756   0.182   1.333
 5640SOL     OW17818   3.012   6.160   2.908
 5640SOL    HW117819   2.977   6.150   2.815
 5640SOL    HW217820   2.936   6.152   2.973
 5641SOL     OW17821   1.065   4.447   4.182
 5641SOL    HW117822   1.034   4.365   4.230
 5641SOL    HW217823   1.086   4.518   4.249
 5642SOL     OW17824   1.822   4.708   7.011
 5642SOL    HW117825   1.814   4.804   0.019
 5642SOL    HW217826   1.916   4.689   6.982
 5643SOL     OW17827   4.395   2.274   5.064
 5643SOL    HW117828   4.306   2.319   5.070
 5643SOL    HW217829   4.460   2.335   5.018
 5644SOL     OW17830   4.439   1.166   4.907
 5644SOL    HW117831   4.373   1.238   4.932
 5644SOL    HW217832   4.460   1.111   4.988
 5645SOL     OW17833   5.968   5.606   4.327
 5645SOL    HW117834   6.035   5.541   4.293
 5645SOL    HW217835   5.893   5.557   4.372
 5646SOL     OW17836   0.399   5.852   4.404
 5646SOL    HW117837   0.448   5.766   4.422
 5646SOL    HW217838   0.322   5.861   4.467
 5647SOL     OW17839   5.379   5.352   6.131
 5647SOL    HW117840   5.353   5.312   6.219
 5647SOL    HW217841   5.477   5.370   6.130
 5648SOL     OW17842   2.027   1.974   5.148
 5648SOL    HW117843   2.088   1.897   5.167
 5648SOL    HW217844   2.064   2.057   5.188
 5649SOL     OW17845   0.635   0.831   5.318
 5649SOL    HW117846   0.644   0.794   5.410
 5649SOL    HW217847   0.548   0.879   5.310
 5650SOL     OW17848   6.121   4.818   6.711
 5650SOL    HW117849   6.178   4.847   6.634
 5650SOL    HW217850   6.172   4.753   6.768
 5651SOL     OW17851   6.920   0.483   2.987
 5651SOL    HW117852   6.911   0.431   2.901
 5651SOL    HW217853   7.002   0.539   2.984
 5652SOL     OW17854   4.656   4.847   0.744
 5652SOL    HW117855   4.567   4.804   0.756
 5652SOL    HW217856   4.645   4.939   0.706
 5653SOL     OW17857   1.362   5.958   6.074
 5653SOL    HW117858   1.343   5.977   5.977
 5653SOL    HW217859   1.414   5.873   6.081
 5654SOL     OW17860   6.859   6.166   5.977
 5654SOL    HW117861   6.924   6.100   5.940
 5654SOL    HW217862   6.817   6.217   5.903
 5655SOL     OW17863   6.931   3.430   3.692
 5655SOL    HW117864   6.954   3.509   3.750
 5655SOL    HW217865   6.872   3.459   3.618
 5656SOL     OW17866   3.629   4.616   0.024
 5656SOL    HW117867   3.618   4.568   6.954
 5656SOL    HW217868   3.696   4.567   0.081
 5657SOL     OW17869   4.016   6.755   1.855
 5657SOL    HW117870   4.075   6.728   1.779
 5657SOL    HW217871   3.965   6.837   1.830
 5658SOL     OW17872   4.336   0.307   5.510
 5658SOL    HW117873   4.279   0.225   5.513
 5658SOL    HW217874   4.413   0.296   5.574
 5659SOL     OW17875   3.176   3.885   2.868
 5659SOL    HW117876   3.259   3.833   2.884
 5659SOL    HW217877   3.199   3.976   2.834
 5660SOL     OW17878   6.004   6.351   6.948
 5660SOL    HW117879   6.027   6.337   6.852
 5660SOL    HW217880   5.910   6.383   6.956
 5661SOL     OW17881   6.172   5.445   4.362
 5661SOL    HW117882   6.269   5.464   4.372
 5661SOL    HW217883   6.141   5.391   4.441
 5662SOL     OW17884   2.514   4.501   4.464
 5662SOL    HW117885   2.472   4.479   4.551
 5662SOL    HW217886   2.514   4.420   4.405
 5663SOL     OW17887   1.713   4.487   0.295
 5663SOL    HW117888   1.619   4.460   0.274
 5663SOL    HW217889   1.738   4.455   0.386
 5664SOL     OW17890   0.291   4.431   2.668
 5664SOL    HW117891   0.196   4.420   2.639
 5664SOL    HW217892   0.333   4.341   2.681
 5665SOL     OW17893   2.237   2.503   6.050
 5665SOL    HW117894   2.303   2.557   5.998
 5665SOL    HW217895   2.239   2.532   6.145
 5666SOL     OW17896   5.426   4.923   0.634
 5666SOL    HW117897   5.426   4.831   0.596
 5666SOL    HW217898   5.519   4.960   0.631
 5667SOL     OW17899   0.116   5.289   3.445
 5667SOL    HW117900   0.188   5.313   3.510
 5667SOL    HW217901   0.027   5.312   3.484
 5668SOL     OW17902   5.899   2.348   5.947
 5668SOL    HW117903   5.909   2.254   5.980
 5668SOL    HW217904   5.802   2.373   5.947
 5669SOL     OW17905   0.433   4.318   6.327
 5669SOL    HW117906   0.518   4.265   6.327
 5669SOL    HW217907   0.359   4.262   6.363
 5670SOL     OW17908   0.745   4.067   3.607
 5670SOL    HW117909   0.721   4.096   3.700
 5670SOL    HW217910   0.840   4.036   3.605
 5671SOL     OW17911   1.963   0.932   6.089
 5671SOL    HW117912   2.010   0.959   6.005
 5671SOL    HW217913   2.020   0.867   6.140
 5672SOL     OW17914   4.444   5.144   5.752
 5672SOL    HW117915   4.531   5.182   5.783
 5672SOL    HW217916   4.368   5.191   5.797
 5673SOL     OW17917   0.482   0.391   2.366
 5673SOL    HW117918   0.516   0.302   2.398
 5673SOL    HW217919   0.540   0.423   2.291
 5674SOL     OW17920   6.697   3.303   1.949
 5674SOL    HW117921   6.697   3.354   2.034
 5674SOL    HW217922   6.781   3.324   1.898
 5675SOL     OW17923   4.433   2.518   5.594
 5675SOL    HW117924   4.494   2.439   5.589
 5675SOL    HW217925   4.357   2.506   5.530
 5676SOL     OW17926   2.111   0.406   2.000
 5676SOL    HW117927   2.160   0.443   2.079
 5676SOL    HW217928   2.159   0.433   1.916
 5677SOL     OW17929   6.563   0.758   3.628
 5677SOL    HW117930   6.544   0.851   3.596
 5677SOL    HW217931   6.603   0.705   3.553
 5678SOL     OW17932   2.659   6.391   2.949
 5678SOL    HW117933   2.623   6.313   2.999
 5678SOL    HW217934   2.677   6.365   2.854
 5679SOL     OW17935   2.086   6.492   4.845
 5679SOL    HW117936   2.174   6.474   4.890
 5679SOL    HW217937   2.012   6.453   4.900
 5680SOL     OW17938   2.065   6.323   6.542
 5680SOL    HW117939   2.074   6.309   6.641
 5680SOL    HW217940   2.105   6.246   6.494
 5681SOL     OW17941   1.345   2.619   6.977
 5681SOL    HW117942   1.364   2.559   0.038
 5681SOL    HW217943   1.311   2.707   7.010
 5682SOL     OW17944   1.328   3.512   5.019
 5682SOL    HW117945   1.370   3.450   4.954
 5682SOL    HW217946   1.235   3.535   4.990
 5683SOL     OW17947   3.265   2.245   5.860
 5683SOL    HW117948   3.244   2.148   5.855
 5683SOL    HW217949   3.340   2.266   5.797
 5684SOL     OW17950   3.315   4.129   4.147
 5684SOL    HW117951   3.365   4.043   4.142
 5684SOL    HW217952   3.337   4.185   4.068
 5685SOL     OW17953   6.967   5.294   1.984
 5685SOL    HW117954   6.946   5.230   2.058
 5685SOL    HW217955   6.915   5.268   1.902
 5686SOL     OW17956   3.103   6.856   0.188
 5686SOL    HW117957   3.170   6.825   0.120
 5686SOL    HW217958   3.105   6.955   0.195
 5687SOL     OW17959   5.348   4.952   5.092
 5687SOL    HW117960   5.317   4.926   5.183
 5687SOL    HW217961   5.325   4.879   5.027
 5688SOL     OW17962   5.799   1.798   1.366
 5688SOL    HW117963   5.820   1.728   1.435
 5688SOL    HW217964   5.721   1.769   1.311
 5689SOL     OW17965   3.450   2.397   0.504
 5689SOL    HW117966   3.361   2.351   0.506
 5689SOL    HW217967   3.509   2.353   0.438
 5690SOL     OW17968   4.872   6.474   1.041
 5690SOL    HW117969   4.925   6.532   1.102
 5690SOL    HW217970   4.872   6.513   0.949
 5691SOL     OW17971   1.631   0.363   1.954
 5691SOL    HW117972   1.581   0.448   1.939
 5691SOL    HW217973   1.616   0.301   1.877
 5692SOL     OW17974   6.632   2.519   6.969
 5692SOL    HW117975   6.585   2.454   6.909
 5692SOL    HW217976   6.629   2.486   0.047
 5693SOL     OW17977   5.009   2.703   2.624
 5693SOL    HW117978   4.927   2.690   2.567
 5693SOL    HW217979   5.001   2.646   2.706
 5694SOL     OW17980   0.074   1.911   3.480
 5694SOL    HW117981   0.104   2.006   3.494
 5694SOL    HW217982   0.092   1.859   3.564
 5695SOL     OW17983   1.808   3.273   3.260
 5695SOL    HW117984   1.799   3.306   3.166
 5695SOL    HW217985   1.813   3.173   3.260
 5696SOL     OW17986   2.789   0.496   4.806
 5696SOL    HW117987   2.822   0.587   4.833
 5696SOL    HW217988   2.694   0.486   4.835
 5697SOL     OW17989   6.623   2.882   0.526
 5697SOL    HW117990   6.546   2.830   0.562
 5697SOL    HW217991   6.686   2.905   0.601
 5698SOL     OW17992   0.858   3.641   1.722
 5698SOL    HW117993   0.854   3.696   1.805
 5698SOL    HW217994   0.767   3.604   1.702
 5699SOL     OW17995   6.186   0.602   5.113
 5699SOL    HW117996   6.184   0.696   5.079
 5699SOL    HW217997   6.096   0.577   5.148
 5700SOL     OW17998   1.649   5.542   4.213
 5700SOL    HW117999   1.593   5.615   4.173
 5700SOL    HW218000   1.691   5.488   4.140
 5701SOL     OW18001   6.180   5.607   1.706
 5701SOL    HW118002   6.158   5.554   1.624
 5701SOL    HW218003   6.278   5.600   1.724
 5702SOL     OW18004   2.378   0.696   6.227
 5702SOL    HW118005   2.371   0.781   6.279
 5702SOL    HW218006   2.447   0.707   6.155
 5703SOL     OW18007   4.427   4.705   0.761
 5703SOL    HW118008   4.458   4.700   0.856
 5703SOL    HW218009   4.460   4.625   0.711
 5704SOL     OW18010   4.454   5.336   3.759
 5704SOL    HW118011   4.447   5.282   3.676
 5704SOL    HW218012   4.539   5.389   3.758
 5705SOL     OW18013   6.043   0.644   1.340
 5705SOL    HW118014   5.967   0.706   1.357
 5705SOL    HW218015   6.088   0.668   1.254
 5706SOL     OW18016   1.236   1.283   6.564
 5706SOL    HW118017   1.167   1.347   6.531
 5706SOL    HW218018   1.249   1.295   6.662
 5707SOL     OW18019   2.264   1.840   6.848
 5707SOL    HW118020   2.287   1.923   6.798
 5707SOL    HW218021   2.179   1.854   6.899
 5708SOL     OW18022   4.885   6.941   2.488
 5708SOL    HW118023   4.847   6.985   2.406
 5708SOL    HW218024   4.831   6.860   2.511
 5709SOL     OW18025   0.992   0.146   2.774
 5709SOL    HW118026   1.076   0.113   2.731
 5709SOL    HW218027   0.913   0.112   2.723
 5710SOL     OW18028   3.324   3.378   6.126
 5710SOL    HW118029   3.366   3.409   6.211
 5710SOL    HW218030   3.328   3.451   6.059
 5711SOL     OW18031   4.298   0.962   4.500
 5711SOL    HW118032   4.309   0.873   4.456
 5711SOL    HW218033   4.209   0.967   4.545
 5712SOL     OW18034   6.889   5.804   6.362
 5712SOL    HW118035   6.939   5.865   6.424
 5712SOL    HW218036   6.936   5.802   6.273
 5713SOL     OW18037   0.080   2.993   2.405
 5713SOL    HW118038   0.112   3.082   2.436
 5713SOL    HW218039   0.087   2.988   2.305
 5714SOL     OW18040   1.709   0.736   6.233
 5714SOL    HW118041   1.713   0.636   6.241
 5714SOL    HW218042   1.747   0.763   6.144
 5715SOL     OW18043   1.380   6.725   2.548
 5715SOL    HW118044   1.397   6.696   2.642
 5715SOL    HW218045   1.288   6.764   2.541
 5716SOL     OW18046   2.180   3.769   5.911
 5716SOL    HW118047   2.200   3.785   5.814
 5716SOL    HW218048   2.122   3.688   5.919
 5717SOL     OW18049   1.334   4.137   0.325
 5717SOL    HW118050   1.317   4.152   0.423
 5717SOL    HW218051   1.404   4.201   0.294
 5718SOL     OW18052   2.938   4.584   6.234
 5718SOL    HW118053   2.996   4.608   6.312
 5718SOL    HW218054   2.950   4.651   6.161
 5719SOL     OW18055   3.562   0.832   6.394
 5719SOL    HW118056   3.574   0.735   6.413
 5719SOL    HW218057   3.649   0.870   6.361
 5720SOL     OW18058   1.338   4.779   5.169
 5720SOL    HW118059   1.345   4.861   5.111
 5720SOL    HW218060   1.299   4.805   5.258
 5721SOL     OW18061   0.789   3.872   1.375
 5721SOL    HW118062   0.751   3.779   1.369
 5721SOL    HW218063   0.792   3.912   1.283
 5722SOL     OW18064   5.425   6.672   4.257
 5722SOL    HW118065   5.436   6.584   4.303
 5722SOL    HW218066   5.446   6.746   4.320
 5723SOL     OW18067   3.296   5.244   0.505
 5723SOL    HW118068   3.351   5.280   0.580
 5723SOL    HW218069   3.332   5.276   0.418
 5724SOL     OW18070   5.464   1.660   6.447
 5724SOL    HW118071   5.367   1.659   6.420
 5724SOL    HW218072   5.516   1.606   6.380
 5725SOL     OW18073   5.401   5.351   5.249
 5725SOL    HW118074   5.368   5.402   5.170
 5725SOL    HW218075   5.461   5.277   5.219
 5726SOL     OW18076   5.540   3.519   5.858
 5726SOL    HW118077   5.454   3.505   5.809
 5726SOL    HW218078   5.560   3.439   5.915
 5727SOL     OW18079   5.767   1.865   3.548
 5727SOL    HW118080   5.842   1.876   3.612
 5727SOL    HW218081   5.680   1.865   3.597
 5728SOL     OW18082   6.320   0.509   5.340
 5728SOL    HW118083   6.296   0.501   5.243
 5728SOL    HW218084   6.397   0.572   5.350
 5729SOL     OW18085   0.763   1.927   6.580
 5729SOL    HW118086   0.815   2.008   6.556
 5729SOL    HW218087   0.682   1.921   6.522
 5730SOL     OW18088   4.285   4.808   5.955
 5730SOL    HW118089   4.191   4.783   5.977
 5730SOL    HW218090   4.291   4.838   5.860
 5731SOL     OW18091   2.958   1.086   4.024
 5731SOL    HW118092   2.907   1.041   4.098
 5731SOL    HW218093   3.043   1.037   4.008
 5732SOL     OW18094   5.871   5.283   5.240
 5732SOL    HW118095   5.841   5.192   5.208
 5732SOL    HW218096   5.969   5.292   5.227
 5733SOL     OW18097   3.241   1.230   0.057
 5733SOL    HW118098   3.162   1.291   0.049
 5733SOL    HW218099   3.218   1.155   0.119
 5734SOL     OW18100   1.782   6.256   5.934
 5734SOL    HW118101   1.742   6.168   5.910
 5734SOL    HW218102   1.869   6.267   5.887
 5735SOL     OW18103   4.043   0.469   2.141
 5735SOL    HW118104   4.041   0.527   2.222
 5735SOL    HW218105   4.137   0.441   2.122
 5736SOL     OW18106   4.666   4.137   6.590
 5736SOL    HW118107   4.716   4.070   6.645
 5736SOL    HW218108   4.676   4.116   6.493
 5737SOL     OW18109   4.392   5.493   1.316
 5737SOL    HW118110   4.390   5.399   1.280
 5737SOL    HW218111   4.471   5.542   1.279
 5738SOL     OW18112   3.195   1.077   6.309
 5738SOL    HW118113   3.229   1.139   6.238
 5738SOL    HW218114   3.144   1.130   6.377
 5739SOL     OW18115   2.625   0.304   5.488
 5739SOL    HW118116   2.717   0.268   5.471
 5739SOL    HW218117   2.617   0.329   5.585
 5740SOL     OW18118   5.270   3.903   1.890
 5740SOL    HW118119   5.200   3.862   1.950
 5740SOL    HW218120   5.293   3.994   1.923
 5741SOL     OW18121   0.511   3.714   4.042
 5741SOL    HW118122   0.592   3.657   4.028
 5741SOL    HW218123   0.449   3.668   4.106
 5742SOL     OW18124   4.497   0.549   3.496
 5742SOL    HW118125   4.474   0.645   3.485
 5742SOL    HW218126   4.435   0.507   3.562
 5743SOL     OW18127   3.805   3.951   5.292
 5743SOL    HW118128   3.829   4.020   5.223
 5743SOL    HW218129   3.811   3.860   5.251
 5744SOL     OW18130   5.755   6.629   2.606
 5744SOL    HW118131   5.763   6.646   2.704
 5744SOL    HW218132   5.661   6.602   2.585
 5745SOL     OW18133   2.169   2.418   3.411
 5745SOL    HW118134   2.190   2.363   3.330
 5745SOL    HW218135   2.136   2.358   3.484
 5746SOL     OW18136   4.134   0.641   3.692
 5746SOL    HW118137   4.166   0.547   3.681
 5746SOL    HW218138   4.070   0.663   3.618
 5747SOL     OW18139   0.977   5.969   1.670
 5747SOL    HW118140   1.001   6.061   1.640
 5747SOL    HW218141   1.042   5.903   1.631
 5748SOL     OW18142   0.653   5.737   0.313
 5748SOL    HW118143   0.712   5.739   0.394
 5748SOL    HW218144   0.707   5.763   0.233
 5749SOL     OW18145   1.923   6.348   5.066
 5749SOL    HW118146   1.914   6.249   5.055
 5749SOL    HW218147   1.982   6.368   5.143
 5750SOL     OW18148   6.772   4.586   4.099
 5750SOL    HW118149   6.778   4.491   4.069
 5750SOL    HW218150   6.846   4.639   4.057
 5751SOL     OW18151   2.116   3.796   4.292
 5751SOL    HW118152   2.166   3.873   4.253
 5751SOL    HW218153   2.107   3.808   4.391
 5752SOL     OW18154   5.260   0.579   0.702
 5752SOL    HW118155   5.346   0.527   0.705
 5752SOL    HW218156   5.258   0.644   0.778
 5753SOL     OW18157   3.143   4.022   4.560
 5753SOL    HW118158   3.213   3.968   4.607
 5753SOL    HW218159   3.068   4.041   4.623
 5754SOL     OW18160   0.799   6.196   1.484
 5754SOL    HW118161   0.758   6.277   1.443
 5754SOL    HW218162   0.825   6.131   1.411
 5755SOL     OW18163   1.815   2.272   0.306
 5755SOL    HW118164   1.796   2.365   0.339
 5755SOL    HW218165   1.755   2.252   0.228
 5756SOL     OW18166   5.875   6.043   1.738
 5756SOL    HW118167   5.924   6.055   1.824
 5756SOL    HW218168   5.830   5.954   1.737
 5757SOL     OW18169   6.842   0.258   3.546
 5757SOL    HW118170   6.915   0.323   3.567
 5757SOL    HW218171   6.777   0.300   3.483
 5758SOL     OW18172   1.060   6.799   3.191
 5758SOL    HW118173   1.026   6.876   3.138
 5758SOL    HW218174   1.120   6.742   3.134
 5759SOL     OW18175   3.817   6.695   1.511
 5759SOL    HW118176   3.890   6.764   1.513
 5759SOL    HW218177   3.827   6.634   1.590
 5760SOL     OW18178   6.909   3.296   1.771
 5760SOL    HW118179   6.961   3.236   1.710
 5760SOL    HW218180   6.968   3.370   1.802
 5761SOL     OW18181   5.513   5.324   4.843
 5761SOL    HW118182   5.580   5.381   4.889
 5761SOL    HW218183   5.475   5.373   4.765
 5762SOL     OW18184   5.151   4.431   6.842
 5762SOL    HW118185   5.139   4.460   6.747
 5762SOL    HW218186   5.093   4.487   6.902
 5763SOL     OW18187   5.378   0.313   0.195
 5763SOL    HW118188   5.323   0.335   0.275
 5763SOL    HW218189   5.429   0.395   0.167
 5764SOL     OW18190   4.200   5.350   3.193
 5764SOL    HW118191   4.251   5.264   3.196
 5764SOL    HW218192   4.123   5.341   3.130
 5765SOL     OW18193   6.006   4.661   1.258
 5765SOL    HW118194   6.034   4.670   1.163
 5765SOL    HW218195   5.926   4.719   1.275
 5766SOL     OW18196   0.509   1.839   4.446
 5766SOL    HW118197   0.449   1.879   4.376
 5766SOL    HW218198   0.507   1.897   4.528
 5767SOL     OW18199   2.165   0.153   1.261
 5767SOL    HW118200   2.116   0.191   1.182
 5767SOL    HW218201   2.195   0.228   1.320
 5768SOL     OW18202   0.046   6.082   4.452
 5768SOL    HW118203   0.006   6.145   4.518
 5768SOL    HW218204   0.077   6.133   4.372
 5769SOL     OW18205   1.358   4.925   6.212
 5769SOL    HW118206   1.291   4.854   6.233
 5769SOL    HW218207   1.356   4.945   6.114
 5770SOL     OW18208   1.049   6.248   1.090
 5770SOL    HW118209   1.038   6.153   1.061
 5770SOL    HW218210   1.030   6.309   1.013
 5771SOL     OW18211   2.418   5.333   4.080
 5771SOL    HW118212   2.489   5.310   4.013
 5771SOL    HW218213   2.413   5.261   4.149
 5772SOL     OW18214   4.583   0.319   2.154
 5772SOL    HW118215   4.529   0.290   2.233
 5772SOL    HW218216   4.661   0.374   2.185
 5773SOL     OW18217   4.538   2.225   2.196
 5773SOL    HW118218   4.572   2.207   2.104
 5773SOL    HW218219   4.453   2.277   2.191
 5774SOL     OW18220   0.574   6.381   3.501
 5774SOL    HW118221   0.529   6.391   3.590
 5774SOL    HW218222   0.673   6.372   3.515
 5775SOL     OW18223   0.552   5.383   2.450
 5775SOL    HW118224   0.507   5.306   2.494
 5775SOL    HW218225   0.629   5.351   2.395
 5776SOL     OW18226   1.865   0.317   2.990
 5776SOL    HW118227   1.934   0.263   2.940
 5776SOL    HW218228   1.885   0.414   2.980
 5777SOL     OW18229   1.575   0.386   3.363
 5777SOL    HW118230   1.577   0.316   3.292
 5777SOL    HW218231   1.577   0.343   3.453
 5778SOL     OW18232   0.995   1.422   6.520
 5778SOL    HW118233   0.984   1.448   6.424
 5778SOL    HW218234   1.043   1.495   6.569
 5779SOL     OW18235   5.099   2.162   6.381
 5779SOL    HW118236   5.163   2.172   6.457
 5779SOL    HW218237   5.146   2.176   6.294
 5780SOL     OW18238   5.439   4.676   3.871
 5780SOL    HW118239   5.476   4.691   3.963
 5780SOL    HW218240   5.358   4.618   3.877
 5781SOL     OW18241   0.712   3.914   5.030
 5781SOL    HW118242   0.653   3.993   5.012
 5781SOL    HW218243   0.784   3.941   5.094
 5782SOL     OW18244   0.612   1.137   0.554
 5782SOL    HW118245   0.684   1.087   0.506
 5782SOL    HW218246   0.540   1.073   0.581
 5783SOL     OW18247   1.737   1.736   2.212
 5783SOL    HW118248   1.692   1.652   2.243
 5783SOL    HW218249   1.761   1.727   2.115
 5784SOL     OW18250   0.540   6.737   0.045
 5784SOL    HW118251   0.488   6.655   0.069
 5784SOL    HW218252   0.569   6.784   0.128
 5785SOL     OW18253   2.214   1.221   1.177
 5785SOL    HW118254   2.115   1.229   1.171
 5785SOL    HW218255   2.249   1.286   1.245
 5786SOL     OW18256   0.236   3.896   0.467
 5786SOL    HW118257   0.264   3.802   0.449
 5786SOL    HW218258   0.240   3.915   0.565
 5787SOL     OW18259   2.622   1.850   5.674
 5787SOL    HW118260   2.539   1.803   5.644
 5787SOL    HW218261   2.609   1.885   5.767
 5788SOL     OW18262   2.620   0.367   3.095
 5788SOL    HW118263   2.717   0.370   3.119
 5788SOL    HW218264   2.570   0.434   3.150
 5789SOL     OW18265   3.913   5.174   6.361
 5789SOL    HW118266   3.870   5.090   6.329
 5789SOL    HW218267   4.010   5.158   6.378
 5790SOL     OW18268   0.758   3.081   4.190
 5790SOL    HW118269   0.713   2.992   4.180
 5790SOL    HW218270   0.787   3.092   4.285
 5791SOL     OW18271   2.640   0.092   3.132
 5791SOL    HW118272   2.627   0.187   3.103
 5791SOL    HW218273   2.730   0.060   3.101
 5792SOL     OW18274   6.906   1.911   3.154
 5792SOL    HW118275   6.849   1.852   3.210
 5792SOL    HW218276   6.925   1.866   3.066
 5793SOL     OW18277   6.501   1.120   3.771
 5793SOL    HW118278   6.456   1.060   3.837
 5793SOL    HW218279   6.433   1.169   3.718
 5794SOL     OW18280   3.769   3.043   0.622
 5794SOL    HW118281   3.743   3.137   0.600
 5794SOL    HW218282   3.845   3.015   0.563
 5795SOL     OW18283   5.580   4.977   5.963
 5795SOL    HW118284   5.598   4.899   5.903
 5795SOL    HW218285   5.636   5.055   5.935
 5796SOL     OW18286   3.024   1.437   0.474
 5796SOL    HW118287   3.072   1.416   0.559
 5796SOL    HW218288   2.976   1.355   0.442
 5797SOL     OW18289   3.301   2.166   4.607
 5797SOL    HW118290   3.233   2.174   4.680
 5797SOL    HW218291   3.392   2.189   4.643
 5798SOL     OW18292   0.208   4.399   5.026
 5798SOL    HW118293   0.139   4.327   5.021
 5798SOL    HW218294   0.173   4.482   4.982
 5799SOL     OW18295   4.963   6.956   3.502
 5799SOL    HW118296   4.905   6.947   3.421
 5799SOL    HW218297   5.054   6.986   3.474
 5800SOL     OW18298   5.629   4.548   1.216
 5800SOL    HW118299   5.668   4.605   1.288
 5800SOL    HW218300   5.609   4.604   1.136
 5801SOL     OW18301   0.307   1.603   3.627
 5801SOL    HW118302   0.399   1.574   3.604
 5801SOL    HW218303   0.240   1.544   3.582
 5802SOL     OW18304   0.449   4.025   6.486
 5802SOL    HW118305   0.356   4.061   6.482
 5802SOL    HW218306   0.473   4.003   6.581
 5803SOL     OW18307   1.102   4.735   0.974
 5803SOL    HW118308   1.061   4.813   1.021
 5803SOL    HW218309   1.186   4.763   0.929
 5804SOL     OW18310   6.444   3.852   4.573
 5804SOL    HW118311   6.358   3.812   4.607
 5804SOL    HW218312   6.465   3.935   4.625
 5805SOL     OW18313   4.246   4.245   6.106
 5805SOL    HW118314   4.298   4.175   6.057
 5805SOL    HW218315   4.149   4.231   6.091
 5806SOL     OW18316   0.596   6.879   0.254
 5806SOL    HW118317   0.577   6.965   0.302
 5806SOL    HW218318   0.694   6.870   0.237
 5807SOL     OW18319   1.730   4.032   0.780
 5807SOL    HW118320   1.802   4.100   0.765
 5807SOL    HW218321   1.771   3.943   0.799
 5808SOL     OW18322   5.479   4.155   2.430
 5808SOL    HW118323   5.389   4.147   2.386
 5808SOL    HW218324   5.467   4.157   2.529
 5809SOL     OW18325   6.825   3.139   4.792
 5809SOL    HW118326   6.855   3.100   4.705
 5809SOL    HW218327   6.763   3.215   4.775
 5810SOL     OW18328   3.131   1.403   3.528
 5810SOL    HW118329   3.053   1.431   3.583
 5810SOL    HW218330   3.102   1.388   3.434
 5811SOL     OW18331   2.931   0.431   5.042
 5811SOL    HW118332   2.881   0.459   5.124
 5811SOL    HW218333   2.870   0.380   4.982
 5812SOL     OW18334   4.844   0.282   3.612
 5812SOL    HW118335   4.805   0.293   3.704
 5812SOL    HW218336   4.841   0.185   3.587
 5813SOL     OW18337   0.900   1.068   5.744
 5813SOL    HW118338   0.855   1.143   5.792
 5813SOL    HW218339   0.988   1.048   5.788
 5814SOL     OW18340   6.913   4.409   0.425
 5814SOL    HW118341   6.816   4.384   0.434
 5814SOL    HW218342   6.970   4.331   0.449
 5815SOL     OW18343   4.084   2.260   2.880
 5815SOL    HW118344   4.063   2.254   2.978
 5815SOL    HW218345   4.011   2.310   2.833
 5816SOL     OW18346   5.614   0.201   0.049
 5816SOL    HW118347   5.663   0.116   0.066
 5816SOL    HW218348   5.518   0.181   0.030
 5817SOL     OW18349   6.244   2.868   6.158
 5817SOL    HW118350   6.331   2.877   6.109
 5817SOL    HW218351   6.225   2.953   6.207
 5818SOL     OW18352   5.877   6.307   5.505
 5818SOL    HW118353   5.932   6.269   5.431
 5818SOL    HW218354   5.900   6.262   5.591
 5819SOL     OW18355   4.884   0.554   0.970
 5819SOL    HW118356   4.915   0.519   0.882
 5819SOL    HW218357   4.814   0.493   1.007
 5820SOL     OW18358   4.849   6.851   3.250
 5820SOL    HW118359   4.823   6.915   3.178
 5820SOL    HW218360   4.848   6.758   3.215
 5821SOL     OW18361   2.817   0.291   1.965
 5821SOL    HW118362   2.783   0.307   1.872
 5821SOL    HW218363   2.891   0.224   1.962
 5822SOL     OW18364   0.529   2.598   1.636
 5822SOL    HW118365   0.596   2.542   1.685
 5822SOL    HW218366   0.569   2.631   1.551
 5823SOL     OW18367   1.049   0.798   5.279
 5823SOL    HW118368   1.015   0.840   5.363
 5823SOL    HW218369   0.982   0.810   5.206
 5824SOL     OW18370   6.360   6.505   3.286
 5824SOL    HW118371   6.356   6.422   3.341
 5824SOL    HW218372   6.425   6.493   3.211
 5825SOL     OW18373   2.555   1.461   6.392
 5825SOL    HW118374   2.484   1.528   6.410
 5825SOL    HW218375   2.613   1.450   6.473
 5826SOL     OW18376   6.046   6.212   5.306
 5826SOL    HW118377   6.057   6.153   5.226
 5826SOL    HW218378   6.126   6.203   5.365
 5827SOL     OW18379   0.563   5.118   4.919
 5827SOL    HW118380   0.491   5.179   4.951
 5827SOL    HW218381   0.524   5.051   4.855
 5828SOL     OW18382   0.515   3.816   1.942
 5828SOL    HW118383   0.515   3.725   1.900
 5828SOL    HW218384   0.424   3.837   1.976
 5829SOL     OW18385   2.700   1.021   2.345
 5829SOL    HW118386   2.686   0.939   2.291
 5829SOL    HW218387   2.633   1.025   2.420
 5830SOL     OW18388   3.787   0.985   5.865
 5830SOL    HW118389   3.717   1.056   5.855
 5830SOL    HW218390   3.754   0.915   5.929
 5831SOL     OW18391   6.055   6.232   2.970
 5831SOL    HW118392   6.087   6.185   2.888
 5831SOL    HW218393   5.956   6.224   2.977
 5832SOL     OW18394   4.344   4.148   5.486
 5832SOL    HW118395   4.331   4.085   5.563
 5832SOL    HW218396   4.441   4.160   5.469
 5833SOL     OW18397   3.000   3.490   4.312
 5833SOL    HW118398   3.099   3.492   4.315
 5833SOL    HW218399   2.968   3.516   4.221
 5834SOL     OW18400   6.447   1.601   0.390
 5834SOL    HW118401   6.450   1.678   0.327
 5834SOL    HW218402   6.365   1.607   0.446
 5835SOL     OW18403   4.928   1.902   3.598
 5835SOL    HW118404   4.953   1.814   3.639
 5835SOL    HW218405   4.938   1.974   3.666
 5836SOL     OW18406   3.267   6.001   2.871
 5836SOL    HW118407   3.268   6.076   2.937
 5836SOL    HW218408   3.185   6.008   2.814
 5837SOL     OW18409   4.592   4.580   0.084
 5837SOL    HW118410   4.684   4.555   0.115
 5837SOL    HW218411   4.563   4.517   0.013
 5838SOL     OW18412   1.692   1.554   6.207
 5838SOL    HW118413   1.772   1.605   6.239
 5838SOL    HW218414   1.628   1.543   6.283
 5839SOL     OW18415   6.581   2.856   2.323
 5839SOL    HW118416   6.558   2.760   2.338
 5839SOL    HW218417   6.511   2.914   2.363
 5840SOL     OW18418   1.285   5.794   6.562
 5840SOL    HW118419   1.292   5.834   6.471
 5840SOL    HW218420   1.373   5.803   6.609
 5841SOL     OW18421   5.737   3.372   2.850
 5841SOL    HW118422   5.776   3.313   2.922
 5841SOL    HW218423   5.648   3.334   2.821
 5842SOL     OW18424   3.625   3.013   0.854
 5842SOL    HW118425   3.591   3.098   0.894
 5842SOL    HW218426   3.679   3.035   0.772
 5843SOL     OW18427   2.034   3.700   2.442
 5843SOL    HW118428   2.063   3.795   2.429
 5843SOL    HW218429   2.031   3.653   2.354
 5844SOL     OW18430   0.205   5.603   6.386
 5844SOL    HW118431   0.216   5.697   6.415
 5844SOL    HW218432   0.107   5.581   6.381
 5845SOL     OW18433   1.096   2.549   3.473
 5845SOL    HW118434   1.190   2.578   3.458
 5845SOL    HW218435   1.049   2.543   3.385
 5846SOL     OW18436   6.776   2.985   5.431
 5846SOL    HW118437   6.856   3.001   5.489
 5846SOL    HW218438   6.751   2.889   5.434
 5847SOL     OW18439   2.082   2.341   2.327
 5847SOL    HW118440   2.018   2.410   2.361
 5847SOL    HW218441   2.175   2.376   2.330
 5848SOL     OW18442   2.179   4.899   3.373
 5848SOL    HW118443   2.173   4.994   3.342
 5848SOL    HW218444   2.121   4.842   3.315
 5849SOL     OW18445   1.153   0.266   5.619
 5849SOL    HW118446   1.085   0.276   5.692
 5849SOL    HW218447   1.238   0.309   5.647
 5850SOL     OW18448   1.368   3.769   2.025
 5850SOL    HW118449   1.433   3.720   2.083
 5850SOL    HW218450   1.414   3.844   1.979
 5851SOL     OW18451   6.051   3.830   2.528
 5851SOL    HW118452   6.042   3.733   2.507
 5851SOL    HW218453   6.023   3.884   2.448
 5852SOL     OW18454   3.908   6.570   2.914
 5852SOL    HW118455   3.913   6.472   2.892
 5852SOL    HW218456   3.824   6.608   2.878
 5853SOL     OW18457   3.177   5.367   6.314
 5853SOL    HW118458   3.122   5.373   6.230
 5853SOL    HW218459   3.146   5.288   6.368
 5854SOL     OW18460   6.773   2.959   5.985
 5854SOL    HW118461   6.678   2.973   6.013
 5854SOL    HW218462   6.779   2.875   5.931
 5855SOL     OW18463   1.197   1.228   4.537
 5855SOL    HW118464   1.122   1.221   4.470
 5855SOL    HW218465   1.210   1.325   4.561
 5856SOL     OW18466   2.224   5.235   3.305
 5856SOL    HW118467   2.130   5.226   3.335
 5856SOL    HW218468   2.270   5.305   3.361
 5857SOL     OW18469   6.375   2.761   5.213
 5857SOL    HW118470   6.335   2.853   5.205
 5857SOL    HW218471   6.359   2.725   5.304
 5858SOL     OW18472   3.247   1.142   2.231
 5858SOL    HW118473   3.328   1.097   2.269
 5858SOL    HW218474   3.222   1.219   2.289
 5859SOL     OW18475   6.338   6.121   0.606
 5859SOL    HW118476   6.306   6.156   0.518
 5859SOL    HW218477   6.335   6.021   0.605
 5860SOL     OW18478   1.919   4.792   1.931
 5860SOL    HW118479   1.877   4.744   1.854
 5860SOL    HW218480   1.948   4.727   2.000
 5861SOL     OW18481   5.365   2.163   3.906
 5861SOL    HW118482   5.396   2.173   4.000
 5861SOL    HW218483   5.414   2.229   3.848
 5862SOL     OW18484   3.800   5.095   2.969
 5862SOL    HW118485   3.731   5.027   2.994
 5862SOL    HW218486   3.866   5.104   3.043
 5863SOL     OW18487   2.269   0.973   6.292
 5863SOL    HW118488   2.322   1.052   6.324
 5863SOL    HW218489   2.211   0.940   6.366
 5864SOL     OW18490   4.274   4.141   1.717
 5864SOL    HW118491   4.281   4.048   1.679
 5864SOL    HW218492   4.356   4.160   1.771
 5865SOL     OW18493   5.324   0.662   3.490
 5865SOL    HW118494   5.230   0.683   3.461
 5865SOL    HW218495   5.371   0.612   3.417
 5866SOL     OW18496   4.339   6.629   5.889
 5866SOL    HW118497   4.360   6.532   5.905
 5866SOL    HW218498   4.260   6.636   5.829
 5867SOL     OW18499   0.280   2.979   1.244
 5867SOL    HW118500   0.280   3.079   1.250
 5867SOL    HW218501   0.211   2.942   1.307
 5868SOL     OW18502   0.750   0.044   4.983
 5868SOL    HW118503   0.754   0.050   4.883
 5868SOL    HW218504   0.807   0.116   5.023
 5869SOL     OW18505   2.439   4.441   3.931
 5869SOL    HW118506   2.525   4.490   3.946
 5869SOL    HW218507   2.362   4.502   3.950
 5870SOL     OW18508   5.213   5.353   4.539
 5870SOL    HW118509   5.165   5.402   4.466
 5870SOL    HW218510   5.275   5.286   4.498
 5871SOL     OW18511   3.597   3.390   0.286
 5871SOL    HW118512   3.609   3.481   0.246
 5871SOL    HW218513   3.587   3.323   0.213
 5872SOL     OW18514   4.392   5.532   6.550
 5872SOL    HW118515   4.410   5.490   6.639
 5872SOL    HW218516   4.464   5.599   6.530
 5873SOL     OW18517   2.311   3.090   0.372
 5873SOL    HW118518   2.222   3.088   0.327
 5873SOL    HW218519   2.339   2.996   0.394
 5874SOL     OW18520   2.395   3.391   1.419
 5874SOL    HW118521   2.315   3.442   1.451
 5874SOL    HW218522   2.431   3.334   1.494
 5875SOL     OW18523   3.492   1.910   0.300
 5875SOL    HW118524   3.504   1.967   0.219
 5875SOL    HW218525   3.404   1.861   0.294
 5876SOL     OW18526   3.349   3.102   6.706
 5876SOL    HW118527   3.298   3.181   6.739
 5876SOL    HW218528   3.304   3.018   6.734
 5877SOL     OW18529   6.555   0.521   1.081
 5877SOL    HW118530   6.575   0.457   1.155
 5877SOL    HW218531   6.456   0.523   1.065
 5878SOL     OW18532   4.560   5.594   2.148
 5878SOL    HW118533   4.606   5.668   2.197
 5878SOL    HW218534   4.472   5.626   2.112
 5879SOL     OW18535   3.867   3.020   6.313
 5879SOL    HW118536   3.860   3.118   6.331
 5879SOL    HW218537   3.910   3.005   6.224
 5880SOL     OW18538   5.073   3.369   5.631
 5880SOL    HW118539   5.063   3.280   5.676
 5880SOL    HW218540   4.983   3.405   5.607
 5881SOL     OW18541   0.936   6.345   2.620
 5881SOL    HW118542   0.972   6.386   2.704
 5881SOL    HW218543   0.844   6.311   2.637
 5882SOL     OW18544   1.068   6.536   5.730
 5882SOL    HW118545   1.028   6.563   5.642
 5882SOL    HW218546   1.055   6.609   5.797
 5883SOL     OW18547   0.073   3.979   0.760
 5883SOL    HW118548   0.169   3.949   0.764
 5883SOL    HW218549   0.013   3.900   0.763
 5884SOL     OW18550   5.675   1.627   4.065
 5884SOL    HW118551   5.627   1.652   3.980
 5884SOL    HW218552   5.732   1.704   4.095
 5885SOL     OW18553   0.562   5.498   0.277
 5885SOL    HW118554   0.540   5.429   0.346
 5885SOL    HW218555   0.593   5.581   0.322
 5886SOL     OW18556   1.534   3.584   3.296
 5886SOL    HW118557   1.501   3.501   3.251
 5886SOL    HW218558   1.614   3.619   3.246
 5887SOL     OW18559   2.218   1.980   1.384
 5887SOL    HW118560   2.170   2.049   1.438
 5887SOL    HW218561   2.281   1.929   1.443
 5888SOL     OW18562   2.882   6.880   1.737
 5888SOL    HW118563   2.884   6.783   1.713
 5888SOL    HW218564   2.816   6.927   1.678
 5889SOL     OW18565   0.383   0.702   1.193
 5889SOL    HW118566   0.412   0.776   1.253
 5889SOL    HW218567   0.369   0.619   1.246
 5890SOL     OW18568   2.862   6.196   2.317
 5890SOL    HW118569   2.914   6.177   2.234
 5890SOL    HW218570   2.816   6.112   2.347
 5891SOL     OW18571   2.813   3.066   0.685
 5891SOL    HW118572   2.899   3.023   0.710
 5891SOL    HW218573   2.747   3.056   0.759
 5892SOL     OW18574   0.705   3.655   0.391
 5892SOL    HW118575   0.777   3.717   0.361
 5892SOL    HW218576   0.628   3.661   0.329
 5893SOL     OW18577   0.883   5.515   2.019
 5893SOL    HW118578   0.925   5.511   2.110
 5893SOL    HW218579   0.785   5.501   2.027
 5894SOL     OW18580   1.023   5.845   5.710
 5894SOL    HW118581   1.049   5.862   5.615
 5894SOL    HW218582   0.950   5.776   5.712
 5895SOL     OW18583   5.721   3.331   4.817
 5895SOL    HW118584   5.689   3.292   4.730
 5895SOL    HW218585   5.713   3.262   4.889
 5896SOL     OW18586   5.943   1.474   1.756
 5896SOL    HW118587   5.920   1.526   1.838
 5896SOL    HW218588   6.025   1.513   1.713
 5897SOL     OW18589   4.697   1.567   1.114
 5897SOL    HW118590   4.612   1.516   1.098
 5897SOL    HW218591   4.675   1.654   1.160
 5898SOL     OW18592   1.932   1.369   5.716
 5898SOL    HW118593   1.971   1.294   5.769
 5898SOL    HW218594   1.937   1.454   5.770
 5899SOL     OW18595   6.971   5.219   5.982
 5899SOL    HW118596   6.962   5.311   6.021
 5899SOL    HW218597   7.014   5.159   6.049
 5900SOL     OW18598   6.805   6.234   3.086
 5900SOL    HW118599   6.784   6.332   3.078
 5900SOL    HW218600   6.794   6.206   3.182
 5901SOL     OW18601   1.841   0.257   6.475
 5901SOL    HW118602   1.922   0.198   6.474
 5901SOL    HW218603   1.793   0.246   6.562
 5902SOL     OW18604   5.697   4.370   4.681
 5902SOL    HW118605   5.715   4.351   4.585
 5902SOL    HW218606   5.763   4.437   4.715
 5903SOL     OW18607   6.460   2.248   7.002
 5903SOL    HW118608   6.481   2.150   7.008
 5903SOL    HW218609   6.457   2.287   0.077
 5904SOL     OW18610   1.961   4.489   3.001
 5904SOL    HW118611   2.046   4.537   2.981
 5904SOL    HW218612   1.940   4.425   2.927
 5905SOL     OW18613   5.516   0.933   4.085
 5905SOL    HW118614   5.511   1.032   4.102
 5905SOL    HW218615   5.487   0.884   4.167
 5906SOL     OW18616   5.280   1.296   5.675
 5906SOL    HW118617   5.252   1.371   5.615
 5906SOL    HW218618   5.344   1.237   5.626
 5907SOL     OW18619   1.744   1.561   6.851
 5907SOL    HW118620   1.787   1.592   6.936
 5907SOL    HW218621   1.808   1.573   6.775
 5908SOL     OW18622   4.749   3.438   6.488
 5908SOL    HW118623   4.657   3.475   6.476
 5908SOL    HW218624   4.749   3.340   6.468
 5909SOL     OW18625   6.881   4.745   5.001
 5909SOL    HW118626   6.950   4.684   5.040
 5909SOL    HW218627   6.813   4.768   5.071
 5910SOL     OW18628   2.212   3.923   1.090
 5910SOL    HW118629   2.197   4.021   1.096
 5910SOL    HW218630   2.232   3.887   1.182
 5911SOL     OW18631   6.163   5.062   6.211
 5911SOL    HW118632   6.077   5.023   6.176
 5911SOL    HW218633   6.173   5.156   6.177
 5912SOL     OW18634   6.322   3.795   6.949
 5912SOL    HW118635   6.378   3.760   0.008
 5912SOL    HW218636   6.379   3.851   6.889
 5913SOL     OW18637   2.056   1.972   5.940
 5913SOL    HW118638   2.007   1.897   5.984
 5913SOL    HW218639   2.129   1.935   5.883
 5914SOL     OW18640   2.782   5.363   0.641
 5914SOL    HW118641   2.714   5.365   0.569
 5914SOL    HW218642   2.823   5.453   0.652
 5915SOL     OW18643   4.896   3.154   2.584
 5915SOL    HW118644   4.857   3.134   2.674
 5915SOL    HW218645   4.879   3.077   2.522
 5916SOL     OW18646   4.157   0.088   5.544
 5916SOL    HW118647   4.071   0.139   5.546
 5916SOL    HW218648   4.164   0.039   5.457
 5917SOL     OW18649   3.619   3.406   3.125
 5917SOL    HW118650   3.526   3.369   3.118
 5917SOL    HW218651   3.628   3.485   3.064
 5918SOL     OW18652   1.888   3.432   3.914
 5918SOL    HW118653   1.986   3.432   3.933
 5918SOL    HW218654   1.863   3.347   3.869
 5919SOL     OW18655   2.213   2.514   0.220
 5919SOL    HW118656   2.307   2.493   0.245
 5919SOL    HW218657   2.150   2.472   0.285
 5920SOL     OW18658   3.826   0.696   6.563
 5920SOL    HW118659   3.751   0.639   6.527
 5920SOL    HW218660   3.910   0.641   6.567
 5921SOL     OW18661   3.690   5.056   5.530
 5921SOL    HW118662   3.691   5.099   5.621
 5921SOL    HW218663   3.602   5.011   5.516
 5922SOL     OW18664   6.415   4.709   2.973
 5922SOL    HW118665   6.374   4.799   2.960
 5922SOL    HW218666   6.475   4.711   3.053
 5923SOL     OW18667   6.674   0.331   3.350
 5923SOL    HW118668   6.578   0.319   3.324
 5923SOL    HW218669   6.732   0.301   3.274
 5924SOL     OW18670   5.150   2.307   4.545
 5924SOL    HW118671   5.172   2.382   4.483
 5924SOL    HW218672   5.202   2.318   4.630
 5925SOL     OW18673   5.606   5.701   1.445
 5925SOL    HW118674   5.551   5.781   1.467
 5925SOL    HW218675   5.643   5.710   1.353
 5926SOL     OW18676   3.624   5.115   1.576
 5926SOL    HW118677   3.585   5.028   1.607
 5926SOL    HW218678   3.556   5.165   1.524
 5927SOL     OW18679   2.583   5.964   1.787
 5927SOL    HW118680   2.484   5.967   1.775
 5927SOL    HW218681   2.619   6.057   1.788
 5928SOL     OW18682   1.211   0.045   2.578
 5928SOL    HW118683   1.271   0.032   2.657
 5928SOL    HW218684   1.232   0.132   2.535
 5929SOL     OW18685   1.291   6.778   6.113
 5929SOL    HW118686   1.359   6.833   6.162
 5929SOL    HW218687   1.337   6.704   6.063
 5930SOL     OW18688   6.387   1.244   5.053
 5930SOL    HW118689   6.464   1.252   4.990
 5930SOL    HW218690   6.323   1.175   5.020
 5931SOL     OW18691   5.843   5.417   1.647
 5931SOL    HW118692   5.886   5.452   1.730
 5931SOL    HW218693   5.816   5.493   1.588
 5932SOL     OW18694   2.428   6.458   1.430
 5932SOL    HW118695   2.435   6.555   1.407
 5932SOL    HW218696   2.409   6.449   1.528
 5933SOL     OW18697   6.969   4.020   2.975
 5933SOL    HW118698   0.048   4.043   2.987
 5933SOL    HW218699   6.926   4.006   3.064
 5934SOL     OW18700   3.676   3.617   2.942
 5934SOL    HW118701   3.688   3.715   2.928
 5934SOL    HW218702   3.761   3.570   2.919
 5935SOL     OW18703   3.853   3.916   4.791
 5935SOL    HW118704   3.816   3.883   4.704
 5935SOL    HW218705   3.814   4.006   4.812
 5936SOL     OW18706   4.890   4.691   6.675
 5936SOL    HW118707   4.873   4.593   6.691
 5936SOL    HW218708   4.849   4.744   6.749
 5937SOL     OW18709   1.241   3.958   0.613
 5937SOL    HW118710   1.239   4.057   0.628
 5937SOL    HW218711   1.170   3.915   0.669
 5938SOL     OW18712   2.339   4.399   3.199
 5938SOL    HW118713   2.373   4.487   3.167
 5938SOL    HW218714   2.293   4.352   3.123
 5939SOL     OW18715   2.879   0.423   3.179
 5939SOL    HW118716   2.974   0.428   3.149
 5939SOL    HW218717   2.872   0.447   3.275
 5940SOL     OW18718   4.103   0.087   3.049
 5940SOL    HW118719   4.118   0.118   2.955
 5940SOL    HW218720   4.077   7.007   3.049
 5941SOL     OW18721   6.480   5.108   2.296
 5941SOL    HW118722   6.510   5.202   2.313
 5941SOL    HW218723   6.507   5.050   2.373
 5942SOL     OW18724   4.237   3.463   6.464
 5942SOL    HW118725   4.243   3.416   6.552
 5942SOL    HW218726   4.152   3.516   6.460
 5943SOL     OW18727   1.936   5.915   0.516
 5943SOL    HW118728   2.026   5.890   0.553
 5943SOL    HW218729   1.867   5.909   0.588
 5944SOL     OW18730   5.096   1.305   2.183
 5944SOL    HW118731   5.000   1.332   2.175
 5944SOL    HW218732   5.138   1.300   2.092
 5945SOL     OW18733   6.566   4.805   5.763
 5945SOL    HW118734   6.557   4.796   5.663
 5945SOL    HW218735   6.502   4.875   5.796
 5946SOL     OW18736   4.611   3.471   6.175
 5946SOL    HW118737   4.566   3.517   6.251
 5946SOL    HW218738   4.590   3.373   6.177
 5947SOL     OW18739   4.274   3.249   1.844
 5947SOL    HW118740   4.355   3.217   1.796
 5947SOL    HW218741   4.233   3.174   1.895
 5948SOL     OW18742   3.534   4.909   2.859
 5948SOL    HW118743   3.589   4.905   2.775
 5948SOL    HW218744   3.595   4.901   2.938
 5949SOL     OW18745   4.236   4.778   1.144
 5949SOL    HW118746   4.159   4.726   1.180
 5949SOL    HW218747   4.203   4.844   1.077
 5950SOL     OW18748   5.775   2.064   4.490
 5950SOL    HW118749   5.732   1.974   4.484
 5950SOL    HW218750   5.816   2.074   4.581
 5951SOL     OW18751   2.242   6.296   4.161
 5951SOL    HW118752   2.151   6.337   4.169
 5951SOL    HW218753   2.233   6.200   4.134
 5952SOL     OW18754   6.388   6.205   3.824
 5952SOL    HW118755   6.324   6.277   3.853
 5952SOL    HW218756   6.336   6.126   3.790
 5953SOL     OW18757   6.734   3.422   5.708
 5953SOL    HW118758   6.768   3.329   5.702
 5953SOL    HW218759   6.741   3.455   5.802
 5954SOL     OW18760   6.976   4.679   6.358
 5954SOL    HW118761   0.046   4.722   6.383
 5954SOL    HW218762   6.904   4.710   6.420
 5955SOL     OW18763   5.283   4.973   1.669
 5955SOL    HW118764   5.280   5.073   1.678
 5955SOL    HW218765   5.216   4.932   1.731
 5956SOL     OW18766   4.157   2.269   6.978
 5956SOL    HW118767   4.118   2.238   0.048
 5956SOL    HW218768   4.085   2.302   6.918
 5957SOL     OW18769   5.882   5.987   5.685
 5957SOL    HW118770   5.789   6.024   5.689
 5957SOL    HW218771   5.898   5.947   5.595
 5958SOL     OW18772   6.718   5.832   1.956
 5958SOL    HW118773   6.702   5.788   1.867
 5958SOL    HW218774   6.634   5.830   2.009
 5959SOL     OW18775   3.141   1.724   5.943
 5959SOL    HW118776   3.084   1.674   5.878
 5959SOL    HW218777   3.199   1.789   5.893
 5960SOL     OW18778   2.698   0.268   3.578
 5960SOL    HW118779   2.720   0.192   3.639
 5960SOL    HW218780   2.607   0.254   3.539
 5961SOL     OW18781   3.286   0.877   5.220
 5961SOL    HW118782   3.218   0.925   5.276
 5961SOL    HW218783   3.364   0.851   5.277
 5962SOL     OW18784   4.614   5.457   2.471
 5962SOL    HW118785   4.554   5.494   2.400
 5962SOL    HW218786   4.600   5.358   2.479
 5963SOL     OW18787   3.964   3.836   2.476
 5963SOL    HW118788   4.038   3.841   2.408
 5963SOL    HW218789   3.991   3.773   2.548
 5964SOL     OW18790   0.389   4.997   6.434
 5964SOL    HW118791   0.487   4.978   6.429
 5964SOL    HW218792   0.364   5.066   6.365
 5965SOL     OW18793   2.119   2.800   6.274
 5965SOL    HW118794   2.071   2.814   6.360
 5965SOL    HW218795   2.169   2.714   6.277
 5966SOL     OW18796   2.997   5.958   4.716
 5966SOL    HW118797   2.992   5.928   4.812
 5966SOL    HW218798   2.971   5.882   4.656
 5967SOL     OW18799   4.499   6.909   2.839
 5967SOL    HW118800   4.460   6.904   2.747
 5967SOL    HW218801   4.436   6.957   2.899
 5968SOL     OW18802   6.175   2.585   3.455
 5968SOL    HW118803   6.198   2.540   3.541
 5968SOL    HW218804   6.083   2.622   3.460
 5969SOL     OW18805   5.662   3.592   3.881
 5969SOL    HW118806   5.600   3.530   3.833
 5969SOL    HW218807   5.652   3.684   3.842
 5970SOL     OW18808   1.323   3.604   2.981
 5970SOL    HW118809   1.326   3.601   2.881
 5970SOL    HW218810   1.381   3.679   3.013
 5971SOL     OW18811   1.622   6.501   3.338
 5971SOL    HW118812   1.535   6.543   3.312
 5971SOL    HW218813   1.679   6.568   3.386
 5972SOL     OW18814   5.295   6.924   6.907
 5972SOL    HW118815   5.265   6.917   7.002
 5972SOL    HW218816   5.390   6.895   6.900
 5973SOL     OW18817   1.477   4.388   2.649
 5973SOL    HW118818   1.541   4.433   2.587
 5973SOL    HW218819   1.505   4.293   2.662
 5974SOL     OW18820   6.909   3.713   0.407
 5974SOL    HW118821   6.885   3.673   0.319
 5974SOL    HW218822   6.965   3.648   0.460
 5975SOL     OW18823   3.499   2.787   1.153
 5975SOL    HW118824   3.585   2.837   1.142
 5975SOL    HW218825   3.482   2.770   1.250
 5976SOL     OW18826   3.347   3.135   4.980
 5976SOL    HW118827   3.316   3.062   5.040
 5976SOL    HW218828   3.338   3.107   4.885
 5977SOL     OW18829   1.791   4.861   2.198
 5977SOL    HW118830   1.819   4.876   2.103
 5977SOL    HW218831   1.837   4.927   2.257
 5978SOL     OW18832   5.291   4.534   2.560
 5978SOL    HW118833   5.340   4.479   2.492
 5978SOL    HW218834   5.320   4.506   2.652
 5979SOL     OW18835   6.311   0.870   3.504
 5979SOL    HW118836   6.274   0.932   3.573
 5979SOL    HW218837   6.305   0.912   3.414
 5980SOL     OW18838   4.869   4.169   0.576
 5980SOL    HW118839   4.886   4.135   0.669
 5980SOL    HW218840   4.779   4.212   0.572
 5981SOL     OW18841   5.978   1.603   2.597
 5981SOL    HW118842   5.885   1.631   2.619
 5981SOL    HW218843   5.976   1.518   2.545
 5982SOL     OW18844   6.914   2.071   6.609
 5982SOL    HW118845   6.991   2.036   6.663
 5982SOL    HW218846   6.946   2.096   6.518
 5983SOL     OW18847   1.792   1.659   4.214
 5983SOL    HW118848   1.781   1.660   4.115
 5983SOL    HW218849   1.867   1.598   4.239
 5984SOL     OW18850   6.926   5.839   4.387
 5984SOL    HW118851   6.949   5.934   4.408
 5984SOL    HW218852   6.875   5.800   4.464
 5985SOL     OW18853   5.190   1.991   3.990
 5985SOL    HW118854   5.174   1.965   4.085
 5985SOL    HW218855   5.240   2.077   3.987
 5986SOL     OW18856   3.590   3.011   3.226
 5986SOL    HW118857   3.501   3.001   3.271
 5986SOL    HW218858   3.631   3.098   3.254
 5987SOL     OW18859   4.458   6.574   4.817
 5987SOL    HW118860   4.491   6.660   4.778
 5987SOL    HW218861   4.425   6.515   4.743
 5988SOL     OW18862   4.409   0.029   3.916
 5988SOL    HW118863   4.431   6.948   3.913
 5988SOL    HW218864   4.490   0.083   3.892
 5989SOL     OW18865   2.792   0.416   6.092
 5989SOL    HW118866   2.735   0.420   6.174
 5989SOL    HW218867   2.787   0.324   6.053
 5990SOL     OW18868   3.466   4.888   0.649
 5990SOL    HW118869   3.388   4.878   0.710
 5990SOL    HW218870   3.491   4.799   0.612
 5991SOL     OW18871   3.143   5.358   4.570
 5991SOL    HW118872   3.124   5.259   4.573
 5991SOL    HW218873   3.144   5.395   4.663
 5992SOL     OW18874   3.593   0.670   3.921
 5992SOL    HW118875   3.542   0.585   3.908
 5992SOL    HW218876   3.665   0.655   3.988
 5993SOL     OW18877   2.311   6.170   5.954
 5993SOL    HW118878   2.330   6.124   5.867
 5993SOL    HW218879   2.266   6.258   5.935
 5994SOL     OW18880   6.064   2.570   2.478
 5994SOL    HW118881   6.146   2.513   2.478
 5994SOL    HW218882   6.005   2.543   2.402
 5995SOL     OW18883   6.599   5.165   1.375
 5995SOL    HW118884   6.561   5.147   1.466
 5995SOL    HW218885   6.698   5.153   1.378
 5996SOL     OW18886   0.556   5.565   6.532
 5996SOL    HW118887   0.480   5.505   6.506
 5996SOL    HW218888   0.596   5.532   6.617
 5997SOL     OW18889   0.342   6.518   1.879
 5997SOL    HW118890   0.310   6.607   1.846
 5997SOL    HW218891   0.429   6.496   1.835
 5998SOL     OW18892   5.453   1.830   2.484
 5998SOL    HW118893   5.415   1.781   2.563
 5998SOL    HW218894   5.552   1.835   2.493
 5999SOL     OW18895   1.731   1.832   3.065
 5999SOL    HW118896   1.825   1.844   3.100
 5999SOL    HW218897   1.666   1.863   3.134
 6000SOL     OW18898   4.289   5.190   2.456
 6000SOL    HW118899   4.348   5.119   2.419
 6000SOL    HW218900   4.313   5.278   2.417
 6001SOL     OW18901   6.827   2.705   6.826
 6001SOL    HW118902   6.794   2.621   6.869
 6001SOL    HW218903   6.772   2.782   6.857
 6002SOL     OW18904   1.690   0.701   1.804
 6002SOL    HW118905   1.722   0.736   1.716
 6002SOL    HW218906   1.736   0.613   1.823
 6003SOL     OW18907   5.357   4.039   4.735
 6003SOL    HW118908   5.385   4.112   4.672
 6003SOL    HW218909   5.339   3.955   4.683
 6004SOL     OW18910   0.569   3.632   2.883
 6004SOL    HW118911   0.561   3.721   2.837
 6004SOL    HW218912   0.665   3.616   2.907
 6005SOL     OW18913   3.612   5.745   4.007
 6005SOL    HW118914   3.667   5.710   3.931
 6005SOL    HW218915   3.587   5.670   4.067
 6006SOL     OW18916   2.610   6.862   6.491
 6006SOL    HW118917   2.516   6.842   6.518
 6006SOL    HW218918   2.615   6.956   6.456
 6007SOL     OW18919   5.532   2.491   4.124
 6007SOL    HW118920   5.566   2.551   4.196
 6007SOL    HW218921   5.606   2.470   4.060
 6008SOL     OW18922   3.231   4.720   5.840
 6008SOL    HW118923   3.168   4.734   5.764
 6008SOL    HW218924   3.217   4.628   5.878
 6009SOL     OW18925   2.973   1.662   4.122
 6009SOL    HW118926   2.913   1.637   4.046
 6009SOL    HW218927   3.030   1.740   4.094
 6010SOL     OW18928   1.782   4.372   2.365
 6010SOL    HW118929   1.722   4.300   2.401
 6010SOL    HW218930   1.784   4.366   2.265
 6011SOL     OW18931   5.148   2.996   2.219
 6011SOL    HW118932   5.166   3.089   2.252
 6011SOL    HW218933   5.116   2.999   2.125
 6012SOL     OW18934   0.011   2.638   0.519
 6012SOL    HW118935   6.959   2.657   0.449
 6012SOL    HW218936   7.005   2.690   0.602
 6013SOL     OW18937   6.453   0.696   2.196
 6013SOL    HW118938   6.491   0.743   2.117
 6013SOL    HW218939   6.508   0.614   2.216
 6014SOL     OW18940   5.984   0.722   0.328
 6014SOL    HW118941   6.018   0.807   0.369
 6014SOL    HW218942   6.046   0.693   0.255
 6015SOL     OW18943   5.888   2.116   4.743
 6015SOL    HW118944   5.871   2.122   4.841
 6015SOL    HW218945   5.940   2.196   4.713
 6016SOL     OW18946   1.814   0.664   4.989
 6016SOL    HW118947   1.848   0.574   4.966
 6016SOL    HW218948   1.796   0.670   5.087
 6017SOL     OW18949   6.331   4.999   3.339
 6017SOL    HW118950   6.262   5.059   3.380
 6017SOL    HW218951   6.417   5.049   3.329
 6018SOL     OW18952   3.008   3.270   0.594
 6018SOL    HW118953   2.942   3.195   0.603
 6018SOL    HW218954   2.964   3.355   0.621
 6019SOL     OW18955   3.637   0.918   4.130
 6019SOL    HW118956   3.664   0.833   4.175
 6019SOL    HW218957   3.712   0.984   4.135
 6020SOL     OW18958   3.936   0.605   2.712
 6020SOL    HW118959   3.877   0.527   2.691
 6020SOL    HW218960   3.943   0.664   2.632
 6021SOL     OW18961   3.998   1.274   2.229
 6021SOL    HW118962   4.047   1.331   2.295
 6021SOL    HW218963   4.054   1.194   2.207
 6022SOL     OW18964   4.502   1.539   3.329
 6022SOL    HW118965   4.424   1.589   3.366
 6022SOL    HW218966   4.486   1.519   3.233
 6023SOL     OW18967   0.252   1.843   3.247
 6023SOL    HW118968   0.197   1.780   3.193
 6023SOL    HW218969   0.198   1.878   3.323
 6024SOL     OW18970   0.571   5.010   1.649
 6024SOL    HW118971   0.648   4.993   1.588
 6024SOL    HW218972   0.598   5.073   1.721
 6025SOL     OW18973   4.529   1.409   1.702
 6025SOL    HW118974   4.483   1.477   1.644
 6025SOL    HW218975   4.624   1.398   1.673
 6026SOL     OW18976   6.386   4.932   5.433
 6026SOL    HW118977   6.480   4.899   5.443
 6026SOL    HW218978   6.379   5.024   5.470
 6027SOL     OW18979   2.679   2.445   6.599
 6027SOL    HW118980   2.721   2.535   6.588
 6027SOL    HW218981   2.609   2.449   6.669
 6028SOL     OW18982   1.994   4.334   6.677
 6028SOL    HW118983   1.946   4.265   6.623
 6028SOL    HW218984   1.941   4.355   6.759
 6029SOL     OW18985   2.030   5.977   0.863
 6029SOL    HW118986   1.981   6.057   0.897
 6029SOL    HW218987   2.118   5.969   0.911
 6030SOL     OW18988   2.252   0.465   1.745
 6030SOL    HW118989   2.174   0.527   1.735
 6030SOL    HW218990   2.324   0.491   1.681
 6031SOL     OW18991   4.956   6.363   5.943
 6031SOL    HW118992   4.932   6.380   6.039
 6031SOL    HW218993   4.875   6.378   5.885
 6032SOL     OW18994   1.533   3.264   2.153
 6032SOL    HW118995   1.455   3.317   2.121
 6032SOL    HW218996   1.617   3.299   2.113
 6033SOL     OW18997   1.453   2.134   2.913
 6033SOL    HW118998   1.429   2.224   2.876
 6033SOL    HW218999   1.550   2.133   2.937
 6034SOL     OW19000   2.280   4.545   5.201
 6034SOL    HW119001   2.216   4.598   5.257
 6034SOL    HW219002   2.366   4.534   5.250
 6035SOL     OW19003   5.613   0.239   4.557
 6035SOL    HW119004   5.649   0.283   4.639
 6035SOL    HW219005   5.513   0.239   4.560
 6036SOL     OW19006   0.746   6.808   5.049
 6036SOL    HW119007   0.828   6.800   5.105
 6036SOL    HW219008   0.729   6.904   5.027
 6037SOL     OW19009   5.411   5.663   5.245
 6037SOL    HW119010   5.321   5.628   5.219
 6037SOL    HW219011   5.466   5.676   5.163
 6038SOL     OW19012   6.402   4.304   5.962
 6038SOL    HW119013   6.499   4.285   5.949
 6038SOL    HW219014   6.362   4.233   6.020
 6039SOL     OW19015   3.323   3.418   2.276
 6039SOL    HW119016   3.293   3.508   2.245
 6039SOL    HW219017   3.245   3.371   2.319
 6040SOL     OW19018   0.779   2.353   6.486
 6040SOL    HW119019   0.775   2.355   6.586
 6040SOL    HW219020   0.836   2.276   6.457
 6041SOL     OW19021   0.947   1.523   6.978
 6041SOL    HW119022   0.934   1.536   0.059
 6041SOL    HW219023   0.888   1.586   6.928
 6042SOL     OW19024   5.206   4.972   2.845
 6042SOL    HW119025   5.127   5.013   2.799
 6042SOL    HW219026   5.221   4.881   2.808
 6043SOL     OW19027   1.143   4.881   4.502
 6043SOL    HW119028   1.092   4.920   4.426
 6043SOL    HW219029   1.223   4.832   4.466
 6044SOL     OW19030   0.744   0.543   1.106
 6044SOL    HW119031   0.718   0.624   1.054
 6044SOL    HW219032   0.825   0.564   1.160
 6045SOL     OW19033   5.678   5.089   0.692
 6045SOL    HW119034   5.678   5.101   0.592
 6045SOL    HW219035   5.724   5.167   0.734
 6046SOL     OW19036   2.812   2.217   0.156
 6046SOL    HW119037   2.876   2.230   0.080
 6046SOL    HW219038   2.730   2.273   0.140
 6047SOL     OW19039   6.686   0.254   3.904
 6047SOL    HW119040   6.637   0.271   3.819
 6047SOL    HW219041   6.750   0.178   3.892
 6048SOL     OW19042   3.728   0.510   3.655
 6048SOL    HW119043   3.678   0.592   3.682
 6048SOL    HW219044   3.730   0.446   3.732
 6049SOL     OW19045   4.819   3.872   6.645
 6049SOL    HW119046   4.864   3.813   6.578
 6049SOL    HW219047   4.877   3.952   6.662
 6050SOL     OW19048   4.412   4.675   5.345
 6050SOL    HW119049   4.473   4.709   5.417
 6050SOL    HW219050   4.385   4.581   5.367
 6051SOL     OW19051   2.209   2.141   2.542
 6051SOL    HW119052   2.140   2.071   2.559
 6051SOL    HW219053   2.169   2.214   2.486
 6052SOL     OW19054   6.857   1.717   0.779
 6052SOL    HW119055   6.761   1.698   0.760
 6052SOL    HW219056   6.914   1.676   0.709
 6053SOL     OW19057   2.549   0.100   6.763
 6053SOL    HW119058   2.646   0.123   6.768
 6053SOL    HW219059   2.505   0.124   6.850
 6054SOL     OW19060   1.490   5.460   0.868
 6054SOL    HW119061   1.541   5.520   0.808
 6054SOL    HW219062   1.466   5.509   0.952
 6055SOL     OW19063   4.907   0.995   4.976
 6055SOL    HW119064   5.006   0.993   4.964
 6055SOL    HW219065   4.863   1.017   4.889
 6056SOL     OW19066   3.734   1.638   6.379
 6056SOL    HW119067   3.647   1.622   6.427
 6056SOL    HW219068   3.763   1.733   6.393
 6057SOL     OW19069   3.711   0.995   5.434
 6057SOL    HW119070   3.684   1.069   5.496
 6057SOL    HW219071   3.727   1.033   5.342
 6058SOL     OW19072   5.520   2.594   4.566
 6058SOL    HW119073   5.585   2.537   4.618
 6058SOL    HW219074   5.485   2.667   4.625
 6059SOL     OW19075   4.958   4.404   6.376
 6059SOL    HW119076   4.931   4.307   6.384
 6059SOL    HW219077   4.907   4.447   6.302
 6060SOL     OW19078   4.429   5.233   5.499
 6060SOL    HW119079   4.439   5.199   5.593
 6060SOL    HW219080   4.444   5.332   5.498
 6061SOL     OW19081   2.895   1.916   7.001
 6061SOL    HW119082   2.860   2.006   6.976
 6061SOL    HW219083   2.873   1.851   6.928
 6062SOL     OW19084   1.644   1.251   4.560
 6062SOL    HW119085   1.593   1.294   4.634
 6062SOL    HW219086   1.741   1.270   4.571
 6063SOL     OW19087   4.169   1.152   6.893
 6063SOL    HW119088   4.230   1.089   6.942
 6063SOL    HW219089   4.162   1.238   6.944
 6064SOL     OW19090   1.371   5.772   2.912
 6064SOL    HW119091   1.429   5.729   2.981
 6064SOL    HW219092   1.289   5.716   2.899
 6065SOL     OW19093   6.257   6.583   0.960
 6065SOL    HW119094   6.218   6.560   1.049
 6065SOL    HW219095   6.325   6.515   0.934
 6066SOL     OW19096   4.567   1.907   0.980
 6066SOL    HW119097   4.503   1.830   0.967
 6066SOL    HW219098   4.520   1.981   1.028
 6067SOL     OW19099   6.194   1.470   6.000
 6067SOL    HW119100   6.244   1.427   6.074
 6067SOL    HW219101   6.247   1.463   5.915
 6068SOL     OW19102   4.715   2.886   4.875
 6068SOL    HW119103   4.648   2.958   4.891
 6068SOL    HW219104   4.808   2.922   4.888
 6069SOL     OW19105   6.772   4.309   5.646
 6069SOL    HW119106   6.823   4.242   5.592
 6069SOL    HW219107   6.829   4.390   5.662
 6070SOL     OW19108   4.424   2.574   6.760
 6070SOL    HW119109   4.347   2.543   6.704
 6070SOL    HW219110   4.389   2.628   6.837
 6071SOL     OW19111   4.176   6.034   5.191
 6071SOL    HW119112   4.216   6.113   5.146
 6071SOL    HW219113   4.076   6.042   5.191
 6072SOL     OW19114   1.042   1.928   2.035
 6072SOL    HW119115   0.946   1.956   2.029
 6072SOL    HW219116   1.054   1.840   1.989
 6073SOL     OW19117   6.792   2.869   1.023
 6073SOL    HW119118   6.725   2.920   1.077
 6073SOL    HW219119   6.744   2.811   0.958
 6074SOL     OW19120   0.758   0.031   4.706
 6074SOL    HW119121   0.676   7.015   4.753
 6074SOL    HW219122   0.748   0.017   4.607
 6075SOL     OW19123   6.082   3.389   0.012
 6075SOL    HW119124   6.084   3.472   6.974
 6075SOL    HW219125   6.034   3.406   0.098
 6076SOL     OW19126   1.982   6.890   3.840
 6076SOL    HW119127   2.054   6.918   3.775
 6076SOL    HW219128   1.951   6.797   3.817
 6077SOL     OW19129   5.880   6.196   2.313
 6077SOL    HW119130   5.896   6.240   2.402
 6077SOL    HW219131   5.967   6.185   2.265
 6078SOL     OW19132   2.923   4.773   3.780
 6078SOL    HW119133   3.012   4.777   3.734
 6078SOL    HW219134   2.852   4.806   3.717
 6079SOL     OW19135   2.339   2.881   0.128
 6079SOL    HW119136   2.283   2.847   0.053
 6079SOL    HW219137   2.421   2.824   0.137
 6080SOL     OW19138   6.146   2.040   1.719
 6080SOL    HW119139   6.238   2.079   1.712
 6080SOL    HW219140   6.119   2.036   1.815
 6081SOL     OW19141   6.327   3.719   3.786
 6081SOL    HW119142   6.258   3.652   3.812
 6081SOL    HW219143   6.419   3.682   3.803
 6082SOL     OW19144   4.488   0.663   2.736
 6082SOL    HW119145   4.422   0.597   2.773
 6082SOL    HW219146   4.506   0.734   2.804
 6083SOL     OW19147   1.541   5.882   6.534
 6083SOL    HW119148   1.582   5.798   6.501
 6083SOL    HW219149   1.611   5.953   6.543
 6084SOL     OW19150   6.447   5.259   5.209
 6084SOL    HW119151   6.523   5.226   5.153
 6084SOL    HW219152   6.465   5.353   5.238
 6085SOL     OW19153   6.353   3.291   6.838
 6085SOL    HW119154   6.281   3.305   6.769
 6085SOL    HW219155   6.312   3.261   6.923
 6086SOL     OW19156   4.165   1.360   4.640
 6086SOL    HW119157   4.207   1.330   4.554
 6086SOL    HW219158   4.068   1.336   4.640
 6087SOL     OW19159   5.735   6.346   6.369
 6087SOL    HW119160   5.767   6.438   6.391
 6087SOL    HW219161   5.692   6.305   6.450
 6088SOL     OW19162   0.988   0.483   4.787
 6088SOL    HW119163   0.983   0.529   4.876
 6088SOL    HW219164   1.063   0.417   4.788
 6089SOL     OW19165   0.706   3.451   0.797
 6089SOL    HW119166   0.727   3.485   0.705
 6089SOL    HW219167   0.686   3.528   0.857
 6090SOL     OW19168   0.684   5.970   5.602
 6090SOL    HW119169   0.723   5.878   5.594
 6090SOL    HW219170   0.651   5.999   5.512
 6091SOL     OW19171   6.235   1.831   2.211
 6091SOL    HW119172   6.161   1.875   2.262
 6091SOL    HW219173   6.323   1.860   2.248
 6092SOL     OW19174   2.158   1.080   2.267
 6092SOL    HW119175   2.183   0.985   2.255
 6092SOL    HW219176   2.076   1.086   2.324
 6093SOL     OW19177   1.719   2.709   1.182
 6093SOL    HW119178   1.810   2.743   1.158
 6093SOL    HW219179   1.661   2.710   1.101
 6094SOL     OW19180   1.377   1.354   1.548
 6094SOL    HW119181   1.324   1.435   1.524
 6094SOL    HW219182   1.403   1.357   1.644
 6095SOL     OW19183   5.895   3.234   6.654
 6095SOL    HW119184   5.907   3.191   6.744
 6095SOL    HW219185   5.871   3.164   6.587
 6096SOL     OW19186   4.265   1.456   4.267
 6096SOL    HW119187   4.188   1.496   4.218
 6096SOL    HW219188   4.237   1.370   4.309
 6097SOL     OW19189   2.488   0.822   2.508
 6097SOL    HW119190   2.459   0.914   2.483
 6097SOL    HW219191   2.414   0.757   2.489
 6098SOL     OW19192   2.602   2.387   5.635
 6098SOL    HW119193   2.666   2.392   5.559
 6098SOL    HW219194   2.508   2.387   5.600
 6099SOL     OW19195   5.781   5.901   5.092
 6099SOL    HW119196   5.718   5.903   5.014
 6099SOL    HW219197   5.732   5.926   5.175
 6100SOL     OW19198   6.479   3.167   0.404
 6100SOL    HW119199   6.466   3.265   0.386
 6100SOL    HW219200   6.576   3.144   0.393
 6101SOL     OW19201   7.013   1.710   5.485
 6101SOL    HW119202   6.961   1.718   5.571
 6101SOL    HW219203   0.057   1.631   5.490
 6102SOL     OW19204   3.385   1.073   5.047
 6102SOL    HW119205   3.361   0.986   5.089
 6102SOL    HW219206   3.393   1.062   4.948
 6103SOL     OW19207   6.368   0.140   4.851
 6103SOL    HW119208   6.463   0.121   4.826
 6103SOL    HW219209   6.323   0.055   4.879
 6104SOL     OW19210   6.201   1.444   6.920
 6104SOL    HW119211   6.107   1.451   6.951
 6104SOL    HW219212   6.202   1.421   6.823
 6105SOL     OW19213   3.519   5.762   5.927
 6105SOL    HW119214   3.591   5.697   5.902
 6105SOL    HW219215   3.525   5.843   5.870
 6106SOL     OW19216   2.998   4.754   6.017
 6106SOL    HW119217   3.084   4.742   5.967
 6106SOL    HW219218   2.981   4.852   6.030
 6107SOL     OW19219   2.351   4.918   4.812
 6107SOL    HW119220   2.341   4.819   4.826
 6107SOL    HW219221   2.278   4.951   4.752
 6108SOL     OW19222   0.768   2.397   4.179
 6108SOL    HW119223   0.808   2.433   4.095
 6108SOL    HW219224   0.680   2.441   4.196
 6109SOL     OW19225   5.656   3.116   0.801
 6109SOL    HW119226   5.592   3.041   0.788
 6109SOL    HW219227   5.615   3.201   0.769
 6110SOL     OW19228   3.484   1.549   5.439
 6110SOL    HW119229   3.562   1.539   5.377
 6110SOL    HW219230   3.440   1.460   5.452
 6111SOL     OW19231   1.289   4.853   3.018
 6111SOL    HW119232   1.322   4.793   3.090
 6111SOL    HW219233   1.360   4.919   2.994
 6112SOL     OW19234   1.380   1.847   2.910
 6112SOL    HW119235   1.358   1.796   2.826
 6112SOL    HW219236   1.404   1.941   2.887
 6113SOL     OW19237   1.323   0.000   5.799
 6113SOL    HW119238   1.275   6.995   5.713
 6113SOL    HW219239   1.419   6.991   5.790
 6114SOL     OW19240   4.864   5.655   0.489
 6114SOL    HW119241   4.948   5.703   0.513
 6114SOL    HW219242   4.875   5.557   0.506
 6115SOL     OW19243   4.625   5.176   2.626
 6115SOL    HW119244   4.659   5.128   2.546
 6115SOL    HW219245   4.570   5.113   2.681
 6116SOL     OW19246   3.538   0.958   2.027
 6116SOL    HW119247   3.545   0.975   2.125
 6116SOL    HW219248   3.444   0.933   2.004
 6117SOL     OW19249   5.838   6.700   4.605
 6117SOL    HW119250   5.938   6.700   4.604
 6117SOL    HW219251   5.804   6.710   4.511
 6118SOL     OW19252   6.350   1.175   3.418
 6118SOL    HW119253   6.417   1.103   3.398
 6118SOL    HW219254   6.386   1.263   3.389
 6119SOL     OW19255   0.452   5.339   4.683
 6119SOL    HW119256   0.376   5.310   4.741
 6119SOL    HW219257   0.431   5.429   4.644
 6120SOL     OW19258   3.046   6.861   2.820
 6120SOL    HW119259   3.042   6.763   2.840
 6120SOL    HW219260   3.097   6.875   2.735
 6121SOL     OW19261   0.009   2.584   3.363
 6121SOL    HW119262   0.024   2.677   3.328
 6121SOL    HW219263   7.015   2.587   3.463
 6122SOL     OW19264   4.066   6.247   3.141
 6122SOL    HW119265   4.074   6.347   3.141
 6122SOL    HW219266   4.109   6.210   3.060
 6123SOL     OW19267   6.583   1.102   1.784
 6123SOL    HW119268   6.519   1.105   1.860
 6123SOL    HW219269   6.562   1.023   1.725
 6124SOL     OW19270   3.048   0.359   6.007
 6124SOL    HW119271   2.970   0.410   6.042
 6124SOL    HW219272   3.039   0.347   5.908
 6125SOL     OW19273   1.793   5.844   1.395
 6125SOL    HW119274   1.810   5.921   1.457
 6125SOL    HW219275   1.838   5.861   1.307
 6126SOL     OW19276   5.165   4.704   3.142
 6126SOL    HW119277   5.097   4.761   3.188
 6126SOL    HW219278   5.253   4.753   3.141
 6127SOL     OW19279   2.156   5.902   1.461
 6127SOL    HW119280   2.108   5.855   1.535
 6127SOL    HW219281   2.121   5.996   1.454
 6128SOL     OW19282   6.956   2.337   0.473
 6128SOL    HW119283   6.945   2.257   0.532
 6128SOL    HW219284   0.027   2.381   0.493
 6129SOL     OW19285   6.062   3.971   2.302
 6129SOL    HW119286   6.158   3.954   2.278
 6129SOL    HW219287   6.041   4.068   2.290
 6130SOL     OW19288   4.986   2.657   3.668
 6130SOL    HW119289   4.981   2.721   3.744
 6130SOL    HW219290   5.057   2.588   3.686
 6131SOL     OW19291   6.707   1.364   5.615
 6131SOL    HW119292   6.612   1.332   5.617
 6131SOL    HW219293   6.738   1.367   5.520
 6132SOL     OW19294   4.082   2.849   1.169
 6132SOL    HW119295   4.066   2.863   1.071
 6132SOL    HW219296   4.009   2.792   1.207
 6133SOL     OW19297   0.843   3.713   1.091
 6133SOL    HW119298   0.774   3.731   1.021
 6133SOL    HW219299   0.799   3.672   1.171
 6134SOL     OW19300   4.063   3.935   6.742
 6134SOL    HW119301   3.999   3.891   6.805
 6134SOL    HW219302   4.129   3.868   6.708
 6135SOL     OW19303   6.481   6.700   1.085
 6135SOL    HW119304   6.477   6.790   1.128
 6135SOL    HW219305   6.390   6.673   1.055
 6136SOL     OW19306   0.775   2.042   1.973
 6136SOL    HW119307   0.817   2.128   1.944
 6136SOL    HW219308   0.700   2.019   1.911
 6137SOL     OW19309   2.763   6.303   5.800
 6137SOL    HW119310   2.688   6.297   5.865
 6137SOL    HW219311   2.819   6.220   5.807
 6138SOL     OW19312   3.925   6.257   2.499
 6138SOL    HW119313   4.022   6.263   2.526
 6138SOL    HW219314   3.884   6.176   2.540
 6139SOL     OW19315   1.756   4.015   4.701
 6139SOL    HW119316   1.833   4.048   4.755
 6139SOL    HW219317   1.756   3.915   4.702
 6140SOL     OW19318   1.480   6.721   1.732
 6140SOL    HW119319   1.529   6.806   1.715
 6140SOL    HW219320   1.520   6.675   1.812
 6141SOL     OW19321   6.466   5.488   5.783
 6141SOL    HW119322   6.555   5.455   5.815
 6141SOL    HW219323   6.393   5.444   5.835
 6142SOL     OW19324   6.660   3.746   1.058
 6142SOL    HW119325   6.680   3.666   1.001
 6142SOL    HW219326   6.600   3.808   1.009
 6143SOL     OW19327   5.914   4.914   6.498
 6143SOL    HW119328   6.004   4.887   6.531
 6143SOL    HW219329   5.844   4.885   6.562
 6144SOL     OW19330   0.105   4.087   3.719
 6144SOL    HW119331   0.172   4.024   3.682
 6144SOL    HW219332   0.094   4.071   3.817
 6145SOL     OW19333   4.835   5.452   2.958
 6145SOL    HW119334   4.893   5.508   2.900
 6145SOL    HW219335   4.759   5.415   2.904
 6146SOL     OW19336   5.066   1.518   2.892
 6146SOL    HW119337   5.162   1.495   2.876
 6146SOL    HW219338   5.029   1.457   2.962
 6147SOL     OW19339   2.146   3.933   2.816
 6147SOL    HW119340   2.099   3.964   2.899
 6147SOL    HW219341   2.243   3.958   2.822
 6148SOL     OW19342   6.343   6.450   4.222
 6148SOL    HW119343   6.381   6.474   4.311
 6148SOL    HW219344   6.268   6.512   4.200
 6149SOL     OW19345   3.501   5.183   3.084
 6149SOL    HW119346   3.595   5.150   3.098
 6149SOL    HW219347   3.444   5.154   3.161
 6150SOL     OW19348   4.768   6.177   5.555
 6150SOL    HW119349   4.722   6.176   5.644
 6150SOL    HW219350   4.708   6.135   5.486
 6151SOL     OW19351   5.321   2.132   5.419
 6151SOL    HW119352   5.221   2.129   5.426
 6151SOL    HW219353   5.349   2.225   5.396
 6152SOL     OW19354   5.774   4.587   6.582
 6152SOL    HW119355   5.741   4.520   6.515
 6152SOL    HW219356   5.696   4.634   6.623
 6153SOL     OW19357   4.231   3.922   1.541
 6153SOL    HW119358   4.262   3.832   1.570
 6153SOL    HW219359   4.132   3.929   1.554
 6154SOL     OW19360   5.724   2.469   3.118
 6154SOL    HW119361   5.628   2.446   3.110
 6154SOL    HW219362   5.778   2.385   3.129
 6155SOL     OW19363   0.443   3.382   4.979
 6155SOL    HW119364   0.440   3.477   4.946
 6155SOL    HW219365   0.422   3.380   5.076
 6156SOL     OW19366   6.151   6.999   2.586
 6156SOL    HW119367   6.177   6.928   2.520
 6156SOL    HW219368   6.119   6.955   2.670
 6157SOL     OW19369   2.010   1.796   4.484
 6157SOL    HW119370   1.940   1.729   4.508
 6157SOL    HW219371   2.084   1.751   4.433
 6158SOL     OW19372   4.647   0.937   6.565
 6158SOL    HW119373   4.690   1.015   6.521
 6158SOL    HW219374   4.711   0.897   6.631
 6159SOL     OW19375   5.411   2.970   0.817
 6159SOL    HW119376   5.341   2.912   0.776
 6159SOL    HW219377   5.367   3.044   0.868
 6160SOL     OW19378   5.589   6.170   1.702
 6160SOL    HW119379   5.685   6.158   1.726
 6160SOL    HW219380   5.564   6.266   1.711
 6161SOL     OW19381   5.303   0.157   6.290
 6161SOL    HW119382   5.261   0.073   6.325
 6161SOL    HW219383   5.397   0.163   6.322
 6162SOL     OW19384   0.276   5.096   4.362
 6162SOL    HW119385   0.257   5.140   4.274
 6162SOL    HW219386   0.373   5.106   4.384
 6163SOL     OW19387   6.119   3.939   0.629
 6163SOL    HW119388   6.118   3.839   0.629
 6163SOL    HW219389   6.059   3.973   0.702
 6164SOL     OW19390   2.932   1.511   0.983
 6164SOL    HW119391   2.905   1.438   0.920
 6164SOL    HW219392   2.956   1.472   1.071
 6165SOL     OW19393   4.014   6.584   0.174
 6165SOL    HW119394   4.074   6.511   0.140
 6165SOL    HW219395   3.919   6.559   0.158
 6166SOL     OW19396   2.610   1.055   6.252
 6166SOL    HW119397   2.621   1.091   6.159
 6166SOL    HW219398   2.533   1.099   6.297
 6167SOL     OW19399   0.439   4.088   3.029
 6167SOL    HW119400   0.372   4.016   3.047
 6167SOL    HW219401   0.457   4.138   3.114
 6168SOL     OW19402   0.384   4.200   2.426
 6168SOL    HW119403   0.301   4.234   2.381
 6168SOL    HW219404   0.415   4.117   2.381
 6169SOL     OW19405   2.226   4.203   2.490
 6169SOL    HW119406   2.260   4.192   2.397
 6169SOL    HW219407   2.144   4.261   2.490
 6170SOL     OW19408   7.015   3.635   5.402
 6170SOL    HW119409   0.073   3.626   5.467
 6170SOL    HW219410   7.011   3.555   5.343
 6171SOL     OW19411   0.311   0.225   6.973
 6171SOL    HW119412   0.339   0.307   0.007
 6171SOL    HW219413   0.359   0.145   7.009
 6172SOL     OW19414   0.524   3.017   2.600
 6172SOL    HW119415   0.499   2.965   2.682
 6172SOL    HW219416   0.501   3.113   2.613
 6173SOL     OW19417   6.539   6.864   2.992
 6173SOL    HW119418   6.451   6.911   3.001
 6173SOL    HW219419   6.535   6.777   3.040
 6174SOL     OW19420   5.643   4.186   2.796
 6174SOL    HW119421   5.626   4.263   2.734
 6174SOL    HW219422   5.563   4.127   2.799
 6175SOL     OW19423   2.298   1.262   4.868
 6175SOL    HW119424   2.295   1.165   4.842
 6175SOL    HW219425   2.208   1.302   4.856
 6176SOL     OW19426   4.313   4.412   5.402
 6176SOL    HW119427   4.274   4.402   5.311
 6176SOL    HW219428   4.330   4.322   5.442
 6177SOL     OW19429   6.159   1.450   2.200
 6177SOL    HW119430   6.256   1.475   2.201
 6177SOL    HW219431   6.112   1.503   2.129
 6178SOL     OW19432   5.318   4.119   2.050
 6178SOL    HW119433   5.396   4.179   2.036
 6178SOL    HW219434   5.299   4.110   2.148
 6179SOL     OW19435   6.340   4.965   2.914
 6179SOL    HW119436   6.251   4.982   2.957
 6179SOL    HW219437   6.401   5.042   2.933
 6180SOL     OW19438   2.873   4.778   0.160
 6180SOL    HW119439   2.962   4.806   0.193
 6180SOL    HW219440   2.830   4.853   0.110
 6181SOL     OW19441   4.623   5.019   6.186
 6181SOL    HW119442   4.524   5.023   6.172
 6181SOL    HW219443   4.647   5.069   6.269
 6182SOL     OW19444   3.068   3.270   0.148
 6182SOL    HW119445   3.112   3.358   0.130
 6182SOL    HW219446   3.130   3.212   0.201
 6183SOL     OW19447   1.179   2.158   1.120
 6183SOL    HW119448   1.214   2.171   1.212
 6183SOL    HW219449   1.079   2.158   1.121
 6184SOL     OW19450   2.630   0.699   5.786
 6184SOL    HW119451   2.640   0.667   5.880
 6184SOL    HW219452   2.533   0.703   5.762
 6185SOL     OW19453   3.362   2.821   5.415
 6185SOL    HW119454   3.342   2.861   5.504
 6185SOL    HW219455   3.290   2.846   5.350
 6186SOL     OW19456   6.269   1.786   1.934
 6186SOL    HW119457   6.272   1.809   2.032
 6186SOL    HW219458   6.331   1.847   1.884
 6187SOL     OW19459   5.340   1.796   5.581
 6187SOL    HW119460   5.246   1.829   5.580
 6187SOL    HW219461   5.371   1.787   5.676
 6188SOL     OW19462   1.797   1.865   5.306
 6188SOL    HW119463   1.810   1.777   5.261
 6188SOL    HW219464   1.874   1.925   5.285
 6189SOL     OW19465   5.131   6.251   2.225
 6189SOL    HW119466   5.157   6.160   2.259
 6189SOL    HW219467   5.037   6.271   2.252
 6190SOL     OW19468   0.244   2.322   5.185
 6190SOL    HW119469   0.225   2.246   5.248
 6190SOL    HW219470   0.169   2.388   5.189
 6191SOL     OW19471   3.493   3.492   6.695
 6191SOL    HW119472   3.412   3.433   6.696
 6191SOL    HW219473   3.468   3.583   6.730
 6192SOL     OW19474   2.642   1.977   0.491
 6192SOL    HW119475   2.585   2.049   0.532
 6192SOL    HW219476   2.736   1.986   0.524
 6193SOL     OW19477   5.148   5.460   6.866
 6193SOL    HW119478   5.158   5.392   6.940
 6193SOL    HW219479   5.238   5.496   6.842
 6194SOL     OW19480   6.507   0.279   6.169
 6194SOL    HW119481   6.507   0.371   6.208
 6194SOL    HW219482   6.468   0.282   6.077
 6195SOL     OW19483   5.942   6.616   5.572
 6195SOL    HW119484   5.931   6.517   5.583
 6195SOL    HW219485   5.990   6.653   5.652
 6196SOL     OW19486   5.460   3.790   3.348
 6196SOL    HW119487   5.431   3.712   3.293
 6196SOL    HW219488   5.384   3.854   3.357
 6197SOL     OW19489   3.022   5.372   2.121
 6197SOL    HW119490   3.094   5.360   2.190
 6197SOL    HW219491   2.953   5.435   2.156
 6198SOL     OW19492   6.598   6.625   6.490
 6198SOL    HW119493   6.663   6.570   6.542
 6198SOL    HW219494   6.638   6.648   6.401
 6199SOL     OW19495   1.225   0.123   1.055
 6199SOL    HW119496   1.224   0.036   1.005
 6199SOL    HW219497   1.305   0.127   1.114
 6200SOL     OW19498   1.900   2.254   2.633
 6200SOL    HW119499   1.940   2.334   2.589
 6200SOL    HW219500   1.803   2.247   2.607
 6201SOL     OW19501   6.756   3.683   4.022
 6201SOL    HW119502   6.747   3.762   4.082
 6201SOL    HW219503   6.851   3.673   3.992
 6202SOL     OW19504   6.068   1.443   2.929
 6202SOL    HW119505   6.026   1.529   2.901
 6202SOL    HW219506   6.090   1.389   2.847
 6203SOL     OW19507   5.943   6.045   2.009
 6203SOL    HW119508   5.860   6.044   2.066
 6203SOL    HW219509   6.002   6.121   2.037
 6204SOL     OW19510   1.781   7.014   5.000
 6204SOL    HW119511   1.870   0.035   4.973
 6204SOL    HW219512   1.795   6.940   5.066
 6205SOL     OW19513   4.925   4.361   3.304
 6205SOL    HW119514   4.970   4.423   3.369
 6205SOL    HW219515   4.981   4.279   3.294
 6206SOL     OW19516   5.007   2.106   3.817
 6206SOL    HW119517   5.013   2.206   3.808
 6206SOL    HW219518   5.075   2.074   3.883
 6207SOL     OW19519   2.215   5.984   4.172
 6207SOL    HW119520   2.186   5.943   4.259
 6207SOL    HW219521   2.308   5.955   4.150
 6208SOL     OW19522   3.938   2.914   5.807
 6208SOL    HW119523   3.986   2.847   5.750
 6208SOL    HW219524   3.929   2.999   5.756
 6209SOL     OW19525   4.079   3.667   0.969
 6209SOL    HW119526   4.018   3.622   1.036
 6209SOL    HW219527   4.126   3.597   0.916
 6210SOL     OW19528   4.445   2.491   3.432
 6210SOL    HW119529   4.365   2.523   3.382
 6210SOL    HW219530   4.430   2.397   3.463
 6211SOL     OW19531   5.074   5.395   4.793
 6211SOL    HW119532   5.032   5.485   4.800
 6211SOL    HW219533   5.120   5.386   4.704
 6212SOL     OW19534   4.410   4.105   5.901
 6212SOL    HW119535   4.348   4.078   5.826
 6212SOL    HW219536   4.462   4.025   5.932
 6213SOL     OW19537   4.445   5.895   0.389
 6213SOL    HW119538   4.480   5.924   0.300
 6213SOL    HW219539   4.353   5.934   0.402
 6214SOL     OW19540   5.970   5.910   5.937
 6214SOL    HW119541   5.905   5.913   5.861
 6214SOL    HW219542   6.063   5.928   5.903
 6215SOL     OW19543   5.630   2.448   5.927
 6215SOL    HW119544   5.549   2.392   5.950
 6215SOL    HW219545   5.605   2.544   5.928
 6216SOL     OW19546   4.875   2.346   3.239
 6216SOL    HW119547   4.853   2.376   3.332
 6216SOL    HW219548   4.937   2.411   3.197
 6217SOL     OW19549   0.929   4.522   2.163
 6217SOL    HW119550   0.966   4.553   2.251
 6217SOL    HW219551   0.834   4.493   2.175
 6218SOL     OW19552   4.574   6.586   6.957
 6218SOL    HW119553   4.659   6.579   6.906
 6218SOL    HW219554   4.542   6.680   6.957
 6219SOL     OW19555   1.189   0.995   5.825
 6219SOL    HW119556   1.284   1.018   5.803
 6219SOL    HW219557   1.169   0.903   5.791
 6220SOL     OW19558   4.538   0.791   0.798
 6220SOL    HW119559   4.530   0.888   0.820
 6220SOL    HW219560   4.527   0.779   0.699
 6221SOL     OW19561   6.266   5.580   6.764
 6221SOL    HW119562   6.343   5.519   6.780
 6221SOL    HW219563   6.215   5.549   6.684
 6222SOL     OW19564   6.463   1.515   2.953
 6222SOL    HW119565   6.399   1.586   2.924
 6222SOL    HW219566   6.453   1.499   3.051
 6223SOL     OW19567   0.654   4.880   3.838
 6223SOL    HW119568   0.579   4.895   3.774
 6223SOL    HW219569   0.704   4.797   3.813
 6224SOL     OW19570   4.622   2.002   0.021
 6224SOL    HW119571   4.524   1.988   0.032
 6224SOL    HW219572   4.639   2.084   6.983
 6225SOL     OW19573   4.396   0.071   6.384
 6225SOL    HW119574   4.389   0.163   6.423
 6225SOL    HW219575   4.444   0.011   6.448
 6226SOL     OW19576   0.745   1.395   4.362
 6226SOL    HW119577   0.762   1.391   4.263
 6226SOL    HW219578   0.820   1.444   4.406
 6227SOL     OW19579   3.184   3.948   5.295
 6227SOL    HW119580   3.239   4.018   5.249
 6227SOL    HW219581   3.176   3.868   5.235
 6228SOL     OW19582   1.871   2.664   3.884
 6228SOL    HW119583   1.854   2.651   3.786
 6228SOL    HW219584   1.893   2.576   3.926
 6229SOL     OW19585   0.422   3.995   4.049
 6229SOL    HW119586   0.456   3.906   4.018
 6229SOL    HW219587   0.414   3.995   4.148
 6230SOL     OW19588   0.619   0.983   2.004
 6230SOL    HW119589   0.528   1.005   2.040
 6230SOL    HW219590   0.630   1.025   1.913
 6231SOL     OW19591   0.810   5.399   0.274
 6231SOL    HW119592   0.726   5.438   0.236
 6231SOL    HW219593   0.792   5.307   0.307
 6232SOL     OW19594   4.712   1.625   6.863
 6232SOL    HW119595   4.739   1.529   6.871
 6232SOL    HW219596   4.720   1.669   6.952
 6233SOL     OW19597   0.250   3.540   1.585
 6233SOL    HW119598   0.322   3.540   1.515
 6233SOL    HW219599   0.256   3.625   1.638
 6234SOL     OW19600   5.656   6.983   4.592
 6234SOL    HW119601   5.640   0.064   4.576
 6234SOL    HW219602   5.741   6.956   4.548
 6235SOL     OW19603   6.729   0.642   2.751
 6235SOL    HW119604   6.797   0.658   2.680
 6235SOL    HW219605   6.751   0.558   2.800
 6236SOL     OW19606   0.448   4.629   1.009
 6236SOL    HW119607   0.522   4.697   1.005
 6236SOL    HW219608   0.362   4.672   0.980
 6237SOL     OW19609   3.927   1.089   1.194
 6237SOL    HW119610   3.949   0.992   1.185
 6237SOL    HW219611   4.009   1.138   1.223
 6238SOL     OW19612   2.109   6.800   4.515
 6238SOL    HW119613   2.076   6.769   4.426
 6238SOL    HW219614   2.047   6.767   4.587
 6239SOL     OW19615   4.730   1.352   3.042
 6239SOL    HW119616   4.749   1.255   3.061
 6239SOL    HW219617   4.634   1.372   3.060
 6240SOL     OW19618   4.118   3.528   4.357
 6240SOL    HW119619   4.149   3.615   4.396
 6240SOL    HW219620   4.099   3.541   4.259
 6241SOL     OW19621   3.254   6.833   3.437
 6241SOL    HW119622   3.301   6.775   3.503
 6241SOL    HW219623   3.187   6.778   3.386
 6242SOL     OW19624   2.783   1.993   3.882
 6242SOL    HW119625   2.800   1.948   3.795
 6242SOL    HW219626   2.867   2.038   3.914
 6243SOL     OW19627   5.372   1.490   5.889
 6243SOL    HW119628   5.323   1.422   5.835
 6243SOL    HW219629   5.466   1.460   5.904
 6244SOL     OW19630   4.261   4.658   3.004
 6244SOL    HW119631   4.339   4.597   2.986
 6244SOL    HW219632   4.221   4.688   2.918
 6245SOL     OW19633   0.695   4.541   2.835
 6245SOL    HW119634   0.753   4.551   2.916
 6245SOL    HW219635   0.646   4.454   2.840
 6246SOL     OW19636   6.975   6.517   4.564
 6246SOL    HW119637   7.000   6.425   4.591
 6246SOL    HW219638   6.903   6.513   4.495
 6247SOL     OW19639   6.483   6.239   2.398
 6247SOL    HW119640   6.435   6.326   2.397
 6247SOL    HW219641   6.555   6.241   2.469
 6248SOL     OW19642   3.614   2.886   6.784
 6248SOL    HW119643   3.672   2.839   6.718
 6248SOL    HW219644   3.559   2.818   6.833
 6249SOL     OW19645   5.929   3.102   1.280
 6249SOL    HW119646   5.848   3.111   1.338
 6249SOL    HW219647   5.942   3.186   1.227
 6250SOL     OW19648   6.826   0.469   0.407
 6250SOL    HW119649   6.817   0.515   0.495
 6250SOL    HW219650   6.923   0.457   0.385
 6251SOL     OW19651   2.713   6.718   4.239
 6251SOL    HW119652   2.628   6.676   4.272
 6251SOL    HW219653   2.745   6.669   4.157
 6252SOL     OW19654   2.649   5.398   6.937
 6252SOL    HW119655   2.734   5.436   6.901
 6252SOL    HW219656   2.641   5.303   6.908
 6253SOL     OW19657   3.217   4.940   4.635
 6253SOL    HW119658   3.248   4.987   4.717
 6253SOL    HW219659   3.283   4.954   4.561
 6254SOL     OW19660   0.007   6.084   0.390
 6254SOL    HW119661   6.949   6.116   0.331
 6254SOL    HW219662   0.036   6.157   0.451
 6255SOL     OW19663   0.565   1.267   1.431
 6255SOL    HW119664   0.612   1.179   1.440
 6255SOL    HW219665   0.566   1.315   1.519
 6256SOL     OW19666   4.812   5.649   2.533
 6256SOL    HW119667   4.808   5.745   2.506
 6256SOL    HW219668   4.741   5.597   2.484
 6257SOL     OW19669   4.049   4.247   1.594
 6257SOL    HW119670   4.129   4.213   1.644
 6257SOL    HW219671   3.991   4.170   1.568
 6258SOL     OW19672   4.325   6.219   5.578
 6258SOL    HW119673   4.340   6.291   5.510
 6258SOL    HW219674   4.346   6.253   5.669
 6259SOL     OW19675   2.732   0.949   4.844
 6259SOL    HW119676   2.743   1.037   4.890
 6259SOL    HW219677   2.807   0.936   4.779
 6260SOL     OW19678   2.147   1.569   0.526
 6260SOL    HW119679   2.077   1.577   0.596
 6260SOL    HW219680   2.212   1.644   0.534
 6261SOL     OW19681   3.932   6.328   1.312
 6261SOL    HW119682   3.906   6.350   1.218
 6261SOL    HW219683   4.027   6.296   1.314
 6262SOL     OW19684   6.535   0.521   1.664
 6262SOL    HW119685   6.489   0.534   1.752
 6262SOL    HW219686   6.611   0.457   1.676
 6263SOL     OW19687   6.228   6.360   5.607
 6263SOL    HW119688   6.230   6.432   5.677
 6263SOL    HW219689   6.158   6.294   5.630
 6264SOL     OW19690   1.676   6.627   1.176
 6264SOL    HW119691   1.639   6.630   1.083
 6264SOL    HW219692   1.749   6.695   1.185
 6265SOL     OW19693   4.896   1.309   0.182
 6265SOL    HW119694   4.982   1.351   0.154
 6265SOL    HW219695   4.833   1.305   0.104
 6266SOL     OW19696   2.409   5.112   3.168
 6266SOL    HW119697   2.356   5.130   3.251
 6266SOL    HW219698   2.503   5.087   3.194
 6267SOL     OW19699   1.465   6.478   4.679
 6267SOL    HW119700   1.368   6.495   4.659
 6267SOL    HW219701   1.479   6.482   4.778
 6268SOL     OW19702   3.923   0.693   1.285
 6268SOL    HW119703   3.998   0.727   1.229
 6268SOL    HW219704   3.905   0.756   1.360
 6269SOL     OW19705   5.542   5.412   0.899
 6269SOL    HW119706   5.626   5.449   0.940
 6269SOL    HW219707   5.536   5.440   0.804
 6270SOL     OW19708   2.055   6.301   0.411
 6270SOL    HW119709   2.024   6.220   0.362
 6270SOL    HW219710   2.101   6.363   0.348
 6271SOL     OW19711   6.238   3.114   6.319
 6271SOL    HW119712   6.271   3.085   6.409
 6271SOL    HW219713   6.154   3.167   6.330
 6272SOL     OW19714   6.853   0.038   0.571
 6272SOL    HW119715   6.755   0.029   0.556
 6272SOL    HW219716   6.873   0.127   0.611
 6273SOL     OW19717   0.056   0.281   1.499
 6273SOL    HW119718   6.976   0.306   1.488
 6273SOL    HW219719   0.063   0.197   1.553
 6274SOL     OW19720   2.925   5.596   4.782
 6274SOL    HW119721   3.014   5.551   4.787
 6274SOL    HW219722   2.854   5.527   4.766
 6275SOL     OW19723   2.112   5.134   6.852
 6275SOL    HW119724   2.154   5.197   6.918
 6275SOL    HW219725   2.042   5.182   6.800
 6276SOL     OW19726   1.542   5.941   2.725
 6276SOL    HW119727   1.506   5.895   2.806
 6276SOL    HW219728   1.607   6.012   2.752
 6277SOL     OW19729   5.428   3.317   1.443
 6277SOL    HW119730   5.397   3.246   1.507
 6277SOL    HW219731   5.495   3.375   1.489
 6278SOL     OW19732   2.883   0.291   6.366
 6278SOL    HW119733   2.931   0.237   6.297
 6278SOL    HW219734   2.893   0.388   6.344
 6279SOL     OW19735   2.830   0.240   1.573
 6279SOL    HW119736   2.919   0.201   1.596
 6279SOL    HW219737   2.822   0.331   1.612
 6280SOL     OW19738   6.969   1.908   6.922
 6280SOL    HW119739   6.876   1.873   6.912
 6280SOL    HW219740   0.014   1.856   6.864
 6281SOL     OW19741   5.926   4.364   5.664
 6281SOL    HW119742   5.970   4.441   5.710
 6281SOL    HW219743   5.851   4.329   5.721
 6282SOL     OW19744   0.360   3.824   5.875
 6282SOL    HW119745   0.267   3.806   5.843
 6282SOL    HW219746   0.417   3.744   5.856
 6283SOL     OW19747   1.433   5.846   4.892
 6283SOL    HW119748   1.502   5.774   4.891
 6283SOL    HW219749   1.353   5.814   4.942
 6284SOL     OW19750   2.107   4.511   6.476
 6284SOL    HW119751   2.143   4.591   6.524
 6284SOL    HW219752   2.098   4.435   6.540
 6285SOL     OW19753   0.959   3.950   3.725
 6285SOL    HW119754   0.899   3.871   3.730
 6285SOL    HW219755   1.051   3.925   3.754
 6286SOL     OW19756   1.052   2.716   5.459
 6286SOL    HW119757   1.107   2.632   5.463
 6286SOL    HW219758   1.097   2.781   5.397
 6287SOL     OW19759   4.616   4.630   4.935
 6287SOL    HW119760   4.679   4.705   4.916
 6287SOL    HW219761   4.551   4.621   4.859
 6288SOL     OW19762   3.685   3.054   0.087
 6288SOL    HW119763   3.606   3.044   0.148
 6288SOL    HW219764   3.764   3.010   0.129
 6289SOL     OW19765   2.839   4.957   5.727
 6289SOL    HW119766   2.780   5.038   5.725
 6289SOL    HW219767   2.789   4.878   5.692
 6290SOL     OW19768   5.029   5.670   4.810
 6290SOL    HW119769   4.967   5.748   4.817
 6290SOL    HW219770   5.121   5.698   4.838
 6291SOL     OW19771   3.687   3.264   3.353
 6291SOL    HW119772   3.657   3.322   3.278
 6291SOL    HW219773   3.755   3.313   3.408
 6292SOL     OW19774   1.829   2.964   4.520
 6292SOL    HW119775   1.766   2.959   4.442
 6292SOL    HW219776   1.907   3.021   4.496
 6293SOL     OW19777   4.630   1.517   6.619
 6293SOL    HW119778   4.717   1.472   6.600
 6293SOL    HW219779   4.644   1.589   6.688
 6294SOL     OW19780   1.652   1.520   3.037
 6294SOL    HW119781   1.669   1.500   2.940
 6294SOL    HW219782   1.640   1.619   3.049
 6295SOL     OW19783   5.587   3.751   5.523
 6295SOL    HW119784   5.487   3.749   5.532
 6295SOL    HW219785   5.623   3.833   5.567
 6296SOL     OW19786   0.404   2.589   6.601
 6296SOL    HW119787   0.312   2.549   6.602
 6296SOL    HW219788   0.460   2.547   6.672
 6297SOL     OW19789   5.557   0.555   4.208
 6297SOL    HW119790   5.527   0.650   4.193
 6297SOL    HW219791   5.481   0.493   4.188
 6298SOL     OW19792   6.045   5.104   0.932
 6298SOL    HW119793   6.079   5.095   0.838
 6298SOL    HW219794   6.105   5.166   0.982
 6299SOL     OW19795   4.763   1.896   2.532
 6299SOL    HW119796   4.700   1.934   2.466
 6299SOL    HW219797   4.857   1.913   2.503
 6300SOL     OW19798   3.061   0.193   6.589
 6300SOL    HW119799   2.997   0.117   6.599
 6300SOL    HW219800   3.029   0.254   6.517
 6301SOL     OW19801   3.368   6.402   0.321
 6301SOL    HW119802   3.372   6.480   0.384
 6301SOL    HW219803   3.379   6.317   0.373
 6302SOL     OW19804   2.957   1.204   5.922
 6302SOL    HW119805   3.000   1.217   5.833
 6302SOL    HW219806   2.990   1.118   5.963
 6303SOL     OW19807   1.108   5.838   5.415
 6303SOL    HW119808   1.199   5.870   5.388
 6303SOL    HW219809   1.100   5.740   5.396
 6304SOL     OW19810   4.365   1.204   3.328
 6304SOL    HW119811   4.305   1.207   3.408
 6304SOL    HW219812   4.354   1.117   3.280
 6305SOL     OW19813   1.065   6.247   5.897
 6305SOL    HW119814   1.147   6.252   5.954
 6305SOL    HW219815   1.015   6.334   5.904
 6306SOL     OW19816   0.030   4.456   3.919
 6306SOL    HW119817   0.073   4.544   3.942
 6306SOL    HW219818   6.963   4.473   3.867
 6307SOL     OW19819   4.072   3.615   3.004
 6307SOL    HW119820   4.037   3.625   3.097
 6307SOL    HW219821   4.072   3.704   2.958
 6308SOL     OW19822   0.287   2.229   0.199
 6308SOL    HW119823   0.330   2.174   0.128
 6308SOL    HW219824   0.223   2.173   0.251
 6309SOL     OW19825   1.742   6.105   4.283
 6309SOL    HW119826   1.668   6.075   4.343
 6309SOL    HW219827   1.815   6.037   4.282
 6310SOL     OW19828   1.156   6.422   3.234
 6310SOL    HW119829   1.068   6.405   3.280
 6310SOL    HW219830   1.185   6.338   3.188
 6311SOL     OW19831   4.759   0.718   5.531
 6311SOL    HW119832   4.819   0.746   5.456
 6311SOL    HW219833   4.676   0.774   5.529
 6312SOL     OW19834   4.175   6.431   6.612
 6312SOL    HW119835   4.106   6.402   6.546
 6312SOL    HW219836   4.258   6.378   6.599
 6313SOL     OW19837   5.746   6.165   3.753
 6313SOL    HW119838   5.817   6.101   3.725
 6313SOL    HW219839   5.676   6.117   3.805
 6314SOL     OW19840   1.677   6.676   2.208
 6314SOL    HW119841   1.749   6.630   2.260
 6314SOL    HW219842   1.665   6.769   2.243
 6315SOL     OW19843   2.437   2.555   4.154
 6315SOL    HW119844   2.370   2.573   4.082
 6315SOL    HW219845   2.452   2.639   4.207
 6316SOL     OW19846   5.461   0.918   4.644
 6316SOL    HW119847   5.435   0.976   4.567
 6316SOL    HW219848   5.379   0.873   4.681
 6317SOL     OW19849   5.042   4.710   1.931
 6317SOL    HW119850   5.075   4.658   1.852
 6317SOL    HW219851   4.963   4.664   1.971
 6318SOL     OW19852   6.681   6.861   6.230
 6318SOL    HW119853   6.634   6.840   6.144
 6318SOL    HW219854   6.747   6.788   6.250
 6319SOL     OW19855   5.563   1.925   4.796
 6319SOL    HW119856   5.605   1.930   4.706
 6319SOL    HW219857   5.561   1.831   4.828
 6320SOL     OW19858   6.272   0.347   5.021
 6320SOL    HW119859   6.320   0.434   5.020
 6320SOL    HW219860   6.289   0.299   4.935
 6321SOL     OW19861   5.767   1.981   0.189
 6321SOL    HW119862   5.854   1.944   0.156
 6321SOL    HW219863   5.773   1.996   0.288
 6322SOL     OW19864   1.638   1.021   1.603
 6322SOL    HW119865   1.713   1.073   1.644
 6322SOL    HW219866   1.563   1.012   1.668
 6323SOL     OW19867   2.883   3.266   1.273
 6323SOL    HW119868   2.828   3.348   1.258
 6323SOL    HW219869   2.906   3.226   1.184
 6324SOL     OW19870   4.922   1.459   1.007
 6324SOL    HW119871   4.969   1.542   0.977
 6324SOL    HW219872   4.835   1.483   1.049
 6325SOL     OW19873   1.836   2.543   3.595
 6325SOL    HW119874   1.813   2.582   3.505
 6325SOL    HW219875   1.892   2.461   3.582
 6326SOL     OW19876   5.535   4.702   5.585
 6326SOL    HW119877   5.514   4.689   5.488
 6326SOL    HW219878   5.495   4.788   5.616
 6327SOL     OW19879   0.243   0.299   3.250
 6327SOL    HW119880   0.286   0.362   3.186
 6327SOL    HW219881   0.225   0.212   3.204
 6328SOL     OW19882   4.510   3.906   5.304
 6328SOL    HW119883   4.576   3.869   5.369
 6328SOL    HW219884   4.554   3.975   5.246
 6329SOL     OW19885   1.432   2.769   5.582
 6329SOL    HW119886   1.525   2.804   5.566
 6329SOL    HW219887   1.377   2.783   5.500
 6330SOL     OW19888   5.406   1.682   3.548
 6330SOL    HW119889   5.442   1.619   3.479
 6330SOL    HW219890   5.313   1.710   3.522
 6331SOL     OW19891   0.363   3.291   3.103
 6331SOL    HW119892   0.339   3.233   3.181
 6331SOL    HW219893   0.361   3.236   3.019
 6332SOL     OW19894   2.580   1.650   0.727
 6332SOL    HW119895   2.679   1.658   0.716
 6332SOL    HW219896   2.558   1.561   0.767
 6333SOL     OW19897   5.033   1.346   0.684
 6333SOL    HW119898   5.007   1.256   0.648
 6333SOL    HW219899   4.962   1.379   0.746
 6334SOL     OW19900   1.862   1.139   1.699
 6334SOL    HW119901   1.891   1.221   1.649
 6334SOL    HW219902   1.921   1.063   1.673
 6335SOL     OW19903   6.266   1.777   0.840
 6335SOL    HW119904   6.250   1.758   0.937
 6335SOL    HW219905   6.295   1.872   0.829
 6336SOL     OW19906   0.413   2.986   5.718
 6336SOL    HW119907   0.354   3.004   5.639
 6336SOL    HW219908   0.499   3.036   5.708
 6337SOL     OW19909   4.477   5.669   4.504
 6337SOL    HW119910   4.499   5.646   4.410
 6337SOL    HW219911   4.551   5.639   4.564
 6338SOL     OW19912   3.091   1.656   3.793
 6338SOL    HW119913   3.030   1.729   3.763
 6338SOL    HW219914   3.037   1.585   3.839
 6339SOL     OW19915   0.848   4.646   3.471
 6339SOL    HW119916   0.913   4.693   3.411
 6339SOL    HW219917   0.791   4.584   3.418
 6340SOL     OW19918   1.991   4.583   1.438
 6340SOL    HW119919   2.004   4.493   1.395
 6340SOL    HW219920   1.910   4.580   1.496
 6341SOL     OW19921   0.586   4.444   3.615
 6341SOL    HW119922   0.526   4.364   3.612
 6341SOL    HW219923   0.676   4.418   3.651
 6342SOL     OW19924   1.785   1.899   1.626
 6342SOL    HW119925   1.753   1.807   1.604
 6342SOL    HW219926   1.875   1.894   1.668
 6343SOL     OW19927   2.432   5.681   0.686
 6343SOL    HW119928   2.405   5.587   0.710
 6343SOL    HW219929   2.476   5.724   0.765
 6344SOL     OW19930   6.405   1.374   3.959
 6344SOL    HW119931   6.374   1.390   3.865
 6344SOL    HW219932   6.385   1.454   4.015
 6345SOL     OW19933   5.621   3.481   1.582
 6345SOL    HW119934   5.691   3.497   1.512
 6345SOL    HW219935   5.650   3.524   1.668
 6346SOL     OW19936   6.799   4.356   4.918
 6346SOL    HW119937   6.797   4.293   4.996
 6346SOL    HW219938   6.729   4.426   4.929
 6347SOL     OW19939   1.971   2.013   2.701
 6347SOL    HW119940   2.041   1.997   2.770
 6347SOL    HW219941   1.952   2.111   2.695
 6348SOL     OW19942   6.885   2.428   6.173
 6348SOL    HW119943   6.820   2.438   6.249
 6348SOL    HW219944   6.972   2.470   6.198
 6349SOL     OW19945   6.910   1.298   6.674
 6349SOL    HW119946   6.874   1.391   6.666
 6349SOL    HW219947   7.000   1.293   6.630
 6350SOL     OW19948   1.748   5.001   1.613
 6350SOL    HW119949   1.843   4.969   1.616
 6350SOL    HW219950   1.690   4.937   1.664
 6351SOL     OW19951   5.557   3.133   2.254
 6351SOL    HW119952   5.497   3.188   2.312
 6351SOL    HW219953   5.503   3.062   2.209
 6352SOL     OW19954   2.778   0.539   4.545
 6352SOL    HW119955   2.856   0.593   4.514
 6352SOL    HW219956   2.779   0.532   4.644
 6353SOL     OW19957   3.848   6.219   6.222
 6353SOL    HW119958   3.934   6.180   6.189
 6353SOL    HW219959   3.776   6.149   6.219
 6354SOL     OW19960   4.522   5.246   2.259
 6354SOL    HW119961   4.446   5.283   2.206
 6354SOL    HW219962   4.608   5.288   2.229
 6355SOL     OW19963   2.723   4.896   0.789
 6355SOL    HW119964   2.715   4.965   0.716
 6355SOL    HW219965   2.655   4.914   0.859
 6356SOL     OW19966   6.216   4.155   6.759
 6356SOL    HW119967   6.312   4.133   6.742
 6356SOL    HW219968   6.179   4.207   6.682
 6357SOL     OW19969   5.687   1.355   1.407
 6357SOL    HW119970   5.594   1.340   1.375
 6357SOL    HW219971   5.696   1.321   1.501
 6358SOL     OW19972   0.909   2.347   6.795
 6358SOL    HW119973   0.960   2.267   6.764
 6358SOL    HW219974   0.968   2.428   6.791
 6359SOL     OW19975   5.574   5.966   0.771
 6359SOL    HW119976   5.561   6.054   0.725
 6359SOL    HW219977   5.525   5.966   0.858
 6360SOL     OW19978   0.922   2.691   1.923
 6360SOL    HW119979   0.991   2.631   1.883
 6360SOL    HW219980   0.910   2.669   2.020
 6361SOL     OW19981   0.629   0.312   6.845
 6361SOL    HW119982   0.624   0.212   6.844
 6361SOL    HW219983   0.541   0.349   6.875
 6362SOL     OW19984   1.372   5.755   6.913
 6362SOL    HW119985   1.273   5.770   6.912
 6362SOL    HW219986   1.404   5.747   7.007
 6363SOL     OW19987   2.764   4.826   3.558
 6363SOL    HW119988   2.696   4.757   3.584
 6363SOL    HW219989   2.814   4.794   3.478
 6364SOL     OW19990   2.375   2.749   4.584
 6364SOL    HW119991   2.298   2.812   4.576
 6364SOL    HW219992   2.432   2.775   4.662
 6365SOL     OW19993   5.477   5.441   3.251
 6365SOL    HW119994   5.538   5.480   3.182
 6365SOL    HW219995   5.524   5.366   3.297
 6366SOL     OW19996   6.040   7.003   4.750
 6366SOL    HW119997   5.971   0.026   4.810
 6366SOL    HW219998   6.110   6.958   4.805
 6367SOL     OW19999   1.642   2.393   2.703
 6367SOL    HW120000   1.577   2.317   2.706
 6367SOL    HW220001   1.649   2.435   2.794
 6368SOL     OW20002   4.759   2.831   4.603
 6368SOL    HW120003   4.820   2.903   4.570
 6368SOL    HW220004   4.735   2.850   4.699
 6369SOL     OW20005   3.362   5.580   6.487
 6369SOL    HW120006   3.318   5.665   6.516
 6369SOL    HW220007   3.300   5.529   6.426
 6370SOL     OW20008   5.775   3.222   4.570
 6370SOL    HW120009   5.755   3.225   4.472
 6370SOL    HW220010   5.788   3.126   4.598
 6371SOL     OW20011   5.032   4.545   1.650
 6371SOL    HW120012   5.042   4.460   1.701
 6371SOL    HW220013   5.108   4.556   1.587
 6372SOL     OW20014   6.734   1.610   2.834
 6372SOL    HW120015   6.725   1.611   2.735
 6372SOL    HW220016   6.656   1.563   2.875
 6373SOL     OW20017   4.754   4.297   1.368
 6373SOL    HW120018   4.809   4.275   1.448
 6373SOL    HW220019   4.657   4.298   1.393
 6374SOL     OW20020   4.381   3.219   0.265
 6374SOL    HW120021   4.366   3.303   0.214
 6374SOL    HW220022   4.479   3.199   0.268
 6375SOL     OW20023   6.315   2.422   1.651
 6375SOL    HW120024   6.334   2.520   1.643
 6375SOL    HW220025   6.261   2.405   1.733
 6376SOL     OW20026   3.515   1.091   6.879
 6376SOL    HW120027   3.459   1.065   6.958
 6376SOL    HW220028   3.528   1.012   6.820
 6377SOL     OW20029   6.894   0.687   0.023
 6377SOL    HW120030   6.897   0.590   7.012
 6377SOL    HW220031   6.831   0.698   0.099
 6378SOL     OW20032   5.371   5.856   2.835
 6378SOL    HW120033   5.435   5.780   2.819
 6378SOL    HW220034   5.346   5.858   2.932
 6379SOL     OW20035   2.391   6.012   0.371
 6379SOL    HW120036   2.308   5.975   0.411
 6379SOL    HW220037   2.400   5.981   0.277
 6380SOL     OW20038   1.456   3.761   5.015
 6380SOL    HW120039   1.459   3.810   5.103
 6380SOL    HW220040   1.425   3.668   5.030
 6381SOL     OW20041   4.305   2.472   0.344
 6381SOL    HW120042   4.251   2.388   0.334
 6381SOL    HW220043   4.245   2.552   0.336
 6382SOL     OW20044   1.994   1.674   1.653
 6382SOL    HW120045   2.088   1.679   1.686
 6382SOL    HW220046   1.963   1.579   1.656
 6383SOL     OW20047   1.835   2.640   2.313
 6383SOL    HW120048   1.816   2.556   2.262
 6383SOL    HW220049   1.858   2.617   2.408
 6384SOL     OW20050   6.292   2.671   2.706
 6384SOL    HW120051   6.283   2.591   2.765
 6384SOL    HW220052   6.315   2.642   2.613
 6385SOL     OW20053   6.519   3.014   1.469
 6385SOL    HW120054   6.547   3.075   1.543
 6385SOL    HW220055   6.481   2.930   1.506
 6386SOL     OW20056   2.584   3.602   0.356
 6386SOL    HW120057   2.644   3.682   0.352
 6386SOL    HW220058   2.512   3.618   0.424
 6387SOL     OW20059   6.965   0.689   6.318
 6387SOL    HW120060   0.006   0.681   6.236
 6387SOL    HW220061   6.880   0.638   6.304
 6388SOL     OW20062   6.396   5.410   2.047
 6388SOL    HW120063   6.443   5.353   1.979
 6388SOL    HW220064   6.455   5.421   2.127
 6389SOL     OW20065   1.050   0.756   6.748
 6389SOL    HW120066   1.048   0.657   6.753
 6389SOL    HW220067   1.144   0.786   6.729
 6390SOL     OW20068   6.715   1.168   6.171
 6390SOL    HW120069   6.627   1.131   6.143
 6390SOL    HW220070   6.706   1.265   6.192
 6391SOL     OW20071   0.866   1.373   5.322
 6391SOL    HW120072   0.812   1.387   5.406
 6391SOL    HW220073   0.944   1.437   5.322
 6392SOL     OW20074   4.201   6.758   3.545
 6392SOL    HW120075   4.105   6.761   3.570
 6392SOL    HW220076   4.256   6.736   3.625
 6393SOL     OW20077   6.984   5.283   0.331
 6393SOL    HW120078   6.976   5.355   0.262
 6393SOL    HW220079   0.043   5.304   0.393
 6394SOL     OW20080   1.515   5.422   1.450
 6394SOL    HW120081   1.588   5.389   1.510
 6394SOL    HW220082   1.508   5.522   1.460
 6395SOL     OW20083   2.049   4.408   3.252
 6395SOL    HW120084   2.034   4.411   3.154
 6395SOL    HW220085   2.146   4.421   3.272
 6396SOL     OW20086   0.996   3.607   0.042
 6396SOL    HW120087   0.980   3.567   0.133
 6396SOL    HW220088   0.912   3.602   7.005
 6397SOL     OW20089   5.830   3.174   3.756
 6397SOL    HW120090   5.844   3.265   3.719
 6397SOL    HW220091   5.742   3.138   3.724
 6398SOL     OW20092   1.535   0.062   1.006
 6398SOL    HW120093   1.632   0.081   0.987
 6398SOL    HW220094   1.513   0.091   1.099
 6399SOL     OW20095   3.084   0.989   6.042
 6399SOL    HW120096   3.089   1.016   6.138
 6399SOL    HW220097   3.095   0.890   6.035
 6400SOL     OW20098   1.396   6.144   2.915
 6400SOL    HW120099   1.352   6.179   2.997
 6400SOL    HW220100   1.337   6.077   2.871
 6401SOL     OW20101   3.595   6.218   3.907
 6401SOL    HW120102   3.630   6.186   3.819
 6401SOL    HW220103   3.538   6.147   3.948
 6402SOL     OW20104   1.474   5.083   5.080
 6402SOL    HW120105   1.437   5.172   5.106
 6402SOL    HW220106   1.571   5.078   5.105
 6403SOL     OW20107   4.631   5.925   4.694
 6403SOL    HW120108   4.624   6.020   4.724
 6403SOL    HW220109   4.551   5.874   4.725
 6404SOL     OW20110   4.144   0.125   2.041
 6404SOL    HW120111   4.053   0.093   2.068
 6404SOL    HW220112   4.137   0.176   1.955
 6405SOL     OW20113   5.379   1.622   2.307
 6405SOL    HW120114   5.409   1.715   2.325
 6405SOL    HW220115   5.285   1.610   2.339
 6406SOL     OW20116   0.676   2.690   2.917
 6406SOL    HW120117   0.744   2.621   2.890
 6406SOL    HW220118   0.587   2.646   2.928
 6407SOL     OW20119   1.733   6.140   2.773
 6407SOL    HW120120   1.777   6.051   2.767
 6407SOL    HW220121   1.792   6.210   2.734
 6408SOL     OW20122   6.534   0.600   0.796
 6408SOL    HW120123   6.587   0.535   0.850
 6408SOL    HW220124   6.548   0.693   0.832
 6409SOL     OW20125   5.652   5.024   3.247
 6409SOL    HW120126   5.566   4.985   3.215
 6409SOL    HW220127   5.717   4.951   3.266
 6410SOL     OW20128   2.451   1.291   5.652
 6410SOL    HW120129   2.456   1.323   5.747
 6410SOL    HW220130   2.490   1.359   5.591
 6411SOL     OW20131   0.611   2.383   2.165
 6411SOL    HW120132   0.559   2.417   2.087
 6411SOL    HW220133   0.692   2.335   2.133
 6412SOL     OW20134   3.519   0.359   0.292
 6412SOL    HW120135   3.482   0.299   0.221
 6412SOL    HW220136   3.506   0.454   0.266
 6413SOL     OW20137   5.123   6.117   3.603
 6413SOL    HW120138   5.157   6.126   3.697
 6413SOL    HW220139   5.078   6.202   3.576
 6414SOL     OW20140   1.770   0.245   0.042
 6414SOL    HW120141   1.771   0.179   0.116
 6414SOL    HW220142   1.676   0.262   0.013
 6415SOL     OW20143   0.272   2.492   3.317
 6415SOL    HW120144   0.185   2.532   3.347
 6415SOL    HW220145   0.254   2.409   3.264
 6416SOL     OW20146   2.743   6.980   0.323
 6416SOL    HW120147   2.721   0.051   0.365
 6416SOL    HW220148   2.659   6.930   0.303
 6417SOL     OW20149   3.956   1.761   0.276
 6417SOL    HW120150   4.012   1.705   0.336
 6417SOL    HW220151   3.907   1.702   0.212
 6418SOL     OW20152   4.633   5.164   0.827
 6418SOL    HW120153   4.633   5.161   0.927
 6418SOL    HW220154   4.726   5.176   0.794
 6419SOL     OW20155   0.616   0.042   6.932
 6419SOL    HW120156   0.669   7.004   6.868
 6419SOL    HW220157   0.602   7.007   7.016
 6420SOL     OW20158   1.989   4.167   4.289
 6420SOL    HW120159   1.975   4.241   4.223
 6420SOL    HW220160   2.077   4.123   4.270
 6421SOL     OW20161   4.866   0.467   1.901
 6421SOL    HW120162   4.768   0.482   1.913
 6421SOL    HW220163   4.910   0.554   1.879
 6422SOL     OW20164   6.336   2.130   4.652
 6422SOL    HW120165   6.414   2.125   4.590
 6422SOL    HW220166   6.260   2.077   4.615
 6423SOL     OW20167   2.417   4.361   4.238
 6423SOL    HW120168   2.327   4.393   4.267
 6423SOL    HW220169   2.415   4.338   4.141
 6424SOL     OW20170   6.501   4.940   4.718
 6424SOL    HW120171   6.583   4.892   4.687
 6424SOL    HW220172   6.428   4.929   4.651
 6425SOL     OW20173   0.044   5.978   3.788
 6425SOL    HW120174   0.133   5.942   3.759
 6425SOL    HW220175   7.005   5.904   3.824
 6426SOL     OW20176   4.454   4.593   4.721
 6426SOL    HW120177   4.419   4.587   4.627
 6426SOL    HW220178   4.378   4.586   4.785
 6427SOL     OW20179   3.710   2.943   3.624
 6427SOL    HW120180   3.751   2.885   3.695
 6427SOL    HW220181   3.761   2.932   3.539
 6428SOL     OW20182   4.815   2.862   0.434
 6428SOL    HW120183   4.731   2.824   0.395
 6428SOL    HW220184   4.823   2.959   0.410
 6429SOL     OW20185   2.391   0.843   5.209
 6429SOL    HW120186   2.476   0.873   5.253
 6429SOL    HW220187   2.413   0.801   5.121
 6430SOL     OW20188   6.872   0.042   5.129
 6430SOL    HW120189   6.900   0.050   5.224
 6430SOL    HW220190   6.842   0.131   5.095
 6431SOL     OW20191   3.950   5.015   1.698
 6431SOL    HW120192   3.899   5.012   1.613
 6431SOL    HW220193   3.916   4.945   1.760
 6432SOL     OW20194   4.654   4.153   5.675
 6432SOL    HW120195   4.675   4.238   5.723
 6432SOL    HW220196   4.642   4.171   5.577
 6433SOL     OW20197   2.347   5.859   6.846
 6433SOL    HW120198   2.349   5.949   6.802
 6433SOL    HW220199   2.338   5.788   6.776
 6434SOL     OW20200   3.560   5.300   5.826
 6434SOL    HW120201   3.637   5.246   5.791
 6434SOL    HW220202   3.491   5.309   5.755
 6435SOL     OW20203   4.737   1.006   0.716
 6435SOL    HW120204   4.781   0.916   0.720
 6435SOL    HW220205   4.749   1.046   0.625
 6436SOL     OW20206   0.123   4.165   4.367
 6436SOL    HW120207   0.159   4.073   4.350
 6436SOL    HW220208   0.106   4.211   4.280
 6437SOL     OW20209   0.901   2.070   5.194
 6437SOL    HW120210   0.871   2.134   5.123
 6437SOL    HW220211   0.979   2.109   5.243
 6438SOL     OW20212   0.403   5.803   0.227
 6438SOL    HW120213   0.484   5.780   0.280
 6438SOL    HW220214   0.431   5.840   0.138
 6439SOL     OW20215   5.795   0.243   2.691
 6439SOL    HW120216   5.783   0.148   2.719
 6439SOL    HW220217   5.734   0.302   2.744
 6440SOL     OW20218   2.537   1.423   6.802
 6440SOL    HW120219   2.558   1.478   6.883
 6440SOL    HW220220   2.617   1.422   6.741
 6441SOL     OW20221   0.802   1.238   2.679
 6441SOL    HW120222   0.721   1.235   2.737
 6441SOL    HW220223   0.786   1.186   2.595
 6442SOL     OW20224   3.102   2.761   5.285
 6442SOL    HW120225   3.105   2.679   5.341
 6442SOL    HW220226   3.010   2.774   5.248
 6443SOL     OW20227   4.814   2.388   0.623
 6443SOL    HW120228   4.904   2.365   0.587
 6443SOL    HW220229   4.753   2.412   0.547
 6444SOL     OW20230   6.891   3.261   5.041
 6444SOL    HW120231   6.894   3.272   4.941
 6444SOL    HW220232   6.796   3.255   5.071
 6445SOL     OW20233   2.863   3.519   3.274
 6445SOL    HW120234   2.861   3.584   3.198
 6445SOL    HW220235   2.874   3.426   3.238
 6446SOL     OW20236   2.456   0.830   6.558
 6446SOL    HW120237   2.510   0.821   6.642
 6446SOL    HW220238   2.388   0.902   6.570
 6447SOL     OW20239   6.355   3.490   1.654
 6447SOL    HW120240   6.358   3.570   1.595
 6447SOL    HW220241   6.327   3.410   1.601
 6448SOL     OW20242   3.839   5.592   1.283
 6448SOL    HW120243   3.834   5.498   1.249
 6448SOL    HW220244   3.758   5.643   1.251
 6449SOL     OW20245   2.526   5.226   0.867
 6449SOL    HW120246   2.621   5.241   0.842
 6449SOL    HW220247   2.512   5.129   0.888
 6450SOL     OW20248   0.106   4.287   1.032
 6450SOL    HW120249   0.200   4.318   1.050
 6450SOL    HW220250   0.059   4.355   0.977
 6451SOL     OW20251   3.419   2.313   1.471
 6451SOL    HW120252   3.366   2.270   1.398
 6451SOL    HW220253   3.478   2.244   1.513
 6452SOL     OW20254   4.789   2.373   3.489
 6452SOL    HW120255   4.741   2.460   3.497
 6452SOL    HW220256   4.770   2.317   3.570
 6453SOL     OW20257   3.407   0.512   1.138
 6453SOL    HW120258   3.421   0.414   1.156
 6453SOL    HW220259   3.495   0.559   1.142
 6454SOL     OW20260   5.491   2.552   3.451
 6454SOL    HW120261   5.446   2.504   3.376
 6454SOL    HW220262   5.425   2.610   3.498
 6455SOL     OW20263   6.382   3.704   3.262
 6455SOL    HW120264   6.379   3.804   3.267
 6455SOL    HW220265   6.425   3.668   3.345
 6456SOL     OW20266   6.138   1.325   3.160
 6456SOL    HW120267   6.046   1.313   3.199
 6456SOL    HW220268   6.130   1.364   3.068
 6457SOL     OW20269   4.098   0.688   1.978
 6457SOL    HW120270   4.084   0.609   2.038
 6457SOL    HW220271   4.095   0.658   1.883
 6458SOL     OW20272   0.454   4.905   3.620
 6458SOL    HW120273   0.484   4.820   3.578
 6458SOL    HW220274   0.399   4.957   3.555
 6459SOL     OW20275   6.358   3.009   2.344
 6459SOL    HW120276   6.334   3.093   2.392
 6459SOL    HW220277   6.412   3.032   2.263
 6460SOL     OW20278   0.856   5.808   6.285
 6460SOL    HW120279   0.859   5.785   6.188
 6460SOL    HW220280   0.904   5.738   6.338
 6461SOL     OW20281   3.075   5.266   0.837
 6461SOL    HW120282   2.978   5.287   0.848
 6461SOL    HW220283   3.121   5.344   0.793
 6462SOL     OW20284   1.753   3.548   5.206
 6462SOL    HW120285   1.666   3.500   5.193
 6462SOL    HW220286   1.786   3.583   5.118
 6463SOL     OW20287   4.868   1.961   1.552
 6463SOL    HW120288   4.807   1.883   1.539
 6463SOL    HW220289   4.836   2.015   1.629
 6464SOL     OW20290   0.822   5.623   4.719
 6464SOL    HW120291   0.762   5.575   4.783
 6464SOL    HW220292   0.904   5.569   4.702
 6465SOL     OW20293   3.916   0.947   2.921
 6465SOL    HW120294   3.932   0.975   2.826
 6465SOL    HW220295   3.909   0.848   2.925
 6466SOL     OW20296   0.660   2.908   0.183
 6466SOL    HW120297   0.741   2.921   0.240
 6466SOL    HW220298   0.597   2.984   0.196
 6467SOL     OW20299   3.213   1.587   0.985
 6467SOL    HW120300   3.219   1.686   0.999
 6467SOL    HW220301   3.117   1.561   0.974
 6468SOL     OW20302   2.458   0.823   1.166
 6468SOL    HW120303   2.389   0.775   1.111
 6468SOL    HW220304   2.515   0.756   1.214
 6469SOL     OW20305   3.333   2.046   3.324
 6469SOL    HW120306   3.284   1.976   3.273
 6469SOL    HW220307   3.390   2.003   3.394
 6470SOL     OW20308   6.567   1.993   0.029
 6470SOL    HW120309   6.612   2.017   6.959
 6470SOL    HW220310   6.611   1.911   0.067
 6471SOL     OW20311   6.950   6.085   5.550
 6471SOL    HW120312   6.949   5.988   5.528
 6471SOL    HW220313   6.920   6.137   5.470
 6472SOL     OW20314   6.975   6.222   2.652
 6472SOL    HW120315   6.880   6.229   2.622
 6472SOL    HW220316   6.982   6.156   2.726
 6473SOL     OW20317   2.293   1.475   3.932
 6473SOL    HW120318   2.209   1.523   3.956
 6473SOL    HW220319   2.313   1.406   4.000
 6474SOL     OW20320   3.727   5.557   5.355
 6474SOL    HW120321   3.731   5.637   5.414
 6474SOL    HW220322   3.792   5.567   5.280
 6475SOL     OW20323   5.633   4.620   2.407
 6475SOL    HW120324   5.636   4.702   2.465
 6475SOL    HW220325   5.723   4.579   2.403
 6476SOL     OW20326   3.412   1.416   6.429
 6476SOL    HW120327   3.317   1.408   6.461
 6476SOL    HW220328   3.449   1.504   6.458
 6477SOL     OW20329   6.225   6.472   1.439
 6477SOL    HW120330   6.228   6.515   1.530
 6477SOL    HW220331   6.275   6.386   1.442
 6478SOL     OW20332   3.617   5.761   1.243
 6478SOL    HW120333   3.661   5.829   1.300
 6478SOL    HW220334   3.569   5.695   1.300
 6479SOL     OW20335   3.427   5.961   3.993
 6479SOL    HW120336   3.499   5.899   4.024
 6479SOL    HW220337   3.348   5.954   4.054
 6480SOL     OW20338   3.076   1.483   0.006
 6480SOL    HW120339   2.994   1.535   0.028
 6480SOL    HW220340   3.145   1.497   0.077
 6481SOL     OW20341   3.412   2.701   1.880
 6481SOL    HW120342   3.339   2.743   1.933
 6481SOL    HW220343   3.372   2.645   1.808
 6482SOL     OW20344   6.050   4.102   5.291
 6482SOL    HW120345   5.986   4.132   5.220
 6482SOL    HW220346   6.049   4.002   5.296
 6483SOL     OW20347   1.215   5.791   5.081
 6483SOL    HW120348   1.158   5.742   5.015
 6483SOL    HW220349   1.221   5.738   5.166
 6484SOL     OW20350   2.767   0.993   4.224
 6484SOL    HW120351   2.736   1.026   4.135
 6484SOL    HW220352   2.688   0.986   4.286
 6485SOL     OW20353   2.291   6.984   4.177
 6485SOL    HW120354   2.380   6.946   4.150
 6485SOL    HW220355   2.285   0.063   4.149
 6486SOL     OW20356   1.440   4.809   3.523
 6486SOL    HW120357   1.448   4.876   3.449
 6486SOL    HW220358   1.502   4.733   3.506
 6487SOL     OW20359   5.800   4.609   3.976
 6487SOL    HW120360   5.889   4.609   4.021
 6487SOL    HW220361   5.789   4.525   3.922
 6488SOL     OW20362   4.441   5.158   4.528
 6488SOL    HW120363   4.438   5.072   4.580
 6488SOL    HW220364   4.415   5.234   4.588
 6489SOL     OW20365   4.348   3.332   5.754
 6489SOL    HW120366   4.347   3.331   5.854
 6489SOL    HW220367   4.442   3.346   5.722
 6490SOL     OW20368   2.048   1.912   0.219
 6490SOL    HW120369   2.135   1.960   0.216
 6490SOL    HW220370   2.021   1.895   0.314
 6491SOL     OW20371   2.601   0.234   1.158
 6491SOL    HW120372   2.699   0.254   1.154
 6491SOL    HW220373   2.552   0.291   1.092
 6492SOL     OW20374   3.431   3.864   4.558
 6492SOL    HW120375   3.381   3.826   4.481
 6492SOL    HW220376   3.375   3.856   4.641
 6493SOL     OW20377   1.172   3.880   5.376
 6493SOL    HW120378   1.259   3.929   5.376
 6493SOL    HW220379   1.182   3.796   5.323
 6494SOL     OW20380   5.579   0.141   1.801
 6494SOL    HW120381   5.648   0.204   1.764
 6494SOL    HW220382   5.488   0.178   1.783
 6495SOL     OW20383   6.396   0.049   3.986
 6495SOL    HW120384   6.374   0.061   4.083
 6495SOL    HW220385   6.460   0.120   3.957
 6496SOL     OW20386   4.344   0.867   1.460
 6496SOL    HW120387   4.277   0.900   1.527
 6496SOL    HW220388   4.306   0.789   1.411
 6497SOL     OW20389   0.229   1.366   1.173
 6497SOL    HW120390   0.257   1.351   1.078
 6497SOL    HW220391   0.253   1.287   1.229
 6498SOL     OW20392   1.337   4.232   4.549
 6498SOL    HW120393   1.238   4.241   4.540
 6498SOL    HW220394   1.382   4.298   4.489
 6499SOL     OW20395   5.207   3.180   3.813
 6499SOL    HW120396   5.186   3.184   3.716
 6499SOL    HW220397   5.170   3.261   3.859
 6500SOL     OW20398   1.754   4.030   3.149
 6500SOL    HW120399   1.675   4.054   3.092
 6500SOL    HW220400   1.774   4.105   3.212
 6501SOL     OW20401   6.076   2.071   1.047
 6501SOL    HW120402   6.153   2.045   0.988
 6501SOL    HW220403   6.075   2.170   1.059
 6502SOL     OW20404   6.506   3.904   1.949
 6502SOL    HW120405   6.495   3.865   2.040
 6502SOL    HW220406   6.424   3.886   1.895
 6503SOL     OW20407   6.520   3.190   5.619
 6503SOL    HW120408   6.494   3.142   5.536
 6503SOL    HW220409   6.606   3.154   5.653
 6504SOL     OW20410   4.732   6.102   6.745
 6504SOL    HW120411   4.697   6.009   6.739
 6504SOL    HW220412   4.719   6.137   6.838
 6505SOL     OW20413   6.578   5.806   0.787
 6505SOL    HW120414   6.617   5.894   0.758
 6505SOL    HW220415   6.581   5.742   0.711
 6506SOL     OW20416   0.218   3.735   2.230
 6506SOL    HW120417   0.228   3.694   2.320
 6506SOL    HW220418   0.273   3.819   2.224
 6507SOL     OW20419   4.184   4.438   6.850
 6507SOL    HW120420   4.233   4.506   6.796
 6507SOL    HW220421   4.203   4.346   6.815
 6508SOL     OW20422   0.720   6.512   2.041
 6508SOL    HW120423   0.755   6.481   1.953
 6508SOL    HW220424   0.794   6.552   2.095
 6509SOL     OW20425   2.954   1.309   6.203
 6509SOL    HW120426   2.858   1.334   6.214
 6509SOL    HW220427   2.973   1.291   6.107
 6510SOL     OW20428   4.288   5.707   5.675
 6510SOL    HW120429   4.377   5.670   5.649
 6510SOL    HW220430   4.299   5.774   5.748
 6511SOL     OW20431   3.038   0.814   0.173
 6511SOL    HW120432   2.943   0.845   0.179
 6511SOL    HW220433   3.055   0.745   0.244
 6512SOL     OW20434   3.903   1.199   0.771
 6512SOL    HW120435   3.952   1.167   0.852
 6512SOL    HW220436   3.820   1.144   0.758
 6513SOL     OW20437   2.278   5.390   3.544
 6513SOL    HW120438   2.216   5.317   3.575
 6513SOL    HW220439   2.340   5.414   3.619
 6514SOL     OW20440   6.049   6.801   5.899
 6514SOL    HW120441   6.131   6.851   5.926
 6514SOL    HW220442   5.989   6.790   5.978
 6515SOL     OW20443   2.005   5.016   2.356
 6515SOL    HW120444   1.997   5.082   2.281
 6515SOL    HW220445   2.074   4.947   2.332
 6516SOL     OW20446   6.810   3.630   1.532
 6516SOL    HW120447   6.833   3.602   1.439
 6516SOL    HW220448   6.770   3.553   1.582
 6517SOL     OW20449   7.001   2.960   0.369
 6517SOL    HW120450   6.939   2.883   0.355
 6517SOL    HW220451   6.959   3.026   0.430
 6518SOL     OW20452   0.913   1.685   3.253
 6518SOL    HW120453   0.834   1.741   3.279
 6518SOL    HW220454   0.939   1.707   3.159
 6519SOL     OW20455   0.722   1.504   2.617
 6519SOL    HW120456   0.800   1.558   2.650
 6519SOL    HW220457   0.724   1.413   2.659
 6520SOL     OW20458   0.616   5.653   6.886
 6520SOL    HW120459   0.584   5.558   6.887
 6520SOL    HW220460   0.542   5.714   6.914
 6521SOL     OW20461   1.179   3.643   4.374
 6521SOL    HW120462   1.260   3.615   4.323
 6521SOL    HW220463   1.202   3.656   4.470
 6522SOL     OW20464   2.673   3.410   5.306
 6522SOL    HW120465   2.590   3.465   5.293
 6522SOL    HW220466   2.649   3.322   5.345
 6523SOL     OW20467   5.871   7.014   6.813
 6523SOL    HW120468   5.863   6.915   6.825
 6523SOL    HW220469   5.949   0.018   6.754
 6524SOL     OW20470   2.250   2.502   2.051
 6524SOL    HW120471   2.278   2.497   2.147
 6524SOL    HW220472   2.313   2.447   1.996
 6525SOL     OW20473   0.642   4.951   3.170
 6525SOL    HW120474   0.620   4.856   3.146
 6525SOL    HW220475   0.740   4.966   3.160
 6526SOL     OW20476   6.992   6.810   0.632
 6526SOL    HW120477   6.929   6.887   0.621
 6526SOL    HW220478   0.070   6.844   0.633
 6527SOL     OW20479   0.518   2.435   0.618
 6527SOL    HW120480   0.508   2.441   0.717
 6527SOL    HW220481   0.429   2.414   0.577
 6528SOL     OW20482   5.221   0.439   6.283
 6528SOL    HW120483   5.226   0.503   6.207
 6528SOL    HW220484   5.236   0.346   6.250
 6529SOL     OW20485   6.876   1.151   2.149
 6529SOL    HW120486   6.882   1.067   2.096
 6529SOL    HW220487   6.958   1.163   2.203
 6530SOL     OW20488   1.165   2.930   2.352
 6530SOL    HW120489   1.168   2.870   2.432
 6530SOL    HW220490   1.097   3.002   2.367
 6531SOL     OW20491   4.250   3.858   5.238
 6531SOL    HW120492   4.342   3.883   5.268
 6531SOL    HW220493   4.256   3.780   5.176
 6532SOL     OW20494   1.246   0.799   0.891
 6532SOL    HW120495   1.270   0.715   0.843
 6532SOL    HW220496   1.252   0.876   0.827
 6533SOL     OW20497   4.895   3.798   0.584
 6533SOL    HW120498   4.973   3.820   0.643
 6533SOL    HW220499   4.912   3.833   0.492
 6534SOL     OW20500   6.881   4.308   3.061
 6534SOL    HW120501   6.884   4.316   3.161
 6534SOL    HW220502   6.954   4.248   3.031
 6535SOL     OW20503   6.224   3.211   5.361
 6535SOL    HW120504   6.215   3.292   5.420
 6535SOL    HW220505   6.278   3.142   5.408
 6536SOL     OW20506   1.227   3.787   4.848
 6536SOL    HW120507   1.240   3.877   4.806
 6536SOL    HW220508   1.315   3.753   4.881
 6537SOL     OW20509   5.758   5.316   3.830
 6537SOL    HW120510   5.705   5.342   3.911
 6537SOL    HW220511   5.806   5.396   3.794
 6538SOL     OW20512   2.516   3.571   5.634
 6538SOL    HW120513   2.498   3.473   5.639
 6538SOL    HW220514   2.533   3.606   5.726
 6539SOL     OW20515   6.029   1.118   5.170
 6539SOL    HW120516   6.013   1.021   5.190
 6539SOL    HW220517   6.091   1.126   5.092
 6540SOL     OW20518   5.469   2.695   5.901
 6540SOL    HW120519   5.371   2.678   5.891
 6540SOL    HW220520   5.485   2.744   5.987
 6541SOL     OW20521   5.722   0.731   4.725
 6541SOL    HW120522   5.650   0.728   4.656
 6541SOL    HW220523   5.811   0.728   4.679
 6542SOL     OW20524   1.685   4.181   3.934
 6542SOL    HW120525   1.754   4.110   3.952
 6542SOL    HW220526   1.729   4.271   3.935
 6543SOL     OW20527   4.031   2.189   5.197
 6543SOL    HW120528   4.080   2.271   5.167
 6543SOL    HW220529   4.077   2.108   5.161
 6544SOL     OW20530   1.041   6.239   1.588
 6544SOL    HW120531   0.953   6.223   1.543
 6544SOL    HW220532   1.031   6.308   1.659
 6545SOL     OW20533   4.453   0.095   0.635
 6545SOL    HW120534   4.375   0.154   0.616
 6545SOL    HW220535   4.420   0.005   0.664
 6546SOL     OW20536   5.136   3.560   6.381
 6546SOL    HW120537   5.171   3.515   6.463
 6546SOL    HW220538   5.202   3.627   6.349
 6547SOL     OW20539   6.046   5.407   0.231
 6547SOL    HW120540   6.047   5.310   0.205
 6547SOL    HW220541   6.086   5.418   0.322
 6548SOL     OW20542   0.431   1.959   5.320
 6548SOL    HW120543   0.478   2.044   5.298
 6548SOL    HW220544   0.337   1.979   5.346
 6549SOL     OW20545   4.764   0.164   1.478
 6549SOL    HW120546   4.846   0.195   1.527
 6549SOL    HW220547   4.743   0.070   1.505
 6550SOL     OW20548   6.317   0.003   3.082
 6550SOL    HW120549   6.349   0.089   3.043
 6550SOL    HW220550   6.242   0.022   3.147
 6551SOL     OW20551   3.002   3.769   1.059
 6551SOL    HW120552   3.065   3.699   1.026
 6551SOL    HW220553   2.921   3.770   1.000
 6552SOL     OW20554   2.604   6.553   0.594
 6552SOL    HW120555   2.548   6.474   0.570
 6552SOL    HW220556   2.680   6.561   0.530
 6553SOL     OW20557   7.009   1.416   3.180
 6553SOL    HW120558   7.012   1.382   3.274
 6553SOL    HW220559   0.085   1.439   3.150
 6554SOL     OW20560   2.923   1.526   4.840
 6554SOL    HW120561   2.916   1.624   4.859
 6554SOL    HW220562   2.877   1.506   4.753
 6555SOL     OW20563   0.049   3.250   3.890
 6555SOL    HW120564   0.135   3.218   3.851
 6555SOL    HW220565   0.011   3.323   3.833
 6556SOL     OW20566   4.671   2.761   3.316
 6556SOL    HW120567   4.623   2.734   3.400
 6556SOL    HW220568   4.637   2.707   3.240
 6557SOL     OW20569   2.010   0.097   2.114
 6557SOL    HW120570   2.097   0.048   2.114
 6557SOL    HW220571   1.978   0.108   2.020
 6558SOL     OW20572   5.504   5.048   0.286
 6558SOL    HW120573   5.418   5.061   0.336
 6558SOL    HW220574   5.521   5.126   0.226
 6559SOL     OW20575   6.996   2.813   6.285
 6559SOL    HW120576   7.009   2.874   6.207
 6559SOL    HW220577   0.036   2.843   6.362
 6560SOL     OW20578   5.566   4.765   0.278
 6560SOL    HW120579   5.531   4.714   0.356
 6560SOL    HW220580   5.556   4.863   0.294
 6561SOL     OW20581   3.949   4.370   0.960
 6561SOL    HW120582   4.020   4.323   1.012
 6561SOL    HW220583   3.923   4.315   0.880
 6562SOL     OW20584   5.508   3.114   1.272
 6562SOL    HW120585   5.484   3.021   1.302
 6562SOL    HW220586   5.465   3.181   1.332
 6563SOL     OW20587   5.211   6.150   5.195
 6563SOL    HW120588   5.186   6.245   5.211
 6563SOL    HW220589   5.230   6.105   5.282
 6564SOL     OW20590   6.848   4.047   3.210
 6564SOL    HW120591   6.828   4.144   3.225
 6564SOL    HW220592   6.766   3.993   3.226
 6565SOL     OW20593   5.659   0.336   3.451
 6565SOL    HW120594   5.598   0.261   3.475
 6565SOL    HW220595   5.714   0.362   3.531
 6566SOL     OW20596   4.177   6.168   2.285
 6566SOL    HW120597   4.115   6.240   2.319
 6566SOL    HW220598   4.271   6.202   2.285
 6567SOL     OW20599   4.160   0.566   0.665
 6567SOL    HW120600   4.250   0.528   0.685
 6567SOL    HW220601   4.160   0.664   0.685
 6568SOL     OW20602   3.748   1.139   1.393
 6568SOL    HW120603   3.730   1.237   1.382
 6568SOL    HW220604   3.818   1.111   1.327
 6569SOL     OW20605   0.541   4.377   5.546
 6569SOL    HW120606   0.550   4.278   5.556
 6569SOL    HW220607   0.464   4.397   5.486
 6570SOL     OW20608   4.087   6.447   1.910
 6570SOL    HW120609   4.153   6.427   1.838
 6570SOL    HW220610   4.060   6.543   1.904
 6571SOL     OW20611   2.977   5.843   2.914
 6571SOL    HW120612   2.929   5.757   2.930
 6571SOL    HW220613   2.932   5.894   2.841
 6572SOL     OW20614   0.862   5.746   3.720
 6572SOL    HW120615   0.793   5.686   3.761
 6572SOL    HW220616   0.845   5.755   3.622
 6573SOL     OW20617   1.242   1.237   3.324
 6573SOL    HW120618   1.255   1.286   3.239
 6573SOL    HW220619   1.161   1.178   3.318
 6574SOL     OW20620   1.640   5.881   2.033
 6574SOL    HW120621   1.637   5.839   2.124
 6574SOL    HW220622   1.618   5.978   2.041
 6575SOL     OW20623   6.974   0.436   2.587
 6575SOL    HW120624   6.958   0.411   2.491
 6575SOL    HW220625   0.054   0.453   2.601
 6576SOL     OW20626   4.493   5.738   0.918
 6576SOL    HW120627   4.402   5.719   0.882
 6576SOL    HW220628   4.556   5.759   0.843
 6577SOL     OW20629   2.070   1.791   3.552
 6577SOL    HW120630   2.167   1.810   3.538
 6577SOL    HW220631   2.043   1.713   3.495
 6578SOL     OW20632   1.741   4.669   1.724
 6578SOL    HW120633   1.734   4.621   1.637
 6578SOL    HW220634   1.658   4.722   1.741
 6579SOL     OW20635   6.444   1.155   4.150
 6579SOL    HW120636   6.436   1.084   4.079
 6579SOL    HW220637   6.437   1.245   4.107
 6580SOL     OW20638   0.913   0.189   0.189
 6580SOL    HW120639   0.958   0.113   0.142
 6580SOL    HW220640   0.947   0.275   0.151
 6581SOL     OW20641   1.362   1.902   0.017
 6581SOL    HW120642   1.270   1.900   6.993
 6581SOL    HW220643   1.421   1.837   6.987
 6582SOL     OW20644   6.741   1.117   2.968
 6582SOL    HW120645   6.749   1.019   2.946
 6582SOL    HW220646   6.645   1.144   2.959
 6583SOL     OW20647   4.391   6.285   6.603
 6583SOL    HW120648   4.400   6.193   6.642
 6583SOL    HW220649   4.479   6.312   6.562
 6584SOL     OW20650   3.413   2.013   1.040
 6584SOL    HW120651   3.356   2.085   1.080
 6584SOL    HW220652   3.508   2.043   1.036
 6585SOL     OW20653   6.047   6.739   0.974
 6585SOL    HW120654   6.075   6.820   0.923
 6585SOL    HW220655   6.109   6.663   0.954
 6586SOL     OW20656   6.153   2.065   6.553
 6586SOL    HW120657   6.054   2.069   6.559
 6586SOL    HW220658   6.192   2.155   6.572
 6587SOL     OW20659   1.684   4.274   5.693
 6587SOL    HW120660   1.696   4.213   5.615
 6587SOL    HW220661   1.669   4.220   5.776
 6588SOL     OW20662   0.558   3.745   0.634
 6588SOL    HW120663   0.592   3.784   0.548
 6588SOL    HW220664   0.542   3.647   0.623
 6589SOL     OW20665   0.364   0.786   1.783
 6589SOL    HW120666   0.363   0.851   1.859
 6589SOL    HW220667   0.301   0.817   1.711
 6590SOL     OW20668   1.355   6.943   3.943
 6590SOL    HW120669   1.449   6.919   3.968
 6590SOL    HW220670   1.354   0.020   3.907
 6591SOL     OW20671   5.472   4.124   4.233
 6591SOL    HW120672   5.394   4.163   4.282
 6591SOL    HW220673   5.530   4.198   4.198
 6592SOL     OW20674   5.816   6.108   2.902
 6592SOL    HW120675   5.788   6.080   2.810
 6592SOL    HW220676   5.782   6.041   2.969
 6593SOL     OW20677   2.963   1.900   2.467
 6593SOL    HW120678   2.964   1.987   2.417
 6593SOL    HW220679   2.931   1.827   2.406
 6594SOL     OW20680   4.916   1.790   6.768
 6594SOL    HW120681   5.002   1.744   6.746
 6594SOL    HW220682   4.856   1.726   6.816
 6595SOL     OW20683   1.445   2.367   5.164
 6595SOL    HW120684   1.532   2.317   5.167
 6595SOL    HW220685   1.460   2.463   5.184
 6596SOL     OW20686   5.586   5.907   2.507
 6596SOL    HW120687   5.530   5.914   2.590
 6596SOL    HW220688   5.526   5.912   2.427
 6597SOL     OW20689   1.818   5.327   2.213
 6597SOL    HW120690   1.771   5.257   2.267
 6597SOL    HW220691   1.906   5.292   2.182
 6598SOL     OW20692   2.108   4.677   4.526
 6598SOL    HW120693   2.198   4.644   4.497
 6598SOL    HW220694   2.064   4.608   4.584
 6599SOL     OW20695   6.042   5.449   6.586
 6599SOL    HW120696   5.987   5.394   6.649
 6599SOL    HW220697   6.124   5.399   6.559
 6600SOL     OW20698   4.778   6.922   4.905
 6600SOL    HW120699   4.741   6.910   4.812
 6600SOL    HW220700   4.743   7.007   4.944
 6601SOL     OW20701   1.533   2.491   1.992
 6601SOL    HW120702   1.580   2.444   1.918
 6601SOL    HW220703   1.556   2.588   1.990
 6602SOL     OW20704   2.634   6.465   1.725
 6602SOL    HW120705   2.664   6.377   1.763
 6602SOL    HW220706   2.535   6.466   1.716
 6603SOL     OW20707   0.350   3.097   3.270
 6603SOL    HW120708   0.336   3.065   3.364
 6603SOL    HW220709   0.430   3.051   3.231
 6604SOL     OW20710   1.830   6.473   2.299
 6604SOL    HW120711   1.748   6.439   2.346
 6604SOL    HW220712   1.869   6.399   2.244
 6605SOL     OW20713   6.991   5.446   1.380
 6605SOL    HW120714   6.988   5.463   1.282
 6605SOL    HW220715   0.035   5.513   1.423
 6606SOL     OW20716   1.846   3.677   3.459
 6606SOL    HW120717   1.844   3.578   3.443
 6606SOL    HW220718   1.835   3.695   3.556
 6607SOL     OW20719   5.726   3.900   3.786
 6607SOL    HW120720   5.822   3.874   3.781
 6607SOL    HW220721   5.702   3.922   3.880
 6608SOL     OW20722   0.228   6.406   5.705
 6608SOL    HW120723   0.151   6.460   5.739
 6608SOL    HW220724   0.200   6.311   5.694
 6609SOL     OW20725   4.255   1.939   5.961
 6609SOL    HW120726   4.220   2.012   6.020
 6609SOL    HW220727   4.353   1.928   5.976
 6610SOL     OW20728   3.185   5.053   0.973
 6610SOL    HW120729   3.135   5.110   0.908
 6610SOL    HW220730   3.249   5.110   1.024
 6611SOL     OW20731   4.410   1.615   4.441
 6611SOL    HW120732   4.368   1.705   4.451
 6611SOL    HW220733   4.349   1.556   4.387
 6612SOL     OW20734   6.109   1.732   6.057
 6612SOL    HW120735   6.143   1.637   6.056
 6612SOL    HW220736   6.020   1.736   6.011
 6613SOL     OW20737   5.215   0.068   6.699
 6613SOL    HW120738   5.239   0.018   6.782
 6613SOL    HW220739   5.299   0.103   6.656
 6614SOL     OW20740   4.398   6.067   1.321
 6614SOL    HW120741   4.460   6.013   1.378
 6614SOL    HW220742   4.318   6.012   1.298
 6615SOL     OW20743   3.046   5.157   0.138
 6615SOL    HW120744   3.097   5.217   0.077
 6615SOL    HW220745   3.025   5.071   0.091
 6616SOL     OW20746   5.070   1.266   5.399
 6616SOL    HW120747   4.985   1.269   5.346
 6616SOL    HW220748   5.092   1.357   5.432
 6617SOL     OW20749   3.948   0.791   4.040
 6617SOL    HW120750   3.890   0.717   4.075
 6617SOL    HW220751   4.041   0.756   4.028
 6618SOL     OW20752   6.783   2.383   2.366
 6618SOL    HW120753   6.794   2.448   2.441
 6618SOL    HW220754   6.687   2.355   2.359
 6619SOL     OW20755   5.100   6.376   3.926
 6619SOL    HW120756   5.093   6.473   3.903
 6619SOL    HW220757   5.025   6.326   3.882
 6620SOL     OW20758   0.642   3.223   3.573
 6620SOL    HW120759   0.630   3.322   3.569
 6620SOL    HW220760   0.738   3.201   3.590
 6621SOL     OW20761   3.901   2.992   4.818
 6621SOL    HW120762   3.975   2.926   4.811
 6621SOL    HW220763   3.880   3.029   4.728
 6622SOL     OW20764   0.514   5.454   0.667
 6622SOL    HW120765   0.477   5.527   0.609
 6622SOL    HW220766   0.440   5.409   0.716
 6623SOL     OW20767   3.677   4.143   5.454
 6623SOL    HW120768   3.666   4.212   5.382
 6623SOL    HW220769   3.714   4.058   5.414
 6624SOL     OW20770   1.311   2.215   4.152
 6624SOL    HW120771   1.410   2.224   4.163
 6624SOL    HW220772   1.280   2.273   4.076
 6625SOL     OW20773   5.847   2.686   5.556
 6625SOL    HW120774   5.889   2.652   5.640
 6625SOL    HW220775   5.748   2.681   5.564
 6626SOL     OW20776   2.470   6.245   5.326
 6626SOL    HW120777   2.376   6.240   5.293
 6626SOL    HW220778   2.531   6.202   5.260
 6627SOL     OW20779   1.835   5.877   4.598
 6627SOL    HW120780   1.800   5.965   4.632
 6627SOL    HW220781   1.771   5.840   4.530
 6628SOL     OW20782   4.499   5.556   3.942
 6628SOL    HW120783   4.440   5.586   3.868
 6628SOL    HW220784   4.590   5.536   3.907
 6629SOL     OW20785   5.510   5.976   0.076
 6629SOL    HW120786   5.569   6.019   0.007
 6629SOL    HW220787   5.483   6.045   0.143
 6630SOL     OW20788   2.382   1.589   1.347
 6630SOL    HW120789   2.296   1.538   1.339
 6630SOL    HW220790   2.415   1.613   1.256
 6631SOL     OW20791   2.306   4.766   6.235
 6631SOL    HW120792   2.277   4.698   6.168
 6631SOL    HW220793   2.401   4.749   6.260
 6632SOL     OW20794   1.241   1.026   0.724
 6632SOL    HW120795   1.171   1.023   0.653
 6632SOL    HW220796   1.246   1.118   0.763
 6633SOL     OW20797   3.396   5.897   6.377
 6633SOL    HW120798   3.406   5.825   6.308
 6633SOL    HW220799   3.298   5.916   6.391
 6634SOL     OW20800   4.314   2.402   4.693
 6634SOL    HW120801   4.372   2.453   4.756
 6634SOL    HW220802   4.259   2.336   4.745
 6635SOL     OW20803   5.359   4.804   2.683
 6635SOL    HW120804   5.410   4.795   2.769
 6635SOL    HW220805   5.343   4.714   2.644
 6636SOL     OW20806   3.683   6.752   1.239
 6636SOL    HW120807   3.677   6.774   1.336
 6636SOL    HW220808   3.759   6.803   1.198
 6637SOL     OW20809   1.232   1.288   0.802
 6637SOL    HW120810   1.271   1.266   0.892
 6637SOL    HW220811   1.243   1.386   0.784
 6638SOL     OW20812   2.928   3.318   3.767
 6638SOL    HW120813   2.918   3.311   3.668
 6638SOL    HW220814   2.912   3.412   3.796
 6639SOL     OW20815   5.033   3.024   1.409
 6639SOL    HW120816   4.965   3.076   1.357
 6639SOL    HW220817   5.031   2.928   1.380
 6640SOL     OW20818   0.885   2.831   4.991
 6640SOL    HW120819   0.857   2.927   4.986
 6640SOL    HW220820   0.983   2.826   5.013
 6641SOL     OW20821   4.051   2.035   1.308
 6641SOL    HW120822   4.130   2.067   1.360
 6641SOL    HW220823   3.967   2.057   1.358
 6642SOL     OW20824   1.465   5.631   0.545
 6642SOL    HW120825   1.540   5.604   0.605
 6642SOL    HW220826   1.489   5.609   0.450
 6643SOL     OW20827   4.448   6.833   6.943
 6643SOL    HW120828   4.355   6.840   6.907
 6643SOL    HW220829   4.452   6.874   0.017
 6644SOL     OW20830   1.664   6.227   3.455
 6644SOL    HW120831   1.676   6.316   3.411
 6644SOL    HW220832   1.737   6.166   3.426
 6645SOL     OW20833   6.476   2.688   0.655
 6645SOL    HW120834   6.420   2.750   0.710
 6645SOL    HW220835   6.426   2.603   0.641
 6646SOL     OW20836   4.670   0.344   6.485
 6646SOL    HW120837   4.674   0.397   6.400
 6646SOL    HW220838   4.732   0.383   6.552
 6647SOL     OW20839   4.692   5.140   1.084
 6647SOL    HW120840   4.751   5.064   1.058
 6647SOL    HW220841   4.688   5.147   1.184
 6648SOL     OW20842   2.233   6.108   5.520
 6648SOL    HW120843   2.228   6.177   5.593
 6648SOL    HW220844   2.226   6.017   5.560
 6649SOL     OW20845   6.183   2.394   6.907
 6649SOL    HW120846   6.214   2.385   7.002
 6649SOL    HW220847   6.260   2.419   6.849
 6650SOL     OW20848   2.855   1.203   5.131
 6650SOL    HW120849   2.888   1.258   5.207
 6650SOL    HW220850   2.760   1.175   5.148
 6651SOL     OW20851   0.180   1.848   6.679
 6651SOL    HW120852   0.264   1.901   6.689
 6651SOL    HW220853   0.183   1.769   6.740
 6652SOL     OW20854   0.897   4.667   0.143
 6652SOL    HW120855   0.948   4.735   0.195
 6652SOL    HW220856   0.837   4.615   0.204
 6653SOL     OW20857   5.313   3.515   0.795
 6653SOL    HW120858   5.348   3.602   0.761
 6653SOL    HW220859   5.330   3.509   0.894
 6654SOL     OW20860   0.419   4.261   3.272
 6654SOL    HW120861   0.396   4.358   3.280
 6654SOL    HW220862   0.408   4.216   3.360
 6655SOL     OW20863   6.758   5.418   1.609
 6655SOL    HW120864   6.843   5.466   1.628
 6655SOL    HW220865   6.776   5.340   1.548
 6656SOL     OW20866   4.015   1.260   2.803
 6656SOL    HW120867   3.943   1.208   2.758
 6656SOL    HW220868   3.977   1.345   2.840
 6657SOL     OW20869   5.483   2.012   4.150
 6657SOL    HW120870   5.431   1.946   4.204
 6657SOL    HW220871   5.460   2.104   4.179
 6658SOL     OW20872   6.280   6.002   4.699
 6658SOL    HW120873   6.257   6.078   4.638
 6658SOL    HW220874   6.225   5.922   4.676
 6659SOL     OW20875   1.306   5.519   1.827
 6659SOL    HW120876   1.322   5.615   1.851
 6659SOL    HW220877   1.219   5.490   1.869
 6660SOL     OW20878   0.124   6.685   3.483
 6660SOL    HW120879   0.069   6.667   3.565
 6660SOL    HW220880   0.064   6.702   3.406
 6661SOL     OW20881   3.707   6.845   4.156
 6661SOL    HW120882   3.794   6.844   4.204
 6661SOL    HW220883   3.718   6.808   4.064
 6662SOL     OW20884   3.046   6.888   1.967
 6662SOL    HW120885   2.985   6.886   1.888
 6662SOL    HW220886   3.085   6.797   1.980
 6663SOL     OW20887   1.466   3.980   5.873
 6663SOL    HW120888   1.464   3.891   5.919
 6663SOL    HW220889   1.382   4.030   5.894
 6664SOL     OW20890   2.975   0.613   1.499
 6664SOL    HW120891   3.021   0.595   1.412
 6664SOL    HW220892   2.997   0.706   1.530
 6665SOL     OW20893   2.376   0.713   5.720
 6665SOL    HW120894   2.329   0.741   5.636
 6665SOL    HW220895   2.318   0.648   5.770
 6666SOL     OW20896   4.800   6.418   5.026
 6666SOL    HW120897   4.814   6.516   5.013
 6666SOL    HW220898   4.830   6.369   4.944
 6667SOL     OW20899   0.197   6.170   6.090
 6667SOL    HW120900   0.292   6.186   6.063
 6667SOL    HW220901   0.193   6.096   6.157
 6668SOL     OW20902   6.891   5.886   0.526
 6668SOL    HW120903   6.949   5.966   0.512
 6668SOL    HW220904   6.797   5.915   0.542
 6669SOL     OW20905   1.215   1.500   2.659
 6669SOL    HW120906   1.312   1.521   2.672
 6669SOL    HW220907   1.174   1.475   2.747
 6670SOL     OW20908   3.764   2.447   0.890
 6670SOL    HW120909   3.797   2.364   0.844
 6670SOL    HW220910   3.813   2.460   0.976
 6671SOL     OW20911   5.127   5.755   6.968
 6671SOL    HW120912   5.082   5.681   0.002
 6671SOL    HW220913   5.221   5.765   7.001
 6672SOL     OW20914   1.256   1.889   1.174
 6672SOL    HW120915   1.275   1.813   1.111
 6672SOL    HW220916   1.227   1.969   1.122
 6673SOL     OW20917   5.745   4.003   4.426
 6673SOL    HW120918   5.750   3.967   4.519
 6673SOL    HW220919   5.745   4.103   4.429
 6674SOL     OW20920   0.288   2.585   0.255
 6674SOL    HW120921   0.239   2.668   0.281
 6674SOL    HW220922   0.242   2.543   0.177
 6675SOL     OW20923   4.654   2.740   6.828
 6675SOL    HW120924   4.600   2.709   6.906
 6675SOL    HW220925   4.615   2.704   6.743
 6676SOL     OW20926   1.554   3.722   3.887
 6676SOL    HW120927   1.621   3.743   3.815
 6676SOL    HW220928   1.534   3.805   3.939
 6677SOL     OW20929   0.392   2.120   0.524
 6677SOL    HW120930   0.296   2.146   0.529
 6677SOL    HW220931   0.417   2.069   0.606
 6678SOL     OW20932   1.890   4.995   0.210
 6678SOL    HW120933   1.795   5.000   0.241
 6678SOL    HW220934   1.924   5.088   0.194
 6679SOL     OW20935   1.944   1.384   3.829
 6679SOL    HW120936   2.010   1.451   3.863
 6679SOL    HW220937   1.874   1.432   3.775
 6680SOL     OW20938   5.324   6.415   0.578
 6680SOL    HW120939   5.234   6.434   0.617
 6680SOL    HW220940   5.348   6.488   0.513
 6681SOL     OW20941   3.906   6.056   1.199
 6681SOL    HW120942   3.833   6.056   1.268
 6681SOL    HW220943   3.950   6.147   1.197
 6682SOL     OW20944   3.356   5.413   6.771
 6682SOL    HW120945   3.436   5.391   6.826
 6682SOL    HW220946   3.384   5.466   6.691
 6683SOL     OW20947   6.474   3.253   6.529
 6683SOL    HW120948   6.401   3.194   6.564
 6683SOL    HW220949   6.436   3.320   6.465
 6684SOL     OW20950   3.606   6.882   1.487
 6684SOL    HW120951   3.650   6.829   1.560
 6684SOL    HW220952   3.513   6.907   1.516
 6685SOL     OW20953   4.393   3.757   6.857
 6685SOL    HW120954   4.464   3.815   6.816
 6685SOL    HW220955   4.333   3.723   6.785
 6686SOL     OW20956   5.330   5.495   3.928
 6686SOL    HW120957   5.285   5.530   3.845
 6686SOL    HW220958   5.414   5.546   3.944
 6687SOL     OW20959   6.539   2.037   1.646
 6687SOL    HW120960   6.572   2.127   1.618
 6687SOL    HW220961   6.457   2.014   1.593
 6688SOL     OW20962   3.820   5.250   0.833
 6688SOL    HW120963   3.782   5.158   0.846
 6688SOL    HW220964   3.909   5.243   0.788
 6689SOL     OW20965   2.686   5.120   6.088
 6689SOL    HW120966   2.655   5.205   6.044
 6689SOL    HW220967   2.636   5.042   6.049
 6690SOL     OW20968   0.981   0.170   6.003
 6690SOL    HW120969   1.053   0.101   6.003
 6690SOL    HW220970   0.899   0.133   5.959
 6691SOL     OW20971   2.414   2.322   2.670
 6691SOL    HW120972   2.476   2.250   2.701
 6691SOL    HW220973   2.348   2.284   2.605
 6692SOL     OW20974   4.851   5.137   1.639
 6692SOL    HW120975   4.900   5.220   1.665
 6692SOL    HW220976   4.917   5.067   1.611
 6693SOL     OW20977   4.011   1.646   4.509
 6693SOL    HW120978   4.008   1.746   4.509
 6693SOL    HW220979   4.102   1.615   4.533
 6694SOL     OW20980   4.008   5.195   0.651
 6694SOL    HW120981   3.998   5.269   0.586
 6694SOL    HW220982   3.990   5.108   0.605
 6695SOL     OW20983   2.784   2.197   6.591
 6695SOL    HW120984   2.732   2.282   6.583
 6695SOL    HW220985   2.781   2.149   6.504
 6696SOL     OW20986   3.753   3.830   4.540
 6696SOL    HW120987   3.665   3.877   4.531
 6696SOL    HW220988   3.787   3.806   4.449
 6697SOL     OW20989   4.579   2.634   2.532
 6697SOL    HW120990   4.640   2.586   2.596
 6697SOL    HW220991   4.490   2.589   2.530
 6698SOL     OW20992   3.500   4.203   1.652
 6698SOL    HW120993   3.505   4.300   1.628
 6698SOL    HW220994   3.559   4.184   1.730
 6699SOL     OW20995   0.967   4.359   5.097
 6699SOL    HW120996   1.057   4.359   5.054
 6699SOL    HW220997   0.976   4.374   5.195
 6700SOL     OW20998   6.153   0.328   0.315
 6700SOL    HW120999   6.220   0.371   0.255
 6700SOL    HW221000   6.068   0.381   0.313
 6701SOL     OW21001   5.861   6.754   1.338
 6701SOL    HW121002   5.784   6.703   1.377
 6701SOL    HW221003   5.829   6.810   1.261
 6702SOL     OW21004   3.181   1.860   1.012
 6702SOL    HW121005   3.268   1.910   1.008
 6702SOL    HW221006   3.110   1.912   0.966
 6703SOL     OW21007   1.382   1.750   6.253
 6703SOL    HW121008   1.445   1.745   6.331
 6703SOL    HW221009   1.427   1.717   6.171
 6704SOL     OW21010   3.655   1.275   5.529
 6704SOL    HW121011   3.563   1.306   5.506
 6704SOL    HW221012   3.718   1.303   5.458
 6705SOL     OW21013   6.373   3.506   1.925
 6705SOL    HW121014   6.368   3.499   1.826
 6705SOL    HW221015   6.459   3.550   1.951
 6706SOL     OW21016   6.921   6.612   1.787
 6706SOL    HW121017   6.821   6.604   1.795
 6706SOL    HW221018   6.961   6.520   1.785
 6707SOL     OW21019   5.609   0.560   2.374
 6707SOL    HW121020   5.606   0.632   2.304
 6707SOL    HW221021   5.553   0.482   2.344
 6708SOL     OW21022   0.253   3.930   1.513
 6708SOL    HW121023   0.340   3.978   1.508
 6708SOL    HW221024   0.227   3.898   1.422
 6709SOL     OW21025   1.131   4.852   2.274
 6709SOL    HW121026   1.123   4.761   2.315
 6709SOL    HW221027   1.074   4.857   2.192
 6710SOL     OW21028   4.805   1.431   1.545
 6710SOL    HW121029   4.847   1.381   1.621
 6710SOL    HW221030   4.847   1.402   1.459
 6711SOL     OW21031   4.433   6.134   6.027
 6711SOL    HW121032   4.381   6.050   6.043
 6711SOL    HW221033   4.508   6.140   6.093
 6712SOL     OW21034   6.152   3.547   0.863
 6712SOL    HW121035   6.116   3.467   0.910
 6712SOL    HW221036   6.128   3.629   0.915
 6713SOL     OW21037   1.617   0.155   4.323
 6713SOL    HW121038   1.551   0.226   4.346
 6713SOL    HW221039   1.608   0.079   4.387
 6714SOL     OW21040   5.972   1.170   0.370
 6714SOL    HW121041   5.884   1.212   0.391
 6714SOL    HW221042   5.984   1.165   0.271
 6715SOL     OW21043   1.415   0.043   0.162
 6715SOL    HW121044   1.353   6.983   0.144
 6715SOL    HW221045   1.474   0.019   0.240
 6716SOL     OW21046   6.849   5.167   2.189
 6716SOL    HW121047   6.793   5.085   2.177
 6716SOL    HW221048   6.832   5.206   2.280
 6717SOL     OW21049   4.116   2.757   6.342
 6717SOL    HW121050   4.123   2.854   6.316
 6717SOL    HW221051   4.186   2.705   6.295
 6718SOL     OW21052   3.268   0.058   2.322
 6718SOL    HW121053   3.251   0.151   2.289
 6718SOL    HW221054   3.278   0.059   2.421
 6719SOL     OW21055   1.918   0.694   6.926
 6719SOL    HW121056   1.900   0.732   0.001
 6719SOL    HW221057   1.855   0.619   6.909
 6720SOL     OW21058   2.159   0.598   5.877
 6720SOL    HW121059   2.131   0.504   5.893
 6720SOL    HW221060   2.135   0.654   5.956
 6721SOL     OW21061   0.461   1.218   0.792
 6721SOL    HW121062   0.534   1.276   0.755
 6721SOL    HW221063   0.377   1.233   0.740
 6722SOL     OW21064   6.277   3.271   0.115
 6722SOL    HW121065   6.262   3.187   0.167
 6722SOL    HW221066   6.191   3.299   0.072
 6723SOL     OW21067   1.533   1.784   6.536
 6723SOL    HW121068   1.623   1.818   6.563
 6723SOL    HW221069   1.471   1.785   6.615
 6724SOL     OW21070   2.033   3.526   5.878
 6724SOL    HW121071   1.967   3.562   5.813
 6724SOL    HW221072   2.090   3.456   5.834
 6725SOL     OW21073   5.956   2.952   3.419
 6725SOL    HW121074   5.934   2.861   3.452
 6725SOL    HW221075   6.054   2.968   3.428
 6726SOL     OW21076   0.091   1.046   5.615
 6726SOL    HW121077   7.008   1.052   5.605
 6726SOL    HW221078   0.135   1.066   5.527
 6727SOL     OW21079   1.133   4.642   5.645
 6727SOL    HW121080   1.172   4.721   5.691
 6727SOL    HW221081   1.206   4.579   5.619
 6728SOL     OW21082   3.754   1.938   3.679
 6728SOL    HW121083   3.714   1.853   3.645
 6728SOL    HW221084   3.734   1.948   3.776
 6729SOL     OW21085   5.206   1.656   0.740
 6729SOL    HW121086   5.174   1.723   0.807
 6729SOL    HW221087   5.133   1.638   0.674
 6730SOL     OW21088   1.055   0.831   1.385
 6730SOL    HW121089   1.061   0.740   1.344
 6730SOL    HW221090   1.030   0.898   1.316
 6731SOL     OW21091   3.264   6.562   0.513
 6731SOL    HW121092   3.209   6.480   0.528
 6731SOL    HW221093   3.281   6.607   0.600
 6732SOL     OW21094   5.795   5.441   4.102
 6732SOL    HW121095   5.702   5.406   4.102
 6732SOL    HW221096   5.810   5.498   4.022
 6733SOL     OW21097   3.540   5.285   6.386
 6733SOL    HW121098   3.468   5.326   6.329
 6733SOL    HW221099   3.599   5.356   6.423
 6734SOL     OW21100   5.489   1.353   4.954
 6734SOL    HW121101   5.506   1.326   5.048
 6734SOL    HW221102   5.449   1.275   4.904
 6735SOL     OW21103   6.131   3.335   3.380
 6735SOL    HW121104   6.141   3.420   3.328
 6735SOL    HW221105   6.036   3.325   3.409
 6736SOL     OW21106   3.284   3.765   1.094
 6736SOL    HW121107   3.268   3.818   1.177
 6736SOL    HW221108   3.264   3.669   1.112
 6737SOL     OW21109   1.422   3.054   1.368
 6737SOL    HW121110   1.325   3.049   1.389
 6737SOL    HW221111   1.444   3.145   1.331
 6738SOL     OW21112   1.952   5.690   3.112
 6738SOL    HW121113   2.049   5.693   3.085
 6738SOL    HW221114   1.904   5.766   3.068
 6739SOL     OW21115   6.880   6.992   4.143
 6739SOL    HW121116   6.838   6.969   4.056
 6739SOL    HW221117   6.822   0.042   4.191
 6740SOL     OW21118   6.410   6.699   4.380
 6740SOL    HW121119   6.458   6.760   4.318
 6740SOL    HW221120   6.311   6.713   4.371
 6741SOL     OW21121   4.700   1.835   5.670
 6741SOL    HW121122   4.642   1.805   5.745
 6741SOL    HW221123   4.658   1.914   5.625
 6742SOL     OW21124   5.585   4.740   3.342
 6742SOL    HW121125   5.532   4.692   3.412
 6742SOL    HW221126   5.617   4.675   3.274
 6743SOL     OW21127   3.979   4.322   0.479
 6743SOL    HW121128   3.959   4.408   0.526
 6743SOL    HW221129   4.042   4.267   0.535
 6744SOL     OW21130   6.412   5.268   6.015
 6744SOL    HW121131   6.488   5.291   6.075
 6744SOL    HW221132   6.325   5.284   6.062
 6745SOL     OW21133   0.084   6.623   4.323
 6745SOL    HW121134   0.052   6.571   4.402
 6745SOL    HW221135   0.101   6.718   4.351
 6746SOL     OW21136   1.611   1.193   2.769
 6746SOL    HW121137   1.692   1.142   2.739
 6746SOL    HW221138   1.628   1.291   2.759
 6747SOL     OW21139   1.100   6.965   6.774
 6747SOL    HW121140   1.155   0.021   6.815
 6747SOL    HW221141   1.110   6.967   6.675
 6748SOL     OW21142   2.186   1.823   4.089
 6748SOL    HW121143   2.230   1.860   4.171
 6748SOL    HW221144   2.178   1.895   4.020
 6749SOL     OW21145   3.215   4.258   0.756
 6749SOL    HW121146   3.228   4.295   0.663
 6749SOL    HW221147   3.123   4.279   0.787
 6750SOL     OW21148   3.132   1.901   4.616
 6750SOL    HW121149   3.153   1.824   4.555
 6750SOL    HW221150   3.213   1.922   4.672
 6751SOL     OW21151   4.354   0.000   3.490
 6751SOL    HW121152   4.278   6.956   3.513
 6751SOL    HW221153   4.430   7.000   3.552
 6752SOL     OW21154   1.695   6.131   3.047
 6752SOL    HW121155   1.686   6.139   2.948
 6752SOL    HW221156   1.641   6.203   3.092
 6753SOL     OW21157   3.709   2.637   5.293
 6753SOL    HW121158   3.716   2.681   5.203
 6753SOL    HW221159   3.618   2.599   5.305
 6754SOL     OW21160   5.908   1.284   1.288
 6754SOL    HW121161   5.823   1.323   1.322
 6754SOL    HW221162   5.977   1.285   1.361
 6755SOL     OW21163   2.887   4.973   0.437
 6755SOL    HW121164   2.889   4.880   0.472
 6755SOL    HW221165   2.980   5.000   0.409
 6756SOL     OW21166   2.293   2.451   5.567
 6756SOL    HW121167   2.286   2.414   5.474
 6756SOL    HW221168   2.279   2.377   5.633
 6757SOL     OW21169   3.757   0.907   0.428
 6757SOL    HW121170   3.756   0.854   0.343
 6757SOL    HW221171   3.728   1.001   0.408
 6758SOL     OW21172   5.479   2.878   1.369
 6758SOL    HW121173   5.551   2.855   1.434
 6758SOL    HW221174   5.419   2.799   1.355
 6759SOL     OW21175   0.088   3.554   3.252
 6759SOL    HW121176   0.174   3.526   3.295
 6759SOL    HW221177   0.086   3.522   3.158
 6760SOL     OW21178   5.062   3.061   3.084
 6760SOL    HW121179   5.060   2.998   3.006
 6760SOL    HW221180   5.125   3.136   3.064
 6761SOL     OW21181   4.837   2.115   4.668
 6761SOL    HW121182   4.922   2.064   4.676
 6761SOL    HW221183   4.761   2.059   4.699
 6762SOL     OW21184   6.575   5.624   3.536
 6762SOL    HW121185   6.604   5.624   3.632
 6762SOL    HW221186   6.571   5.530   3.502
 6763SOL     OW21187   4.343   5.282   4.939
 6763SOL    HW121188   4.382   5.354   4.882
 6763SOL    HW221189   4.413   5.248   5.002
 6764SOL     OW21190   1.363   5.789   1.898
 6764SOL    HW121191   1.447   5.739   1.875
 6764SOL    HW221192   1.350   5.789   1.997
 6765SOL     OW21193   6.147   4.830   3.221
 6765SOL    HW121194   6.191   4.743   3.243
 6765SOL    HW221195   6.198   4.905   3.263
 6766SOL     OW21196   4.947   6.145   0.644
 6766SOL    HW121197   4.889   6.225   0.629
 6766SOL    HW221198   5.014   6.164   0.716
 6767SOL     OW21199   2.521   0.820   0.514
 6767SOL    HW121200   2.558   0.892   0.573
 6767SOL    HW221201   2.469   0.862   0.439
 6768SOL     OW21202   2.093   0.932   0.268
 6768SOL    HW121203   2.010   0.887   0.233
 6768SOL    HW221204   2.116   1.010   0.210
 6769SOL     OW21205   3.509   2.497   0.758
 6769SOL    HW121206   3.496   2.443   0.675
 6769SOL    HW221207   3.595   2.470   0.803
 6770SOL     OW21208   6.781   0.867   1.817
 6770SOL    HW121209   6.750   0.812   1.739
 6770SOL    HW221210   6.797   0.961   1.787
 6771SOL     OW21211   4.320   2.163   2.757
 6771SOL    HW121212   4.234   2.198   2.795
 6771SOL    HW221213   4.386   2.238   2.751
 6772SOL     OW21214   3.116   1.324   2.410
 6772SOL    HW121215   3.080   1.402   2.360
 6772SOL    HW221216   3.090   1.330   2.507
 6773SOL     OW21217   6.705   4.023   1.783
 6773SOL    HW121218   6.645   3.971   1.844
 6773SOL    HW221219   6.773   3.961   1.743
 6774SOL     OW21220   0.497   2.840   6.537
 6774SOL    HW121221   0.428   2.769   6.549
 6774SOL    HW221222   0.486   2.883   6.448
 6775SOL     OW21223   2.914   3.529   0.687
 6775SOL    HW121224   2.997   3.556   0.736
 6775SOL    HW221225   2.838   3.588   0.714
 6776SOL     OW21226   4.715   4.759   0.364
 6776SOL    HW121227   4.649   4.796   0.428
 6776SOL    HW221228   4.667   4.723   0.284
 6777SOL     OW21229   3.997   4.794   6.242
 6777SOL    HW121230   4.009   4.747   6.154
 6777SOL    HW221231   4.080   4.784   6.297
 6778SOL     OW21232   0.689   4.193   2.445
 6778SOL    HW121233   0.597   4.218   2.474
 6778SOL    HW221234   0.719   4.112   2.496
 6779SOL     OW21235   6.763   4.727   0.132
 6779SOL    HW121236   6.790   4.802   0.071
 6779SOL    HW221237   6.680   4.684   0.098
 6780SOL     OW21238   1.039   2.476   2.630
 6780SOL    HW121239   1.089   2.548   2.582
 6780SOL    HW221240   0.960   2.448   2.575
 6781SOL     OW21241   5.425   6.549   5.540
 6781SOL    HW121242   5.461   6.642   5.539
 6781SOL    HW221243   5.452   6.501   5.457
 6782SOL     OW21244   0.483   0.961   2.466
 6782SOL    HW121245   0.413   1.029   2.483
 6782SOL    HW221246   0.555   0.967   2.536
 6783SOL     OW21247   0.011   6.507   5.789
 6783SOL    HW121248   6.988   6.563   5.716
 6783SOL    HW221249   0.049   6.566   5.860
 6784SOL     OW21250   3.683   4.111   7.006
 6784SOL    HW121251   3.740   4.142   6.930
 6784SOL    HW221252   3.613   4.179   0.009
 6785SOL     OW21253   5.882   4.954   1.906
 6785SOL    HW121254   5.829   4.953   1.821
 6785SOL    HW221255   5.821   4.974   1.983
 6786SOL     OW21256   1.293   2.213   6.727
 6786SOL    HW121257   1.309   2.310   6.748
 6786SOL    HW221258   1.379   2.163   6.735
 6787SOL     OW21259   1.942   4.107   1.128
 6787SOL    HW121260   1.856   4.098   1.177
 6787SOL    HW221261   1.962   4.204   1.114
 6788SOL     OW21262   2.674   3.870   1.588
 6788SOL    HW121263   2.756   3.843   1.638
 6788SOL    HW221264   2.631   3.789   1.547
 6789SOL     OW21265   7.009   6.784   2.380
 6789SOL    HW121266   6.964   6.716   2.437
 6789SOL    HW221267   0.000   6.750   2.286
 6790SOL     OW21268   2.040   3.811   0.328
 6790SOL    HW121269   1.989   3.825   0.413
 6790SOL    HW221270   2.068   3.899   0.291
 6791SOL     OW21271   4.081   2.443   0.904
 6791SOL    HW121272   4.037   2.492   0.979
 6791SOL    HW221273   4.170   2.484   0.885
 6792SOL     OW21274   6.328   5.764   6.212
 6792SOL    HW121275   6.242   5.752   6.164
 6792SOL    HW221276   6.317   5.737   6.308
 6793SOL     OW21277   0.911   2.193   0.637
 6793SOL    HW121278   0.988   2.131   0.651
 6793SOL    HW221279   0.847   2.183   0.713
 6794SOL     OW21280   5.202   0.810   4.399
 6794SOL    HW121281   5.281   0.749   4.408
 6794SOL    HW221282   5.142   0.799   4.478
 6795SOL     OW21283   2.843   5.628   0.630
 6795SOL    HW121284   2.757   5.676   0.618
 6795SOL    HW221285   2.917   5.681   0.589
 6796SOL     OW21286   5.966   1.130   2.449
 6796SOL    HW121287   5.898   1.097   2.383
 6796SOL    HW221288   5.938   1.105   2.541
 6797SOL     OW21289   5.135   3.719   2.088
 6797SOL    HW121290   5.105   3.623   2.084
 6797SOL    HW221291   5.121   3.754   2.181
 6798SOL     OW21292   5.515   5.133   2.708
 6798SOL    HW121293   5.459   5.161   2.629
 6798SOL    HW221294   5.522   5.209   2.772
 6799SOL     OW21295   5.361   5.765   0.455
 6799SOL    HW121296   5.442   5.775   0.513
 6799SOL    HW221297   5.281   5.749   0.512
 6800SOL     OW21298   2.065   4.508   0.374
 6800SOL    HW121299   2.040   4.448   0.298
 6800SOL    HW221300   2.132   4.462   0.432
 6801SOL     OW21301   1.420   1.309   2.313
 6801SOL    HW121302   1.463   1.232   2.358
 6801SOL    HW221303   1.325   1.318   2.344
 6802SOL     OW21304   2.608   5.748   0.899
 6802SOL    HW121305   2.556   5.799   0.968
 6802SOL    HW221306   2.639   5.661   0.938
 6803SOL     OW21307   4.754   2.541   6.311
 6803SOL    HW121308   4.840   2.507   6.350
 6803SOL    HW221309   4.691   2.465   6.297
 6804SOL     OW21310   2.036   6.155   3.113
 6804SOL    HW121311   2.122   6.120   3.077
 6804SOL    HW221312   2.003   6.229   3.054
 6805SOL     OW21313   5.581   6.489   4.588
 6805SOL    HW121314   5.504   6.463   4.529
 6805SOL    HW221315   5.583   6.589   4.598
 6806SOL     OW21316   4.833   1.318   4.338
 6806SOL    HW121317   4.932   1.332   4.334
 6806SOL    HW221318   4.814   1.231   4.383
 6807SOL     OW21319   2.425   3.144   0.102
 6807SOL    HW121320   2.388   3.057   0.136
 6807SOL    HW221321   2.447   3.203   0.180
 6808SOL     OW21322   0.527   3.194   5.301
 6808SOL    HW121323   0.575   3.194   5.389
 6808SOL    HW221324   0.484   3.105   5.287
 6809SOL     OW21325   1.787   4.320   6.889
 6809SOL    HW121326   1.695   4.304   6.924
 6809SOL    HW221327   1.807   4.418   6.890
 6810SOL     OW21328   1.414   0.566   1.984
 6810SOL    HW121329   1.427   0.590   2.080
 6810SOL    HW221330   1.393   0.648   1.931
 6811SOL     OW21331   5.923   3.943   0.437
 6811SOL    HW121332   5.990   3.935   0.512
 6811SOL    HW221333   5.956   4.009   0.370
 6812SOL     OW21334   4.099   3.501   3.304
 6812SOL    HW121335   4.124   3.488   3.208
 6812SOL    HW221336   4.100   3.412   3.351
 6813SOL     OW21337   5.028   1.797   1.365
 6813SOL    HW121338   4.972   1.722   1.331
 6813SOL    HW221339   4.970   1.866   1.408
 6814SOL     OW21340   3.224   2.673   1.191
 6814SOL    HW121341   3.180   2.633   1.111
 6814SOL    HW221342   3.312   2.713   1.166
 6815SOL     OW21343   3.165   6.785   1.267
 6815SOL    HW121344   3.155   6.688   1.247
 6815SOL    HW221345   3.239   6.823   1.211
 6816SOL     OW21346   6.259   5.045   6.905
 6816SOL    HW121347   6.237   5.130   6.952
 6816SOL    HW221348   6.174   4.998   6.879
 6817SOL     OW21349   6.452   1.770   5.316
 6817SOL    HW121350   6.451   1.787   5.218
 6817SOL    HW221351   6.465   1.856   5.365
 6818SOL     OW21352   3.258   6.245   1.905
 6818SOL    HW121353   3.240   6.208   1.814
 6818SOL    HW221354   3.307   6.331   1.898
 6819SOL     OW21355   2.927   1.064   3.680
 6819SOL    HW121356   2.888   1.122   3.608
 6819SOL    HW221357   2.987   1.120   3.738
 6820SOL     OW21358   0.756   4.655   3.731
 6820SOL    HW121359   0.777   4.567   3.773
 6820SOL    HW221360   0.791   4.656   3.637
 6821SOL     OW21361   2.453   2.076   5.356
 6821SOL    HW121362   2.550   2.057   5.374
 6821SOL    HW221363   2.437   2.073   5.257
 6822SOL     OW21364   5.642   1.415   6.002
 6822SOL    HW121365   5.723   1.358   5.991
 6822SOL    HW221366   5.660   1.507   5.966
 6823SOL     OW21367   3.601   3.652   4.068
 6823SOL    HW121368   3.518   3.608   4.033
 6823SOL    HW221369   3.653   3.691   3.992
 6824SOL     OW21370   7.016   3.338   6.547
 6824SOL    HW121371   0.075   3.309   6.606
 6824SOL    HW221372   0.014   3.432   6.518
 6825SOL     OW21373   5.137   0.242   2.326
 6825SOL    HW121374   5.047   0.276   2.354
 6825SOL    HW221375   5.165   0.168   2.388
 6826SOL     OW21376   2.069   3.430   2.771
 6826SOL    HW121377   2.065   3.530   2.775
 6826SOL    HW221378   2.083   3.401   2.677
 6827SOL     OW21379   4.822   5.645   0.071
 6827SOL    HW121380   4.838   5.556   0.115
 6827SOL    HW221381   4.725   5.656   0.052
 6828SOL     OW21382   1.420   2.180   1.857
 6828SOL    HW121383   1.431   2.278   1.842
 6828SOL    HW221384   1.341   2.146   1.807
 6829SOL     OW21385   5.376   6.403   3.492
 6829SOL    HW121386   5.389   6.310   3.526
 6829SOL    HW221387   5.354   6.400   3.394
 6830SOL     OW21388   5.356   1.482   2.917
 6830SOL    HW121389   5.412   1.408   2.880
 6830SOL    HW221390   5.401   1.570   2.900
 6831SOL     OW21391   0.553   0.569   6.353
 6831SOL    HW121392   0.578   0.499   6.286
 6831SOL    HW221393   0.455   0.590   6.345
 6832SOL     OW21394   2.735   4.408   1.610
 6832SOL    HW121395   2.789   4.397   1.693
 6832SOL    HW221396   2.669   4.333   1.603
 6833SOL     OW21397   3.976   5.227   6.829
 6833SOL    HW121398   3.907   5.155   6.836
 6833SOL    HW221399   4.035   5.209   6.750
 6834SOL     OW21400   4.458   6.755   1.577
 6834SOL    HW121401   4.408   6.753   1.663
 6834SOL    HW221402   4.394   6.772   1.502
 6835SOL     OW21403   3.919   0.210   4.899
 6835SOL    HW121404   3.901   0.117   4.867
 6835SOL    HW221405   3.846   0.271   4.869
 6836SOL     OW21406   3.127   6.326   0.566
 6836SOL    HW121407   3.043   6.280   0.596
 6836SOL    HW221408   3.202   6.260   0.562
 6837SOL     OW21409   1.804   3.226   1.889
 6837SOL    HW121410   1.810   3.127   1.875
 6837SOL    HW221411   1.775   3.271   1.805
 6838SOL     OW21412   2.052   1.108   0.547
 6838SOL    HW121413   2.096   1.185   0.501
 6838SOL    HW221414   2.043   1.032   0.484
 6839SOL     OW21415   4.792   1.181   0.908
 6839SOL    HW121416   4.876   1.162   0.959
 6839SOL    HW221417   4.792   1.129   0.823
 6840SOL     OW21418   2.418   1.632   5.849
 6840SOL    HW121419   2.370   1.656   5.933
 6840SOL    HW221420   2.382   1.685   5.773
 6841SOL     OW21421   6.500   3.487   6.020
 6841SOL    HW121422   6.436   3.413   6.038
 6841SOL    HW221423   6.451   3.574   6.011
 6842SOL     OW21424   2.016   4.991   1.660
 6842SOL    HW121425   2.041   5.047   1.739
 6842SOL    HW221426   2.056   4.900   1.671
 6843SOL     OW21427   5.397   6.868   6.474
 6843SOL    HW121428   5.458   6.816   6.414
 6843SOL    HW221429   5.307   6.875   6.432
 6844SOL     OW21430   5.499   1.073   3.697
 6844SOL    HW121431   5.544   1.143   3.641
 6844SOL    HW221432   5.567   1.027   3.754
 6845SOL     OW21433   4.951   2.596   3.153
 6845SOL    HW121434   4.956   2.625   3.248
 6845SOL    HW221435   4.921   2.673   3.096
 6846SOL     OW21436   2.937   4.037   0.106
 6846SOL    HW121437   2.970   3.943   0.108
 6846SOL    HW221438   2.853   4.042   0.051
 6847SOL     OW21439   6.321   4.296   4.610
 6847SOL    HW121440   6.376   4.372   4.644
 6847SOL    HW221441   6.357   4.210   4.646
 6848SOL     OW21442   5.319   3.728   4.274
 6848SOL    HW121443   5.410   3.767   4.287
 6848SOL    HW221444   5.328   3.634   4.240
 6849SOL     OW21445   3.757   4.105   5.697
 6849SOL    HW121446   3.794   4.012   5.705
 6849SOL    HW221447   3.709   4.113   5.609
 6850SOL     OW21448   4.201   2.300   3.429
 6850SOL    HW121449   4.283   2.246   3.410
 6850SOL    HW221450   4.181   2.297   3.526
 6851SOL     OW21451   2.258   2.880   2.719
 6851SOL    HW121452   2.216   2.955   2.668
 6851SOL    HW221453   2.333   2.915   2.774
 6852SOL     OW21454   2.789   5.570   1.081
 6852SOL    HW121455   2.714   5.513   1.117
 6852SOL    HW221456   2.785   5.660   1.124
 6853SOL     OW21457   5.620   3.512   6.291
 6853SOL    HW121458   5.704   3.470   6.257
 6853SOL    HW221459   5.638   3.553   6.381
 6854SOL     OW21460   5.198   6.458   6.040
 6854SOL    HW121461   5.219   6.543   5.991
 6854SOL    HW221462   5.121   6.413   5.995
 6855SOL     OW21463   3.671   5.299   3.373
 6855SOL    HW121464   3.758   5.250   3.376
 6855SOL    HW221465   3.670   5.359   3.292
 6856SOL     OW21466   0.643   2.626   6.174
 6856SOL    HW121467   0.646   2.643   6.272
 6856SOL    HW221468   0.689   2.540   6.153
 6857SOL     OW21469   1.195   3.316   6.813
 6857SOL    HW121470   1.168   3.279   6.903
 6857SOL    HW221471   1.289   3.289   6.794
 6858SOL     OW21472   3.269   4.073   1.692
 6858SOL    HW121473   3.190   4.132   1.676
 6858SOL    HW221474   3.353   4.122   1.669
 6859SOL     OW21475   0.414   1.374   1.903
 6859SOL    HW121476   0.468   1.423   1.972
 6859SOL    HW221477   0.321   1.361   1.937
 6860SOL     OW21478   6.545   5.348   1.769
 6860SOL    HW121479   6.516   5.258   1.736
 6860SOL    HW221480   6.631   5.375   1.725
 6861SOL     OW21481   4.851   3.435   5.479
 6861SOL    HW121482   4.867   3.488   5.396
 6861SOL    HW221483   4.782   3.365   5.461
 6862SOL     OW21484   0.842   4.815   6.236
 6862SOL    HW121485   0.930   4.861   6.224
 6862SOL    HW221486   0.840   4.731   6.180
 6863SOL     OW21487   6.524   6.296   4.758
 6863SOL    HW121488   6.617   6.334   4.758
 6863SOL    HW221489   6.468   6.345   4.825
 6864SOL     OW21490   1.657   3.687   6.020
 6864SOL    HW121491   1.695   3.729   6.103
 6864SOL    HW221492   1.704   3.722   5.940
 6865SOL     OW21493   1.414   0.850   4.698
 6865SOL    HW121494   1.464   0.913   4.639
 6865SOL    HW221495   1.334   0.896   4.737
 6866SOL     OW21496   6.709   4.926   2.242
 6866SOL    HW121497   6.632   4.918   2.178
 6866SOL    HW221498   6.743   4.835   2.265
 6867SOL     OW21499   1.866   3.911   0.498
 6867SOL    HW121500   1.872   3.875   0.591
 6867SOL    HW221501   1.790   3.867   0.450
 6868SOL     OW21502   1.769   5.365   5.109
 6868SOL    HW121503   1.860   5.408   5.104
 6868SOL    HW221504   1.740   5.340   5.017
 6869SOL     OW21505   3.195   0.053   5.539
 6869SOL    HW121506   3.280   0.071   5.489
 6869SOL    HW221507   3.217   0.037   5.635
 6870SOL     OW21508   0.618   2.979   0.595
 6870SOL    HW121509   0.596   2.997   0.691
 6870SOL    HW221510   0.550   2.917   0.556
 6871SOL     OW21511   6.552   3.515   2.435
 6871SOL    HW121512   6.596   3.426   2.429
 6871SOL    HW221513   6.457   3.507   2.404
 6872SOL     OW21514   1.249   2.717   1.906
 6872SOL    HW121515   1.266   2.742   2.002
 6872SOL    HW221516   1.193   2.634   1.902
 6873SOL     OW21517   1.450   4.471   4.441
 6873SOL    HW121518   1.453   4.507   4.348
 6873SOL    HW221519   1.436   4.546   4.505
 6874SOL     OW21520   5.555   5.673   2.692
 6874SOL    HW121521   5.648   5.706   2.678
 6874SOL    HW221522   5.528   5.616   2.614
 6875SOL     OW21523   1.579   2.348   1.242
 6875SOL    HW121524   1.584   2.403   1.159
 6875SOL    HW221525   1.671   2.330   1.276
 6876SOL     OW21526   3.469   0.226   3.481
 6876SOL    HW121527   3.568   0.213   3.478
 6876SOL    HW221528   3.428   0.195   3.396
 6877SOL     OW21529   2.330   4.306   1.943
 6877SOL    HW121530   2.320   4.211   1.915
 6877SOL    HW221531   2.406   4.348   1.892
 6878SOL     OW21532   1.857   0.886   3.783
 6878SOL    HW121533   1.856   0.964   3.846
 6878SOL    HW221534   1.795   0.905   3.706
 6879SOL     OW21535   2.094   2.301   0.349
 6879SOL    HW121536   1.994   2.300   0.356
 6879SOL    HW221537   2.133   2.326   0.437
 6880SOL     OW21538   1.680   5.686   6.417
 6880SOL    HW121539   1.732   5.665   6.500
 6880SOL    HW221540   1.680   5.607   6.356
 6881SOL     OW21541   2.033   3.638   0.125
 6881SOL    HW121542   1.962   3.675   0.065
 6881SOL    HW221543   2.031   3.687   0.212
 6882SOL     OW21544   2.637   6.790   0.730
 6882SOL    HW121545   2.611   6.699   0.699
 6882SOL    HW221546   2.663   6.786   0.827
 6883SOL     OW21547   4.871   0.251   6.189
 6883SOL    HW121548   4.906   0.268   6.281
 6883SOL    HW221549   4.776   0.220   6.195
 6884SOL     OW21550   1.945   4.093   2.715
 6884SOL    HW121551   2.021   4.033   2.740
 6884SOL    HW221552   1.863   4.037   2.697
 6885SOL     OW21553   4.652   4.957   4.066
 6885SOL    HW121554   4.634   5.020   3.990
 6885SOL    HW221555   4.595   4.981   4.144
 6886SOL     OW21556   5.705   1.216   5.589
 6886SOL    HW121557   5.621   1.207   5.643
 6886SOL    HW221558   5.758   1.294   5.623
 6887SOL     OW21559   5.205   6.302   6.283
 6887SOL    HW121560   5.240   6.366   6.216
 6887SOL    HW221561   5.271   6.292   6.358
 6888SOL     OW21562   5.445   4.407   6.587
 6888SOL    HW121563   5.360   4.458   6.574
 6888SOL    HW221564   5.504   4.421   6.507
 6889SOL     OW21565   1.113   3.042   5.771
 6889SOL    HW121566   1.068   3.039   5.860
 6889SOL    HW221567   1.075   3.117   5.717
 6890SOL     OW21568   3.890   5.450   2.806
 6890SOL    HW121569   3.823   5.522   2.787
 6890SOL    HW221570   3.978   5.474   2.764
 6891SOL     OW21571   2.294   2.813   1.045
 6891SOL    HW121572   2.254   2.901   1.070
 6891SOL    HW221573   2.296   2.754   1.126
 6892SOL     OW21574   3.135   1.281   4.523
 6892SOL    HW121575   3.095   1.238   4.605
 6892SOL    HW221576   3.235   1.279   4.530
 6893SOL     OW21577   6.229   2.915   6.850
 6893SOL    HW121578   6.209   2.886   6.944
 6893SOL    HW221579   6.321   2.954   6.846
 6894SOL     OW21580   5.285   4.554   0.809
 6894SOL    HW121581   5.192   4.535   0.838
 6894SOL    HW221582   5.309   4.648   0.835
 6895SOL     OW21583   1.518   6.030   0.874
 6895SOL    HW121584   1.457   5.975   0.931
 6895SOL    HW221585   1.536   6.117   0.920
 6896SOL     OW21586   3.625   2.013   4.509
 6896SOL    HW121587   3.540   2.022   4.456
 6896SOL    HW221588   3.607   2.032   4.605
 6897SOL     OW21589   4.934   3.765   4.959
 6897SOL    HW121590   4.881   3.692   5.004
 6897SOL    HW221591   5.032   3.751   4.978
 6898SOL     OW21592   2.268   1.188   1.458
 6898SOL    HW121593   2.204   1.123   1.418
 6898SOL    HW221594   2.362   1.161   1.433
 6899SOL     OW21595   5.965   5.605   2.373
 6899SOL    HW121596   6.041   5.549   2.341
 6899SOL    HW221597   5.905   5.628   2.297
 6900SOL     OW21598   6.895   4.463   6.164
 6900SOL    HW121599   6.891   4.541   6.225
 6900SOL    HW221600   6.892   4.495   6.069
 6901SOL     OW21601   4.176   5.013   6.657
 6901SOL    HW121602   4.130   4.939   6.706
 6901SOL    HW221603   4.243   5.057   6.716
 6902SOL     OW21604   6.584   6.067   6.536
 6902SOL    HW121605   6.603   6.163   6.553
 6902SOL    HW221606   6.663   6.024   6.491
 6903SOL     OW21607   2.953   4.974   5.300
 6903SOL    HW121608   2.904   4.899   5.344
 6903SOL    HW221609   2.971   4.951   5.204
 6904SOL     OW21610   0.514   5.675   4.975
 6904SOL    HW121611   0.555   5.592   4.937
 6904SOL    HW221612   0.547   5.688   5.068
 6905SOL     OW21613   5.032   5.772   6.172
 6905SOL    HW121614   5.116   5.721   6.157
 6905SOL    HW221615   5.049   5.869   6.153
 6906SOL     OW21616   4.172   1.178   3.543
 6906SOL    HW121617   4.237   1.136   3.606
 6906SOL    HW221618   4.081   1.179   3.584
 6907SOL     OW21619   6.149   1.587   1.587
 6907SOL    HW121620   6.135   1.686   1.575
 6907SOL    HW221621   6.239   1.571   1.628
 6908SOL     OW21622   2.429   4.279   6.487
 6908SOL    HW121623   2.443   4.353   6.420
 6908SOL    HW221624   2.514   4.263   6.537
 6909SOL     OW21625   5.477   4.492   1.639
 6909SOL    HW121626   5.553   4.553   1.661
 6909SOL    HW221627   5.432   4.463   1.724
 6910SOL     OW21628   1.630   2.913   3.071
 6910SOL    HW121629   1.556   2.871   3.019
 6910SOL    HW221630   1.591   2.965   3.148
 6911SOL     OW21631   3.476   0.108   5.446
 6911SOL    HW121632   3.507   0.055   5.367
 6911SOL    HW221633   3.535   0.089   5.525
 6912SOL     OW21634   2.082   3.198   6.492
 6912SOL    HW121635   2.063   3.189   6.395
 6912SOL    HW221636   2.158   3.262   6.505
 6913SOL     OW21637   4.980   6.019   5.591
 6913SOL    HW121638   5.048   6.087   5.619
 6913SOL    HW221639   4.890   6.063   5.585
 6914SOL     OW21640   6.202   3.408   2.142
 6914SOL    HW121641   6.274   3.407   2.073
 6914SOL    HW221642   6.140   3.330   2.127
 6915SOL     OW21643   0.920   3.526   2.170
 6915SOL    HW121644   1.000   3.565   2.125
 6915SOL    HW221645   0.876   3.595   2.227
 6916SOL     OW21646   5.020   0.339   5.692
 6916SOL    HW121647   5.062   0.419   5.734
 6916SOL    HW221648   5.091   0.282   5.651
 6917SOL     OW21649   5.022   5.436   1.966
 6917SOL    HW121650   5.057   5.413   2.057
 6917SOL    HW221651   5.023   5.535   1.954
 6918SOL     OW21652   1.064   3.241   2.246
 6918SOL    HW121653   1.000   3.298   2.195
 6918SOL    HW221654   1.014   3.189   2.315
 6919SOL     OW21655   6.284   0.140   2.374
 6919SOL    HW121656   6.310   0.157   2.279
 6919SOL    HW221657   6.227   0.058   2.379
 6920SOL     OW21658   4.812   0.590   5.234
 6920SOL    HW121659   4.878   0.652   5.277
 6920SOL    HW221660   4.723   0.600   5.278
 6921SOL     OW21661   3.963   0.335   4.386
 6921SOL    HW121662   3.949   0.268   4.458
 6921SOL    HW221663   3.903   0.313   4.308
 6922SOL     OW21664   2.290   6.152   4.443
 6922SOL    HW121665   2.253   6.196   4.361
 6922SOL    HW221666   2.240   6.067   4.460
 6923SOL     OW21667   6.241   0.059   2.092
 6923SOL    HW121668   6.202   0.120   2.022
 6923SOL    HW221669   6.331   0.028   2.062
 6924SOL     OW21670   3.535   6.364   1.056
 6924SOL    HW121671   3.503   6.383   0.963
 6924SOL    HW221672   3.568   6.270   1.062
 6925SOL     OW21673   5.429   6.383   6.789
 6925SOL    HW121674   5.388   6.448   6.725
 6925SOL    HW221675   5.387   6.293   6.776
 6926SOL     OW21676   2.499   1.337   1.069
 6926SOL    HW121677   2.406   1.319   1.102
 6926SOL    HW221678   2.564   1.328   1.144
 6927SOL     OW21679   3.875   0.757   0.641
 6927SOL    HW121680   3.974   0.755   0.656
 6927SOL    HW221681   3.855   0.808   0.557
 6928SOL     OW21682   5.179   5.578   0.598
 6928SOL    HW121683   5.123   5.523   0.659
 6928SOL    HW221684   5.253   5.523   0.561
 6929SOL     OW21685   5.018   4.928   1.502
 6929SOL    HW121686   5.099   4.926   1.561
 6929SOL    HW221687   5.043   4.964   1.412
 6930SOL     OW21688   0.345   0.819   0.302
 6930SOL    HW121689   0.414   0.855   0.239
 6930SOL    HW221690   0.270   0.778   0.250
 6931SOL     OW21691   2.460   2.361   1.245
 6931SOL    HW121692   2.391   2.306   1.197
 6931SOL    HW221693   2.456   2.342   1.343
 6932SOL     OW21694   5.201   5.260   0.054
 6932SOL    HW121695   5.258   5.186   0.017
 6932SOL    HW221696   5.236   5.286   0.144
 6933SOL     OW21697   3.103   6.206   6.449
 6933SOL    HW121698   3.063   6.280   6.395
 6933SOL    HW221699   3.137   6.242   6.536
 6934SOL     OW21700   4.883   4.134   6.391
 6934SOL    HW121701   4.906   4.046   6.349
 6934SOL    HW221702   4.893   4.127   6.490
 6935SOL     OW21703   5.314   5.217   2.051
 6935SOL    HW121704   5.297   5.177   1.961
 6935SOL    HW221705   5.255   5.172   2.119
 6936SOL     OW21706   0.832   1.709   4.860
 6936SOL    HW121707   0.872   1.665   4.940
 6936SOL    HW221708   0.745   1.752   4.885
 6937SOL     OW21709   5.461   6.164   0.263
 6937SOL    HW121710   5.381   6.197   0.312
 6937SOL    HW221711   5.524   6.240   0.246
 6938SOL     OW21712   0.260   0.924   4.284
 6938SOL    HW121713   0.329   0.971   4.229
 6938SOL    HW221714   0.169   0.944   4.247
 6939SOL     OW21715   6.140   4.611   3.516
 6939SOL    HW121716   6.215   4.657   3.468
 6939SOL    HW221717   6.153   4.621   3.615
 6940SOL     OW21718   4.950   6.893   0.685
 6940SOL    HW121719   4.895   6.901   0.768
 6940SOL    HW221720   4.994   6.981   0.666
 6941SOL     OW21721   2.895   3.628   2.793
 6941SOL    HW121722   2.909   3.537   2.755
 6941SOL    HW221723   2.872   3.692   2.720
 6942SOL     OW21724   6.459   6.116   1.750
 6942SOL    HW121725   6.556   6.139   1.762
 6942SOL    HW221726   6.435   6.041   1.810
 6943SOL     OW21727   3.560   4.406   6.823
 6943SOL    HW121728   3.579   4.466   6.746
 6943SOL    HW221729   3.559   4.311   6.792
 6944SOL     OW21730   0.997   3.712   6.102
 6944SOL    HW121731   1.094   3.699   6.081
 6944SOL    HW221732   0.956   3.767   6.030
 6945SOL     OW21733   6.037   2.445   0.557
 6945SOL    HW121734   6.036   2.360   0.609
 6945SOL    HW221735   6.043   2.523   0.620
 6946SOL     OW21736   3.613   5.663   2.287
 6946SOL    HW121737   3.668   5.741   2.316
 6946SOL    HW221738   3.662   5.610   2.218
 6947SOL     OW21739   4.805   5.065   5.790
 6947SOL    HW121740   4.895   5.063   5.834
 6947SOL    HW221741   4.757   5.148   5.816
 6948SOL     OW21742   0.277   5.873   1.058
 6948SOL    HW121743   0.282   5.864   0.959
 6948SOL    HW221744   0.317   5.961   1.085
 6949SOL     OW21745   2.909   2.092   3.426
 6949SOL    HW121746   2.926   2.106   3.328
 6949SOL    HW221747   2.825   2.039   3.438
 6950SOL     OW21748   1.038   6.621   4.784
 6950SOL    HW121749   1.120   6.674   4.808
 6950SOL    HW221750   0.987   6.668   4.713
 6951SOL     OW21751   0.167   5.147   6.936
 6951SOL    HW121752   0.141   5.051   6.923
 6951SOL    HW221753   0.237   5.172   6.869
 6952SOL     OW21754   3.111   5.007   2.819
 6952SOL    HW121755   3.179   5.046   2.756
 6952SOL    HW221756   3.037   4.966   2.767
 6953SOL     OW21757   5.292   0.179   0.563
 6953SOL    HW121758   5.382   0.200   0.601
 6953SOL    HW221759   5.275   0.237   0.483
 6954SOL     OW21760   0.641   3.697   0.890
 6954SOL    HW121761   0.642   3.763   0.816
 6954SOL    HW221762   0.561   3.714   0.948
 6955SOL     OW21763   5.334   0.057   2.496
 6955SOL    HW121764   5.265   7.007   2.467
 6955SOL    HW221765   5.299   0.108   2.575
 6956SOL     OW21766   5.732   5.976   2.177
 6956SOL    HW121767   5.781   6.004   2.260
 6956SOL    HW221768   5.633   5.977   2.195
 6957SOL     OW21769   5.370   5.686   6.345
 6957SOL    HW121770   5.311   5.640   6.279
 6957SOL    HW221771   5.372   5.784   6.325
 6958SOL     OW21772   3.234   3.313   4.023
 6958SOL    HW121773   3.148   3.284   3.981
 6958SOL    HW221774   3.253   3.256   4.103
 6959SOL     OW21775   1.510   4.114   3.022
 6959SOL    HW121776   1.420   4.157   3.034
 6959SOL    HW221777   1.551   4.145   2.936
 6960SOL     OW21778   1.743   4.739   0.397
 6960SOL    HW121779   1.671   4.808   0.389
 6960SOL    HW221780   1.713   4.655   0.352
 6961SOL     OW21781   4.011   1.777   4.947
 6961SOL    HW121782   3.979   1.716   4.875
 6961SOL    HW221783   3.983   1.741   5.036
 6962SOL     OW21784   3.686   6.745   6.465
 6962SOL    HW121785   3.595   6.722   6.430
 6962SOL    HW221786   3.745   6.664   6.460
 6963SOL     OW21787   5.062   6.421   0.705
 6963SOL    HW121788   5.095   6.364   0.779
 6963SOL    HW221789   4.995   6.487   0.740
 6964SOL     OW21790   2.109   0.328   5.826
 6964SOL    HW121791   2.174   0.262   5.865
 6964SOL    HW221792   2.030   0.280   5.789
 6965SOL     OW21793   0.682   1.936   0.699
 6965SOL    HW121794   0.685   2.014   0.761
 6965SOL    HW221795   0.656   1.968   0.607
 6966SOL     OW21796   0.986   0.237   1.982
 6966SOL    HW121797   1.085   0.235   1.968
 6966SOL    HW221798   0.966   0.216   2.078
 6967SOL     OW21799   3.958   1.842   6.009
 6967SOL    HW121800   4.055   1.823   5.992
 6967SOL    HW221801   3.903   1.766   5.974
 6968SOL     OW21802   3.248   6.852   3.021
 6968SOL    HW121803   3.176   6.839   2.952
 6968SOL    HW221804   3.206   6.862   3.111
 6969SOL     OW21805   2.509   2.051   1.610
 6969SOL    HW121806   2.461   1.971   1.576
 6969SOL    HW221807   2.548   2.102   1.532
 6970SOL     OW21808   3.265   4.710   6.157
 6970SOL    HW121809   3.283   4.626   6.208
 6970SOL    HW221810   3.295   4.789   6.211
 6971SOL     OW21811   5.431   4.310   0.826
 6971SOL    HW121812   5.391   4.400   0.846
 6971SOL    HW221813   5.361   4.240   0.832
 6972SOL     OW21814   5.158   3.725   3.027
 6972SOL    HW121815   5.195   3.780   2.953
 6972SOL    HW221816   5.058   3.719   3.018
 6973SOL     OW21817   1.100   1.943   2.483
 6973SOL    HW121818   1.075   1.853   2.448
 6973SOL    HW221819   1.133   2.000   2.408
 6974SOL     OW21820   3.332   3.291   2.799
 6974SOL    HW121821   3.425   3.258   2.781
 6974SOL    HW221822   3.319   3.379   2.754
 6975SOL     OW21823   2.933   5.805   4.953
 6975SOL    HW121824   2.913   5.746   4.875
 6975SOL    HW221825   2.938   5.749   5.036
 6976SOL     OW21826   4.964   4.227   5.161
 6976SOL    HW121827   4.901   4.209   5.086
 6976SOL    HW221828   5.054   4.190   5.139
 6977SOL     OW21829   3.998   4.527   1.651
 6977SOL    HW121830   3.908   4.559   1.621
 6977SOL    HW221831   4.008   4.430   1.629
 6978SOL     OW21832   5.971   3.240   1.515
 6978SOL    HW121833   5.956   3.183   1.596
 6978SOL    HW221834   6.054   3.209   1.468
 6979SOL     OW21835   1.364   4.093   1.562
 6979SOL    HW121836   1.332   3.999   1.552
 6979SOL    HW221837   1.411   4.103   1.650
 6980SOL     OW21838   1.471   6.883   2.920
 6980SOL    HW121839   1.533   6.931   2.858
 6980SOL    HW221840   1.414   6.820   2.867
 6981SOL     OW21841   3.592   3.337   6.963
 6981SOL    HW121842   3.665   3.346   6.895
 6981SOL    HW221843   3.581   3.424   7.011
 6982SOL     OW21844   0.821   1.398   4.095
 6982SOL    HW121845   0.747   1.367   4.034
 6982SOL    HW221846   0.838   1.495   4.079
 6983SOL     OW21847   4.694   0.822   4.357
 6983SOL    HW121848   4.725   0.916   4.372
 6983SOL    HW221849   4.685   0.805   4.259
 6984SOL     OW21850   1.032   2.591   2.874
 6984SOL    HW121851   1.034   2.547   2.784
 6984SOL    HW221852   0.960   2.551   2.930
 6985SOL     OW21853   7.006   4.362   6.993
 6985SOL    HW121854   0.009   4.453   6.957
 6985SOL    HW221855   6.928   4.323   6.945
 6986SOL     OW21856   3.971   5.389   5.952
 6986SOL    HW121857   3.908   5.311   5.948
 6986SOL    HW221858   3.998   5.406   6.047
 6987SOL     OW21859   0.417   1.858   6.095
 6987SOL    HW121860   0.469   1.790   6.148
 6987SOL    HW221861   0.364   1.811   6.024
 6988SOL     OW21862   2.842   0.672   6.086
 6988SOL    HW121863   2.771   0.723   6.037
 6988SOL    HW221864   2.811   0.577   6.100
 6989SOL     OW21865   6.887   4.423   2.417
 6989SOL    HW121866   6.822   4.361   2.462
 6989SOL    HW221867   6.966   4.437   2.477
 6990SOL     OW21868   3.784   2.924   1.987
 6990SOL    HW121869   3.838   2.984   1.928
 6990SOL    HW221870   3.835   2.907   2.072
 6991SOL     OW21871   5.358   4.438   2.832
 6991SOL    HW121872   5.298   4.441   2.912
 6991SOL    HW221873   5.432   4.503   2.844
 6992SOL     OW21874   0.743   6.965   6.676
 6992SOL    HW121875   0.716   0.013   6.605
 6992SOL    HW221876   0.812   6.902   6.640
 6993SOL     OW21877   5.618   1.095   1.910
 6993SOL    HW121878   5.608   1.180   1.859
 6993SOL    HW221879   5.616   1.017   1.847
 6994SOL     OW21880   1.655   0.147   3.871
 6994SOL    HW121881   1.670   0.097   3.956
 6994SOL    HW221882   1.741   0.189   3.842
 6995SOL     OW21883   0.438   3.437   0.583
 6995SOL    HW121884   0.483   3.373   0.521
 6995SOL    HW221885   0.445   3.403   0.677
 6996SOL     OW21886   1.866   0.799   0.181
 6996SOL    HW121887   1.795   0.869   0.174
 6996SOL    HW221888   1.869   0.763   0.274
 6997SOL     OW21889   6.881   5.118   5.124
 6997SOL    HW121890   6.953   5.184   5.104
 6997SOL    HW221891   6.906   5.029   5.087
 6998SOL     OW21892   0.862   1.442   1.736
 6998SOL    HW121893   0.930   1.420   1.806
 6998SOL    HW221894   0.907   1.453   1.647
 6999SOL     OW21895   0.927   2.791   0.051
 6999SOL    HW121896   0.965   2.739   0.127
 6999SOL    HW221897   0.827   2.785   0.053
 7000SOL     OW21898   6.568   0.223   2.693
 7000SOL    HW121899   6.527   0.131   2.697
 7000SOL    HW221900   6.498   0.289   2.666
 7001SOL     OW21901   0.964   1.539   4.494
 7001SOL    HW121902   1.031   1.550   4.421
 7001SOL    HW221903   0.925   1.629   4.517
 7002SOL     OW21904   0.458   5.646   3.515
 7002SOL    HW121905   0.531   5.709   3.540
 7002SOL    HW221906   0.483   5.599   3.430
 7003SOL     OW21907   6.180   4.129   1.312
 7003SOL    HW121908   6.116   4.161   1.382
 7003SOL    HW221909   6.186   4.030   1.315
 7004SOL     OW21910   1.936   6.087   0.237
 7004SOL    HW121911   1.841   6.079   0.205
 7004SOL    HW221912   1.950   6.026   0.315
 7005SOL     OW21913   1.752   0.491   6.899
 7005SOL    HW121914   1.676   0.511   6.962
 7005SOL    HW221915   1.722   0.425   6.830
 7006SOL     OW21916   0.032   0.412   3.651
 7006SOL    HW121917   0.120   0.366   3.661
 7006SOL    HW221918   0.019   0.474   3.728
 7007SOL     OW21919   4.042   1.033   6.130
 7007SOL    HW121920   4.037   0.968   6.205
 7007SOL    HW221921   3.994   0.997   6.050
 7008SOL     OW21922   6.755   4.119   3.565
 7008SOL    HW121923   6.842   4.151   3.526
 7008SOL    HW221924   6.746   4.154   3.658
 7009SOL     OW21925   4.455   6.228   2.208
 7009SOL    HW121926   4.441   6.244   2.111
 7009SOL    HW221927   4.542   6.180   2.222
 7010SOL     OW21928   5.241   4.122   2.331
 7010SOL    HW121929   5.204   4.038   2.370
 7010SOL    HW221930   5.183   4.199   2.357
 7011SOL     OW21931   3.572   6.538   0.191
 7011SOL    HW121932   3.540   6.574   0.103
 7011SOL    HW221933   3.493   6.513   0.248
 7012SOL     OW21934   0.900   2.874   1.164
 7012SOL    HW121935   0.882   2.942   1.093
 7012SOL    HW221936   0.963   2.805   1.129
 7013SOL     OW21937   2.506   1.463   0.265
 7013SOL    HW121938   2.458   1.515   0.337
 7013SOL    HW221939   2.440   1.429   0.199
 7014SOL     OW21940   6.040   3.606   2.008
 7014SOL    HW121941   6.054   3.601   1.910
 7014SOL    HW221942   6.108   3.549   2.055
 7015SOL     OW21943   5.372   4.423   1.890
 7015SOL    HW121944   5.436   4.400   1.964
 7015SOL    HW221945   5.278   4.414   1.924
 7016SOL     OW21946   3.151   4.864   0.763
 7016SOL    HW121947   3.156   4.927   0.840
 7016SOL    HW221948   3.145   4.915   0.677
 7017SOL     OW21949   4.102   4.817   3.800
 7017SOL    HW121950   4.006   4.837   3.819
 7017SOL    HW221951   4.110   4.727   3.759
 7018SOL     OW21952   4.744   2.640   4.400
 7018SOL    HW121953   4.738   2.692   4.486
 7018SOL    HW221954   4.839   2.617   4.382
 7019SOL     OW21955   5.178   5.054   2.233
 7019SOL    HW121956   5.184   4.965   2.187
 7019SOL    HW221957   5.221   5.048   2.323
 7020SOL     OW21958   0.931   3.241   0.142
 7020SOL    HW121959   0.834   3.243   0.163
 7020SOL    HW221960   0.979   3.308   0.199
 7021SOL     OW21961   1.157   2.570   4.834
 7021SOL    HW121962   1.186   2.582   4.739
 7021SOL    HW221963   1.140   2.473   4.852
 7022SOL     OW21964   4.053   0.916   0.405
 7022SOL    HW121965   4.044   1.011   0.435
 7022SOL    HW221966   3.974   0.891   0.350
 7023SOL     OW21967   0.437   1.655   1.603
 7023SOL    HW121968   0.486   1.575   1.638
 7023SOL    HW221969   0.367   1.625   1.538
 7024SOL     OW21970   3.978   3.137   3.706
 7024SOL    HW121971   3.907   3.071   3.728
 7024SOL    HW221972   4.054   3.127   3.770
 7025SOL     OW21973   2.951   0.077   0.199
 7025SOL    HW121974   2.878   0.022   0.238
 7025SOL    HW221975   2.977   0.149   0.264
 7026SOL     OW21976   3.012   1.754   1.503
 7026SOL    HW121977   3.055   1.674   1.545
 7026SOL    HW221978   3.051   1.769   1.412
 7027SOL     OW21979   2.282   5.169   2.216
 7027SOL    HW121980   2.354   5.158   2.148
 7027SOL    HW221981   2.306   5.244   2.278
 7028SOL     OW21982   2.873   0.670   3.919
 7028SOL    HW121983   2.926   0.740   3.873
 7028SOL    HW221984   2.917   0.581   3.908
 7029SOL     OW21985   2.890   3.447   5.555
 7029SOL    HW121986   2.830   3.432   5.476
 7029SOL    HW221987   2.845   3.508   5.619
 7030SOL     OW21988   6.976   1.478   4.737
 7030SOL    HW121989   0.019   1.425   4.798
 7030SOL    HW221990   6.965   1.430   4.651
 7031SOL     OW21991   4.528   5.817   1.189
 7031SOL    HW121992   4.539   5.781   1.281
 7031SOL    HW221993   4.555   5.748   1.122
 7032SOL     OW21994   3.897   0.157   4.091
 7032SOL    HW121995   3.952   0.229   4.049
 7032SOL    HW221996   3.949   0.072   4.095
 7033SOL     OW21997   1.584   2.592   5.311
 7033SOL    HW121998   1.580   2.530   5.389
 7033SOL    HW221999   1.674   2.634   5.306
 7034SOL     OW22000   6.814   1.835   3.467
 7034SOL    HW122001   6.907   1.870   3.460
 7034SOL    HW222002   6.773   1.829   3.376
 7035SOL     OW22003   2.255   0.443   1.364
 7035SOL    HW122004   2.159   0.431   1.392
 7035SOL    HW222005   2.312   0.451   1.446
 7036SOL     OW22006   0.094   1.155   2.264
 7036SOL    HW122007   0.171   1.111   2.310
 7036SOL    HW222008   0.062   1.233   2.318
 7037SOL     OW22009   0.341   0.141   5.780
 7037SOL    HW122010   0.367   0.159   5.875
 7037SOL    HW222011   0.312   0.046   5.771
 7038SOL     OW22012   2.288   3.939   6.086
 7038SOL    HW122013   2.248   3.925   6.176
 7038SOL    HW222014   2.258   3.867   6.024
 7039SOL     OW22015   0.715   5.259   2.769
 7039SOL    HW122016   0.788   5.214   2.718
 7039SOL    HW222017   0.637   5.198   2.778
 7040SOL     OW22018   4.558   2.094   5.697
 7040SOL    HW122019   4.569   2.105   5.796
 7040SOL    HW222020   4.596   2.173   5.650
 7041SOL     OW22021   1.196   1.156   3.700
 7041SOL    HW122022   1.139   1.165   3.782
 7041SOL    HW222023   1.177   1.068   3.656
 7042SOL     OW22024   4.226   5.887   4.921
 7042SOL    HW122025   4.322   5.870   4.901
 7042SOL    HW222026   4.214   5.897   5.020
 7043SOL     OW22027   2.862   4.757   3.300
 7043SOL    HW122028   2.897   4.850   3.294
 7043SOL    HW222029   2.830   4.728   3.210
 7044SOL     OW22030   5.439   6.314   4.189
 7044SOL    HW122031   5.501   6.241   4.217
 7044SOL    HW222032   5.458   6.339   4.094
 7045SOL     OW22033   6.286   5.666   2.049
 7045SOL    HW122034   6.194   5.699   2.031
 7045SOL    HW222035   6.286   5.566   2.048
 7046SOL     OW22036   2.908   2.263   4.420
 7046SOL    HW122037   2.839   2.326   4.454
 7046SOL    HW222038   2.893   2.247   4.322
 7047SOL     OW22039   0.585   0.037   0.823
 7047SOL    HW122040   0.647   6.981   0.853
 7047SOL    HW222041   0.626   0.126   0.845
 7048SOL     OW22042   6.683   5.378   5.067
 7048SOL    HW122043   6.780   5.356   5.060
 7048SOL    HW222044   6.641   5.374   4.976
 7049SOL     OW22045   3.672   1.491   2.007
 7049SOL    HW122046   3.706   1.499   2.100
 7049SOL    HW222047   3.749   1.494   1.943
 7050SOL     OW22048   3.893   4.636   0.939
 7050SOL    HW122049   3.888   4.536   0.942
 7050SOL    HW222050   3.922   4.665   0.848
 7051SOL     OW22051   0.163   0.103   1.320
 7051SOL    HW122052   0.096   0.058   1.378
 7051SOL    HW222053   0.123   0.185   1.279
 7052SOL     OW22054   6.055   0.198   3.003
 7052SOL    HW122055   5.956   0.200   2.992
 7052SOL    HW222056   6.080   0.124   3.065
 7053SOL     OW22057   1.584   3.246   3.448
 7053SOL    HW122058   1.641   3.229   3.368
 7053SOL    HW222059   1.490   3.264   3.419
 7054SOL     OW22060   6.598   0.320   0.885
 7054SOL    HW122061   6.525   0.279   0.939
 7054SOL    HW222062   6.642   0.393   0.937
 7055SOL     OW22063   2.218   0.678   6.995
 7055SOL    HW122064   2.242   0.712   0.070
 7055SOL    HW222065   2.119   0.679   6.984
 7056SOL     OW22066   6.465   5.624   1.193
 7056SOL    HW122067   6.535   5.613   1.122
 7056SOL    HW222068   6.458   5.540   1.247
 7057SOL     OW22069   2.686   4.973   4.915
 7057SOL    HW122070   2.655   4.927   4.999
 7057SOL    HW222071   2.664   4.917   4.836
 7058SOL     OW22072   4.981   2.424   6.452
 7058SOL    HW122073   5.011   2.329   6.445
 7058SOL    HW222074   5.043   2.482   6.399
 7059SOL     OW22075   2.248   0.974   4.488
 7059SOL    HW122076   2.284   1.040   4.554
 7059SOL    HW222077   2.295   0.887   4.498
 7060SOL     OW22078   3.406   6.855   2.520
 7060SOL    HW122079   3.317   6.823   2.554
 7060SOL    HW222080   3.401   6.866   2.421
 7061SOL     OW22081   1.108   2.051   2.954
 7061SOL    HW122082   1.190   2.043   3.010
 7061SOL    HW222083   1.112   2.136   2.901
 7062SOL     OW22084   4.385   1.856   3.567
 7062SOL    HW122085   4.365   1.847   3.469
 7062SOL    HW222086   4.475   1.817   3.586
 7063SOL     OW22087   0.683   0.165   2.147
 7063SOL    HW122088   0.782   0.160   2.160
 7063SOL    HW222089   0.654   0.260   2.145
 7064SOL     OW22090   4.953   1.755   5.303
 7064SOL    HW122091   5.012   1.762   5.384
 7064SOL    HW222092   4.988   1.816   5.232
 7065SOL     OW22093   3.382   4.357   5.324
 7065SOL    HW122094   3.310   4.423   5.303
 7065SOL    HW222095   3.390   4.347   5.423
 7066SOL     OW22096   3.878   0.724   0.214
 7066SOL    HW122097   3.925   0.687   0.295
 7066SOL    HW222098   3.802   0.664   0.189
 7067SOL     OW22099   1.924   3.058   0.219
 7067SOL    HW122100   1.895   2.965   0.242
 7067SOL    HW222101   1.894   3.121   0.290
 7068SOL     OW22102   5.265   3.873   4.555
 7068SOL    HW122103   5.266   3.885   4.455
 7068SOL    HW222104   5.271   3.776   4.577
 7069SOL     OW22105   6.214   0.329   5.837
 7069SOL    HW122106   6.308   0.317   5.866
 7069SOL    HW222107   6.178   0.243   5.801
 7070SOL     OW22108   0.514   7.011   4.808
 7070SOL    HW122109   0.539   6.948   4.883
 7070SOL    HW222110   0.418   6.998   4.785
 7071SOL     OW22111   5.017   6.495   6.623
 7071SOL    HW122112   4.965   6.417   6.591
 7071SOL    HW222113   4.976   6.580   6.590
 7072SOL     OW22114   0.879   4.191   6.763
 7072SOL    HW122115   0.935   4.191   6.846
 7072SOL    HW222116   0.936   4.168   6.684
 7073SOL     OW22117   4.745   0.849   3.146
 7073SOL    HW122118   4.782   0.925   3.093
 7073SOL    HW222119   4.801   0.834   3.227
 7074SOL     OW22120   6.184   4.252   3.237
 7074SOL    HW122121   6.111   4.218   3.176
 7074SOL    HW222122   6.263   4.278   3.182
 7075SOL     OW22123   3.198   4.979   5.050
 7075SOL    HW122124   3.248   4.914   5.108
 7075SOL    HW222125   3.112   4.938   5.020
 7076SOL     OW22126   5.873   3.378   2.593
 7076SOL    HW122127   5.927   3.296   2.572
 7076SOL    HW222128   5.838   3.371   2.687
 7077SOL     OW22129   2.806   5.058   2.102
 7077SOL    HW122130   2.786   5.120   2.026
 7077SOL    HW222131   2.853   4.977   2.067
 7078SOL     OW22132   5.391   6.566   0.348
 7078SOL    HW122133   5.335   6.504   0.293
 7078SOL    HW222134   5.461   6.608   0.290
 7079SOL     OW22135   1.041   6.627   4.299
 7079SOL    HW122136   1.068   6.669   4.386
 7079SOL    HW222137   1.107   6.652   4.229
 7080SOL     OW22138   3.820   2.123   5.356
 7080SOL    HW122139   3.901   2.142   5.300
 7080SOL    HW222140   3.738   2.127   5.298
 7081SOL     OW22141   1.602   0.905   6.789
 7081SOL    HW122142   1.700   0.916   6.773
 7081SOL    HW222143   1.571   0.973   6.855
 7082SOL     OW22144   6.615   4.095   2.224
 7082SOL    HW122145   6.654   4.153   2.295
 7082SOL    HW222146   6.688   4.045   2.178
 7083SOL     OW22147   6.457   2.590   2.393
 7083SOL    HW122148   6.393   2.528   2.438
 7083SOL    HW222149   6.458   2.571   2.294
 7084SOL     OW22150   1.066   5.925   0.171
 7084SOL    HW122151   1.045   6.002   0.110
 7084SOL    HW222152   1.065   5.957   0.265
 7085SOL     OW22153   0.297   2.852   2.434
 7085SOL    HW122154   0.217   2.911   2.441
 7085SOL    HW222155   0.373   2.893   2.485
 7086SOL     OW22156   5.850   0.822   5.493
 7086SOL    HW122157   5.829   0.724   5.493
 7086SOL    HW222158   5.832   0.859   5.584
 7087SOL     OW22159   5.370   3.237   3.354
 7087SOL    HW122160   5.288   3.262   3.303
 7087SOL    HW222161   5.401   3.146   3.324
 7088SOL     OW22162   5.828   1.839   5.150
 7088SOL    HW122163   5.866   1.770   5.212
 7088SOL    HW222164   5.732   1.816   5.130
 7089SOL     OW22165   3.881   5.618   1.553
 7089SOL    HW122166   3.873   5.586   1.458
 7089SOL    HW222167   3.848   5.546   1.615
 7090SOL     OW22168   3.767   1.703   1.149
 7090SOL    HW122169   3.670   1.695   1.125
 7090SOL    HW222170   3.798   1.796   1.130
 7091SOL     OW22171   0.332   6.729   0.322
 7091SOL    HW122172   0.409   6.783   0.288
 7091SOL    HW222173   0.247   6.777   0.304
 7092SOL     OW22174   4.588   2.402   6.618
 7092SOL    HW122175   4.531   2.408   6.536
 7092SOL    HW222176   4.553   2.465   6.688
 7093SOL     OW22177   3.400   4.073   0.596
 7093SOL    HW122178   3.407   4.060   0.695
 7093SOL    HW222179   3.330   4.142   0.576
 7094SOL     OW22180   2.338   6.743   5.840
 7094SOL    HW122181   2.424   6.720   5.796
 7094SOL    HW222182   2.291   6.813   5.787
 7095SOL     OW22183   3.082   4.312   5.817
 7095SOL    HW122184   3.142   4.299   5.738
 7095SOL    HW222185   2.988   4.324   5.786
 7096SOL     OW22186   0.104   0.789   0.767
 7096SOL    HW122187   0.149   0.756   0.850
 7096SOL    HW222188   0.087   0.887   0.775
 7097SOL     OW22189   5.596   0.494   1.557
 7097SOL    HW122190   5.509   0.537   1.532
 7097SOL    HW222191   5.669   0.563   1.553
 7098SOL     OW22192   0.903   6.756   4.595
 7098SOL    HW122193   0.807   6.755   4.625
 7098SOL    HW222194   0.925   6.846   4.559
 7099SOL     OW22195   3.007   2.190   3.959
 7099SOL    HW122196   2.938   2.236   4.016
 7099SOL    HW222197   2.989   2.210   3.863
 7100SOL     OW22198   7.004   3.720   0.814
 7100SOL    HW122199   0.012   3.691   0.907
 7100SOL    HW222200   0.058   3.689   0.750
 7101SOL     OW22201   1.976   6.481   5.388
 7101SOL    HW122202   1.998   6.385   5.372
 7101SOL    HW222203   2.055   6.526   5.431
 7102SOL     OW22204   5.226   0.648   0.433
 7102SOL    HW122205   5.252   0.629   0.528
 7102SOL    HW222206   5.206   0.746   0.424
 7103SOL     OW22207   4.989   5.185   2.768
 7103SOL    HW122208   4.953   5.234   2.689
 7103SOL    HW222209   4.960   5.090   2.764
 7104SOL     OW22210   4.942   2.973   3.565
 7104SOL    HW122211   4.996   2.889   3.556
 7104SOL    HW222212   4.856   2.953   3.612
 7105SOL     OW22213   3.188   4.029   3.816
 7105SOL    HW122214   3.270   4.077   3.848
 7105SOL    HW222215   3.122   4.023   3.891
 7106SOL     OW22216   3.451   3.016   1.395
 7106SOL    HW122217   3.449   3.050   1.490
 7106SOL    HW222218   3.434   2.918   1.394
 7107SOL     OW22219   4.013   0.524   6.880
 7107SOL    HW122220   4.047   0.497   6.790
 7107SOL    HW222221   3.951   0.453   6.915
 7108SOL     OW22222   3.132   6.702   2.561
 7108SOL    HW122223   3.067   6.709   2.485
 7108SOL    HW222224   3.121   6.612   2.605
 7109SOL     OW22225   1.911   6.822   5.832
 7109SOL    HW122226   1.858   6.775   5.903
 7109SOL    HW222227   1.931   6.757   5.759
 7110SOL     OW22228   3.153   6.137   4.552
 7110SOL    HW122229   3.114   6.068   4.613
 7110SOL    HW222230   3.162   6.099   4.460
 7111SOL     OW22231   0.924   0.677   3.683
 7111SOL    HW122232   0.828   0.697   3.703
 7111SOL    HW222233   0.983   0.729   3.746
 7112SOL     OW22234   2.192   4.915   4.326
 7112SOL    HW122235   2.264   4.847   4.342
 7112SOL    HW222236   2.115   4.871   4.280
 7113SOL     OW22237   3.306   4.790   5.281
 7113SOL    HW122238   3.260   4.862   5.332
 7113SOL    HW222239   3.248   4.709   5.277
 7114SOL     OW22240   4.631   5.092   0.408
 7114SOL    HW122241   4.639   5.112   0.311
 7114SOL    HW222242   4.561   5.022   0.422
 7115SOL     OW22243   6.477   4.532   6.621
 7115SOL    HW122244   6.393   4.568   6.581
 7115SOL    HW222245   6.548   4.527   6.551
 7116SOL     OW22246   7.000   3.662   4.296
 7116SOL    HW122247   6.910   3.701   4.317
 7116SOL    HW222248   0.002   3.586   4.357
 7117SOL     OW22249   6.311   6.921   3.646
 7117SOL    HW122250   6.342   6.852   3.581
 7117SOL    HW222251   6.390   6.965   3.688
 7118SOL     OW22252   4.210   4.451   5.657
 7118SOL    HW122253   4.136   4.518   5.650
 7118SOL    HW222254   4.239   4.424   5.565
 7119SOL     OW22255   4.665   0.120   5.024
 7119SOL    HW122256   4.587   0.094   5.081
 7119SOL    HW222257   4.632   0.168   4.943
 7120SOL     OW22258   5.096   1.235   1.011
 7120SOL    HW122259   5.046   1.320   1.027
 7120SOL    HW222260   5.137   1.236   0.921
 7121SOL     OW22261   0.903   6.600   3.610
 7121SOL    HW122262   0.905   6.504   3.582
 7121SOL    HW222263   0.892   6.658   3.529
 7122SOL     OW22264   2.682   6.783   6.130
 7122SOL    HW122265   2.630   6.860   6.165
 7122SOL    HW222266   2.747   6.815   6.061
 7123SOL     OW22267   5.500   5.389   5.586
 7123SOL    HW122268   5.528   5.440   5.667
 7123SOL    HW222269   5.426   5.439   5.540
 7124SOL     OW22270   0.780   2.143   1.482
 7124SOL    HW122271   0.752   2.222   1.536
 7124SOL    HW222272   0.713   2.125   1.410
 7125SOL     OW22273   1.136   0.181   1.484
 7125SOL    HW122274   1.148   0.108   1.417
 7125SOL    HW222275   1.069   0.154   1.553
 7126SOL     OW22276   4.404   6.279   1.498
 7126SOL    HW122277   4.383   6.366   1.453
 7126SOL    HW222278   4.393   6.204   1.433
 7127SOL     OW22279   3.072   6.260   5.565
 7127SOL    HW122280   3.086   6.180   5.506
 7127SOL    HW222281   2.978   6.292   5.558
 7128SOL     OW22282   3.947   4.164   6.110
 7128SOL    HW122283   3.928   4.096   6.040
 7128SOL    HW222284   3.871   4.229   6.115
 7129SOL     OW22285   0.095   6.823   0.981
 7129SOL    HW122286   0.187   6.857   0.962
 7129SOL    HW222287   0.027   6.884   0.940
 7130SOL     OW22288   3.337   6.435   4.057
 7130SOL    HW122289   3.381   6.465   3.972
 7130SOL    HW222290   3.250   6.482   4.068
 7131SOL     OW22291   4.068   1.027   2.163
 7131SOL    HW122292   4.120   1.028   2.078
 7131SOL    HW222293   3.990   0.965   2.154
 7132SOL     OW22294   5.072   3.787   0.210
 7132SOL    HW122295   5.022   3.856   0.262
 7132SOL    HW222296   5.163   3.773   0.251
 7133SOL     OW22297   3.454   5.837   3.426
 7133SOL    HW122298   3.523   5.858   3.495
 7133SOL    HW222299   3.394   5.764   3.461
 7134SOL     OW22300   5.586   5.326   1.691
 7134SOL    HW122301   5.559   5.280   1.776
 7134SOL    HW222302   5.678   5.364   1.702
 7135SOL     OW22303   2.142   2.945   1.729
 7135SOL    HW122304   2.057   2.903   1.760
 7135SOL    HW222305   2.124   3.000   1.647
 7136SOL     OW22306   3.060   1.468   1.952
 7136SOL    HW122307   2.971   1.501   1.983
 7136SOL    HW222308   3.128   1.540   1.963
 7137SOL     OW22309   2.494   2.084   1.913
 7137SOL    HW122310   2.511   2.067   1.816
 7137SOL    HW222311   2.459   2.000   1.956
 7138SOL     OW22312   1.893   2.142   0.609
 7138SOL    HW122313   1.884   2.159   0.511
 7138SOL    HW222314   1.802   2.131   0.649
 7139SOL     OW22315   6.145   5.892   1.605
 7139SOL    HW122316   6.081   5.895   1.528
 7139SOL    HW222317   6.159   5.797   1.632
 7140SOL     OW22318   6.789   3.298   0.372
 7140SOL    HW122319   6.762   3.269   0.464
 7140SOL    HW222320   6.724   3.367   0.339
 7141SOL     OW22321   4.289   6.789   1.378
 7141SOL    HW122322   4.269   6.885   1.396
 7141SOL    HW222323   4.214   6.748   1.326
 7142SOL     OW22324   3.102   0.165   5.024
 7142SOL    HW122325   3.143   0.250   4.989
 7142SOL    HW222326   3.102   0.167   5.124
 7143SOL     OW22327   2.358   4.668   6.511
 7143SOL    HW122328   2.454   4.646   6.494
 7143SOL    HW222329   2.321   4.721   6.435
 7144SOL     OW22330   6.447   0.838   4.761
 7144SOL    HW122331   6.528   0.810   4.709
 7144SOL    HW222332   6.373   0.862   4.698
 7145SOL     OW22333   5.011   2.386   6.925
 7145SOL    HW122334   4.916   2.417   6.924
 7145SOL    HW222335   5.013   2.286   6.924
 7146SOL     OW22336   2.349   1.190   5.143
 7146SOL    HW122337   2.256   1.171   5.175
 7146SOL    HW222338   2.346   1.219   5.048
 7147SOL     OW22339   5.789   5.039   2.142
 7147SOL    HW122340   5.695   5.047   2.175
 7147SOL    HW222341   5.849   5.009   2.216
 7148SOL     OW22342   6.867   6.006   0.996
 7148SOL    HW122343   6.821   6.084   1.038
 7148SOL    HW222344   6.957   6.035   0.963
 7149SOL     OW22345   6.606   5.013   4.017
 7149SOL    HW122346   6.633   5.083   4.083
 7149SOL    HW222347   6.535   5.051   3.956
 7150SOL     OW22348   3.626   3.597   0.104
 7150SOL    HW122349   3.722   3.574   0.121
 7150SOL    HW222350   3.620   3.690   0.067
 7151SOL     OW22351   3.741   0.744   0.881
 7151SOL    HW122352   3.708   0.838   0.892
 7151SOL    HW222353   3.797   0.739   0.798
 7152SOL     OW22354   0.416   1.697   6.605
 7152SOL    HW122355   0.511   1.676   6.625
 7152SOL    HW222356   0.379   1.630   6.540
 7153SOL     OW22357   3.899   6.259   0.840
 7153SOL    HW122358   3.995   6.265   0.869
 7153SOL    HW222359   3.865   6.166   0.855
 7154SOL     OW22360   4.086   1.460   1.869
 7154SOL    HW122361   4.138   1.475   1.953
 7154SOL    HW222362   4.041   1.545   1.842
 7155SOL     OW22363   2.899   1.643   2.577
 7155SOL    HW122364   2.888   1.742   2.576
 7155SOL    HW222365   2.830   1.601   2.518
 7156SOL     OW22366   5.996   4.099   0.230
 7156SOL    HW122367   6.092   4.097   0.205
 7156SOL    HW222368   5.941   4.061   0.156
 7157SOL     OW22369   5.997   4.455   6.614
 7157SOL    HW122370   5.909   4.494   6.586
 7157SOL    HW222371   6.071   4.515   6.584
 7158SOL     OW22372   4.921   6.733   3.653
 7158SOL    HW122373   4.930   6.823   3.611
 7158SOL    HW222374   5.006   6.711   3.702
 7159SOL     OW22375   0.621   6.128   3.753
 7159SOL    HW122376   0.522   6.142   3.755
 7159SOL    HW222377   0.658   6.141   3.845
 7160SOL     OW22378   5.987   6.823   2.776
 7160SOL    HW122379   5.905   6.765   2.783
 7160SOL    HW222380   6.058   6.788   2.837
 7161SOL     OW22381   4.177   3.574   3.796
 7161SOL    HW122382   4.227   3.548   3.713
 7161SOL    HW222383   4.083   3.542   3.790
 7162SOL     OW22384   0.280   5.101   2.061
 7162SOL    HW122385   0.207   5.066   2.120
 7162SOL    HW222386   0.260   5.196   2.036
 7163SOL     OW22387   1.504   1.081   2.083
 7163SOL    HW122388   1.584   1.041   2.128
 7163SOL    HW222389   1.453   1.136   2.149
 7164SOL     OW22390   1.866   1.082   6.307
 7164SOL    HW122391   1.902   1.016   6.240
 7164SOL    HW222392   1.807   1.148   6.260
 7165SOL     OW22393   6.588   0.546   0.275
 7165SOL    HW122394   6.676   0.514   0.310
 7165SOL    HW222395   6.522   0.551   0.350
 7166SOL     OW22396   5.720   6.245   5.883
 7166SOL    HW122397   5.760   6.201   5.963
 7166SOL    HW222398   5.620   6.248   5.893
 7167SOL     OW22399   5.627   2.241   5.057
 7167SOL    HW122400   5.541   2.190   5.056
 7167SOL    HW222401   5.614   2.328   5.105
 7168SOL     OW22402   2.832   1.313   2.160
 7168SOL    HW122403   2.839   1.380   2.086
 7168SOL    HW222404   2.923   1.296   2.198
 7169SOL     OW22405   1.847   4.348   6.226
 7169SOL    HW122406   1.843   4.316   6.321
 7169SOL    HW222407   1.934   4.394   6.210
 7170SOL     OW22408   4.262   1.280   1.752
 7170SOL    HW122409   4.228   1.366   1.788
 7170SOL    HW222410   4.351   1.295   1.708
 7171SOL     OW22411   6.123   4.751   0.604
 7171SOL    HW122412   6.109   4.665   0.653
 7171SOL    HW222413   6.056   4.819   0.633
 7172SOL     OW22414   1.113   1.517   3.887
 7172SOL    HW122415   1.132   1.586   3.817
 7172SOL    HW222416   1.040   1.550   3.947
 7173SOL     OW22417   4.857   6.238   6.548
 7173SOL    HW122418   4.796   6.176   6.597
 7173SOL    HW222419   4.886   6.196   6.462
 7174SOL     OW22420   5.992   4.264   1.819
 7174SOL    HW122421   5.912   4.322   1.805
 7174SOL    HW222422   6.003   4.203   1.740
 7175SOL     OW22423   5.759   3.709   5.822
 7175SOL    HW122424   5.700   3.629   5.829
 7175SOL    HW222425   5.757   3.744   5.728
 7176SOL     OW22426   0.242   1.030   5.127
 7176SOL    HW122427   0.319   1.087   5.098
 7176SOL    HW222428   0.251   0.939   5.086
 7177SOL     OW22429   1.663   5.015   4.329
 7177SOL    HW122430   1.666   4.990   4.232
 7177SOL    HW222431   1.666   4.933   4.385
 7178SOL     OW22432   1.234   1.387   5.515
 7178SOL    HW122433   1.332   1.396   5.501
 7178SOL    HW222434   1.200   1.309   5.462
 7179SOL     OW22435   3.765   6.120   6.522
 7179SOL    HW122436   3.777   6.026   6.490
 7179SOL    HW222437   3.678   6.156   6.487
 7180SOL     OW22438   0.935   4.480   0.870
 7180SOL    HW122439   0.918   4.486   0.968
 7180SOL    HW222440   0.985   4.561   0.840
 7181SOL     OW22441   2.690   1.153   6.014
 7181SOL    HW122442   2.777   1.198   5.996
 7181SOL    HW222443   2.615   1.211   5.984
 7182SOL     OW22444   1.233   3.079   4.168
 7182SOL    HW122445   1.257   3.174   4.150
 7182SOL    HW222446   1.314   3.021   4.155
 7183SOL     OW22447   0.341   6.241   1.890
 7183SOL    HW122448   0.322   6.339   1.895
 7183SOL    HW222449   0.424   6.227   1.835
 7184SOL     OW22450   6.484   6.978   3.371
 7184SOL    HW122451   6.454   0.044   3.420
 7184SOL    HW222452   6.542   7.004   3.294
 7185SOL     OW22453   4.859   0.682   4.724
 7185SOL    HW122454   4.769   0.707   4.688
 7185SOL    HW222455   4.855   0.676   4.823
 7186SOL     OW22456   0.208   7.000   6.454
 7186SOL    HW122457   0.159   0.068   6.475
 7186SOL    HW222458   0.295   7.000   6.503
 7187SOL     OW22459   2.987   3.197   4.845
 7187SOL    HW122460   2.892   3.166   4.849
 7187SOL    HW222461   3.033   3.154   4.767
 7188SOL     OW22462   4.200   4.840   0.018
 7188SOL    HW122463   4.243   4.794   6.957
 7188SOL    HW222464   4.102   4.821   0.017
 7189SOL     OW22465   6.028   2.452   5.271
 7189SOL    HW122466   6.059   2.378   5.332
 7189SOL    HW222467   5.949   2.497   5.310
 7190SOL     OW22468   5.652   4.975   1.098
 7190SOL    HW122469   5.621   5.017   1.183
 7190SOL    HW222470   5.628   5.035   1.021
 7191SOL     OW22471   0.543   3.990   3.429
 7191SOL    HW122472   0.566   3.984   3.332
 7191SOL    HW222473   0.618   4.035   3.478
 7192SOL     OW22474   1.807   4.842   6.416
 7192SOL    HW122475   1.719   4.890   6.421
 7192SOL    HW222476   1.800   4.754   6.463
 7193SOL     OW22477   2.314   2.491   2.346
 7193SOL    HW122478   2.403   2.488   2.299
 7193SOL    HW222479   2.314   2.568   2.410
 7194SOL     OW22480   3.317   2.714   5.821
 7194SOL    HW122481   3.235   2.755   5.781
 7194SOL    HW222482   3.290   2.643   5.886
 7195SOL     OW22483   0.046   3.780   6.582
 7195SOL    HW122484   6.987   3.752   6.524
 7195SOL    HW222485   0.133   3.760   6.536
 7196SOL     OW22486   2.994   3.638   2.235
 7196SOL    HW122487   2.970   3.735   2.235
 7196SOL    HW222488   3.087   3.627   2.199
 7197SOL     OW22489   1.885   3.604   5.612
 7197SOL    HW122490   1.906   3.537   5.540
 7197SOL    HW222491   1.963   3.666   5.623
 7198SOL     OW22492   6.501   1.232   0.986
 7198SOL    HW122493   6.445   1.307   0.950
 7198SOL    HW222494   6.597   1.257   0.980
 7199SOL     OW22495   1.227   0.761   2.139
 7199SOL    HW122496   1.238   0.761   2.040
 7199SOL    HW222497   1.136   0.797   2.163
 7200SOL     OW22498   1.554   2.073   0.636
 7200SOL    HW122499   1.506   2.158   0.614
 7200SOL    HW222500   1.492   2.011   0.684
 7201SOL     OW22501   5.860   5.861   3.877
 7201SOL    HW122502   5.945   5.874   3.928
 7201SOL    HW222503   5.783   5.894   3.931
 7202SOL     OW22504   4.783   0.441   5.725
 7202SOL    HW122505   4.865   0.387   5.708
 7202SOL    HW222506   4.781   0.521   5.665
 7203SOL     OW22507   0.283   1.817   1.754
 7203SOL    HW122508   0.335   1.773   1.681
 7203SOL    HW222509   0.322   1.790   1.842
 7204SOL     OW22510   0.113   0.882   1.325
 7204SOL    HW122511   0.084   0.969   1.365
 7204SOL    HW222512   0.044   0.850   1.261
 7205SOL     OW22513   2.042   2.276   5.071
 7205SOL    HW122514   2.092   2.319   4.996
 7205SOL    HW222515   1.997   2.192   5.037
 7206SOL     OW22516   1.850   2.335   1.248
 7206SOL    HW122517   1.921   2.397   1.216
 7206SOL    HW222518   1.868   2.311   1.344
 7207SOL     OW22519   1.714   1.958   3.820
 7207SOL    HW122520   1.635   2.017   3.839
 7207SOL    HW222521   1.733   1.959   3.721
 7208SOL     OW22522   3.195   0.640   4.190
 7208SOL    HW122523   3.264   0.692   4.140
 7208SOL    HW222524   3.238   0.563   4.236
 7209SOL     OW22525   3.096   1.601   2.264
 7209SOL    HW122526   3.186   1.633   2.235
 7209SOL    HW222527   3.033   1.678   2.269
 7210SOL     OW22528   2.611   1.727   3.317
 7210SOL    HW122529   2.525   1.739   3.268
 7210SOL    HW222530   2.605   1.648   3.378
 7211SOL     OW22531   3.157   5.671   5.369
 7211SOL    HW122532   3.065   5.674   5.331
 7211SOL    HW222533   3.177   5.579   5.402
 7212SOL     OW22534   5.679   4.638   6.061
 7212SOL    HW122535   5.740   4.704   6.104
 7212SOL    HW222536   5.664   4.662   5.965
 7213SOL     OW22537   3.551   1.267   0.926
 7213SOL    HW122538   3.464   1.270   0.975
 7213SOL    HW222539   3.621   1.225   0.985
 7214SOL     OW22540   0.496   1.404   6.811
 7214SOL    HW122541   0.433   1.425   6.885
 7214SOL    HW222542   0.469   1.453   6.729
 7215SOL     OW22543   6.726   2.872   3.040
 7215SOL    HW122544   6.685   2.879   3.131
 7215SOL    HW222545   6.752   2.963   3.008
 7216SOL     OW22546   3.114   6.411   3.063
 7216SOL    HW122547   3.162   6.374   3.143
 7216SOL    HW222548   3.107   6.341   2.992
 7217SOL     OW22549   1.368   4.369   3.384
 7217SOL    HW122550   1.288   4.362   3.443
 7217SOL    HW222551   1.351   4.319   3.299
 7218SOL     OW22552   6.014   3.801   4.915
 7218SOL    HW122553   6.072   3.740   4.861
 7218SOL    HW222554   5.930   3.753   4.941
 7219SOL     OW22555   3.372   5.995   1.719
 7219SOL    HW122556   3.295   5.934   1.698
 7219SOL    HW222557   3.386   5.997   1.818
 7220SOL     OW22558   6.501   4.884   4.246
 7220SOL    HW122559   6.574   4.909   4.310
 7220SOL    HW222560   6.540   4.875   4.154
 7221SOL     OW22561   3.494   5.602   5.140
 7221SOL    HW122562   3.527   5.578   5.231
 7221SOL    HW222563   3.407   5.555   5.123
 7222SOL     OW22564   6.687   6.907   3.961
 7222SOL    HW122565   6.679   6.809   3.976
 7222SOL    HW222566   6.636   6.933   3.879
 7223SOL     OW22567   1.727   2.300   0.840
 7223SOL    HW122568   1.752   2.292   0.937
 7223SOL    HW222569   1.640   2.348   0.832
 7224SOL     OW22570   4.177   2.019   3.626
 7224SOL    HW122571   4.098   2.028   3.566
 7224SOL    HW222572   4.249   1.967   3.579
 7225SOL     OW22573   1.862   6.871   1.128
 7225SOL    HW122574   1.852   6.864   1.029
 7225SOL    HW222575   1.960   6.868   1.151
 7226SOL     OW22576   6.352   0.662   6.868
 7226SOL    HW122577   6.283   0.659   6.941
 7226SOL    HW222578   6.439   0.690   6.907
 7227SOL     OW22579   3.019   0.511   2.089
 7227SOL    HW122580   2.998   0.470   2.000
 7227SOL    HW222581   2.934   0.537   2.135
 7228SOL     OW22582   0.785   2.389   2.528
 7228SOL    HW122583   0.770   2.397   2.627
 7228SOL    HW222584   0.743   2.467   2.482
 7229SOL     OW22585   6.742   0.147   4.331
 7229SOL    HW122586   6.796   0.145   4.415
 7229SOL    HW222587   6.648   0.171   4.352
 7230SOL     OW22588   2.640   4.915   4.236
 7230SOL    HW122589   2.641   4.975   4.316
 7230SOL    HW222590   2.650   4.820   4.266
 7231SOL     OW22591   4.711   1.305   6.990
 7231SOL    HW122592   4.636   1.361   0.010
 7231SOL    HW222593   4.674   1.243   6.920
 7232SOL     OW22594   5.524   6.954   2.757
 7232SOL    HW122595   5.472   6.970   2.841
 7232SOL    HW222596   5.463   6.959   2.679
 7233SOL     OW22597   6.490   1.116   5.283
 7233SOL    HW122598   6.433   1.038   5.308
 7233SOL    HW222599   6.461   1.153   5.195
 7234SOL     OW22600   5.006   3.760   3.436
 7234SOL    HW122601   4.950   3.840   3.458
 7234SOL    HW222602   4.968   3.712   3.358
 7235SOL     OW22603   6.673   5.729   1.656
 7235SOL    HW122604   6.594   5.674   1.683
 7235SOL    HW222605   6.753   5.670   1.646
 7236SOL     OW22606   2.554   2.298   3.201
 7236SOL    HW122607   2.561   2.317   3.299
 7236SOL    HW222608   2.600   2.370   3.149
 7237SOL     OW22609   5.269   0.497   6.575
 7237SOL    HW122610   5.322   0.419   6.607
 7237SOL    HW222611   5.274   0.502   6.475
 7238SOL     OW22612   4.509   3.020   6.740
 7238SOL    HW122613   4.546   2.952   6.803
 7238SOL    HW222614   4.462   3.091   6.793
 7239SOL     OW22615   0.495   3.788   2.530
 7239SOL    HW122616   0.491   3.851   2.607
 7239SOL    HW222617   0.583   3.742   2.528
 7240SOL     OW22618   6.804   1.828   6.139
 7240SOL    HW122619   6.727   1.851   6.079
 7240SOL    HW222620   6.886   1.816   6.083
 7241SOL     OW22621   2.751   0.966   1.642
 7241SOL    HW122622   2.688   1.032   1.603
 7241SOL    HW222623   2.727   0.874   1.611
 7242SOL     OW22624   0.669   5.574   3.828
 7242SOL    HW122625   0.711   5.504   3.885
 7242SOL    HW222626   0.586   5.537   3.785
 7243SOL     OW22627   6.574   4.126   6.413
 7243SOL    HW122628   6.669   4.112   6.443
 7243SOL    HW222629   6.570   4.120   6.313
 7244SOL     OW22630   0.291   6.354   6.784
 7244SOL    HW122631   0.232   6.426   6.748
 7244SOL    HW222632   0.374   6.349   6.730
 7245SOL     OW22633   1.492   2.848   6.923
 7245SOL    HW122634   1.524   2.881   6.834
 7245SOL    HW222635   1.402   2.805   6.911
 7246SOL     OW22636   2.887   0.353   4.255
 7246SOL    HW122637   2.797   0.348   4.298
 7246SOL    HW222638   2.956   0.375   4.325
 7247SOL     OW22639   2.800   2.495   5.296
 7247SOL    HW122640   2.854   2.571   5.332
 7247SOL    HW222641   2.860   2.415   5.284
 7248SOL     OW22642   3.273   0.622   4.763
 7248SOL    HW122643   3.333   0.555   4.718
 7248SOL    HW222644   3.327   0.701   4.791
 7249SOL     OW22645   4.103   5.021   1.984
 7249SOL    HW122646   4.006   5.041   2.001
 7249SOL    HW222647   4.144   4.986   2.068
 7250SOL     OW22648   5.250   5.446   5.434
 7250SOL    HW122649   5.166   5.490   5.401
 7250SOL    HW222650   5.307   5.420   5.356
 7251SOL     OW22651   0.604   6.140   5.385
 7251SOL    HW122652   0.646   6.225   5.352
 7251SOL    HW222653   0.505   6.152   5.391
 7252SOL     OW22654   2.983   3.903   2.236
 7252SOL    HW122655   2.926   3.945   2.307
 7252SOL    HW222656   3.077   3.937   2.244
 7253SOL     OW22657   1.386   5.863   5.569
 7253SOL    HW122658   1.381   5.765   5.548
 7253SOL    HW222659   1.388   5.915   5.484
 7254SOL     OW22660   5.590   4.366   3.533
 7254SOL    HW122661   5.578   4.291   3.598
 7254SOL    HW222662   5.679   4.357   3.488
 7255SOL     OW22663   5.359   3.128   6.466
 7255SOL    HW122664   5.374   3.200   6.399
 7255SOL    HW222665   5.301   3.057   6.426
 7256SOL     OW22666   3.424   6.776   5.956
 7256SOL    HW122667   3.369   6.833   5.896
 7256SOL    HW222668   3.403   6.796   6.051
 7257SOL     OW22669   0.183   1.761   4.483
 7257SOL    HW122670   0.242   1.681   4.472
 7257SOL    HW222671   0.231   1.843   4.454
 7258SOL     OW22672   5.692   2.352   2.200
 7258SOL    HW122673   5.655   2.413   2.130
 7258SOL    HW222674   5.640   2.363   2.285
 7259SOL     OW22675   1.249   4.084   3.276
 7259SOL    HW122676   1.166   4.040   3.309
 7259SOL    HW222677   1.329   4.032   3.309
 7260SOL     OW22678   5.560   2.437   1.022
 7260SOL    HW122679   5.507   2.352   1.025
 7260SOL    HW222680   5.596   2.457   1.113
 7261SOL     OW22681   0.324   3.921   0.731
 7261SOL    HW122682   0.381   3.999   0.756
 7261SOL    HW222683   0.380   3.848   0.692
 7262SOL     OW22684   5.395   1.928   6.030
 7262SOL    HW122685   5.311   1.918   6.083
 7262SOL    HW222686   5.473   1.900   6.085
 7263SOL     OW22687   0.093   6.473   0.249
 7263SOL    HW122688   0.142   6.386   0.244
 7263SOL    HW222689   0.106   6.513   0.340
 7264SOL     OW22690   5.693   1.540   0.322
 7264SOL    HW122691   5.700   1.446   0.355
 7264SOL    HW222692   5.781   1.568   0.283
 7265SOL     OW22693   5.147   5.964   4.701
 7265SOL    HW122694   5.216   6.000   4.764
 7265SOL    HW222695   5.085   5.903   4.751
 7266SOL     OW22696   6.747   1.006   3.894
 7266SOL    HW122697   6.784   1.094   3.864
 7266SOL    HW222698   6.666   0.984   3.839
 7267SOL     OW22699   6.407   5.811   5.356
 7267SOL    HW122700   6.391   5.861   5.441
 7267SOL    HW222701   6.339   5.837   5.288
 7268SOL     OW22702   6.400   5.807   4.433
 7268SOL    HW122703   6.422   5.905   4.426
 7268SOL    HW222704   6.433   5.760   4.350
 7269SOL     OW22705   1.845   4.991   5.371
 7269SOL    HW122706   1.796   5.037   5.446
 7269SOL    HW222707   1.926   4.946   5.406
 7270SOL     OW22708   0.352   2.000   4.247
 7270SOL    HW122709   0.411   2.075   4.217
 7270SOL    HW222710   0.296   1.968   4.171
 7271SOL     OW22711   1.383   4.959   4.083
 7271SOL    HW122712   1.330   4.882   4.118
 7271SOL    HW222713   1.411   4.939   3.989
 7272SOL     OW22714   5.995   6.527   2.013
 7272SOL    HW122715   5.998   6.612   1.960
 7272SOL    HW222716   6.062   6.463   1.978
 7273SOL     OW22717   5.848   2.693   5.992
 7273SOL    HW122718   5.908   2.772   5.977
 7273SOL    HW222719   5.848   2.636   5.910
 7274SOL     OW22720   0.655   4.507   6.505
 7274SOL    HW122721   0.678   4.456   6.588
 7274SOL    HW222722   0.680   4.454   6.425
 7275SOL     OW22723   6.761   6.836   2.800
 7275SOL    HW122724   6.754   6.926   2.755
 7275SOL    HW222725   6.692   6.830   2.872
 7276SOL     OW22726   5.577   0.061   3.598
 7276SOL    HW122727   5.551   0.147   3.641
 7276SOL    HW222728   5.515   7.005   3.630
 7277SOL     OW22729   4.558   0.913   5.571
 7277SOL    HW122730   4.587   1.009   5.572
 7277SOL    HW222731   4.542   0.882   5.664
 7278SOL     OW22732   2.976   3.960   1.928
 7278SOL    HW122733   2.991   4.032   1.860
 7278SOL    HW222734   2.951   4.001   2.015
 7279SOL     OW22735   4.139   6.030   0.039
 7279SOL    HW122736   4.218   6.078   0.001
 7279SOL    HW222737   4.055   6.067   7.015
 7280SOL     OW22738   5.408   0.245   4.930
 7280SOL    HW122739   5.469   0.314   4.891
 7280SOL    HW222740   5.315   0.262   4.899
 7281SOL     OW22741   3.219   1.943   6.741
 7281SOL    HW122742   3.267   1.861   6.712
 7281SOL    HW222743   3.213   1.945   6.841
 7282SOL     OW22744   5.628   4.856   2.534
 7282SOL    HW122745   5.580   4.867   2.621
 7282SOL    HW222746   5.700   4.925   2.526
 7283SOL     OW22747   2.557   1.401   3.066
 7283SOL    HW122748   2.652   1.375   3.046
 7283SOL    HW222749   2.538   1.490   3.025
 7284SOL     OW22750   0.322   4.018   5.410
 7284SOL    HW122751   0.400   4.079   5.428
 7284SOL    HW222752   0.295   4.027   5.314
 7285SOL     OW22753   5.006   4.960   2.516
 7285SOL    HW122754   4.960   4.934   2.431
 7285SOL    HW222755   4.954   4.926   2.594
 7286SOL     OW22756   2.223   2.194   1.211
 7286SOL    HW122757   2.209   2.134   1.290
 7286SOL    HW222758   2.227   2.138   1.128
 7287SOL     OW22759   0.354   1.464   6.459
 7287SOL    HW122760   0.443   1.420   6.463
 7287SOL    HW222761   0.328   1.477   6.364
 7288SOL     OW22762   3.734   0.993   6.172
 7288SOL    HW122763   3.634   0.993   6.174
 7288SOL    HW222764   3.768   1.081   6.207
 7289SOL     OW22765   5.842   1.556   3.262
 7289SOL    HW122766   5.892   1.642   3.278
 7289SOL    HW222767   5.882   1.510   3.183
 7290SOL     OW22768   2.723   5.503   5.616
 7290SOL    HW122769   2.821   5.490   5.598
 7290SOL    HW222770   2.676   5.526   5.530
 7291SOL     OW22771   2.302   0.087   1.499
 7291SOL    HW122772   2.388   0.136   1.487
 7291SOL    HW222773   2.261   0.069   1.409
 7292SOL     OW22774   2.709   7.013   3.689
 7292SOL    HW122775   2.704   6.914   3.679
 7292SOL    HW222776   2.803   0.027   3.673
 7293SOL     OW22777   1.881   1.642   5.212
 7293SOL    HW122778   1.973   1.666   5.179
 7293SOL    HW222779   1.889   1.570   5.281
 7294SOL     OW22780   2.652   5.028   0.295
 7294SOL    HW122781   2.587   4.955   0.313
 7294SOL    HW222782   2.730   5.020   0.357
 7295SOL     OW22783   0.500   1.759   0.816
 7295SOL    HW122784   0.559   1.831   0.780
 7295SOL    HW222785   0.535   1.729   0.905
 7296SOL     OW22786   3.008   4.671   1.145
 7296SOL    HW122787   2.984   4.687   1.241
 7296SOL    HW222788   2.977   4.749   1.090
 7297SOL     OW22789   3.958   5.919   0.636
 7297SOL    HW122790   3.905   6.002   0.651
 7297SOL    HW222791   3.948   5.858   0.715
 7298SOL     OW22792   5.558   4.099   5.193
 7298SOL    HW122793   5.589   4.021   5.246
 7298SOL    HW222794   5.544   4.177   5.254
 7299SOL     OW22795   0.557   2.252   6.861
 7299SOL    HW122796   0.633   2.239   6.923
 7299SOL    HW222797   0.550   2.348   6.835
 7300SOL     OW22798   5.367   5.617   1.739
 7300SOL    HW122799   5.439   5.606   1.807
 7300SOL    HW222800   5.382   5.551   1.664
 7301SOL     OW22801   6.886   0.930   5.102
 7301SOL    HW122802   6.913   0.914   5.197
 7301SOL    HW222803   6.789   0.908   5.090
 7302SOL     OW22804   0.459   1.460   0.376
 7302SOL    HW122805   0.366   1.486   0.350
 7302SOL    HW222806   0.516   1.456   0.295
 7303SOL     OW22807   4.862   0.449   6.689
 7303SOL    HW122808   4.945   0.490   6.649
 7303SOL    HW222809   4.885   0.360   6.729
 7304SOL     OW22810   3.615   4.144   6.703
 7304SOL    HW122811   3.697   4.135   6.760
 7304SOL    HW222812   3.632   4.100   6.614
 7305SOL     OW22813   5.101   1.720   0.354
 7305SOL    HW122814   5.057   1.652   0.415
 7305SOL    HW222815   5.066   1.811   0.376
 7306SOL     OW22816   5.020   3.738   1.533
 7306SOL    HW122817   5.117   3.726   1.552
 7306SOL    HW222818   4.982   3.651   1.500
 7307SOL     OW22819   2.892   6.236   1.409
 7307SOL    HW122820   2.912   6.327   1.444
 7307SOL    HW222821   2.888   6.238   1.309
 7308SOL     OW22822   6.676   3.830   5.732
 7308SOL    HW122823   6.747   3.769   5.696
 7308SOL    HW222824   6.586   3.788   5.720
 7309SOL     OW22825   5.255   5.994   0.349
 7309SOL    HW122826   5.312   5.920   0.387
 7309SOL    HW222827   5.254   5.987   0.249
 7310SOL     OW22828   1.991   4.420   1.154
 7310SOL    HW122829   1.891   4.419   1.145
 7310SOL    HW222830   2.033   4.401   1.065
 7311SOL     OW22831   3.256   1.850   2.448
 7311SOL    HW122832   3.159   1.842   2.471
 7311SOL    HW222833   3.277   1.945   2.425
 7312SOL     OW22834   0.107   2.673   5.802
 7312SOL    HW122835   0.200   2.652   5.833
 7312SOL    HW222836   0.050   2.591   5.810
 7313SOL     OW22837   4.736   2.752   6.121
 7313SOL    HW122838   4.724   2.671   6.179
 7313SOL    HW222839   4.647   2.782   6.087
 7314SOL     OW22840   6.616   3.968   5.067
 7314SOL    HW122841   6.618   4.005   5.160
 7314SOL    HW222842   6.523   3.937   5.046
 7315SOL     OW22843   6.176   0.391   3.336
 7315SOL    HW122844   6.119   0.437   3.267
 7315SOL    HW222845   6.221   0.460   3.392
 7316SOL     OW22846   3.095   3.551   5.882
 7316SOL    HW122847   3.166   3.613   5.914
 7316SOL    HW222848   3.135   3.487   5.816
 7317SOL     OW22849   4.649   0.536   1.556
 7317SOL    HW122850   4.640   0.473   1.478
 7317SOL    HW222851   4.653   0.630   1.523
 7318SOL     OW22852   0.777   1.468   1.042
 7318SOL    HW122853   0.717   1.399   1.081
 7318SOL    HW222854   0.869   1.458   1.080
 7319SOL     OW22855   6.469   4.416   6.860
 7319SOL    HW122856   6.484   4.318   6.853
 7319SOL    HW222857   6.497   4.460   6.775
 7320SOL     OW22858   6.734   3.503   2.158
 7320SOL    HW122859   6.714   3.542   2.068
 7320SOL    HW222860   6.826   3.531   2.187
 7321SOL     OW22861   2.569   0.603   5.054
 7321SOL    HW122862   2.634   0.679   5.060
 7321SOL    HW222863   2.572   0.550   5.139
 7322SOL     OW22864   1.241   3.304   2.547
 7322SOL    HW122865   1.323   3.264   2.506
 7322SOL    HW222866   1.165   3.297   2.482
 7323SOL     OW22867   2.062   2.247   2.080
 7323SOL    HW122868   2.070   2.284   2.173
 7323SOL    HW222869   2.070   2.321   2.014
 7324SOL     OW22870   5.421   6.614   2.797
 7324SOL    HW122871   5.411   6.705   2.838
 7324SOL    HW222872   5.385   6.546   2.860
 7325SOL     OW22873   4.034   0.749   5.945
 7325SOL    HW122874   4.111   0.774   6.004
 7325SOL    HW222875   4.027   0.649   5.939
 7326SOL     OW22876   2.049   6.210   5.336
 7326SOL    HW122877   2.090   6.175   5.420
 7326SOL    HW222878   2.121   6.224   5.268
 7327SOL     OW22879   6.770   3.111   5.744
 7327SOL    HW122880   6.774   3.082   5.840
 7327SOL    HW222881   6.849   3.075   5.695
 7328SOL     OW22882   3.663   0.097   6.893
 7328SOL    HW122883   3.749   0.069   6.935
 7328SOL    HW222884   3.619   0.018   6.850
 7329SOL     OW22885   4.209   4.091   1.283
 7329SOL    HW122886   4.212   4.040   1.369
 7329SOL    HW222887   4.204   4.026   1.207
 7330SOL     OW22888   2.748   1.967   0.250
 7330SOL    HW122889   2.692   1.956   0.333
 7330SOL    HW222890   2.763   2.064   0.233
 7331SOL     OW22891   5.908   0.408   1.390
 7331SOL    HW122892   5.946   0.499   1.372
 7331SOL    HW222893   5.899   0.395   1.489
 7332SOL     OW22894   2.789   5.553   0.174
 7332SOL    HW122895   2.803   5.454   0.177
 7332SOL    HW222896   2.710   5.575   0.117
 7333SOL     OW22897   0.251   3.550   3.899
 7333SOL    HW122898   0.262   3.550   3.800
 7333SOL    HW222899   0.281   3.462   3.936
 7334SOL     OW22900   4.470   5.913   6.334
 7334SOL    HW122901   4.407   5.838   6.311
 7334SOL    HW222902   4.422   6.000   6.326
 7335SOL     OW22903   1.784   2.895   2.197
 7335SOL    HW122904   1.765   2.970   2.260
 7335SOL    HW222905   1.835   2.824   2.244
 7336SOL     OW22906   1.502   6.303   3.144
 7336SOL    HW122907   1.511   6.354   3.230
 7336SOL    HW222908   1.409   6.267   3.136
 7337SOL     OW22909   0.943   3.086   2.416
 7337SOL    HW122910   0.928   3.099   2.514
 7337SOL    HW222911   0.864   3.041   2.375
 7338SOL     OW22912   6.302   2.250   1.324
 7338SOL    HW122913   6.328   2.169   1.377
 7338SOL    HW222914   6.316   2.332   1.379
 7339SOL     OW22915   5.422   6.154   3.628
 7339SOL    HW122916   5.348   6.109   3.577
 7339SOL    HW222917   5.391   6.175   3.721
 7340SOL     OW22918   1.902   0.311   0.651
 7340SOL    HW122919   1.812   0.356   0.646
 7340SOL    HW222920   1.944   0.312   0.560
 7341SOL     OW22921   6.763   2.140   0.234
 7341SOL    HW122922   6.685   2.116   0.175
 7341SOL    HW222923   6.730   2.170   0.323
 7342SOL     OW22924   6.536   0.258   2.072
 7342SOL    HW122925   6.572   0.186   2.012
 7342SOL    HW222926   6.517   0.220   2.162
 7343SOL     OW22927   4.138   2.702   0.316
 7343SOL    HW122928   4.065   2.733   0.255
 7343SOL    HW222929   4.126   2.743   0.406
 7344SOL     OW22930   1.154   6.997   6.001
 7344SOL    HW122931   1.172   6.938   6.080
 7344SOL    HW222932   1.226   6.984   5.932
 7345SOL     OW22933   3.623   3.353   5.323
 7345SOL    HW122934   3.696   3.420   5.309
 7345SOL    HW222935   3.662   3.266   5.353
 7346SOL     OW22936   4.107   6.798   2.688
 7346SOL    HW122937   4.125   6.810   2.785
 7346SOL    HW222938   4.029   6.854   2.661
 7347SOL     OW22939   0.330   2.131   6.951
 7347SOL    HW122940   0.416   2.159   6.909
 7347SOL    HW222941   0.255   2.148   6.888
 7348SOL     OW22942   1.796   3.622   3.726
 7348SOL    HW122943   1.715   3.576   3.690
 7348SOL    HW222944   1.851   3.556   3.778
 7349SOL     OW22945   4.635   0.433   0.800
 7349SOL    HW122946   4.629   0.530   0.778
 7349SOL    HW222947   4.724   0.398   0.770
 7350SOL     OW22948   2.699   0.671   5.483
 7350SOL    HW122949   2.619   0.620   5.516
 7350SOL    HW222950   2.759   0.692   5.560
 7351SOL     OW22951   5.142   5.028   3.961
 7351SOL    HW122952   5.143   5.110   3.903
 7351SOL    HW222953   5.054   5.021   4.008
 7352SOL     OW22954   0.839   1.977   3.000
 7352SOL    HW122955   0.917   2.017   2.953
 7352SOL    HW222956   0.756   1.991   2.946
 7353SOL     OW22957   6.641   0.352   6.740
 7353SOL    HW122958   6.711   0.315   6.679
 7353SOL    HW222959   6.570   0.284   6.755
 7354SOL     OW22960   1.608   0.420   4.059
 7354SOL    HW122961   1.661   0.366   4.124
 7354SOL    HW222962   1.670   0.466   3.995
 7355SOL     OW22963   0.325   1.872   6.378
 7355SOL    HW122964   0.361   1.820   6.301
 7355SOL    HW222965   0.325   1.815   6.460
 7356SOL     OW22966   3.891   3.832   6.194
 7356SOL    HW122967   3.810   3.774   6.193
 7356SOL    HW222968   3.898   3.879   6.106
 7357SOL     OW22969   3.802   5.870   1.613
 7357SOL    HW122970   3.813   5.883   1.712
 7357SOL    HW222971   3.850   5.787   1.585
 7358SOL     OW22972   5.908   2.556   2.276
 7358SOL    HW122973   5.829   2.617   2.281
 7358SOL    HW222974   5.882   2.471   2.231
 7359SOL     OW22975   4.167   2.069   6.173
 7359SOL    HW122976   4.092   2.132   6.191
 7359SOL    HW222977   4.144   1.978   6.208
 7360SOL     OW22978   2.244   3.426   5.282
 7360SOL    HW122979   2.273   3.338   5.318
 7360SOL    HW222980   2.310   3.497   5.309
 7361SOL     OW22981   5.302   0.583   2.446
 7361SOL    HW122982   5.257   0.537   2.370
 7361SOL    HW222983   5.358   0.658   2.412
 7362SOL     OW22984   3.800   5.164   5.764
 7362SOL    HW122985   3.891   5.166   5.722
 7362SOL    HW222986   3.804   5.108   5.847
 7363SOL     OW22987   4.067   1.188   1.583
 7363SOL    HW122988   4.098   1.233   1.667
 7363SOL    HW222989   4.079   1.089   1.592
 7364SOL     OW22990   4.359   0.070   1.634
 7364SOL    HW122991   4.425   0.144   1.647
 7364SOL    HW222992   4.386   7.008   1.690
 7365SOL     OW22993   6.242   5.747   2.607
 7365SOL    HW122994   6.340   5.766   2.616
 7365SOL    HW222995   6.222   5.658   2.648
 7366SOL     OW22996   2.348   0.286   4.413
 7366SOL    HW122997   2.252   0.314   4.417
 7366SOL    HW222998   2.357   0.190   4.438
 7367SOL     OW22999   4.526   2.021   0.449
 7367SOL    HW123000   4.501   2.087   0.377
 7367SOL    HW223001   4.506   2.061   0.538
 7368SOL     OW23002   3.555   3.396   2.416
 7368SOL    HW123003   3.522   3.345   2.495
 7368SOL    HW223004   3.491   3.385   2.340
 7369SOL     OW23005   3.916   2.498   1.134
 7369SOL    HW123006   3.880   2.583   1.172
 7369SOL    HW223007   3.864   2.420   1.170
 7370SOL     OW23008   2.451   2.142   5.099
 7370SOL    HW123009   2.526   2.207   5.090
 7370SOL    HW223010   2.423   2.110   5.008
 7371SOL     OW23011   3.405   6.807   3.792
 7371SOL    HW123012   3.473   6.805   3.865
 7371SOL    HW223013   3.379   6.902   3.773
 7372SOL     OW23014   3.775   6.620   4.801
 7372SOL    HW123015   3.717   6.549   4.760
 7372SOL    HW223016   3.730   6.657   4.882
 7373SOL     OW23017   4.636   1.943   4.729
 7373SOL    HW123018   4.614   1.901   4.817
 7373SOL    HW223019   4.563   2.008   4.704
 7374SOL     OW23020   1.365   1.654   5.222
 7374SOL    HW123021   1.360   1.729   5.155
 7374SOL    HW223022   1.273   1.630   5.252
 7375SOL     OW23023   2.059   3.204   2.281
 7375SOL    HW123024   2.118   3.134   2.320
 7375SOL    HW223025   2.078   3.213   2.183
 7376SOL     OW23026   1.292   3.699   0.848
 7376SOL    HW123027   1.199   3.734   0.853
 7376SOL    HW223028   1.318   3.660   0.936
 7377SOL     OW23029   3.536   5.177   6.932
 7377SOL    HW123030   3.517   5.188   0.013
 7377SOL    HW223031   3.588   5.256   6.899
 7378SOL     OW23032   1.600   6.389   3.901
 7378SOL    HW123033   1.535   6.355   3.833
 7378SOL    HW223034   1.613   6.487   3.888
 7379SOL     OW23035   3.486   0.242   1.247
 7379SOL    HW123036   3.445   0.312   1.305
 7379SOL    HW223037   3.555   0.192   1.299
 7380SOL     OW23038   6.446   4.417   3.527
 7380SOL    HW123039   6.499   4.444   3.607
 7380SOL    HW223040   6.374   4.353   3.555
 7381SOL     OW23041   4.198   2.080   1.074
 7381SOL    HW123042   4.141   2.055   1.152
 7381SOL    HW223043   4.146   2.140   1.013
 7382SOL     OW23044   6.456   2.041   5.744
 7382SOL    HW123045   6.475   2.030   5.647
 7382SOL    HW223046   6.367   2.002   5.766
 7383SOL     OW23047   1.585   6.166   2.054
 7383SOL    HW123048   1.661   6.230   2.061
 7383SOL    HW223049   1.513   6.205   1.996
 7384SOL     OW23050   0.046   6.785   1.250
 7384SOL    HW123051   0.079   6.792   1.156
 7384SOL    HW223052   7.016   6.698   1.262
 7385SOL     OW23053   3.252   4.855   2.495
 7385SOL    HW123054   3.311   4.895   2.425
 7385SOL    HW223055   3.305   4.838   2.578
 7386SOL     OW23056   7.013   3.454   6.953
 7386SOL    HW123057   6.957   3.378   6.986
 7386SOL    HW223058   6.969   3.496   6.874
 7387SOL     OW23059   5.706   4.782   5.820
 7387SOL    HW123060   5.629   4.782   5.757
 7387SOL    HW223061   5.789   4.754   5.772
 7388SOL     OW23062   1.295   5.930   2.595
 7388SOL    HW123063   1.373   5.909   2.654
 7388SOL    HW223064   1.307   6.021   2.556
 7389SOL     OW23065   0.036   3.232   0.263
 7389SOL    HW123066   6.963   3.252   0.303
 7389SOL    HW223067   0.063   3.139   0.288
 7390SOL     OW23068   2.793   1.962   2.739
 7390SOL    HW123069   2.820   2.013   2.658
 7390SOL    HW223070   2.858   1.979   2.813
 7391SOL     OW23071   4.098   3.550   2.355
 7391SOL    HW123072   4.167   3.480   2.376
 7391SOL    HW223073   4.066   3.592   2.439
 7392SOL     OW23074   4.313   6.129   6.338
 7392SOL    HW123075   4.268   6.097   6.421
 7392SOL    HW223076   4.389   6.190   6.362
 7393SOL     OW23077   6.223   4.746   3.770
 7393SOL    HW123078   6.205   4.843   3.758
 7393SOL    HW223079   6.235   4.726   3.867
 7394SOL     OW23080   2.271   2.531   6.326
 7394SOL    HW123081   2.220   2.496   6.404
 7394SOL    HW223082   2.343   2.593   6.358
 7395SOL     OW23083   2.208   3.366   1.201
 7395SOL    HW123084   2.186   3.276   1.163
 7395SOL    HW223085   2.291   3.359   1.256
 7396SOL     OW23086   2.667   5.557   1.703
 7396SOL    HW123087   2.656   5.462   1.673
 7396SOL    HW223088   2.613   5.617   1.644
 7397SOL     OW23089   5.127   4.263   4.794
 7397SOL    HW123090   5.172   4.320   4.725
 7397SOL    HW223091   5.034   4.242   4.765
 7398SOL     OW23092   1.410   4.646   3.172
 7398SOL    HW123093   1.444   4.599   3.091
 7398SOL    HW223094   1.432   4.593   3.253
 7399SOL     OW23095   6.142   3.026   4.657
 7399SOL    HW123096   6.096   2.986   4.578
 7399SOL    HW223097   6.078   3.082   4.709
 7400SOL     OW23098   5.762   2.359   5.461
 7400SOL    HW123099   5.799   2.302   5.535
 7400SOL    HW223100   5.757   2.306   5.377
 7401SOL     OW23101   1.528   3.245   2.878
 7401SOL    HW123102   1.548   3.161   2.829
 7401SOL    HW223103   1.442   3.235   2.929
 7402SOL     OW23104   2.632   5.705   5.170
 7402SOL    HW123105   2.615   5.619   5.122
 7402SOL    HW223106   2.587   5.780   5.121
 7403SOL     OW23107   2.158   3.187   3.524
 7403SOL    HW123108   2.107   3.114   3.477
 7403SOL    HW223109   2.226   3.146   3.584
 7404SOL     OW23110   3.142   3.857   1.565
 7404SOL    HW123111   3.201   3.930   1.599
 7404SOL    HW223112   3.056   3.857   1.616
 7405SOL     OW23113   2.936   5.601   5.154
 7405SOL    HW123114   2.919   5.503   5.142
 7405SOL    HW223115   2.891   5.633   5.237
 7406SOL     OW23116   0.412   1.511   5.298
 7406SOL    HW123117   0.456   1.571   5.231
 7406SOL    HW223118   0.457   1.422   5.296
 7407SOL     OW23119   0.663   6.031   6.711
 7407SOL    HW123120   0.609   5.955   6.674
 7407SOL    HW223121   0.635   6.049   6.805
 7408SOL     OW23122   3.345   4.118   5.178
 7408SOL    HW123123   3.361   4.208   5.218
 7408SOL    HW223124   3.398   4.109   5.094
 7409SOL     OW23125   5.657   4.196   0.101
 7409SOL    HW123126   5.641   4.272   0.164
 7409SOL    HW223127   5.712   4.228   0.023
 7410SOL     OW23128   0.219   0.383   0.989
 7410SOL    HW123129   0.171   0.367   0.902
 7410SOL    HW223130   0.318   0.388   0.972
 7411SOL     OW23131   0.809   2.126   5.995
 7411SOL    HW123132   0.790   2.074   6.078
 7411SOL    HW223133   0.755   2.211   5.995
 7412SOL     OW23134   3.494   6.931   0.110
 7412SOL    HW123135   3.572   6.915   0.049
 7412SOL    HW223136   3.470   0.011   0.109
 7413SOL     OW23137   4.336   5.104   3.292
 7413SOL    HW123138   4.307   5.009   3.283
 7413SOL    HW223139   4.435   5.111   3.276
 7414SOL     OW23140   2.316   1.941   4.291
 7414SOL    HW123141   2.264   1.993   4.359
 7414SOL    HW223142   2.402   1.987   4.272
 7415SOL     OW23143   3.667   7.013   6.498
 7415SOL    HW123144   3.677   6.914   6.500
 7415SOL    HW223145   3.570   0.021   6.504
 7416SOL     OW23146   0.809   1.376   2.326
 7416SOL    HW123147   0.844   1.312   2.395
 7416SOL    HW223148   0.861   1.461   2.331
 7417SOL     OW23149   1.350   2.616   3.451
 7417SOL    HW123150   1.371   2.635   3.355
 7417SOL    HW223151   1.363   2.699   3.505
 7418SOL     OW23152   1.882   4.694   6.168
 7418SOL    HW123153   1.908   4.757   6.242
 7418SOL    HW223154   1.948   4.619   6.164
 7419SOL     OW23155   6.265   3.881   3.576
 7419SOL    HW123156   6.196   3.861   3.507
 7419SOL    HW223157   6.295   3.796   3.620
 7420SOL     OW23158   6.869   6.348   2.201
 7420SOL    HW123159   6.794   6.309   2.149
 7420SOL    HW223160   6.834   6.415   2.266
 7421SOL     OW23161   4.686   3.431   1.686
 7421SOL    HW123162   4.615   3.362   1.677
 7421SOL    HW223163   4.652   3.518   1.651
 7422SOL     OW23164   5.719   2.708   2.147
 7422SOL    HW123165   5.772   2.742   2.070
 7422SOL    HW223166   5.621   2.711   2.125
 7423SOL     OW23167   5.896   1.849   5.922
 7423SOL    HW123168   5.800   1.860   5.947
 7423SOL    HW223169   5.902   1.802   5.833
 7424SOL     OW23170   0.165   1.171   5.370
 7424SOL    HW123171   0.080   1.191   5.321
 7424SOL    HW223172   0.222   1.254   5.373
 7425SOL     OW23173   5.356   0.051   0.190
 7425SOL    HW123174   5.377   0.148   0.185
 7425SOL    HW223175   5.415   0.007   0.258
 7426SOL     OW23176   3.869   2.676   6.417
 7426SOL    HW123177   3.798   2.740   6.389
 7426SOL    HW223178   3.959   2.711   6.388
 7427SOL     OW23179   3.384   1.059   4.086
 7427SOL    HW123180   3.356   1.071   3.991
 7427SOL    HW223181   3.483   1.048   4.091
 7428SOL     OW23182   3.799   6.562   5.898
 7428SOL    HW123183   3.719   6.610   5.863
 7428SOL    HW223184   3.780   6.526   5.989
 7429SOL     OW23185   1.107   6.829   2.588
 7429SOL    HW123186   1.012   6.817   2.559
 7429SOL    HW223187   1.134   6.924   2.576
 7430SOL     OW23188   6.843   4.761   3.026
 7430SOL    HW123189   6.747   4.759   3.056
 7430SOL    HW223190   6.880   4.668   3.028
 7431SOL     OW23191   2.020   2.450   4.662
 7431SOL    HW123192   1.925   2.429   4.639
 7431SOL    HW223193   2.063   2.498   4.585
 7432SOL     OW23194   2.004   0.547   3.430
 7432SOL    HW123195   1.949   0.494   3.365
 7432SOL    HW223196   2.070   0.603   3.379
 7433SOL     OW23197   3.300   6.697   6.539
 7433SOL    HW123198   3.358   6.629   6.584
 7433SOL    HW223199   3.206   6.663   6.533
 7434SOL     OW23200   4.676   6.133   5.844
 7434SOL    HW123201   4.662   6.181   5.930
 7434SOL    HW223202   4.716   6.043   5.861
 7435SOL     OW23203   4.728   6.763   2.034
 7435SOL    HW123204   4.682   6.835   1.983
 7435SOL    HW223205   4.811   6.735   1.985
 7436SOL     OW23206   5.189   3.894   6.544
 7436SOL    HW123207   5.285   3.920   6.545
 7436SOL    HW223208   5.164   3.855   6.633
 7437SOL     OW23209   3.122   5.585   1.290
 7437SOL    HW123210   3.167   5.645   1.224
 7437SOL    HW223211   3.102   5.497   1.247
 7438SOL     OW23212   2.230   0.908   0.605
 7438SOL    HW123213   2.317   0.924   0.558
 7438SOL    HW223214   2.170   0.987   0.592
 7439SOL     OW23215   1.728   5.210   6.214
 7439SOL    HW123216   1.675   5.125   6.203
 7439SOL    HW223217   1.794   5.198   6.288
 7440SOL     OW23218   4.800   3.077   4.221
 7440SOL    HW123219   4.777   3.076   4.318
 7440SOL    HW223220   4.874   3.141   4.204
 7441SOL     OW23221   5.667   6.293   2.179
 7441SOL    HW123222   5.619   6.222   2.127
 7441SOL    HW223223   5.745   6.252   2.226
 7442SOL     OW23224   5.534   0.601   5.764
 7442SOL    HW123225   5.538   0.501   5.767
 7442SOL    HW223226   5.439   0.630   5.754
 7443SOL     OW23227   0.096   6.071   1.980
 7443SOL    HW123228   0.105   5.983   2.027
 7443SOL    HW223229   0.186   6.113   1.971
 7444SOL     OW23230   0.485   0.434   5.923
 7444SOL    HW123231   0.386   0.438   5.941
 7444SOL    HW223232   0.501   0.437   5.824
 7445SOL     OW23233   3.968   6.686   2.129
 7445SOL    HW123234   3.978   6.723   2.037
 7445SOL    HW223235   3.936   6.758   2.191
 7446SOL     OW23236   4.882   3.108   0.300
 7446SOL    HW123237   4.957   3.174   0.305
 7446SOL    HW223238   4.886   3.060   0.213
 7447SOL     OW23239   0.860   4.274   0.126
 7447SOL    HW123240   0.766   4.240   0.122
 7447SOL    HW223241   0.866   4.350   0.190
 7448SOL     OW23242   4.932   6.044   6.396
 7448SOL    HW123243   4.996   6.032   6.320
 7448SOL    HW223244   4.978   6.021   6.481
 7449SOL     OW23245   0.706   4.641   0.366
 7449SOL    HW123246   0.650   4.688   0.433
 7449SOL    HW223247   0.650   4.611   0.289
 7450SOL     OW23248   5.158   1.992   5.802
 7450SOL    HW123249   5.251   2.020   5.778
 7450SOL    HW223250   5.161   1.917   5.868
 7451SOL     OW23251   5.633   5.223   2.419
 7451SOL    HW123252   5.706   5.157   2.439
 7451SOL    HW223253   5.568   5.183   2.354
 7452SOL     OW23254   5.363   6.363   4.971
 7452SOL    HW123255   5.356   6.462   4.959
 7452SOL    HW223256   5.365   6.342   5.069
 7453SOL     OW23257   4.662   5.430   6.325
 7453SOL    HW123258   4.645   5.445   6.423
 7453SOL    HW223259   4.730   5.496   6.293
 7454SOL     OW23260   3.442   1.872   0.578
 7454SOL    HW123261   3.440   1.880   0.479
 7454SOL    HW223262   3.532   1.838   0.607
 7455SOL     OW23263   6.578   2.879   2.666
 7455SOL    HW123264   6.655   2.867   2.603
 7455SOL    HW223265   6.511   2.806   2.651
 7456SOL     OW23266   2.316   2.338   5.294
 7456SOL    HW123267   2.376   2.378   5.225
 7456SOL    HW223268   2.354   2.251   5.325
 7457SOL     OW23269   2.419   6.882   3.508
 7457SOL    HW123270   2.470   6.797   3.496
 7457SOL    HW223271   2.361   6.876   3.589
 7458SOL     OW23272   0.796   6.373   4.715
 7458SOL    HW123273   0.826   6.433   4.790
 7458SOL    HW223274   0.715   6.411   4.672
 7459SOL     OW23275   6.508   1.003   2.781
 7459SOL    HW123276   6.569   0.924   2.790
 7459SOL    HW223277   6.506   1.052   2.868
 7460SOL     OW23278   1.507   6.669   0.355
 7460SOL    HW123279   1.581   6.607   0.379
 7460SOL    HW223280   1.426   6.615   0.329
 7461SOL     OW23281   0.570   5.668   6.001
 7461SOL    HW123282   0.649   5.713   5.961
 7461SOL    HW223283   0.583   5.659   6.100
 7462SOL     OW23284   1.189   5.602   1.058
 7462SOL    HW123285   1.150   5.513   1.036
 7462SOL    HW223286   1.280   5.590   1.097
 7463SOL     OW23287   3.990   4.599   6.955
 7463SOL    HW123288   3.951   4.657   6.884
 7463SOL    HW223289   4.060   4.540   6.915
 7464SOL     OW23290   0.137   5.214   4.585
 7464SOL    HW123291   0.201   5.170   4.522
 7464SOL    HW223292   0.164   5.194   4.679
 7465SOL     OW23293   2.437   5.031   0.095
 7465SOL    HW123294   2.513   5.058   0.154
 7465SOL    HW223295   2.471   4.971   0.023
 7466SOL     OW23296   0.955   0.253   5.059
 7466SOL    HW123297   0.917   0.326   5.003
 7466SOL    HW223298   0.963   0.283   5.154
 7467SOL     OW23299   0.129   3.504   5.997
 7467SOL    HW123300   0.071   3.440   6.047
 7467SOL    HW223301   0.111   3.496   5.899
 7468SOL     OW23302   5.325   2.665   5.391
 7468SOL    HW123303   5.417   2.627   5.403
 7468SOL    HW223304   5.318   2.751   5.440
 7469SOL     OW23305   6.750   2.444   0.644
 7469SOL    HW123306   6.814   2.453   0.568
 7469SOL    HW223307   6.799   2.450   0.731
 7470SOL     OW23308   6.004   3.859   3.738
 7470SOL    HW123309   5.987   3.952   3.706
 7470SOL    HW223310   6.101   3.838   3.729
 7471SOL     OW23311   5.516   5.713   6.574
 7471SOL    HW123312   5.597   5.766   6.550
 7471SOL    HW223313   5.455   5.707   6.495
 7472SOL     OW23314   6.547   6.855   4.944
 7472SOL    HW123315   6.616   6.817   5.005
 7472SOL    HW223316   6.458   6.815   4.966
 7473SOL     OW23317   4.003   0.145   3.646
 7473SOL    HW123318   4.092   0.181   3.672
 7473SOL    HW223319   3.965   0.198   3.571
 7474SOL     OW23320   5.916   2.645   6.301
 7474SOL    HW123321   5.864   2.616   6.381
 7474SOL    HW223322   5.886   2.593   6.220
 7475SOL     OW23323   4.510   2.072   1.686
 7475SOL    HW123324   4.492   1.977   1.711
 7475SOL    HW223325   4.577   2.112   1.749
 7476SOL     OW23326   1.948   1.675   2.918
 7476SOL    HW123327   2.006   1.674   2.999
 7476SOL    HW223328   1.882   1.750   2.926
 7477SOL     OW23329   0.549   3.669   4.996
 7477SOL    HW123330   0.601   3.750   5.022
 7477SOL    HW223331   0.458   3.672   5.038
 7478SOL     OW23332   6.653   2.313   5.075
 7478SOL    HW123333   6.645   2.335   4.977
 7478SOL    HW223334   6.581   2.249   5.100
 7479SOL     OW23335   5.715   3.408   6.573
 7479SOL    HW123336   5.625   3.374   6.599
 7479SOL    HW223337   5.785   3.362   6.627
 7480SOL     OW23338   3.272   5.081   1.878
 7480SOL    HW123339   3.177   5.110   1.889
 7480SOL    HW223340   3.287   4.998   1.931
 7481SOL     OW23341   6.400   4.300   6.503
 7481SOL    HW123342   6.446   4.227   6.453
 7481SOL    HW223343   6.464   4.343   6.567
 7482SOL     OW23344   3.943   2.099   2.595
 7482SOL    HW123345   3.869   2.115   2.529
 7482SOL    HW223346   4.020   2.158   2.573
 7483SOL     OW23347   4.529   2.302   5.320
 7483SOL    HW123348   4.513   2.271   5.226
 7483SOL    HW223349   4.458   2.367   5.346
 7484SOL     OW23350   2.838   6.506   4.436
 7484SOL    HW123351   2.929   6.495   4.477
 7484SOL    HW223352   2.811   6.602   4.440
 7485SOL     OW23353   3.006   6.860   4.108
 7485SOL    HW123354   2.916   6.891   4.079
 7485SOL    HW223355   3.028   6.901   4.197
 7486SOL     OW23356   0.765   6.056   0.046
 7486SOL    HW123357   0.857   6.095   0.045
 7486SOL    HW223358   0.770   5.959   0.069
 7487SOL     OW23359   4.680   0.053   3.398
 7487SOL    HW123360   4.728   0.027   3.314
 7487SOL    HW223361   4.639   0.144   3.386
 7488SOL     OW23362   0.848   5.935   4.127
 7488SOL    HW123363   0.943   5.903   4.124
 7488SOL    HW223364   0.787   5.857   4.136
 7489SOL     OW23365   6.043   4.355   6.903
 7489SOL    HW123366   6.102   4.435   6.910
 7489SOL    HW223367   6.099   4.273   6.890
 7490SOL     OW23368   1.107   2.276   2.793
 7490SOL    HW123369   1.071   2.358   2.747
 7490SOL    HW223370   1.160   2.222   2.727
 7491SOL     OW23371   4.374   3.052   0.737
 7491SOL    HW123372   4.339   2.966   0.775
 7491SOL    HW223373   4.463   3.037   0.696
 7492SOL     OW23374   1.442   0.953   4.052
 7492SOL    HW123375   1.391   1.028   4.095
 7492SOL    HW223376   1.401   0.930   3.964
 7493SOL     OW23377   6.285   4.066   5.689
 7493SOL    HW123378   6.383   4.085   5.683
 7493SOL    HW223379   6.234   4.134   5.637
 7494SOL     OW23380   6.471   1.111   3.028
 7494SOL    HW123381   6.488   1.108   3.126
 7494SOL    HW223382   6.373   1.118   3.012
 7495SOL     OW23383   2.164   3.147   4.903
 7495SOL    HW123384   2.248   3.101   4.933
 7495SOL    HW223385   2.100   3.080   4.866
 7496SOL     OW23386   6.078   3.831   3.335
 7496SOL    HW123387   6.101   3.818   3.239
 7496SOL    HW223388   6.023   3.914   3.346
 7497SOL     OW23389   0.545   6.351   0.422
 7497SOL    HW123390   0.642   6.329   0.417
 7497SOL    HW223391   0.515   6.390   0.335
 7498SOL     OW23392   3.231   0.496   3.143
 7498SOL    HW123393   3.323   0.530   3.125
 7498SOL    HW223394   3.171   0.572   3.166
 7499SOL     OW23395   3.768   2.088   4.044
 7499SOL    HW123396   3.670   2.103   4.032
 7499SOL    HW223397   3.796   2.118   4.135
 7500SOL     OW23398   4.268   0.244   3.380
 7500SOL    HW123399   4.176   0.239   3.342
 7500SOL    HW223400   4.301   0.151   3.398
 7501SOL     OW23401   6.098   2.870   4.447
 7501SOL    HW123402   6.026   2.856   4.380
 7501SOL    HW223403   6.160   2.791   4.446
 7502SOL     OW23404   3.211   0.184   4.704
 7502SOL    HW123405   3.127   0.234   4.727
 7502SOL    HW223406   3.192   0.085   4.706
 7503SOL     OW23407   2.234   5.925   1.030
 7503SOL    HW123408   2.329   5.899   1.044
 7503SOL    HW223409   2.217   6.014   1.072
 7504SOL     OW23410   0.095   6.461   3.068
 7504SOL    HW123411   0.166   6.530   3.053
 7504SOL    HW223412   0.135   6.370   3.058
 7505SOL     OW23413   6.905   0.642   5.058
 7505SOL    HW123414   6.835   0.598   5.001
 7505SOL    HW223415   6.878   0.737   5.076
 7506SOL     OW23416   3.472   1.589   3.216
 7506SOL    HW123417   3.436   1.638   3.296
 7506SOL    HW223418   3.520   1.507   3.247
 7507SOL     OW23419   6.291   3.397   4.305
 7507SOL    HW123420   6.316   3.317   4.359
 7507SOL    HW223421   6.315   3.480   4.355
 7508SOL     OW23422   1.620   6.255   0.237
 7508SOL    HW123423   1.562   6.194   0.182
 7508SOL    HW223424   1.658   6.326   0.178
 7509SOL     OW23425   4.890   3.987   0.375
 7509SOL    HW123426   4.875   4.047   0.454
 7509SOL    HW223427   4.838   4.022   0.297
 7510SOL     OW23428   3.967   3.849   3.949
 7510SOL    HW123429   3.959   3.750   3.938
 7510SOL    HW223430   3.992   3.870   4.044
 7511SOL     OW23431   3.281   5.674   2.943
 7511SOL    HW123432   3.358   5.676   2.880
 7511SOL    HW223433   3.199   5.708   2.898
 7512SOL     OW23434   3.180   6.926   6.873
 7512SOL    HW123435   3.124   6.874   6.808
 7512SOL    HW223436   3.230   6.862   6.931
 7513SOL     OW23437   2.074   2.269   3.600
 7513SOL    HW123438   2.043   2.286   3.694
 7513SOL    HW223439   2.107   2.175   3.592
 7514SOL     OW23440   2.431   4.790   3.347
 7514SOL    HW123441   2.345   4.764   3.392
 7514SOL    HW223442   2.456   4.883   3.375
 7515SOL     OW23443   6.833   4.217   5.176
 7515SOL    HW123444   6.761   4.160   5.214
 7515SOL    HW223445   6.809   4.314   5.186
 7516SOL     OW23446   1.059   5.109   5.220
 7516SOL    HW123447   1.124   5.140   5.289
 7516SOL    HW223448   0.982   5.064   5.265
 7517SOL     OW23449   1.028   2.028   0.120
 7517SOL    HW123450   1.118   2.035   0.163
 7517SOL    HW223451   0.961   2.079   0.173
 7518SOL     OW23452   4.750   2.806   4.168
 7518SOL    HW123453   4.717   2.772   4.256
 7518SOL    HW223454   4.755   2.906   4.170
 7519SOL     OW23455   4.206   6.792   4.669
 7519SOL    HW123456   4.179   6.888   4.657
 7519SOL    HW223457   4.181   6.762   4.761
 7520SOL     OW23458   1.557   1.544   2.282
 7520SOL    HW123459   1.511   1.455   2.279
 7520SOL    HW223460   1.519   1.598   2.357
 7521SOL     OW23461   5.244   1.063   4.459
 7521SOL    HW123462   5.234   0.967   4.430
 7521SOL    HW223463   5.311   1.108   4.399
 7522SOL     OW23464   1.441   6.055   3.318
 7522SOL    HW123465   1.508   6.125   3.343
 7522SOL    HW223466   1.482   5.964   3.328
 7523SOL     OW23467   5.832   1.467   6.356
 7523SOL    HW123468   5.908   1.411   6.322
 7523SOL    HW223469   5.866   1.537   6.418
 7524SOL     OW23470   0.061   2.605   4.306
 7524SOL    HW123471   0.131   2.538   4.331
 7524SOL    HW223472   0.072   2.630   4.210
 7525SOL     OW23473   4.684   6.232   6.115
 7525SOL    HW123474   4.781   6.248   6.133
 7525SOL    HW223475   4.632   6.316   6.135
 7526SOL     OW23476   2.024   3.619   1.856
 7526SOL    HW123477   2.000   3.561   1.778
 7526SOL    HW223478   2.097   3.575   1.909
 7527SOL     OW23479   4.042   5.879   3.656
 7527SOL    HW123480   4.034   5.969   3.699
 7527SOL    HW223481   4.102   5.886   3.576
 7528SOL     OW23482   6.279   2.611   6.646
 7528SOL    HW123483   6.273   2.667   6.563
 7528SOL    HW223484   6.204   2.636   6.707
 7529SOL     OW23485   5.901   1.929   3.807
 7529SOL    HW123486   5.824   1.984   3.837
 7529SOL    HW223487   5.956   1.902   3.887
 7530SOL     OW23488   6.745   1.538   2.176
 7530SOL    HW123489   6.743   1.614   2.112
 7530SOL    HW223490   6.720   1.454   2.129
 7531SOL     OW23491   4.176   2.272   3.734
 7531SOL    HW123492   4.176   2.173   3.721
 7531SOL    HW223493   4.117   2.296   3.811
 7532SOL     OW23494   4.760   5.795   6.726
 7532SOL    HW123495   4.848   5.761   6.692
 7532SOL    HW223496   4.762   5.798   6.826
 7533SOL     OW23497   4.538   3.183   1.690
 7533SOL    HW123498   4.602   3.147   1.758
 7533SOL    HW223499   4.495   3.107   1.642
 7534SOL     OW23500   4.904   6.903   4.373
 7534SOL    HW123501   4.965   6.981   4.369
 7534SOL    HW223502   4.903   6.856   4.284
 7535SOL     OW23503   1.258   6.262   4.439
 7535SOL    HW123504   1.227   6.316   4.518
 7535SOL    HW223505   1.222   6.169   4.446
 7536SOL     OW23506   4.779   5.899   4.456
 7536SOL    HW123507   4.730   5.839   4.393
 7536SOL    HW223508   4.735   5.895   4.546
 7537SOL     OW23509   2.273   5.603   1.927
 7537SOL    HW123510   2.232   5.677   1.979
 7537SOL    HW223511   2.372   5.615   1.923
 7538SOL     OW23512   0.787   3.278   1.730
 7538SOL    HW123513   0.801   3.182   1.704
 7538SOL    HW223514   0.873   3.328   1.722
 7539SOL     OW23515   0.746   5.459   4.086
 7539SOL    HW123516   0.719   5.376   4.036
 7539SOL    HW223517   0.841   5.451   4.115
 7540SOL     OW23518   5.429   5.758   4.331
 7540SOL    HW123519   5.347   5.743   4.386
 7540SOL    HW223520   5.403   5.784   4.238
 7541SOL     OW23521   0.906   3.523   6.506
 7541SOL    HW123522   0.992   3.505   6.554
 7541SOL    HW223523   0.856   3.595   6.553
 7542SOL     OW23524   6.341   6.271   6.360
 7542SOL    HW123525   6.255   6.224   6.380
 7542SOL    HW223526   6.418   6.214   6.387
 7543SOL     OW23527   2.794   0.482   5.264
 7543SOL    HW123528   2.808   0.408   5.331
 7543SOL    HW223529   2.786   0.569   5.312
 7544SOL     OW23530   6.865   3.091   3.792
 7544SOL    HW123531   6.931   3.106   3.866
 7544SOL    HW223532   6.804   3.170   3.785
 7545SOL     OW23533   0.928   5.570   6.764
 7545SOL    HW123534   0.910   5.668   6.761
 7545SOL    HW223535   0.852   5.524   6.809
 7546SOL     OW23536   3.204   2.856   2.003
 7546SOL    HW123537   3.250   2.861   2.092
 7546SOL    HW223538   3.111   2.822   2.015
 7547SOL     OW23539   4.583   0.242   1.691
 7547SOL    HW123540   4.629   0.223   1.778
 7547SOL    HW223541   4.643   0.217   1.615
 7548SOL     OW23542   4.678   2.254   6.207
 7548SOL    HW123543   4.580   2.241   6.218
 7548SOL    HW223544   4.727   2.178   6.249
 7549SOL     OW23545   4.569   2.434   5.887
 7549SOL    HW123546   4.575   2.337   5.863
 7549SOL    HW223547   4.646   2.484   5.847
 7550SOL     OW23548   1.696   3.899   3.696
 7550SOL    HW123549   1.734   3.937   3.781
 7550SOL    HW223550   1.765   3.839   3.654
 7551SOL     OW23551   5.309   1.937   5.222
 7551SOL    HW123552   5.344   1.858   5.272
 7551SOL    HW223553   5.290   2.012   5.286
 7552SOL     OW23554   2.070   6.374   4.401
 7552SOL    HW123555   2.136   6.448   4.414
 7552SOL    HW223556   1.986   6.412   4.362
 7553SOL     OW23557   5.929   6.204   6.222
 7553SOL    HW123558   5.880   6.269   6.280
 7553SOL    HW223559   5.865   6.155   6.164
 7554SOL     OW23560   5.429   1.462   0.019
 7554SOL    HW123561   5.374   1.543   7.014
 7554SOL    HW223562   5.412   1.434   0.114
 7555SOL     OW23563   2.904   6.447   6.576
 7555SOL    HW123564   2.925   6.499   6.494
 7555SOL    HW223565   2.842   6.500   6.635
 7556SOL     OW23566   0.846   0.620   0.580
 7556SOL    HW123567   0.848   0.521   0.594
 7556SOL    HW223568   0.821   0.640   0.486
 7557SOL     OW23569   5.299   0.612   6.829
 7557SOL    HW123570   5.244   0.544   6.876
 7557SOL    HW223571   5.303   0.590   6.731
 7558SOL     OW23572   1.536   2.680   4.133
 7558SOL    HW123573   1.471   2.633   4.073
 7558SOL    HW223574   1.547   2.628   4.217
 7559SOL     OW23575   3.705   2.044   4.977
 7559SOL    HW123576   3.647   2.067   5.056
 7559SOL    HW223577   3.676   1.956   4.940
 7560SOL     OW23578   6.765   0.516   6.284
 7560SOL    HW123579   6.714   0.516   6.199
 7560SOL    HW223580   6.760   0.426   6.327
 7561SOL     OW23581   5.070   1.839   5.536
 7561SOL    HW123582   5.057   1.923   5.483
 7561SOL    HW223583   5.055   1.858   5.633
 7562SOL     OW23584   0.923   5.360   4.816
 7562SOL    HW123585   0.956   5.279   4.768
 7562SOL    HW223586   0.982   5.379   4.895
 7563SOL     OW23587   3.269   6.542   2.279
 7563SOL    HW123588   3.197   6.611   2.280
 7563SOL    HW223589   3.231   6.453   2.305
 7564SOL     OW23590   4.518   1.082   4.641
 7564SOL    HW123591   4.430   1.043   4.612
 7564SOL    HW223592   4.509   1.117   4.734
 7565SOL     OW23593   5.475   3.665   6.065
 7565SOL    HW123594   5.495   3.603   5.989
 7565SOL    HW223595   5.503   3.623   6.151
 7566SOL     OW23596   4.677   4.752   1.799
 7566SOL    HW123597   4.701   4.690   1.874
 7566SOL    HW223598   4.689   4.704   1.712
 7567SOL     OW23599   0.362   0.762   4.480
 7567SOL    HW123600   0.324   0.838   4.427
 7567SOL    HW223601   0.376   0.683   4.421
 7568SOL     OW23602   6.157   5.415   1.518
 7568SOL    HW123603   6.165   5.334   1.577
 7568SOL    HW223604   6.107   5.391   1.435
 7569SOL     OW23605   3.983   4.012   6.365
 7569SOL    HW123606   3.936   3.926   6.344
 7569SOL    HW223607   3.998   4.062   6.280
 7570SOL     OW23608   6.588   3.175   3.407
 7570SOL    HW123609   6.493   3.180   3.439
 7570SOL    HW223610   6.632   3.095   3.447
 7571SOL     OW23611   5.249   3.908   2.833
 7571SOL    HW123612   5.338   3.917   2.789
 7571SOL    HW223613   5.182   3.965   2.785
 7572SOL     OW23614   5.214   6.696   2.637
 7572SOL    HW123615   5.285   6.664   2.699
 7572SOL    HW223616   5.152   6.758   2.685
 7573SOL     OW23617   5.914   6.417   5.921
 7573SOL    HW123618   5.896   6.456   6.012
 7573SOL    HW223619   5.836   6.362   5.892
 7574SOL     OW23620   6.263   0.671   4.175
 7574SOL    HW123621   6.350   0.715   4.157
 7574SOL    HW223622   6.269   0.616   4.258
 7575SOL     OW23623   6.724   6.378   0.901
 7575SOL    HW123624   6.796   6.445   0.919
 7575SOL    HW223625   6.722   6.311   0.976
 7576SOL     OW23626   5.611   2.779   0.830
 7576SOL    HW123627   5.541   2.849   0.843
 7576SOL    HW223628   5.635   2.739   0.918
 7577SOL     OW23629   0.403   0.090   0.201
 7577SOL    HW123630   0.339   0.148   0.252
 7577SOL    HW223631   0.494   0.130   0.202
 7578SOL     OW23632   0.135   5.869   3.464
 7578SOL    HW123633   0.133   5.780   3.510
 7578SOL    HW223634   0.064   5.928   3.503
 7579SOL     OW23635   6.496   1.816   1.121
 7579SOL    HW123636   6.581   1.768   1.143
 7579SOL    HW223637   6.517   1.909   1.093
 7580SOL     OW23638   1.936   4.451   3.515
 7580SOL    HW123639   1.866   4.522   3.507
 7580SOL    HW223640   1.951   4.408   3.426
 7581SOL     OW23641   0.456   0.916   1.385
 7581SOL    HW123642   0.396   0.858   1.440
 7581SOL    HW223643   0.526   0.957   1.443
 7582SOL     OW23644   3.846   1.505   4.305
 7582SOL    HW123645   3.868   1.551   4.391
 7582SOL    HW223646   3.777   1.558   4.256
 7583SOL     OW23647   4.908   3.280   3.718
 7583SOL    HW123648   4.969   3.343   3.669
 7583SOL    HW223649   4.929   3.186   3.691
 7584SOL     OW23650   0.970   1.148   2.879
 7584SOL    HW123651   0.915   1.180   2.802
 7584SOL    HW223652   1.039   1.216   2.902
 7585SOL     OW23653   1.132   2.463   6.544
 7585SOL    HW123654   1.064   2.524   6.503
 7585SOL    HW223655   1.129   2.471   6.643
 7586SOL     OW23656   1.346   0.891   2.381
 7586SOL    HW123657   1.317   0.842   2.299
 7586SOL    HW223658   1.440   0.865   2.403
 7587SOL     OW23659   3.550   0.887   0.635
 7587SOL    HW123660   3.618   0.877   0.562
 7587SOL    HW223661   3.518   0.797   0.664
 7588SOL     OW23662   1.306   2.595   4.582
 7588SOL    HW123663   1.230   2.555   4.531
 7588SOL    HW223664   1.391   2.581   4.531
 7589SOL     OW23665   0.592   1.110   2.872
 7589SOL    HW123666   0.627   1.182   2.932
 7589SOL    HW223667   0.494   1.099   2.888
 7590SOL     OW23668   0.113   1.750   0.183
 7590SOL    HW123669   0.037   1.808   0.214
 7590SOL    HW223670   0.168   1.723   0.261
 7591SOL     OW23671   4.231   3.313   6.717
 7591SOL    HW123672   4.222   3.233   6.658
 7591SOL    HW223673   4.254   3.285   6.810
 7592SOL     OW23674   6.249   5.962   5.157
 7592SOL    HW123675   6.180   5.893   5.134
 7592SOL    HW223676   6.248   6.035   5.089
 7593SOL     OW23677   0.215   1.576   5.635
 7593SOL    HW123678   0.303   1.615   5.609
 7593SOL    HW223679   0.207   1.483   5.601
 7594SOL     OW23680   0.443   4.205   1.436
 7594SOL    HW123681   0.513   4.276   1.425
 7594SOL    HW223682   0.481   4.129   1.489
 7595SOL     OW23683   6.170   2.718   6.417
 7595SOL    HW123684   6.115   2.676   6.344
 7595SOL    HW223685   6.109   2.770   6.477
 7596SOL     OW23686   3.078   0.767   5.088
 7596SOL    HW123687   3.159   0.818   5.113
 7596SOL    HW223688   3.087   0.735   4.993
 7597SOL     OW23689   2.004   5.205   2.598
 7597SOL    HW123690   2.027   5.140   2.525
 7597SOL    HW223691   1.919   5.252   2.574
 7598SOL     OW23692   5.946   1.008   2.937
 7598SOL    HW123693   5.930   0.930   2.878
 7598SOL    HW223694   5.903   0.993   3.026
 7599SOL     OW23695   4.195   3.416   0.558
 7599SOL    HW123696   4.205   3.319   0.580
 7599SOL    HW223697   4.196   3.427   0.458
 7600SOL     OW23698   1.460   1.499   3.792
 7600SOL    HW123699   1.477   1.573   3.857
 7600SOL    HW223700   1.421   1.421   3.839
 7601SOL     OW23701   4.121   5.590   1.862
 7601SOL    HW123702   4.165   5.602   1.951
 7601SOL    HW223703   4.147   5.501   1.824
 7602SOL     OW23704   0.085   1.872   0.527
 7602SOL    HW123705   0.174   1.832   0.504
 7602SOL    HW223706   0.044   1.820   0.602
 7603SOL     OW23707   2.296   0.255   6.020
 7603SOL    HW123708   2.226   0.198   6.062
 7603SOL    HW223709   2.308   0.338   6.074
 7604SOL     OW23710   1.158   2.262   4.827
 7604SOL    HW123711   1.070   2.223   4.799
 7604SOL    HW223712   1.217   2.272   4.747
 7605SOL     OW23713   2.472   0.232   0.051
 7605SOL    HW123714   2.386   0.282   0.043
 7605SOL    HW223715   2.535   0.282   0.111
 7606SOL     OW23716   6.051   1.453   4.267
 7606SOL    HW123717   5.994   1.419   4.341
 7606SOL    HW223718   6.020   1.544   4.239
 7607SOL     OW23719   3.409   6.844   6.218
 7607SOL    HW123720   3.404   6.897   6.303
 7607SOL    HW223721   3.451   6.755   6.237
 7608SOL     OW23722   5.643   2.635   6.189
 7608SOL    HW123723   5.653   2.537   6.203
 7608SOL    HW223724   5.698   2.664   6.111
 7609SOL     OW23725   0.509   2.681   4.003
 7609SOL    HW123726   0.574   2.688   3.928
 7609SOL    HW223727   0.444   2.607   3.985
 7610SOL     OW23728   3.402   4.821   6.397
 7610SOL    HW123729   3.479   4.763   6.372
 7610SOL    HW223730   3.400   4.834   6.496
 7611SOL     OW23731   4.899   3.077   0.977
 7611SOL    HW123732   4.971   3.123   1.029
 7611SOL    HW223733   4.838   3.029   1.039
 7612SOL     OW23734   2.896   1.702   3.448
 7612SOL    HW123735   2.896   1.677   3.351
 7612SOL    HW223736   2.878   1.622   3.504
 7613SOL     OW23737   0.903   1.619   2.377
 7613SOL    HW123738   0.881   1.632   2.473
 7613SOL    HW223739   0.995   1.654   2.358
 7614SOL     OW23740   5.144   3.245   0.764
 7614SOL    HW123741   5.095   3.329   0.786
 7614SOL    HW223742   5.079   3.174   0.738
 7615SOL     OW23743   5.176   3.040   4.975
 7615SOL    HW123744   5.181   2.975   5.051
 7615SOL    HW223745   5.138   3.127   5.007
 7616SOL     OW23746   6.238   6.544   3.622
 7616SOL    HW123747   6.239   6.621   3.558
 7616SOL    HW223748   6.214   6.577   3.713
 7617SOL     OW23749   4.811   5.179   3.094
 7617SOL    HW123750   4.855   5.269   3.098
 7617SOL    HW223751   4.881   5.108   3.098
 7618SOL     OW23752   2.573   2.340   0.112
 7618SOL    HW123753   2.587   2.435   0.140
 7618SOL    HW223754   2.502   2.298   0.169
 7619SOL     OW23755   0.933   2.129   3.944
 7619SOL    HW123756   1.023   2.171   3.954
 7619SOL    HW223757   0.908   2.083   4.029
 7620SOL     OW23758   3.968   4.393   1.344
 7620SOL    HW123759   4.040   4.371   1.279
 7620SOL    HW223760   3.984   4.343   1.429
 7621SOL     OW23761   0.586   5.680   1.020
 7621SOL    HW123762   0.496   5.720   1.037
 7621SOL    HW223763   0.588   5.586   1.054
 7622SOL     OW23764   4.173   4.733   0.633
 7622SOL    HW123765   4.129   4.819   0.659
 7622SOL    HW223766   4.257   4.721   0.686
 7623SOL     OW23767   4.735   5.103   1.373
 7623SOL    HW123768   4.727   5.159   1.455
 7623SOL    HW223769   4.764   5.011   1.399
 7624SOL     OW23770   0.393   2.483   1.894
 7624SOL    HW123771   0.407   2.501   1.797
 7624SOL    HW223772   0.397   2.385   1.910
 7625SOL     OW23773   5.174   2.018   0.392
 7625SOL    HW123774   5.194   2.113   0.371
 7625SOL    HW223775   5.249   1.978   0.445
 7626SOL     OW23776   5.423   0.370   5.360
 7626SOL    HW123777   5.390   0.441   5.297
 7626SOL    HW223778   5.516   0.344   5.333
 7627SOL     OW23779   3.011   1.830   0.199
 7627SOL    HW123780   2.971   1.870   0.117
 7627SOL    HW223781   2.937   1.803   0.261
 7628SOL     OW23782   3.235   2.243   0.491
 7628SOL    HW123783   3.236   2.155   0.539
 7628SOL    HW223784   3.153   2.251   0.435
 7629SOL     OW23785   5.968   3.217   3.979
 7629SOL    HW123786   5.937   3.305   4.017
 7629SOL    HW223787   5.919   3.199   3.893
 7630SOL     OW23788   1.586   0.509   5.116
 7630SOL    HW123789   1.543   0.419   5.119
 7630SOL    HW223790   1.565   0.553   5.029
 7631SOL     OW23791   1.737   0.254   5.254
 7631SOL    HW123792   1.701   0.252   5.160
 7631SOL    HW223793   1.663   0.271   5.318
 7632SOL     OW23794   4.639   5.641   0.707
 7632SOL    HW123795   4.718   5.665   0.650
 7632SOL    HW223796   4.555   5.660   0.656
 7633SOL     OW23797   5.954   0.656   0.995
 7633SOL    HW123798   5.858   0.638   0.971
 7633SOL    HW223799   5.976   0.751   0.974
 7634SOL     OW23800   1.257   2.253   0.864
 7634SOL    HW123801   1.201   2.202   0.798
 7634SOL    HW223802   1.239   2.219   0.956
 7635SOL     OW23803   2.773   5.182   5.355
 7635SOL    HW123804   2.730   5.152   5.440
 7635SOL    HW223805   2.832   5.110   5.319
 7636SOL     OW23806   0.616   4.465   4.850
 7636SOL    HW123807   0.696   4.406   4.841
 7636SOL    HW223808   0.572   4.475   4.761
 7637SOL     OW23809   0.627   6.748   4.657
 7637SOL    HW123810   0.576   6.807   4.594
 7637SOL    HW223811   0.604   6.652   4.639
 7638SOL     OW23812   1.081   5.382   1.910
 7638SOL    HW123813   1.010   5.424   1.967
 7638SOL    HW223814   1.116   5.301   1.955
 7639SOL     OW23815   0.946   0.994   0.187
 7639SOL    HW123816   0.862   0.977   0.135
 7639SOL    HW223817   0.978   1.087   0.169
 7640SOL     OW23818   3.287   0.751   6.524
 7640SOL    HW123819   3.188   0.756   6.542
 7640SOL    HW223820   3.325   0.671   6.571
 7641SOL     OW23821   6.801   3.996   2.761
 7641SOL    HW123822   6.871   4.009   2.832
 7641SOL    HW223823   6.805   3.902   2.728
 7642SOL     OW23824   5.575   1.571   3.323
 7642SOL    HW123825   5.522   1.653   3.299
 7642SOL    HW223826   5.663   1.575   3.277
 7643SOL     OW23827   4.856   2.810   3.053
 7643SOL    HW123828   4.833   2.868   3.131
 7643SOL    HW223829   4.791   2.827   2.979
 7644SOL     OW23830   4.664   3.084   1.419
 7644SOL    HW123831   4.723   3.147   1.469
 7644SOL    HW223832   4.623   3.019   1.483
 7645SOL     OW23833   3.460   3.483   6.338
 7645SOL    HW123834   3.529   3.549   6.368
 7645SOL    HW223835   3.378   3.494   6.395
 7646SOL     OW23836   1.036   2.846   2.871
 7646SOL    HW123837   1.041   2.748   2.893
 7646SOL    HW223838   0.992   2.857   2.782
 7647SOL     OW23839   0.197   3.248   4.911
 7647SOL    HW123840   0.285   3.279   4.946
 7647SOL    HW223841   0.139   3.219   4.987
 7648SOL     OW23842   2.227   2.242   2.919
 7648SOL    HW123843   2.308   2.287   2.882
 7648SOL    HW223844   2.242   2.144   2.922
 7649SOL     OW23845   6.719   0.780   4.719
 7649SOL    HW123846   6.804   0.821   4.687
 7649SOL    HW223847   6.739   0.690   4.759
 7650SOL     OW23848   4.243   0.608   1.608
 7650SOL    HW123849   4.238   0.575   1.514
 7650SOL    HW223850   4.153   0.639   1.638
 7651SOL     OW23851   2.431   5.054   5.065
 7651SOL    HW123852   2.456   5.001   5.147
 7651SOL    HW223853   2.419   4.992   4.988
 7652SOL     OW23854   5.841   1.674   4.709
 7652SOL    HW123855   5.833   1.576   4.730
 7652SOL    HW223856   5.884   1.720   4.787
 7653SOL     OW23857   0.668   1.935   6.852
 7653SOL    HW123858   0.591   1.996   6.871
 7653SOL    HW223859   0.686   1.934   6.753
 7654SOL     OW23860   6.020   3.359   5.221
 7654SOL    HW123861   5.991   3.438   5.275
 7654SOL    HW223862   6.086   3.304   5.273
 7655SOL     OW23863   2.683   0.916   3.594
 7655SOL    HW123864   2.728   0.855   3.528
 7655SOL    HW223865   2.752   0.955   3.655
 7656SOL     OW23866   6.683   3.748   6.820
 7656SOL    HW123867   6.750   3.675   6.805
 7656SOL    HW223868   6.636   3.768   6.734
 7657SOL     OW23869   1.495   4.087   4.700
 7657SOL    HW123870   1.594   4.086   4.691
 7657SOL    HW223871   1.456   4.154   4.637
 7658SOL     OW23872   2.040   0.532   0.747
 7658SOL    HW123873   2.008   0.440   0.725
 7658SOL    HW223874   2.109   0.561   0.681
 7659SOL     OW23875   4.681   4.111   5.148
 7659SOL    HW123876   4.639   4.199   5.128
 7659SOL    HW223877   4.736   4.082   5.069
 7660SOL     OW23878   6.662   5.059   4.411
 7660SOL    HW123879   6.693   5.119   4.337
 7660SOL    HW223880   6.726   5.064   4.487
 7661SOL     OW23881   4.656   2.346   5.567
 7661SOL    HW123882   4.671   2.312   5.474
 7661SOL    HW223883   4.695   2.438   5.576
 7662SOL     OW23884   1.233   2.021   2.250
 7662SOL    HW123885   1.314   2.075   2.226
 7662SOL    HW223886   1.174   2.013   2.170
 7663SOL     OW23887   5.978   4.888   5.568
 7663SOL    HW123888   5.899   4.849   5.520
 7663SOL    HW223889   5.971   4.987   5.568
 7664SOL     OW23890   3.859   1.435   2.947
 7664SOL    HW123891   3.938   1.459   3.003
 7664SOL    HW223892   3.817   1.519   2.911
 7665SOL     OW23893   4.258   1.870   4.496
 7665SOL    HW123894   4.197   1.896   4.571
 7665SOL    HW223895   4.318   1.947   4.474
 7666SOL     OW23896   6.463   5.357   3.555
 7666SOL    HW123897   6.378   5.408   3.566
 7666SOL    HW223898   6.445   5.259   3.565
 7667SOL     OW23899   5.012   5.930   2.270
 7667SOL    HW123900   5.062   5.843   2.271
 7667SOL    HW223901   5.001   5.963   2.364
 7668SOL     OW23902   2.026   5.434   1.085
 7668SOL    HW123903   2.087   5.360   1.112
 7668SOL    HW223904   1.960   5.451   1.159
 7669SOL     OW23905   2.986   6.486   5.955
 7669SOL    HW123906   2.900   6.477   5.906
 7669SOL    HW223907   3.024   6.395   5.973
 7670SOL     OW23908   0.114   6.564   6.836
 7670SOL    HW123909   0.113   6.642   6.773
 7670SOL    HW223910   0.068   6.589   6.921
 7671SOL     OW23911   5.273   0.694   1.611
 7671SOL    HW123912   5.235   0.745   1.534
 7671SOL    HW223913   5.362   0.732   1.635
 7672SOL     OW23914   5.456   4.783   2.933
 7672SOL    HW123915   5.407   4.793   3.020
 7672SOL    HW223916   5.551   4.760   2.951
 7673SOL     OW23917   0.887   5.293   3.889
 7673SOL    HW123918   0.967   5.309   3.946
 7673SOL    HW223919   0.858   5.197   3.898
 7674SOL     OW23920   3.880   0.135   4.545
 7674SOL    HW123921   3.817   0.063   4.515
 7674SOL    HW223922   3.828   0.211   4.584
 7675SOL     OW23923   3.656   6.633   2.826
 7675SOL    HW123924   3.648   6.685   2.741
 7675SOL    HW223925   3.570   6.586   2.844
 7676SOL     OW23926   2.990   3.221   5.663
 7676SOL    HW123927   3.075   3.259   5.700
 7676SOL    HW223928   2.930   3.296   5.634
 7677SOL     OW23929   5.810   4.392   1.436
 7677SOL    HW123930   5.727   4.345   1.406
 7677SOL    HW223931   5.805   4.489   1.412
 7678SOL     OW23932   1.454   1.712   5.673
 7678SOL    HW123933   1.546   1.714   5.712
 7678SOL    HW223934   1.392   1.670   5.739
 7679SOL     OW23935   1.764   5.366   4.842
 7679SOL    HW123936   1.799   5.435   4.780
 7679SOL    HW223937   1.730   5.288   4.789
 7680SOL     OW23938   1.773   0.610   5.438
 7680SOL    HW123939   1.822   0.579   5.356
 7680SOL    HW223940   1.728   0.697   5.419
 7681SOL     OW23941   3.237   3.035   6.306
 7681SOL    HW123942   3.221   3.134   6.313
 7681SOL    HW223943   3.209   3.003   6.216
 7682SOL     OW23944   2.665   1.978   3.453
 7682SOL    HW123945   2.593   2.046   3.468
 7682SOL    HW223946   2.624   1.887   3.442
 7683SOL     OW23947   0.133   1.158   4.524
 7683SOL    HW123948   0.123   1.189   4.618
 7683SOL    HW223949   0.049   1.110   4.496
 7684SOL     OW23950   4.145   2.254   1.842
 7684SOL    HW123951   4.046   2.259   1.830
 7684SOL    HW223952   4.190   2.307   1.770
 7685SOL     OW23953   3.014   0.681   0.431
 7685SOL    HW123954   2.965   0.732   0.502
 7685SOL    HW223955   2.995   0.584   0.440
 7686SOL     OW23956   5.101   0.325   4.211
 7686SOL    HW123957   5.053   0.397   4.262
 7686SOL    HW223958   5.088   0.341   4.113
 7687SOL     OW23959   5.868   5.251   4.276
 7687SOL    HW123960   5.855   5.332   4.220
 7687SOL    HW223961   5.946   5.199   4.241
 7688SOL     OW23962   0.810   5.239   6.391
 7688SOL    HW123963   0.875   5.186   6.445
 7688SOL    HW223964   0.728   5.185   6.376
 7689SOL     OW23965   4.918   0.300   1.687
 7689SOL    HW123966   4.973   0.232   1.735
 7689SOL    HW223967   4.873   0.359   1.754
 7690SOL     OW23968   6.270   5.003   0.758
 7690SOL    HW123969   6.342   5.073   0.757
 7690SOL    HW223970   6.284   4.940   0.682
 7691SOL     OW23971   4.358   4.692   3.629
 7691SOL    HW123972   4.415   4.707   3.709
 7691SOL    HW223973   4.399   4.622   3.571
 7692SOL     OW23974   0.965   6.447   2.380
 7692SOL    HW123975   1.007   6.383   2.316
 7692SOL    HW223976   0.952   6.402   2.468
 7693SOL     OW23977   2.497   1.061   1.323
 7693SOL    HW123978   2.555   1.109   1.258
 7693SOL    HW223979   2.454   0.983   1.278
 7694SOL     OW23980   6.253   2.624   4.481
 7694SOL    HW123981   6.188   2.576   4.539
 7694SOL    HW223982   6.263   2.575   4.394
 7695SOL     OW23983   6.320   0.480   2.819
 7695SOL    HW123984   6.246   0.488   2.753
 7695SOL    HW223985   6.361   0.569   2.835
 7696SOL     OW23986   0.490   2.504   6.845
 7696SOL    HW123987   0.544   2.548   6.916
 7696SOL    HW223988   0.393   2.520   6.862
 7697SOL     OW23989   4.082   0.248   2.796
 7697SOL    HW123990   4.120   0.338   2.815
 7697SOL    HW223991   4.141   0.199   2.732
 7698SOL     OW23992   6.641   1.958   6.775
 7698SOL    HW123993   6.667   2.027   6.708
 7698SOL    HW223994   6.683   1.871   6.751
 7699SOL     OW23995   3.499   5.676   6.202
 7699SOL    HW123996   3.520   5.705   6.109
 7699SOL    HW223997   3.463   5.582   6.201
 7700SOL     OW23998   4.631   5.435   2.768
 7700SOL    HW123999   4.621   5.521   2.719
 7700SOL    HW224000   4.608   5.359   2.706
 7701SOL     OW24001   0.122   2.869   5.995
 7701SOL    HW124002   0.120   2.806   5.918
 7701SOL    HW224003   0.216   2.886   6.022
 7702SOL     OW24004   4.383   6.976   4.464
 7702SOL    HW124005   4.378   0.001   4.373
 7702SOL    HW224006   4.317   0.004   4.525
 7703SOL     OW24007   6.754   6.520   4.388
 7703SOL    HW124008   6.781   6.606   4.344
 7703SOL    HW224009   6.706   6.462   4.322
 7704SOL     OW24010   6.175   1.216   4.024
 7704SOL    HW124011   6.265   1.253   4.001
 7704SOL    HW224012   6.121   1.286   4.071
 7705SOL     OW24013   2.029   4.762   0.286
 7705SOL    HW124014   2.007   4.665   0.298
 7705SOL    HW224015   1.950   4.818   0.311
 7706SOL     OW24016   3.549   2.893   2.483
 7706SOL    HW124017   3.607   2.917   2.561
 7706SOL    HW224018   3.583   2.937   2.400
 7707SOL     OW24019   6.727   5.590   6.605
 7707SOL    HW124020   6.678   5.606   6.691
 7707SOL    HW224021   6.774   5.501   6.611
 7708SOL     OW24022   2.332   6.713   4.678
 7708SOL    HW124023   2.268   6.759   4.616
 7708SOL    HW224024   2.345   6.619   4.648
 7709SOL     OW24025   0.038   4.604   1.045
 7709SOL    HW124026   6.998   4.652   1.112
 7709SOL    HW224027   6.995   4.548   0.987
 7710SOL     OW24028   1.579   3.631   0.791
 7710SOL    HW124029   1.578   3.553   0.729
 7710SOL    HW224030   1.489   3.675   0.789
 7711SOL     OW24031   6.088   4.577   5.332
 7711SOL    HW124032   6.082   4.661   5.385
 7711SOL    HW224033   6.170   4.579   5.275
 7712SOL     OW24034   6.610   4.841   6.299
 7712SOL    HW124035   6.605   4.830   6.199
 7712SOL    HW224036   6.582   4.934   6.324
 7713SOL     OW24037   1.858   4.826   0.629
 7713SOL    HW124038   1.841   4.770   0.548
 7713SOL    HW224039   1.915   4.775   0.694
 7714SOL     OW24040   6.799   0.583   4.290
 7714SOL    HW124041   6.735   0.660   4.283
 7714SOL    HW224042   6.777   0.515   4.220
 7715SOL     OW24043   2.103   2.915   6.028
 7715SOL    HW124044   2.045   2.846   5.984
 7715SOL    HW224045   2.101   2.901   6.127
 7716SOL     OW24046   0.912   5.607   6.446
 7716SOL    HW124047   0.899   5.627   6.543
 7716SOL    HW224048   0.879   5.515   6.426
 7717SOL     OW24049   1.493   1.727   6.872
 7717SOL    HW124050   1.583   1.687   6.857
 7717SOL    HW224051   1.424   1.674   6.822
 7718SOL     OW24052   1.218   4.423   2.651
 7718SOL    HW124053   1.317   4.415   2.635
 7718SOL    HW224054   1.179   4.332   2.662
 7719SOL     OW24055   2.014   3.815   4.554
 7719SOL    HW124056   1.946   3.765   4.608
 7719SOL    HW224057   2.082   3.855   4.616
 7720SOL     OW24058   6.510   1.702   6.469
 7720SOL    HW124059   6.456   1.783   6.444
 7720SOL    HW224060   6.566   1.724   6.549
 7721SOL     OW24061   1.001   0.422   2.834
 7721SOL    HW124062   1.013   0.324   2.821
 7721SOL    HW224063   1.077   0.470   2.789
 7722SOL     OW24064   2.390   6.021   3.749
 7722SOL    HW124065   2.350   5.953   3.687
 7722SOL    HW224066   2.320   6.086   3.777
 7723SOL     OW24067   4.671   3.426   0.251
 7723SOL    HW124068   4.753   3.464   0.208
 7723SOL    HW224069   4.693   3.339   0.295
 7724SOL     OW24070   2.688   4.142   1.591
 7724SOL    HW124071   2.688   4.166   1.494
 7724SOL    HW224072   2.676   4.043   1.601
 7725SOL     OW24073   5.634   2.835   2.920
 7725SOL    HW124074   5.636   2.930   2.890
 7725SOL    HW224075   5.716   2.815   2.973
 7726SOL     OW24076   0.149   3.497   6.356
 7726SOL    HW124077   0.189   3.420   6.307
 7726SOL    HW224078   0.204   3.579   6.340
 7727SOL     OW24079   4.695   2.620   2.258
 7727SOL    HW124080   4.701   2.709   2.213
 7727SOL    HW224081   4.638   2.628   2.339
 7728SOL     OW24082   2.124   3.000   5.151
 7728SOL    HW124083   2.178   2.949   5.218
 7728SOL    HW224084   2.183   3.029   5.076
 7729SOL     OW24085   5.737   2.096   3.397
 7729SOL    HW124086   5.742   2.168   3.467
 7729SOL    HW224087   5.746   2.007   3.440
 7730SOL     OW24088   5.935   4.839   5.225
 7730SOL    HW124089   6.033   4.851   5.242
 7730SOL    HW224090   5.890   4.812   5.311
 7731SOL     OW24091   5.528   6.915   0.327
 7731SOL    HW124092   5.530   6.843   0.258
 7731SOL    HW224093   5.550   6.876   0.417
 7732SOL     OW24094   4.666   0.503   6.239
 7732SOL    HW124095   4.620   0.452   6.167
 7732SOL    HW224096   4.756   0.532   6.206
 7733SOL     OW24097   6.409   6.149   2.143
 7733SOL    HW124098   6.420   6.152   2.243
 7733SOL    HW224099   6.483   6.200   2.100
 7734SOL     OW24100   2.812   4.359   5.383
 7734SOL    HW124101   2.814   4.265   5.351
 7734SOL    HW224102   2.871   4.415   5.325
 7735SOL     OW24103   6.568   6.245   0.277
 7735SOL    HW124104   6.489   6.183   0.279
 7735SOL    HW224105   6.648   6.196   0.243
 7736SOL     OW24106   3.167   2.778   0.406
 7736SOL    HW124107   3.101   2.747   0.474
 7736SOL    HW224108   3.120   2.804   0.322
 7737SOL     OW24109   4.137   4.949   1.399
 7737SOL    HW124110   4.218   4.891   1.405
 7737SOL    HW224111   4.065   4.911   1.458
 7738SOL     OW24112   2.642   6.586   6.602
 7738SOL    HW124113   2.625   6.674   6.559
 7738SOL    HW224114   2.605   6.513   6.545
 7739SOL     OW24115   1.445   2.479   1.445
 7739SOL    HW124116   1.478   2.468   1.351
 7739SOL    HW224117   1.395   2.565   1.452
 7740SOL     OW24118   1.043   1.219   3.916
 7740SOL    HW124119   1.060   1.317   3.922
 7740SOL    HW224120   1.030   1.182   4.008
 7741SOL     OW24121   1.674   4.884   6.114
 7741SOL    HW124122   1.752   4.823   6.122
 7741SOL    HW224123   1.670   4.922   6.021
 7742SOL     OW24124   3.621   1.308   3.987
 7742SOL    HW124125   3.643   1.393   4.034
 7742SOL    HW224126   3.652   1.230   4.041
 7743SOL     OW24127   5.178   1.205   6.397
 7743SOL    HW124128   5.205   1.223   6.302
 7743SOL    HW224129   5.136   1.286   6.436
 7744SOL     OW24130   0.611   5.797   4.627
 7744SOL    HW124131   0.687   5.739   4.658
 7744SOL    HW224132   0.640   5.848   4.545
 7745SOL     OW24133   1.578   6.704   0.103
 7745SOL    HW124134   1.530   6.716   0.190
 7745SOL    HW224135   1.620   6.614   0.100
 7746SOL     OW24136   1.213   6.583   0.857
 7746SOL    HW124137   1.130   6.637   0.845
 7746SOL    HW224138   1.241   6.586   0.953
 7747SOL     OW24139   0.306   5.970   0.748
 7747SOL    HW124140   0.302   6.022   0.833
 7747SOL    HW224141   0.214   5.935   0.726
 7748SOL     OW24142   4.211   2.779   5.714
 7748SOL    HW124143   4.140   2.727   5.667
 7748SOL    HW224144   4.279   2.811   5.648
 7749SOL     OW24145   3.354   3.558   3.964
 7749SOL    HW124146   3.379   3.537   3.869
 7749SOL    HW224147   3.291   3.489   3.998
 7750SOL     OW24148   6.014   4.610   5.747
 7750SOL    HW124149   6.086   4.609   5.818
 7750SOL    HW224150   6.031   4.686   5.685
 7751SOL     OW24151   0.100   1.679   4.937
 7751SOL    HW124152   0.163   1.643   4.868
 7751SOL    HW224153   0.041   1.606   4.970
 7752SOL     OW24154   5.862   5.656   5.216
 7752SOL    HW124155   5.864   5.724   5.142
 7752SOL    HW224156   5.932   5.587   5.200
 7753SOL     OW24157   2.275   0.638   4.300
 7753SOL    HW124158   2.262   0.559   4.240
 7753SOL    HW224159   2.222   0.715   4.266
 7754SOL     OW24160   5.842   0.298   0.754
 7754SOL    HW124161   5.813   0.293   0.659
 7754SOL    HW224162   5.906   0.374   0.766
 7755SOL     OW24163   0.016   5.982   5.206
 7755SOL    HW124164   6.955   5.949   5.153
 7755SOL    HW224165   0.001   6.077   5.234
 7756SOL     OW24166   2.768   4.751   2.335
 7756SOL    HW124167   2.741   4.724   2.243
 7756SOL    HW224168   2.860   4.791   2.332
 7757SOL     OW24169   4.418   6.469   5.458
 7757SOL    HW124170   4.344   6.494   5.395
 7757SOL    HW224171   4.506   6.483   5.412
 7758SOL     OW24172   2.545   2.285   6.062
 7758SOL    HW124173   2.545   2.365   6.123
 7758SOL    HW224174   2.621   2.292   5.998
 7759SOL     OW24175   2.076   0.375   4.419
 7759SOL    HW124176   1.984   0.349   4.392
 7759SOL    HW224177   2.099   0.464   4.380
 7760SOL     OW24178   5.659   3.239   1.730
 7760SOL    HW124179   5.738   3.267   1.785
 7760SOL    HW224180   5.634   3.313   1.668
 7761SOL     OW24181   2.898   6.977   6.595
 7761SOL    HW124182   2.862   0.002   6.678
 7761SOL    HW224183   2.826   6.928   6.548
 7762SOL     OW24184   4.223   1.526   0.741
 7762SOL    HW124185   4.132   1.528   0.700
 7762SOL    HW224186   4.215   1.535   0.840
 7763SOL     OW24187   1.500   1.670   1.150
 7763SOL    HW124188   1.531   1.710   1.064
 7763SOL    HW224189   1.559   1.702   1.224
 7764SOL     OW24190   3.942   3.015   2.361
 7764SOL    HW124191   3.892   2.933   2.330
 7764SOL    HW224192   3.941   3.083   2.287
 7765SOL     OW24193   6.234   3.510   3.153
 7765SOL    HW124194   6.263   3.598   3.191
 7765SOL    HW224195   6.315   3.458   3.125
 7766SOL     OW24196   6.519   1.673   0.098
 7766SOL    HW124197   6.485   1.579   0.097
 7766SOL    HW224198   6.461   1.730   0.039
 7767SOL     OW24199   3.880   6.223   3.926
 7767SOL    HW124200   3.908   6.162   4.000
 7767SOL    HW224201   3.781   6.235   3.930
 7768SOL     OW24202   3.395   4.893   2.120
 7768SOL    HW124203   3.435   4.818   2.068
 7768SOL    HW224204   3.297   4.876   2.133
 7769SOL     OW24205   4.925   1.987   0.812
 7769SOL    HW124206   4.920   1.985   0.712
 7769SOL    HW224207   4.858   1.924   0.851
 7770SOL     OW24208   2.849   4.996   1.742
 7770SOL    HW124209   2.883   5.086   1.769
 7770SOL    HW224210   2.822   4.997   1.646
 7771SOL     OW24211   2.797   2.081   5.172
 7771SOL    HW124212   2.780   2.073   5.270
 7771SOL    HW224213   2.739   2.016   5.122
 7772SOL     OW24214   4.683   0.845   4.090
 7772SOL    HW124215   4.713   0.918   4.029
 7772SOL    HW224216   4.598   0.872   4.136
 7773SOL     OW24217   4.216   3.734   6.069
 7773SOL    HW124218   4.125   3.695   6.079
 7773SOL    HW224219   4.242   3.782   6.153
 7774SOL     OW24220   5.597   1.553   6.222
 7774SOL    HW124221   5.674   1.544   6.284
 7774SOL    HW224222   5.608   1.489   6.145
 7775SOL     OW24223   3.763   6.936   2.929
 7775SOL    HW124224   3.696   6.995   2.883
 7775SOL    HW224225   3.718   6.885   3.002
 7776SOL     OW24226   3.911   3.299   6.288
 7776SOL    HW124227   3.823   3.309   6.242
 7776SOL    HW224228   3.904   3.330   6.382
 7777SOL     OW24229   2.204   1.071   6.882
 7777SOL    HW124230   2.197   1.022   6.795
 7777SOL    HW224231   2.146   1.153   6.878
 7778SOL     OW24232   5.461   0.310   6.625
 7778SOL    HW124233   5.534   0.364   6.667
 7778SOL    HW224234   5.483   0.213   6.634
 7779SOL     OW24235   3.305   2.062   1.362
 7779SOL    HW124236   3.396   2.061   1.321
 7779SOL    HW224237   3.237   2.086   1.293
 7780SOL     OW24238   0.990   6.172   4.116
 7780SOL    HW124239   1.088   6.162   4.129
 7780SOL    HW224240   0.944   6.086   4.139
 7781SOL     OW24241   1.554   3.454   5.945
 7781SOL    HW124242   1.574   3.549   5.969
 7781SOL    HW224243   1.466   3.428   5.986
 7782SOL     OW24244   2.464   3.998   6.438
 7782SOL    HW124245   2.514   4.007   6.352
 7782SOL    HW224246   2.406   4.078   6.452
 7783SOL     OW24247   2.399   6.580   6.870
 7783SOL    HW124248   2.303   6.599   6.849
 7783SOL    HW224249   2.457   6.629   6.805
 7784SOL     OW24250   0.694   2.609   0.019
 7784SOL    HW124251   0.668   2.639   0.111
 7784SOL    HW224252   0.740   2.521   0.024
 7785SOL     OW24253   2.171   6.584   3.801
 7785SOL    HW124254   2.160   6.513   3.732
 7785SOL    HW224255   2.263   6.578   3.840
 7786SOL     OW24256   3.139   4.532   5.342
 7786SOL    HW124257   3.102   4.511   5.433
 7786SOL    HW224258   3.069   4.513   5.273
 7787SOL     OW24259   2.288   2.718   4.975
 7787SOL    HW124260   2.305   2.813   5.000
 7787SOL    HW224261   2.203   2.711   4.923
 7788SOL     OW24262   1.038   1.809   1.616
 7788SOL    HW124263   0.993   1.898   1.620
 7788SOL    HW224264   1.088   1.801   1.530
 7789SOL     OW24265   2.489   0.384   0.967
 7789SOL    HW124266   2.424   0.338   0.906
 7789SOL    HW224267   2.496   0.480   0.942
 7790SOL     OW24268   6.486   3.988   3.190
 7790SOL    HW124269   6.464   4.050   3.265
 7790SOL    HW224270   6.560   3.927   3.217
 7791SOL     OW24271   2.553   5.710   4.488
 7791SOL    HW124272   2.527   5.805   4.508
 7791SOL    HW224273   2.635   5.686   4.541
 7792SOL     OW24274   2.360   6.147   6.401
 7792SOL    HW124275   2.355   6.104   6.311
 7792SOL    HW224276   2.411   6.087   6.463
 7793SOL     OW24277   1.647   0.956   5.697
 7793SOL    HW124278   1.564   1.012   5.705
 7793SOL    HW224279   1.673   0.951   5.601
 7794SOL     OW24280   5.124   5.485   4.328
 7794SOL    HW124281   5.112   5.572   4.280
 7794SOL    HW224282   5.120   5.410   4.263
 7795SOL     OW24283   2.073   4.002   5.680
 7795SOL    HW124284   2.150   4.023   5.619
 7795SOL    HW224285   1.988   4.029   5.636
 7796SOL     OW24286   3.747   3.935   3.507
 7796SOL    HW124287   3.797   3.973   3.586
 7796SOL    HW224288   3.657   3.903   3.537
 7797SOL     OW24289   0.054   6.128   3.222
 7797SOL    HW124290   0.138   6.080   3.246
 7797SOL    HW224291   0.072   6.194   3.149
 7798SOL     OW24292   3.520   5.615   0.002
 7798SOL    HW124293   3.596   5.647   6.962
 7798SOL    HW224294   3.437   5.666   6.996
 7799SOL     OW24295   0.021   5.615   1.089
 7799SOL    HW124296   0.033   5.692   1.151
 7799SOL    HW224297   6.971   5.639   1.018
 7800SOL     OW24298   0.200   4.881   1.910
 7800SOL    HW124299   0.130   4.899   1.842
 7800SOL    HW224300   0.223   4.967   1.958
 7801SOL     OW24301   2.203   1.277   0.425
 7801SOL    HW124302   2.230   1.357   0.478
 7801SOL    HW224303   2.278   1.211   0.425
 7802SOL     OW24304   5.757   2.555   1.833
 7802SOL    HW124305   5.765   2.459   1.860
 7802SOL    HW224306   5.670   2.570   1.786
 7803SOL     OW24307   4.427   3.916   5.665
 7803SOL    HW124308   4.510   3.967   5.643
 7803SOL    HW224309   4.437   3.873   5.755
 7804SOL     OW24310   5.560   1.314   4.657
 7804SOL    HW124311   5.480   1.374   4.647
 7804SOL    HW224312   5.611   1.341   4.739
 7805SOL     OW24313   5.379   2.215   2.198
 7805SOL    HW124314   5.427   2.274   2.133
 7805SOL    HW224315   5.311   2.269   2.248
 7806SOL     OW24316   5.764   3.057   5.961
 7806SOL    HW124317   5.856   3.019   5.967
 7806SOL    HW224318   5.703   3.007   6.022
 7807SOL     OW24319   0.444   4.618   6.328
 7807SOL    HW124320   0.519   4.633   6.392
 7807SOL    HW224321   0.425   4.521   6.321
 7808SOL     OW24322   0.571   1.471   4.605
 7808SOL    HW124323   0.645   1.536   4.590
 7808SOL    HW224324   0.600   1.402   4.672
 7809SOL     OW24325   2.101   5.248   4.290
 7809SOL    HW124326   2.103   5.348   4.283
 7809SOL    HW224327   2.193   5.214   4.310
 7810SOL     OW24328   2.884   0.643   5.695
 7810SOL    HW124329   2.951   0.713   5.719
 7810SOL    HW224330   2.797   0.662   5.740
 7811SOL     OW24331   5.284   4.829   3.630
 7811SOL    HW124332   5.372   4.785   3.612
 7811SOL    HW224333   5.235   4.778   3.700
 7812SOL     OW24334   1.710   1.867   4.724
 7812SOL    HW124335   1.628   1.877   4.779
 7812SOL    HW224336   1.778   1.813   4.774
 7813SOL     OW24337   5.593   2.947   6.835
 7813SOL    HW124338   5.615   3.038   6.872
 7813SOL    HW224339   5.593   2.951   6.735
 7814SOL     OW24340   6.875   2.837   3.690
 7814SOL    HW124341   6.859   2.927   3.731
 7814SOL    HW224342   6.956   2.795   3.731
 7815SOL     OW24343   5.712   1.700   6.779
 7815SOL    HW124344   5.654   1.747   6.847
 7815SOL    HW224345   5.738   1.764   6.707
 7816SOL     OW24346   0.540   3.592   5.781
 7816SOL    HW124347   0.596   3.623   5.857
 7816SOL    HW224348   0.598   3.568   5.703
 7817SOL     OW24349   5.750   4.288   4.395
 7817SOL    HW124350   5.687   4.296   4.318
 7817SOL    HW224351   5.844   4.294   4.362
 7818SOL     OW24352   6.539   6.584   1.346
 7818SOL    HW124353   6.515   6.595   1.249
 7818SOL    HW224354   6.480   6.515   1.387
 7819SOL     OW24355   6.977   2.693   1.115
 7819SOL    HW124356   6.909   2.757   1.078
 7819SOL    HW224357   6.944   2.656   1.202
 7820SOL     OW24358   2.176   1.884   5.709
 7820SOL    HW124359   2.116   1.869   5.630
 7820SOL    HW224360   2.270   1.862   5.684
 7821SOL     OW24361   3.980   5.777   0.864
 7821SOL    HW124362   3.969   5.695   0.920
 7821SOL    HW224363   4.059   5.828   0.895
 7822SOL     OW24364   0.619   5.754   5.206
 7822SOL    HW124365   0.695   5.689   5.204
 7822SOL    HW224366   0.647   5.836   5.256
 7823SOL     OW24367   2.310   4.280   4.953
 7823SOL    HW124368   2.308   4.181   4.964
 7823SOL    HW224369   2.400   4.309   4.923
 7824SOL     OW24370   0.142   2.786   5.113
 7824SOL    HW124371   0.092   2.857   5.162
 7824SOL    HW224372   0.183   2.722   5.179
 7825SOL     OW24373   2.098   2.540   6.532
 7825SOL    HW124374   2.050   2.628   6.538
 7825SOL    HW224375   2.036   2.471   6.497
 7826SOL     OW24376   6.609   2.262   0.488
 7826SOL    HW124377   6.639   2.348   0.529
 7826SOL    HW224378   6.674   2.190   0.511
 7827SOL     OW24379   0.179   6.238   2.951
 7827SOL    HW124380   0.234   6.235   2.868
 7827SOL    HW224381   0.105   6.171   2.944
 7828SOL     OW24382   6.915   3.592   6.737
 7828SOL    HW124383   6.862   3.557   6.661
 7828SOL    HW224384   6.991   3.647   6.702
 7829SOL     OW24385   3.381   2.747   1.401
 7829SOL    HW124386   3.390   2.686   1.479
 7829SOL    HW224387   3.308   2.715   1.340
 7830SOL     OW24388   2.992   5.163   4.714
 7830SOL    HW124389   3.003   5.191   4.810
 7830SOL    HW224390   2.982   5.064   4.710
 7831SOL     OW24391   1.923   1.649   1.412
 7831SOL    HW124392   1.938   1.733   1.360
 7831SOL    HW224393   1.959   1.659   1.504
 7832SOL     OW24394   5.985   0.863   5.244
 7832SOL    HW124395   5.936   0.863   5.332
 7832SOL    HW224396   5.982   0.771   5.205
 7833SOL     OW24397   1.375   0.182   3.869
 7833SOL    HW124398   1.327   0.264   3.900
 7833SOL    HW224399   1.474   0.196   3.879
 7834SOL     OW24400   6.351   2.579   4.199
 7834SOL    HW124401   6.413   2.503   4.215
 7834SOL    HW224402   6.403   2.664   4.193
 7835SOL     OW24403   4.220   1.823   5.312
 7835SOL    HW124404   4.314   1.852   5.330
 7835SOL    HW224405   4.212   1.725   5.333
 7836SOL     OW24406   3.898   4.151   5.131
 7836SOL    HW124407   3.988   4.139   5.173
 7836SOL    HW224408   3.907   4.147   5.032
 7837SOL     OW24409   6.086   6.434   0.354
 7837SOL    HW124410   6.139   6.349   0.350
 7837SOL    HW224411   6.006   6.421   0.412
 7838SOL     OW24412   5.412   5.411   1.492
 7838SOL    HW124413   5.467   5.483   1.448
 7838SOL    HW224414   5.467   5.366   1.562
 7839SOL     OW24415   6.442   4.553   4.439
 7839SOL    HW124416   6.473   4.531   4.347
 7839SOL    HW224417   6.521   4.554   4.501
 7840SOL     OW24418   1.788   4.652   3.327
 7840SOL    HW124419   1.748   4.659   3.418
 7840SOL    HW224420   1.746   4.576   3.277
 7841SOL     OW24421   4.840   2.063   6.313
 7841SOL    HW124422   4.799   2.018   6.393
 7841SOL    HW224423   4.928   2.103   6.338
 7842SOL     OW24424   2.140   1.310   2.782
 7842SOL    HW124425   2.069   1.278   2.845
 7842SOL    HW224426   2.119   1.403   2.752
 7843SOL     OW24427   0.382   6.791   4.269
 7843SOL    HW124428   0.302   6.834   4.228
 7843SOL    HW224429   0.465   6.824   4.224
 7844SOL     OW24430   3.393   1.039   2.524
 7844SOL    HW124431   3.432   1.108   2.584
 7844SOL    HW224432   3.307   1.006   2.562
 7845SOL     OW24433   6.042   1.223   2.116
 7845SOL    HW124434   6.103   1.294   2.151
 7845SOL    HW224435   5.957   1.266   2.085
 7846SOL     OW24436   1.218   2.308   0.405
 7846SOL    HW124437   1.158   2.353   0.339
 7846SOL    HW224438   1.228   2.211   0.380
 7847SOL     OW24439   5.862   2.615   4.385
 7847SOL    HW124440   5.957   2.585   4.371
 7847SOL    HW224441   5.837   2.601   4.481
 7848SOL     OW24442   2.909   4.747   0.610
 7848SOL    HW124443   3.005   4.763   0.631
 7848SOL    HW224444   2.852   4.775   0.687
 7849SOL     OW24445   5.323   3.482   5.697
 7849SOL    HW124446   5.224   3.473   5.688
 7849SOL    HW224447   5.368   3.425   5.628
 7850SOL     OW24448   6.963   1.418   3.648
 7850SOL    HW124449   0.006   1.463   3.716
 7850SOL    HW224450   6.894   1.364   3.696
 7851SOL     OW24451   1.096   4.136   1.357
 7851SOL    HW124452   1.084   4.066   1.288
 7851SOL    HW224453   1.189   4.131   1.395
 7852SOL     OW24454   2.290   1.787   0.511
 7852SOL    HW124455   2.336   1.786   0.422
 7852SOL    HW224456   2.346   1.836   0.578
 7853SOL     OW24457   3.716   3.170   1.459
 7853SOL    HW124458   3.686   3.143   1.368
 7853SOL    HW224459   3.641   3.159   1.524
 7854SOL     OW24460   4.409   1.830   6.380
 7854SOL    HW124461   4.415   1.925   6.349
 7854SOL    HW224462   4.335   1.784   6.331
 7855SOL     OW24463   5.185   6.944   4.645
 7855SOL    HW124464   5.216   6.849   4.651
 7855SOL    HW224465   5.179   6.971   4.549
 7856SOL     OW24466   2.171   4.983   4.605
 7856SOL    HW124467   2.169   5.079   4.578
 7856SOL    HW224468   2.181   4.925   4.524
 7857SOL     OW24469   5.344   3.776   0.285
 7857SOL    HW124470   5.399   3.860   0.292
 7857SOL    HW224471   5.405   3.699   0.267
 7858SOL     OW24472   0.255   5.362   5.574
 7858SOL    HW124473   0.252   5.385   5.671
 7858SOL    HW224474   0.189   5.290   5.555
 7859SOL     OW24475   5.336   2.840   6.263
 7859SOL    HW124476   5.253   2.874   6.307
 7859SOL    HW224477   5.411   2.839   6.329
 7860SOL     OW24478   2.950   1.132   4.670
 7860SOL    HW124479   2.906   1.069   4.606
 7860SOL    HW224480   2.880   1.182   4.721
 7861SOL     OW24481   2.490   5.879   1.104
 7861SOL    HW124482   2.429   5.824   1.161
 7861SOL    HW224483   2.584   5.871   1.138
 7862SOL     OW24484   3.041   6.031   1.207
 7862SOL    HW124485   3.024   5.949   1.262
 7862SOL    HW224486   2.954   6.070   1.178
 7863SOL     OW24487   6.845   4.684   3.506
 7863SOL    HW124488   6.945   4.686   3.513
 7863SOL    HW224489   6.816   4.736   3.426
 7864SOL     OW24490   2.529   6.031   5.794
 7864SOL    HW124491   2.606   5.977   5.760
 7864SOL    HW224492   2.444   5.995   5.757
 7865SOL     OW24493   6.760   6.237   3.937
 7865SOL    HW124494   6.701   6.160   3.961
 7865SOL    HW224495   6.749   6.259   3.840
 7866SOL     OW24496   2.128   0.714   6.121
 7866SOL    HW124497   2.077   0.635   6.156
 7866SOL    HW224498   2.224   0.706   6.148
 7867SOL     OW24499   5.529   0.535   3.902
 7867SOL    HW124500   5.573   0.625   3.905
 7867SOL    HW224501   5.599   0.464   3.907
 7868SOL     OW24502   4.172   6.237   0.882
 7868SOL    HW124503   4.250   6.203   0.935
 7868SOL    HW224504   4.178   6.201   0.789
 7869SOL     OW24505   5.709   4.043   5.532
 7869SOL    HW124506   5.681   4.061   5.626
 7869SOL    HW224507   5.685   4.122   5.475
 7870SOL     OW24508   4.304   6.224   5.067
 7870SOL    HW124509   4.277   6.222   4.971
 7870SOL    HW224510   4.378   6.291   5.079
 7871SOL     OW24511   5.407   1.408   2.144
 7871SOL    HW124512   5.356   1.412   2.058
 7871SOL    HW224513   5.389   1.490   2.198
 7872SOL     OW24514   1.774   5.388   2.581
 7872SOL    HW124515   1.677   5.398   2.605
 7872SOL    HW224516   1.815   5.478   2.569
 7873SOL     OW24517   0.191   1.240   0.680
 7873SOL    HW124518   0.145   1.183   0.747
 7873SOL    HW224519   0.163   1.214   0.587
 7874SOL     OW24520   5.629   2.558   1.268
 7874SOL    HW124521   5.692   2.591   1.338
 7874SOL    HW224522   5.607   2.462   1.286
 7875SOL     OW24523   3.872   4.161   6.762
 7875SOL    HW124524   3.937   4.088   6.741
 7875SOL    HW224525   3.899   4.245   6.714
 7876SOL     OW24526   0.495   0.200   2.736
 7876SOL    HW124527   0.494   0.173   2.640
 7876SOL    HW224528   0.436   0.139   2.788
 7877SOL     OW24529   6.675   1.757   3.236
 7877SOL    HW124530   6.644   1.666   3.266
 7877SOL    HW224531   6.629   1.781   3.151
 7878SOL     OW24532   4.782   4.805   3.811
 7878SOL    HW124533   4.817   4.846   3.727
 7878SOL    HW224534   4.858   4.767   3.864
 7879SOL     OW24535   2.833   5.068   3.681
 7879SOL    HW124536   2.799   4.990   3.628
 7879SOL    HW224537   2.813   5.152   3.631
 7880SOL     OW24538   2.165   3.544   1.441
 7880SOL    HW124539   2.217   3.572   1.522
 7880SOL    HW224540   2.171   3.615   1.371
 7881SOL     OW24541   4.908   3.569   4.421
 7881SOL    HW124542   4.914   3.597   4.517
 7881SOL    HW224543   4.813   3.544   4.399
 7882SOL     OW24544   2.509   3.279   1.165
 7882SOL    HW124545   2.517   3.346   1.239
 7882SOL    HW224546   2.594   3.226   1.158
 7883SOL     OW24547   0.620   1.267   5.255
 7883SOL    HW124548   0.596   1.238   5.347
 7883SOL    HW224549   0.719   1.278   5.247
 7884SOL     OW24550   0.787   3.071   4.910
 7884SOL    HW124551   0.692   3.099   4.897
 7884SOL    HW224552   0.844   3.111   4.838
 7885SOL     OW24553   5.844   5.284   0.793
 7885SOL    HW124554   5.819   5.369   0.840
 7885SOL    HW224555   5.921   5.242   0.840
 7886SOL     OW24556   4.861   5.353   0.070
 7886SOL    HW124557   4.827   5.321   0.159
 7886SOL    HW224558   4.884   5.274   0.014
 7887SOL     OW24559   4.960   2.067   6.978
 7887SOL    HW124560   4.947   2.082   0.060
 7887SOL    HW224561   4.916   1.981   6.952
 7888SOL     OW24562   4.555   0.436   4.636
 7888SOL    HW124563   4.573   0.386   4.552
 7888SOL    HW224564   4.583   0.531   4.625
 7889SOL     OW24565   0.212   5.815   2.323
 7889SOL    HW124566   0.140   5.795   2.257
 7889SOL    HW224567   0.274   5.884   2.285
 7890SOL     OW24568   2.096   3.966   2.414
 7890SOL    HW124569   2.159   4.026   2.462
 7890SOL    HW224570   2.031   4.021   2.361
 7891SOL     OW24571   2.641   4.681   2.090
 7891SOL    HW124572   2.593   4.749   2.035
 7891SOL    HW224573   2.716   4.642   2.036
 7892SOL     OW24574   2.006   2.604   5.372
 7892SOL    HW124575   2.072   2.612   5.446
 7892SOL    HW224576   1.993   2.507   5.349
 7893SOL     OW24577   5.820   6.487   0.576
 7893SOL    HW124578   5.752   6.466   0.646
 7893SOL    HW224579   5.866   6.573   0.599
 7894SOL     OW24580   2.593   6.291   2.328
 7894SOL    HW124581   2.685   6.276   2.290
 7894SOL    HW224582   2.587   6.384   2.364
 7895SOL     OW24583   6.184   1.158   4.650
 7895SOL    HW124584   6.168   1.059   4.649
 7895SOL    HW224585   6.216   1.187   4.560
 7896SOL     OW24586   5.036   4.153   5.487
 7896SOL    HW124587   5.104   4.186   5.421
 7896SOL    HW224588   4.976   4.228   5.513
 7897SOL     OW24589   2.349   3.672   6.730
 7897SOL    HW124590   2.337   3.668   6.631
 7897SOL    HW224591   2.427   3.617   6.757
 7898SOL     OW24592   4.002   2.203   3.960
 7898SOL    HW124593   4.005   2.283   4.020
 7898SOL    HW224594   3.923   2.147   3.983
 7899SOL     OW24595   5.674   2.678   2.689
 7899SOL    HW124596   5.644   2.721   2.774
 7899SOL    HW224597   5.676   2.747   2.616
 7900SOL     OW24598   1.888   5.978   1.155
 7900SOL    HW124599   1.896   5.921   1.073
 7900SOL    HW224600   1.814   6.044   1.143
 7901SOL     OW24601   6.804   6.385   6.356
 7901SOL    HW124602   6.877   6.321   6.329
 7901SOL    HW224603   6.759   6.420   6.274
 7902SOL     OW24604   4.554   4.446   0.721
 7902SOL    HW124605   4.604   4.377   0.669
 7902SOL    HW224606   4.468   4.407   0.754
 7903SOL     OW24607   6.753   1.806   0.101
 7903SOL    HW124608   6.825   1.805   0.171
 7903SOL    HW224609   6.705   1.719   0.101
 7904SOL     OW24610   0.081   1.398   2.379
 7904SOL    HW124611   0.157   1.461   2.395
 7904SOL    HW224612   7.012   1.449   2.375
 7905SOL     OW24613   4.320   0.941   1.053
 7905SOL    HW124614   4.404   0.953   1.106
 7905SOL    HW224615   4.341   0.941   0.956
 7906SOL     OW24616   5.689   5.784   6.795
 7906SOL    HW124617   5.616   5.734   6.747
 7906SOL    HW224618   5.778   5.751   6.763
 7907SOL     OW24619   6.716   2.569   3.621
 7907SOL    HW124620   6.624   2.607   3.617
 7907SOL    HW224621   6.781   2.640   3.645
 7908SOL     OW24622   6.819   1.396   4.066
 7908SOL    HW124623   6.904   1.425   4.109
 7908SOL    HW224624   6.741   1.437   4.113
 7909SOL     OW24625   4.657   4.371   4.768
 7909SOL    HW124626   4.709   4.400   4.848
 7909SOL    HW224627   4.581   4.434   4.753
 7910SOL     OW24628   4.551   3.514   5.687
 7910SOL    HW124629   4.481   3.575   5.652
 7910SOL    HW224630   4.591   3.552   5.770
 7911SOL     OW24631   6.427   4.586   0.765
 7911SOL    HW124632   6.525   4.570   0.753
 7911SOL    HW224633   6.385   4.603   0.676
 7912SOL     OW24634   5.874   4.441   6.300
 7912SOL    HW124635   5.887   4.539   6.292
 7912SOL    HW224636   5.776   4.419   6.295
 7913SOL     OW24637   6.814   5.269   6.911
 7913SOL    HW124638   6.849   5.352   6.954
 7913SOL    HW224639   6.857   5.257   6.822
 7914SOL     OW24640   6.230   3.862   1.243
 7914SOL    HW124641   6.327   3.839   1.254
 7914SOL    HW224642   6.213   3.889   1.148
 7915SOL     OW24643   4.051   1.751   3.468
 7915SOL    HW124644   3.976   1.699   3.427
 7915SOL    HW224645   4.013   1.828   3.521
 7916SOL     OW24646   5.639   3.233   5.593
 7916SOL    HW124647   5.679   3.170   5.527
 7916SOL    HW224648   5.551   3.266   5.559
 7917SOL     OW24649   4.136   3.418   4.802
 7917SOL    HW124650   4.158   3.341   4.861
 7917SOL    HW224651   4.218   3.472   4.785
 7918SOL     OW24652   6.347   1.283   2.472
 7918SOL    HW124653   6.312   1.213   2.534
 7918SOL    HW224654   6.317   1.373   2.502
 7919SOL     OW24655   5.529   5.086   2.176
 7919SOL    HW124656   5.488   5.001   2.210
 7919SOL    HW224657   5.459   5.141   2.130
 7920SOL     OW24658   0.299   5.207   1.743
 7920SOL    HW124659   0.327   5.189   1.648
 7920SOL    HW224660   0.373   5.182   1.805
 7921SOL     OW24661   2.448   7.000   1.749
 7921SOL    HW124662   2.372   0.003   1.687
 7921SOL    HW224663   2.534   7.000   1.697
 7922SOL     OW24664   1.164   5.539   6.594
 7922SOL    HW124665   1.191   5.635   6.591
 7922SOL    HW224666   1.070   5.532   6.629
 7923SOL     OW24667   1.002   1.453   3.334
 7923SOL    HW124668   1.057   1.413   3.261
 7923SOL    HW224669   0.964   1.540   3.303
 7924SOL     OW24670   2.974   0.268   3.807
 7924SOL    HW124671   3.005   0.307   3.894
 7924SOL    HW224672   2.895   0.320   3.773
 7925SOL     OW24673   6.284   1.580   6.343
 7925SOL    HW124674   6.376   1.617   6.355
 7925SOL    HW224675   6.291   1.482   6.325
 7926SOL     OW24676   3.117   0.365   2.500
 7926SOL    HW124677   3.105   0.464   2.509
 7926SOL    HW224678   3.098   0.338   2.406
 7927SOL     OW24679   3.886   4.962   5.047
 7927SOL    HW124680   3.872   5.025   5.123
 7927SOL    HW224681   3.926   4.877   5.081
 7928SOL     OW24682   2.247   5.196   2.722
 7928SOL    HW124683   2.162   5.219   2.674
 7928SOL    HW224684   2.249   5.097   2.740
 7929SOL     OW24685   3.973   3.531   4.626
 7929SOL    HW124686   4.030   3.572   4.554
 7929SOL    HW224687   4.032   3.489   4.695
 7930SOL     OW24688   4.084   5.371   3.437
 7930SOL    HW124689   4.017   5.297   3.440
 7930SOL    HW224690   4.110   5.388   3.342
 7931SOL     OW24691   2.202   2.367   0.588
 7931SOL    HW124692   2.130   2.362   0.657
 7931SOL    HW224693   2.276   2.426   0.620
 7932SOL     OW24694   1.909   6.910   0.183
 7932SOL    HW124695   1.840   6.975   0.215
 7932SOL    HW224696   1.870   6.852   0.112
 7933SOL     OW24697   1.181   0.190   6.881
 7933SOL    HW124698   1.119   0.232   6.816
 7933SOL    HW224699   1.172   0.235   6.970
 7934SOL     OW24700   3.307   3.940   0.391
 7934SOL    HW124701   3.341   3.984   0.474
 7934SOL    HW224702   3.322   4.001   0.313
 7935SOL     OW24703   4.975   6.227   1.093
 7935SOL    HW124704   4.910   6.155   1.117
 7935SOL    HW224705   4.927   6.315   1.091
 7936SOL     OW24706   4.108   6.533   3.122
 7936SOL    HW124707   4.075   6.560   3.031
 7936SOL    HW224708   4.208   6.539   3.124
 7937SOL     OW24709   6.032   6.201   5.705
 7937SOL    HW124710   5.960   6.131   5.702
 7937SOL    HW224711   6.080   6.195   5.792
 7938SOL     OW24712   4.409   5.377   4.670
 7938SOL    HW124713   4.499   5.422   4.670
 7938SOL    HW224714   4.338   5.445   4.691
 7939SOL     OW24715   0.374   0.991   5.418
 7939SOL    HW124716   0.376   1.063   5.487
 7939SOL    HW224717   0.323   1.024   5.338
 7940SOL     OW24718   2.070   5.191   1.449
 7940SOL    HW124719   2.044   5.103   1.490
 7940SOL    HW224720   2.168   5.204   1.457
 7941SOL     OW24721   0.507   0.702   0.639
 7941SOL    HW124722   0.499   0.789   0.590
 7941SOL    HW224723   0.502   0.718   0.737
 7942SOL     OW24724   0.155   6.919   1.941
 7942SOL    HW124725   0.208   6.952   2.020
 7942SOL    HW224726   0.212   6.857   1.887
 7943SOL     OW24727   5.412   2.108   0.701
 7943SOL    HW124728   5.373   2.017   0.683
 7943SOL    HW224729   5.350   2.178   0.667
 7944SOL     OW24730   0.221   3.865   1.244
 7944SOL    HW124731   0.153   3.910   1.186
 7944SOL    HW224732   0.304   3.922   1.247
 7945SOL     OW24733   5.503   6.349   2.944
 7945SOL    HW124734   5.475   6.286   2.871
 7945SOL    HW224735   5.455   6.325   3.029
 7946SOL     OW24736   2.005   2.386   6.140
 7946SOL    HW124737   2.098   2.407   6.109
 7946SOL    HW224738   1.952   2.470   6.148
 7947SOL     OW24739   4.171   2.689   6.624
 7947SOL    HW124740   4.181   2.772   6.680
 7947SOL    HW224741   4.165   2.714   6.528
 7948SOL     OW24742   6.607   6.915   0.566
 7948SOL    HW124743   6.663   6.836   0.591
 7948SOL    HW224744   6.517   6.907   0.610
 7949SOL     OW24745   5.197   5.213   3.464
 7949SOL    HW124746   5.125   5.205   3.532
 7949SOL    HW224747   5.280   5.169   3.498
 7950SOL     OW24748   4.321   4.791   4.221
 7950SOL    HW124749   4.249   4.840   4.171
 7950SOL    HW224750   4.388   4.857   4.256
 7951SOL     OW24751   3.437   3.330   0.672
 7951SOL    HW124752   3.461   3.251   0.614
 7951SOL    HW224753   3.363   3.304   0.735
 7952SOL     OW24754   6.229   3.082   0.341
 7952SOL    HW124755   6.329   3.086   0.344
 7952SOL    HW224756   6.191   3.152   0.402
 7953SOL     OW24757   2.446   2.525   3.437
 7953SOL    HW124758   2.373   2.459   3.421
 7953SOL    HW224759   2.446   2.594   3.365
 7954SOL     OW24760   4.085   5.230   4.674
 7954SOL    HW124761   4.064   5.327   4.676
 7954SOL    HW224762   4.006   5.178   4.706
 7955SOL     OW24763   0.297   6.245   6.448
 7955SOL    HW124764   0.352   6.327   6.431
 7955SOL    HW224765   0.285   6.194   6.362
 7956SOL     OW24766   0.089   6.251   3.892
 7956SOL    HW124767   0.078   6.244   3.991
 7956SOL    HW224768   0.055   6.168   3.848
 7957SOL     OW24769   1.264   1.548   0.756
 7957SOL    HW124770   1.235   1.583   0.667
 7957SOL    HW224771   1.277   1.624   0.820
 7958SOL     OW24772   3.110   5.352   3.610
 7958SOL    HW124773   3.146   5.271   3.656
 7958SOL    HW224774   3.151   5.434   3.649
 7959SOL     OW24775   6.355   4.960   0.439
 7959SOL    HW124776   6.443   4.973   0.483
 7959SOL    HW224777   6.362   4.885   0.373
 7960SOL     OW24778   2.565   1.141   1.567
 7960SOL    HW124779   2.505   1.216   1.597
 7960SOL    HW224780   2.529   1.103   1.482
 7961SOL     OW24781   1.564   6.058   5.762
 7961SOL    HW124782   1.482   6.022   5.807
 7961SOL    HW224783   1.540   6.142   5.712
 7962SOL     OW24784   2.004   0.918   2.087
 7962SOL    HW124785   1.930   0.968   2.041
 7962SOL    HW224786   2.068   0.883   2.019
 7963SOL     OW24787   0.745   0.700   5.534
 7963SOL    HW124788   0.784   0.609   5.522
 7963SOL    HW224789   0.707   0.708   5.626
 7964SOL     OW24790   5.606   5.363   2.856
 7964SOL    HW124791   5.605   5.455   2.895
 7964SOL    HW224792   5.673   5.307   2.905
 7965SOL     OW24793   5.041   2.640   0.538
 7965SOL    HW124794   4.952   2.634   0.492
 7965SOL    HW224795   5.113   2.615   0.474
 7966SOL     OW24796   0.380   5.291   4.022
 7966SOL    HW124797   0.358   5.199   3.989
 7966SOL    HW224798   0.296   5.344   4.031
 7967SOL     OW24799   3.294   6.301   2.757
 7967SOL    HW124800   3.363   6.362   2.718
 7967SOL    HW224801   3.247   6.252   2.683
 7968SOL     OW24802   2.213   2.550   3.986
 7968SOL    HW124803   2.264   2.586   3.908
 7968SOL    HW224804   2.126   2.598   3.994
 7969SOL     OW24805   3.824   1.389   3.367
 7969SOL    HW124806   3.921   1.385   3.394
 7969SOL    HW224807   3.815   1.360   3.272
 7970SOL     OW24808   0.156   4.206   3.057
 7970SOL    HW124809   0.169   4.226   3.155
 7970SOL    HW224810   0.224   4.256   3.004
 7971SOL     OW24811   3.689   0.124   1.369
 7971SOL    HW124812   3.668   0.029   1.393
 7971SOL    HW224813   3.750   0.162   1.439
 7972SOL     OW24814   6.901   4.516   1.456
 7972SOL    HW124815   6.826   4.488   1.515
 7972SOL    HW224816   6.900   4.463   1.371
 7973SOL     OW24817   4.810   3.051   3.917
 7973SOL    HW124818   4.798   3.150   3.903
 7973SOL    HW224819   4.799   3.030   4.015
 7974SOL     OW24820   4.747   0.335   4.451
 7974SOL    HW124821   4.790   0.259   4.500
 7974SOL    HW224822   4.814   0.407   4.434
 7975SOL     OW24823   3.159   0.989   4.723
 7975SOL    HW124824   3.075   1.043   4.720
 7975SOL    HW224825   3.171   0.943   4.634
 7976SOL     OW24826   1.264   6.256   4.895
 7976SOL    HW124827   1.318   6.193   4.839
 7976SOL    HW224828   1.172   6.220   4.906
 7977SOL     OW24829   4.888   6.135   2.051
 7977SOL    HW124830   4.843   6.146   1.962
 7977SOL    HW224831   4.979   6.096   2.038
 7978SOL     OW24832   4.631   3.602   5.937
 7978SOL    HW124833   4.683   3.687   5.944
 7978SOL    HW224834   4.612   3.568   6.029
 7979SOL     OW24835   2.694   0.182   4.588
 7979SOL    HW124836   2.711   0.264   4.535
 7979SOL    HW224837   2.678   0.105   4.526
 7980SOL     OW24838   3.855   6.122   0.264
 7980SOL    HW124839   3.831   6.218   0.283
 7980SOL    HW224840   3.895   6.115   0.173
 7981SOL     OW24841   1.437   5.442   2.232
 7981SOL    HW124842   1.501   5.448   2.156
 7981SOL    HW224843   1.457   5.360   2.286
 7982SOL     OW24844   6.406   2.363   1.036
 7982SOL    HW124845   6.480   2.398   0.979
 7982SOL    HW224846   6.441   2.337   1.125
 7983SOL     OW24847   5.154   1.568   2.452
 7983SOL    HW124848   5.090   1.626   2.502
 7983SOL    HW224849   5.137   1.472   2.473
 7984SOL     OW24850   0.462   2.725   2.250
 7984SOL    HW124851   0.414   2.693   2.168
 7984SOL    HW224852   0.396   2.754   2.318
 7985SOL     OW24853   1.117   0.524   2.170
 7985SOL    HW124854   1.155   0.433   2.184
 7985SOL    HW224855   1.192   0.590   2.163
 7986SOL     OW24856   3.907   1.400   6.455
 7986SOL    HW124857   3.852   1.433   6.378
 7986SOL    HW224858   4.002   1.427   6.441
 7987SOL     OW24859   0.521   2.729   5.237
 7987SOL    HW124860   0.618   2.722   5.216
 7987SOL    HW224861   0.490   2.643   5.278
 7988SOL     OW24862   2.789   1.962   4.328
 7988SOL    HW124863   2.809   1.945   4.424
 7988SOL    HW224864   2.875   1.962   4.276
 7989SOL     OW24865   3.278   2.457   5.598
 7989SOL    HW124866   3.289   2.406   5.683
 7989SOL    HW224867   3.352   2.433   5.535
 7990SOL     OW24868   1.133   2.866   4.317
 7990SOL    HW124869   1.162   2.958   4.290
 7990SOL    HW224870   1.199   2.799   4.284
 7991SOL     OW24871   0.394   2.721   5.815
 7991SOL    HW124872   0.374   2.812   5.779
 7991SOL    HW224873   0.475   2.684   5.770
 7992SOL     OW24874   1.783   6.807   0.862
 7992SOL    HW124875   1.785   6.878   0.792
 7992SOL    HW224876   1.690   6.770   0.869
 7993SOL     OW24877   2.013   5.591   6.842
 7993SOL    HW124878   2.106   5.612   6.811
 7993SOL    HW224879   2.016   5.555   6.935
 7994SOL     OW24880   4.860   1.144   3.301
 7994SOL    HW124881   4.762   1.152   3.320
 7994SOL    HW224882   4.912   1.155   3.386
 7995SOL     OW24883   3.561   5.346   3.756
 7995SOL    HW124884   3.606   5.298   3.832
 7995SOL    HW224885   3.479   5.392   3.791
 7996SOL     OW24886   3.474   0.122   4.726
 7996SOL    HW124887   3.491   0.032   4.685
 7996SOL    HW224888   3.376   0.143   4.720
 7997SOL     OW24889   5.916   2.351   1.126
 7997SOL    HW124890   5.938   2.309   1.214
 7997SOL    HW224891   5.952   2.444   1.124
 7998SOL     OW24892   5.606   4.416   0.328
 7998SOL    HW124893   5.701   4.429   0.298
 7998SOL    HW224894   5.573   4.500   0.372
 7999SOL     OW24895   1.498   0.250   5.398
 7999SOL    HW124896   1.484   0.152   5.385
 7999SOL    HW224897   1.417   0.299   5.366
 8000SOL     OW24898   6.366   6.920   5.755
 8000SOL    HW124899   6.361   6.837   5.700
 8000SOL    HW224900   6.458   6.959   5.748
 8001SOL     OW24901   1.898   6.412   1.491
 8001SOL    HW124902   1.799   6.412   1.501
 8001SOL    HW224903   1.928   6.501   1.456
 8002SOL     OW24904   6.461   3.735   5.235
 8002SOL    HW124905   6.406   3.798   5.180
 8002SOL    HW224906   6.538   3.785   5.276
 8003SOL     OW24907   3.639   4.920   3.122
 8003SOL    HW124908   3.713   4.879   3.175
 8003SOL    HW224909   3.551   4.899   3.166
 8004SOL     OW24910   2.459   4.615   3.119
 8004SOL    HW124911   2.517   4.652   3.045
 8004SOL    HW224912   2.483   4.660   3.205
 8005SOL     OW24913   3.528   0.167   1.773
 8005SOL    HW124914   3.518   0.182   1.872
 8005SOL    HW224915   3.607   0.219   1.740
 8006SOL     OW24916   2.935   6.058   0.333
 8006SOL    HW124917   2.935   6.060   0.433
 8006SOL    HW224918   2.894   5.972   0.302
 8007SOL     OW24919   0.398   0.522   4.340
 8007SOL    HW124920   0.475   0.484   4.391
 8007SOL    HW224921   0.414   0.513   4.242
 8008SOL     OW24922   6.226   6.541   7.014
 8008SOL    HW124923   6.314   6.545   6.967
 8008SOL    HW224924   6.168   6.471   6.972
 8009SOL     OW24925   6.904   0.626   3.226
 8009SOL    HW124926   6.891   0.585   3.136
 8009SOL    HW224927   6.964   0.567   3.280
 8010SOL     OW24928   2.024   1.843   0.467
 8010SOL    HW124929   2.006   1.862   0.563
 8010SOL    HW224930   2.116   1.805   0.457
 8011SOL     OW24931   3.061   2.306   1.282
 8011SOL    HW124932   3.054   2.397   1.323
 8011SOL    HW224933   3.001   2.242   1.331
 8012SOL     OW24934   2.162   6.762   1.620
 8012SOL    HW124935   2.233   6.757   1.690
 8012SOL    HW224936   2.073   6.771   1.664
 8013SOL     OW24937   5.834   4.951   4.229
 8013SOL    HW124938   5.835   5.042   4.271
 8013SOL    HW224939   5.926   4.926   4.201
 8014SOL     OW24940   1.785   6.357   6.498
 8014SOL    HW124941   1.871   6.308   6.482
 8014SOL    HW224942   1.785   6.443   6.447
 8015SOL     OW24943   2.646   2.714   0.753
 8015SOL    HW124944   2.621   2.619   0.733
 8015SOL    HW224945   2.626   2.771   0.673
 8016SOL     OW24946   4.261   6.887   0.613
 8016SOL    HW124947   4.179   6.865   0.560
 8016SOL    HW224948   4.250   6.854   0.707
 8017SOL     OW24949   0.050   4.429   4.634
 8017SOL    HW124950   0.077   4.462   4.543
 8017SOL    HW224951   7.000   4.493   4.673
 8018SOL     OW24952   4.582   1.828   6.024
 8018SOL    HW124953   4.680   1.815   6.036
 8018SOL    HW224954   4.532   1.774   6.093
 8019SOL     OW24955   1.800   5.708   0.337
 8019SOL    HW124956   1.850   5.777   0.389
 8019SOL    HW224957   1.818   5.617   0.375
 8020SOL     OW24958   5.423   5.499   6.764
 8020SOL    HW124959   5.510   5.450   6.773
 8020SOL    HW224960   5.429   5.566   6.690
 8021SOL     OW24961   0.987   1.577   1.202
 8021SOL    HW124962   1.042   1.495   1.216
 8021SOL    HW224963   1.020   1.626   1.121
 8022SOL     OW24964   4.597   6.630   2.771
 8022SOL    HW124965   4.576   6.726   2.753
 8022SOL    HW224966   4.583   6.610   2.868
 8023SOL     OW24967   6.104   6.257   2.124
 8023SOL    HW124968   6.092   6.339   2.181
 8023SOL    HW224969   6.196   6.220   2.139
 8024SOL     OW24970   4.587   5.459   5.763
 8024SOL    HW124971   4.623   5.381   5.814
 8024SOL    HW224972   4.574   5.537   5.824
 8025SOL     OW24973   3.346   6.361   6.368
 8025SOL    HW124974   3.267   6.311   6.403
 8025SOL    HW224975   3.335   6.376   6.270
 8026SOL     OW24976   1.361   3.579   6.500
 8026SOL    HW124977   1.380   3.677   6.500
 8026SOL    HW224978   1.448   3.529   6.497
 8027SOL     OW24979   4.494   2.017   5.052
 8027SOL    HW124980   4.592   2.035   5.052
 8027SOL    HW224981   4.444   2.102   5.037
 8028SOL     OW24982   4.856   5.388   6.063
 8028SOL    HW124983   4.946   5.359   6.095
 8028SOL    HW224984   4.833   5.477   6.103
 8029SOL     OW24985   4.146   4.703   0.350
 8029SOL    HW124986   4.166   4.717   0.447
 8029SOL    HW224987   4.197   4.624   0.316
 8030SOL     OW24988   5.654   4.152   5.799
 8030SOL    HW124989   5.560   4.121   5.791
 8030SOL    HW224990   5.657   4.237   5.853
 8031SOL     OW24991   4.069   5.341   1.519
 8031SOL    HW124992   4.109   5.433   1.522
 8031SOL    HW224993   4.137   5.276   1.487
 8032SOL     OW24994   5.547   4.214   4.948
 8032SOL    HW124995   5.488   4.171   4.879
 8032SOL    HW224996   5.538   4.165   5.034
 8033SOL     OW24997   5.755   2.577   0.181
 8033SOL    HW124998   5.852   2.601   0.175
 8033SOL    HW224999   5.716   2.618   0.263
 8034SOL     OW25000   5.021   7.002   4.868
 8034SOL    HW125001   4.929   6.966   4.885
 8034SOL    HW225002   5.046   6.985   4.772
 8035SOL     OW25003   5.627   6.194   6.936
 8035SOL    HW125004   5.668   6.126   6.875
 8035SOL    HW225005   5.586   6.267   6.881
 8036SOL     OW25006   2.188   3.817   1.760
 8036SOL    HW125007   2.162   3.895   1.818
 8036SOL    HW225008   2.133   3.738   1.785
 8037SOL     OW25009   1.376   3.012   1.012
 8037SOL    HW125010   1.332   3.102   1.005
 8037SOL    HW225011   1.357   2.972   1.101
 8038SOL     OW25012   0.022   2.136   3.300
 8038SOL    HW125013   0.001   2.043   3.270
 8038SOL    HW225014   0.093   2.175   3.241
 8039SOL     OW25015   2.145   0.276   3.320
 8039SOL    HW125016   2.048   0.254   3.318
 8039SOL    HW225017   2.198   0.193   3.334
 8040SOL     OW25018   0.510   5.454   1.177
 8040SOL    HW125019   0.475   5.512   1.250
 8040SOL    HW225020   0.467   5.364   1.182
 8041SOL     OW25021   4.179   1.467   1.019
 8041SOL    HW125022   4.096   1.520   1.034
 8041SOL    HW225023   4.182   1.390   1.082
 8042SOL     OW25024   3.325   2.911   2.625
 8042SOL    HW125025   3.398   2.858   2.581
 8042SOL    HW225026   3.252   2.928   2.559
 8043SOL     OW25027   2.840   0.470   1.697
 8043SOL    HW125028   2.892   0.525   1.632
 8043SOL    HW225029   2.821   0.524   1.778
 8044SOL     OW25030   3.160   3.025   1.431
 8044SOL    HW125031   3.148   3.119   1.464
 8044SOL    HW225032   3.169   3.026   1.332
 8045SOL     OW25033   6.259   2.431   2.912
 8045SOL    HW125034   6.330   2.394   2.852
 8045SOL    HW225035   6.197   2.358   2.940
 8046SOL     OW25036   5.452   4.617   5.309
 8046SOL    HW125037   5.361   4.584   5.335
 8046SOL    HW225038   5.488   4.559   5.235
 8047SOL     OW25039   3.789   5.842   4.829
 8047SOL    HW125040   3.803   5.799   4.918
 8047SOL    HW225041   3.877   5.852   4.782
 8048SOL     OW25042   6.678   0.454   5.532
 8048SOL    HW125043   6.706   0.474   5.438
 8048SOL    HW225044   6.588   0.409   5.531
 8049SOL     OW25045   1.209   6.420   1.446
 8049SOL    HW125046   1.166   6.343   1.492
 8049SOL    HW225047   1.252   6.479   1.515
 8050SOL     OW25048   1.827   3.787   0.803
 8050SOL    HW125049   1.739   3.742   0.790
 8050SOL    HW225050   1.852   3.783   0.900
 8051SOL     OW25051   4.593   1.098   2.925
 8051SOL    HW125052   4.515   1.105   2.988
 8051SOL    HW225053   4.678   1.094   2.977
 8052SOL     OW25054   2.838   1.401   3.244
 8052SOL    HW125055   2.784   1.355   3.174
 8052SOL    HW225056   2.779   1.426   3.321
 8053SOL     OW25057   3.594   4.113   2.703
 8053SOL    HW125058   3.639   4.072   2.782
 8053SOL    HW225059   3.638   4.081   2.619
 8054SOL     OW25060   5.254   6.670   4.619
 8054SOL    HW125061   5.274   6.651   4.715
 8054SOL    HW225062   5.209   6.591   4.578
 8055SOL     OW25063   1.377   0.221   6.015
 8055SOL    HW125064   1.435   0.177   5.946
 8055SOL    HW225065   1.297   0.164   6.033
 8056SOL     OW25066   4.618   1.922   3.048
 8056SOL    HW125067   4.530   1.908   3.003
 8056SOL    HW225068   4.603   1.959   3.140
 8057SOL     OW25069   2.899   6.921   3.215
 8057SOL    HW125070   2.911   6.993   3.283
 8057SOL    HW225071   2.905   6.960   3.123
 8058SOL     OW25072   2.875   0.724   2.269
 8058SOL    HW125073   2.783   0.740   2.234
 8058SOL    HW225074   2.940   0.784   2.222
 8059SOL     OW25075   3.212   2.101   4.862
 8059SOL    HW125076   3.266   2.020   4.886
 8059SOL    HW225077   3.222   2.169   4.934
 8060SOL     OW25078   6.726   1.069   4.758
 8060SOL    HW125079   6.683   0.979   4.769
 8060SOL    HW225080   6.817   1.067   4.800
 8061SOL     OW25081   6.580   5.772   2.631
 8061SOL    HW125082   6.629   5.691   2.600
 8061SOL    HW225083   6.618   5.854   2.588
 8062SOL     OW25084   1.502   3.986   3.998
 8062SOL    HW125085   1.460   4.019   4.082
 8062SOL    HW225086   1.576   4.049   3.971
 8063SOL     OW25087   3.188   3.365   6.757
 8063SOL    HW125088   3.173   3.456   6.795
 8063SOL    HW225089   3.108   3.338   6.704
 8064SOL     OW25090   0.724   3.995   0.476
 8064SOL    HW125091   0.632   4.032   0.472
 8064SOL    HW225092   0.754   3.970   0.384
 8065SOL     OW25093   4.737   0.153   4.150
 8065SOL    HW125094   4.785   0.127   4.066
 8065SOL    HW225095   4.803   0.193   4.214
 8066SOL     OW25096   1.588   0.989   1.327
 8066SOL    HW125097   1.491   0.992   1.301
 8066SOL    HW225098   1.596   0.972   1.425
 8067SOL     OW25099   4.472   2.947   1.563
 8067SOL    HW125100   4.516   2.857   1.562
 8067SOL    HW225101   4.378   2.938   1.529
 8068SOL     OW25102   1.050   4.679   4.696
 8068SOL    HW125103   1.047   4.677   4.796
 8068SOL    HW225104   1.080   4.769   4.665
 8069SOL     OW25105   1.526   6.313   0.992
 8069SOL    HW125106   1.581   6.272   1.065
 8069SOL    HW225107   1.434   6.330   1.025
 8070SOL     OW25108   3.860   6.268   1.605
 8070SOL    HW125109   3.901   6.227   1.523
 8070SOL    HW225110   3.768   6.233   1.617
 8071SOL     OW25111   3.467   6.815   5.538
 8071SOL    HW125112   3.433   6.868   5.461
 8071SOL    HW225113   3.391   6.791   5.598
 8072SOL     OW25114   4.638   1.310   0.539
 8072SOL    HW125115   4.634   1.216   0.508
 8072SOL    HW225116   4.636   1.372   0.460
 8073SOL     OW25117   4.358   6.281   5.825
 8073SOL    HW125118   4.394   6.249   5.912
 8073SOL    HW225119   4.263   6.311   5.837
 8074SOL     OW25120   3.423   3.527   0.474
 8074SOL    HW125121   3.396   3.491   0.563
 8074SOL    HW225122   3.484   3.462   0.428
 8075SOL     OW25123   0.124   1.069   2.744
 8075SOL    HW125124   0.081   1.119   2.819
 8075SOL    HW225125   0.054   1.037   2.680
 8076SOL     OW25126   5.570   2.543   5.439
 8076SOL    HW125127   5.641   2.474   5.452
 8076SOL    HW225128   5.559   2.596   5.523
 8077SOL     OW25129   0.846   6.861   1.219
 8077SOL    HW125130   0.750   6.872   1.244
 8077SOL    HW225131   0.882   6.948   1.186
 8078SOL     OW25132   6.662   2.704   0.843
 8078SOL    HW125133   6.590   2.706   0.774
 8078SOL    HW225134   6.664   2.615   0.887
 8079SOL     OW25135   6.498   2.105   2.920
 8079SOL    HW125136   6.564   2.119   2.993
 8079SOL    HW225137   6.441   2.186   2.910
 8080SOL     OW25138   2.645   4.025   0.564
 8080SOL    HW125139   2.631   4.110   0.513
 8080SOL    HW225140   2.557   3.977   0.574
 8081SOL     OW25141   6.170   1.111   4.937
 8081SOL    HW125142   6.170   1.136   4.840
 8081SOL    HW225143   6.161   1.011   4.945
 8082SOL     OW25144   6.623   2.334   3.659
 8082SOL    HW125145   6.618   2.343   3.758
 8082SOL    HW225146   6.670   2.414   3.620
 8083SOL     OW25147   4.586   2.576   3.124
 8083SOL    HW125148   4.629   2.547   3.039
 8083SOL    HW225149   4.563   2.495   3.179
 8084SOL     OW25150   6.763   6.218   1.115
 8084SOL    HW125151   6.813   6.304   1.122
 8084SOL    HW225152   6.747   6.181   1.207
 8085SOL     OW25153   5.538   0.472   0.705
 8085SOL    HW125154   5.571   0.518   0.622
 8085SOL    HW225155   5.539   0.373   0.692
 8086SOL     OW25156   3.712   0.513   4.851
 8086SOL    HW125157   3.797   0.554   4.883
 8086SOL    HW225158   3.648   0.506   4.927
 8087SOL     OW25159   2.627   2.341   1.003
 8087SOL    HW125160   2.562   2.353   1.078
 8087SOL    HW225161   2.710   2.394   1.022
 8088SOL     OW25162   5.749   0.969   2.126
 8088SOL    HW125163   5.709   1.040   2.068
 8088SOL    HW225164   5.754   1.003   2.220
 8089SOL     OW25165   5.309   3.024   0.353
 8089SOL    HW125166   5.229   2.997   0.408
 8089SOL    HW225167   5.358   2.942   0.324
 8090SOL     OW25168   5.155   1.863   6.153
 8090SOL    HW125169   5.061   1.890   6.135
 8090SOL    HW225170   5.164   1.829   6.246
 8091SOL     OW25171   3.076   4.696   6.481
 8091SOL    HW125172   3.097   4.793   6.483
 8091SOL    HW225173   3.160   4.644   6.469
 8092SOL     OW25174   1.521   1.159   5.272
 8092SOL    HW125175   1.521   1.257   5.251
 8092SOL    HW225176   1.559   1.108   5.195
 8093SOL     OW25177   6.023   5.916   1.326
 8093SOL    HW125178   6.117   5.900   1.294
 8093SOL    HW225179   5.975   5.974   1.260
 8094SOL     OW25180   1.422   3.844   6.527
 8094SOL    HW125181   1.379   3.908   6.463
 8094SOL    HW225182   1.510   3.880   6.556
 8095SOL     OW25183   5.906   3.476   4.984
 8095SOL    HW125184   5.836   3.424   4.935
 8095SOL    HW225185   5.936   3.424   5.064
 8096SOL     OW25186   3.177   5.813   1.621
 8096SOL    HW125187   3.191   5.854   1.531
 8096SOL    HW225188   3.179   5.713   1.612
 8097SOL     OW25189   5.047   1.156   3.517
 8097SOL    HW125190   5.091   1.236   3.476
 8097SOL    HW225191   5.116   1.103   3.566
 8098SOL     OW25192   2.890   5.984   4.353
 8098SOL    HW125193   2.903   5.896   4.399
 8098SOL    HW225194   2.844   6.047   4.415
 8099SOL     OW25195   5.090   6.430   4.584
 8099SOL    HW125196   5.142   6.346   4.569
 8099SOL    HW225197   5.092   6.454   4.681
 8100SOL     OW25198   6.681   6.663   0.664
 8100SOL    HW125199   6.715   6.708   0.747
 8100SOL    HW225200   6.692   6.564   0.672
 8101SOL     OW25201   1.391   6.034   3.584
 8101SOL    HW125202   1.391   6.064   3.488
 8101SOL    HW225203   1.307   5.984   3.603
 8102SOL     OW25204   6.831   5.341   5.585
 8102SOL    HW125205   6.868   5.377   5.500
 8102SOL    HW225206   6.765   5.268   5.566
 8103SOL     OW25207   3.650   1.493   2.354
 8103SOL    HW125208   3.550   1.492   2.342
 8103SOL    HW225209   3.674   1.440   2.435
 8104SOL     OW25210   2.545   6.980   5.671
 8104SOL    HW125211   2.475   6.964   5.602
 8104SOL    HW225212   2.595   6.895   5.688
 8105SOL     OW25213   2.371   2.278   3.753
 8105SOL    HW125214   2.435   2.208   3.783
 8105SOL    HW225215   2.297   2.235   3.700
 8106SOL     OW25216   0.993   4.210   3.536
 8106SOL    HW125217   1.056   4.133   3.548
 8106SOL    HW225218   0.901   4.175   3.515
 8107SOL     OW25219   1.987   6.225   5.736
 8107SOL    HW125220   2.051   6.286   5.689
 8107SOL    HW225221   1.980   6.139   5.686
 8108SOL     OW25222   0.682   3.820   4.303
 8108SOL    HW125223   0.597   3.803   4.253
 8108SOL    HW225224   0.688   3.917   4.327
 8109SOL     OW25225   1.678   4.351   4.808
 8109SOL    HW125226   1.643   4.368   4.900
 8109SOL    HW225227   1.758   4.408   4.791
 8110SOL     OW25228   2.291   6.249   0.703
 8110SOL    HW125229   2.203   6.284   0.671
 8110SOL    HW225230   2.306   6.278   0.798
 8111SOL     OW25231   2.787   5.359   4.680
 8111SOL    HW125232   2.864   5.295   4.685
 8111SOL    HW225233   2.749   5.358   4.588
 8112SOL     OW25234   2.468   0.453   5.262
 8112SOL    HW125235   2.370   0.469   5.268
 8112SOL    HW225236   2.502   0.413   5.348
 8113SOL     OW25237   3.679   2.570   6.682
 8113SOL    HW125238   3.598   2.626   6.663
 8113SOL    HW225239   3.699   2.512   6.603
 8114SOL     OW25240   2.165   2.972   2.406
 8114SOL    HW125241   2.226   2.931   2.338
 8114SOL    HW225242   2.106   2.901   2.445
 8115SOL     OW25243   3.114   1.194   1.320
 8115SOL    HW125244   3.067   1.201   1.408
 8115SOL    HW225245   3.174   1.114   1.321
 8116SOL     OW25246   6.217   6.917   4.959
 8116SOL    HW125247   6.192   6.820   4.959
 8116SOL    HW225248   6.226   6.949   5.053
 8117SOL     OW25249   1.518   1.781   4.931
 8117SOL    HW125250   1.535   1.682   4.934
 8117SOL    HW225251   1.586   1.829   4.985
 8118SOL     OW25252   0.979   3.909   5.206
 8118SOL    HW125253   0.994   3.841   5.134
 8118SOL    HW225254   1.058   3.908   5.269
 8119SOL     OW25255   0.950   5.868   2.709
 8119SOL    HW125256   0.894   5.928   2.765
 8119SOL    HW225257   1.013   5.923   2.654
 8120SOL     OW25258   4.163   4.313   1.139
 8120SOL    HW125259   4.174   4.232   1.196
 8120SOL    HW225260   4.253   4.352   1.118
 8121SOL     OW25261   6.900   0.696   2.544
 8121SOL    HW125262   6.835   0.707   2.470
 8121SOL    HW225263   6.928   0.600   2.552
 8122SOL     OW25264   6.652   6.257   2.022
 8122SOL    HW125265   6.638   6.341   1.969
 8122SOL    HW225266   6.679   6.184   1.960
 8123SOL     OW25267   1.425   6.513   6.112
 8123SOL    HW125268   1.424   6.519   6.212
 8123SOL    HW225269   1.408   6.418   6.085
 8124SOL     OW25270   1.021   5.751   1.974
 8124SOL    HW125271   0.960   5.674   1.994
 8124SOL    HW225272   1.073   5.732   1.891
 8125SOL     OW25273   5.897   4.427   3.179
 8125SOL    HW125274   5.968   4.438   3.109
 8125SOL    HW225275   5.910   4.495   3.251
 8126SOL     OW25276   5.835   4.142   2.548
 8126SOL    HW125277   5.791   4.098   2.627
 8126SOL    HW225278   5.820   4.086   2.466
 8127SOL     OW25279   2.073   4.940   0.014
 8127SOL    HW125280   2.074   5.007   6.956
 8127SOL    HW225281   2.000   4.962   0.078
 8128SOL     OW25282   3.597   2.646   5.685
 8128SOL    HW125283   3.508   2.686   5.708
 8128SOL    HW225284   3.651   2.712   5.634
 8129SOL     OW25285   5.797   0.766   6.310
 8129SOL    HW125286   5.823   0.686   6.256
 8129SOL    HW225287   5.712   0.747   6.360
 8130SOL     OW25288   1.487   5.580   6.609
 8130SOL    HW125289   1.412   5.583   6.543
 8130SOL    HW225290   1.550   5.507   6.584
 8131SOL     OW25291   2.814   0.677   0.969
 8131SOL    HW125292   2.868   0.600   1.005
 8131SOL    HW225293   2.874   0.737   0.916
 8132SOL     OW25294   5.871   5.573   3.861
 8132SOL    HW125295   5.840   5.668   3.863
 8132SOL    HW225296   5.969   5.570   3.840
 8133SOL     OW25297   2.501   5.208   2.765
 8133SOL    HW125298   2.519   5.224   2.862
 8133SOL    HW225299   2.404   5.218   2.746
 8134SOL     OW25300   2.161   2.290   4.021
 8134SOL    HW125301   2.172   2.389   4.017
 8134SOL    HW225302   2.176   2.251   3.930
 8135SOL     OW25303   3.968   5.528   2.278
 8135SOL    HW125304   3.998   5.457   2.342
 8135SOL    HW225305   3.899   5.490   2.216
 8136SOL     OW25306   3.880   5.712   2.543
 8136SOL    HW125307   3.978   5.705   2.562
 8136SOL    HW225308   3.865   5.771   2.464
 8137SOL     OW25309   2.153   3.997   4.769
 8137SOL    HW125310   2.092   4.071   4.743
 8137SOL    HW225311   2.194   4.017   4.858
 8138SOL     OW25312   5.222   1.085   2.297
 8138SOL    HW125313   5.146   1.021   2.306
 8138SOL    HW225314   5.186   1.177   2.281
 8139SOL     OW25315   1.816   2.410   3.078
 8139SOL    HW125316   1.887   2.473   3.110
 8139SOL    HW225317   1.855   2.347   3.011
 8140SOL     OW25318   4.816   0.664   0.637
 8140SOL    HW125319   4.892   0.600   0.637
 8140SOL    HW225320   4.824   0.727   0.714
 8141SOL     OW25321   4.928   1.589   6.087
 8141SOL    HW125322   4.974   1.666   6.042
 8141SOL    HW225323   4.916   1.515   6.021
 8142SOL     OW25324   2.108   5.988   0.046
 8142SOL    HW125325   2.079   5.976   6.968
 8142SOL    HW225326   2.029   6.005   0.104
 8143SOL     OW25327   5.516   4.629   0.507
 8143SOL    HW125328   5.568   4.614   0.591
 8143SOL    HW225329   5.428   4.582   0.514
 8144SOL     OW25330   0.173   4.859   5.719
 8144SOL    HW125331   0.199   4.763   5.710
 8144SOL    HW225332   0.252   4.912   5.749
 8145SOL     OW25333   5.641   5.592   0.024
 8145SOL    HW125334   5.676   5.587   0.117
 8145SOL    HW225335   5.694   5.659   6.988
 8146SOL     OW25336   6.034   0.325   4.394
 8146SOL    HW125337   6.042   0.303   4.491
 8146SOL    HW225338   5.959   0.389   4.380
 8147SOL     OW25339   0.937   0.940   5.509
 8147SOL    HW125340   0.937   1.003   5.586
 8147SOL    HW225341   0.843   0.921   5.480
 8148SOL     OW25342   3.936   4.742   0.196
 8148SOL    HW125343   4.018   4.736   0.254
 8148SOL    HW225344   3.950   4.690   0.112
 8149SOL     OW25345   1.513   6.061   4.048
 8149SOL    HW125346   1.509   6.054   3.949
 8149SOL    HW225347   1.608   6.074   4.078
 8150SOL     OW25348   1.177   3.176   1.117
 8150SOL    HW125349   1.093   3.187   1.063
 8150SOL    HW225350   1.154   3.136   1.206
 8151SOL     OW25351   5.912   4.221   4.114
 8151SOL    HW125352   5.818   4.251   4.097
 8151SOL    HW225353   5.918   4.122   4.099
 8152SOL     OW25354   4.678   2.162   3.246
 8152SOL    HW125355   4.754   2.226   3.249
 8152SOL    HW225356   4.689   2.094   3.319
 8153SOL     OW25357   6.879   2.162   3.753
 8153SOL    HW125358   6.867   2.183   3.656
 8153SOL    HW225359   6.790   2.148   3.796
 8154SOL     OW25360   1.696   1.484   3.433
 8154SOL    HW125361   1.606   1.448   3.459
 8154SOL    HW225362   1.728   1.436   3.351
 8155SOL     OW25363   1.321   5.146   1.745
 8155SOL    HW125364   1.402   5.166   1.800
 8155SOL    HW225365   1.276   5.232   1.719
 8156SOL     OW25366   5.805   4.930   1.633
 8156SOL    HW125367   5.901   4.907   1.647
 8156SOL    HW225368   5.797   5.020   1.590
 8157SOL     OW25369   6.748   3.120   6.300
 8157SOL    HW125370   6.846   3.099   6.292
 8157SOL    HW225371   6.725   3.136   6.395
 8158SOL     OW25372   5.459   4.666   6.218
 8158SOL    HW125373   5.479   4.757   6.256
 8158SOL    HW225374   5.509   4.654   6.133
 8159SOL     OW25375   3.473   6.263   5.843
 8159SOL    HW125376   3.497   6.224   5.932
 8159SOL    HW225377   3.462   6.362   5.853
 8160SOL     OW25378   5.178   1.416   3.368
 8160SOL    HW125379   5.175   1.516   3.375
 8160SOL    HW225380   5.253   1.389   3.307
 8161SOL     OW25381   5.675   3.201   1.081
 8161SOL    HW125382   5.666   3.152   0.993
 8161SOL    HW225383   5.610   3.163   1.146
 8162SOL     OW25384   0.630   5.026   6.571
 8162SOL    HW125385   0.665   4.940   6.533
 8162SOL    HW225386   0.605   5.012   6.667
 8163SOL     OW25387   4.529   4.935   5.056
 8163SOL    HW125388   4.534   4.942   4.956
 8163SOL    HW225389   4.619   4.956   5.095
 8164SOL     OW25390   5.898   1.162   0.106
 8164SOL    HW125391   5.867   1.256   0.115
 8164SOL    HW225392   5.903   1.138   0.009
 8165SOL     OW25393   0.543   2.016   6.415
 8165SOL    HW125394   0.511   2.086   6.478
 8165SOL    HW225395   0.466   1.955   6.392
 8166SOL     OW25396   1.658   2.204   4.768
 8166SOL    HW125397   1.570   2.176   4.806
 8166SOL    HW225398   1.644   2.280   4.704
 8167SOL     OW25399   6.871   2.839   4.149
 8167SOL    HW125400   6.805   2.911   4.125
 8167SOL    HW225401   6.898   2.849   4.245
 8168SOL     OW25402   2.417   0.298   1.935
 8168SOL    HW125403   2.347   0.331   1.872
 8168SOL    HW225404   2.456   0.213   1.899
 8169SOL     OW25405   5.501   1.983   1.215
 8169SOL    HW125406   5.500   2.038   1.132
 8169SOL    HW225407   5.550   1.897   1.199
 8170SOL     OW25408   6.253   4.529   2.425
 8170SOL    HW125409   6.308   4.455   2.386
 8170SOL    HW225410   6.267   4.532   2.524
 8171SOL     OW25411   1.933   1.336   0.367
 8171SOL    HW125412   1.833   1.332   0.370
 8171SOL    HW225413   1.970   1.303   0.454
 8172SOL     OW25414   0.880   3.030   1.641
 8172SOL    HW125415   0.888   3.076   1.553
 8172SOL    HW225416   0.969   3.029   1.687
 8173SOL     OW25417   5.743   1.349   2.014
 8173SOL    HW125418   5.716   1.340   2.110
 8173SOL    HW225419   5.662   1.346   1.956
 8174SOL     OW25420   2.148   5.612   2.662
 8174SOL    HW125421   2.163   5.618   2.563
 8174SOL    HW225422   2.063   5.562   2.680
 8175SOL     OW25423   0.283   2.430   4.248
 8175SOL    HW125424   0.370   2.381   4.237
 8175SOL    HW225425   0.209   2.377   4.208
 8176SOL     OW25426   2.100   4.379   0.918
 8176SOL    HW125427   2.198   4.363   0.930
 8176SOL    HW225428   2.081   4.398   0.821
 8177SOL     OW25429   3.542   1.302   2.743
 8177SOL    HW125430   3.515   1.388   2.786
 8177SOL    HW225431   3.615   1.320   2.676
 8178SOL     OW25432   2.214   6.447   1.212
 8178SOL    HW125433   2.143   6.487   1.270
 8178SOL    HW225434   2.288   6.411   1.269
 8179SOL     OW25435   5.335   1.011   3.330
 8179SOL    HW125436   5.275   0.995   3.408
 8179SOL    HW225437   5.431   1.002   3.359
 8180SOL     OW25438   4.857   5.906   6.991
 8180SOL    HW125439   4.896   5.819   0.004
 8180SOL    HW225440   4.929   5.964   6.954
 8181SOL     OW25441   0.967   1.052   1.265
 8181SOL    HW125442   1.021   1.055   1.181
 8181SOL    HW225443   1.001   1.122   1.329
 8182SOL     OW25444   2.940   3.442   4.691
 8182SOL    HW125445   2.986   3.363   4.732
 8182SOL    HW225446   2.901   3.416   4.603
 8183SOL     OW25447   0.058   6.947   4.956
 8183SOL    HW125448   0.139   7.002   4.977
 8183SOL    HW225449   7.000   6.973   5.017
 8184SOL     OW25450   0.702   6.572   6.871
 8184SOL    HW125451   0.786   6.605   6.829
 8184SOL    HW225452   0.661   6.644   6.927
 8185SOL     OW25453   0.885   6.721   0.065
 8185SOL    HW125454   0.968   6.754   0.109
 8185SOL    HW225455   0.909   6.672   6.997
 8186SOL     OW25456   1.328   5.298   6.761
 8186SOL    HW125457   1.393   5.323   6.689
 8186SOL    HW225458   1.235   5.298   6.723
 8187SOL     OW25459   1.393   1.146   5.734
 8187SOL    HW125460   1.363   1.124   5.641
 8187SOL    HW225461   1.459   1.221   5.730
 8188SOL     OW25462   3.243   1.792   4.163
 8188SOL    HW125463   3.310   1.801   4.089
 8188SOL    HW225464   3.253   1.702   4.206
 8189SOL     OW25465   4.769   4.772   4.222
 8189SOL    HW125466   4.824   4.821   4.290
 8189SOL    HW225467   4.717   4.839   4.168
 8190SOL     OW25468   5.483   3.584   3.102
 8190SOL    HW125469   5.576   3.555   3.122
 8190SOL    HW225470   5.483   3.680   3.075
 8191SOL     OW25471   4.265   5.142   1.565
 8191SOL    HW125472   4.359   5.139   1.531
 8191SOL    HW225473   4.205   5.088   1.505
 8192SOL     OW25474   1.754   5.104   3.827
 8192SOL    HW125475   1.753   5.065   3.735
 8192SOL    HW225476   1.817   5.181   3.830
 8193SOL     OW25477   6.927   4.878   4.770
 8193SOL    HW125478   6.925   4.831   4.858
 8193SOL    HW225479   7.006   4.846   4.717
 8194SOL     OW25480   4.604   6.961   1.907
 8194SOL    HW125481   4.535   7.014   1.957
 8194SOL    HW225482   4.654   0.005   1.846
 8195SOL     OW25483   5.543   6.558   3.239
 8195SOL    HW125484   5.511   6.473   3.198
 8195SOL    HW225485   5.622   6.539   3.297
 8196SOL     OW25486   4.591   0.190   6.923
 8196SOL    HW125487   4.558   0.189   0.000
 8196SOL    HW225488   4.613   0.284   6.897
 8197SOL     OW25489   5.385   2.015   1.507
 8197SOL    HW125490   5.467   2.037   1.559
 8197SOL    HW225491   5.410   1.983   1.416
 8198SOL     OW25492   2.261   0.146   2.482
 8198SOL    HW125493   2.164   0.133   2.500
 8198SOL    HW225494   2.273   0.224   2.421
 8199SOL     OW25495   5.571   2.708   5.653
 8199SOL    HW125496   5.543   2.695   5.748
 8199SOL    HW225497   5.586   2.805   5.636
 8200SOL     OW25498   4.916   3.505   1.424
 8200SOL    HW125499   4.912   3.491   1.325
 8200SOL    HW225500   4.855   3.441   1.469
 8201SOL     OW25501   0.280   0.056   5.055
 8201SOL    HW125502   0.304   0.003   5.137
 8201SOL    HW225503   0.357   0.114   5.029
 8202SOL     OW25504   0.373   6.411   2.641
 8202SOL    HW125505   0.285   6.457   2.625
 8202SOL    HW225506   0.358   6.312   2.645
 8203SOL     OW25507   1.978   2.897   0.856
 8203SOL    HW125508   1.904   2.932   0.798
 8203SOL    HW225509   2.005   2.806   0.825
 8204SOL     OW25510   4.520   3.508   1.346
 8204SOL    HW125511   4.545   3.413   1.328
 8204SOL    HW225512   4.434   3.529   1.300
 8205SOL     OW25513   1.335   3.496   0.666
 8205SOL    HW125514   1.284   3.560   0.724
 8205SOL    HW225515   1.352   3.411   0.718
 8206SOL     OW25516   4.011   1.409   0.137
 8206SOL    HW125517   4.042   1.315   0.153
 8206SOL    HW225518   4.064   1.449   0.062
 8207SOL     OW25519   3.903   3.089   4.110
 8207SOL    HW125520   3.915   3.047   4.199
 8207SOL    HW225521   3.807   3.116   4.099
 8208SOL     OW25522   1.123   1.101   0.450
 8208SOL    HW125523   1.045   1.088   0.389
 8208SOL    HW225524   1.109   1.185   0.504
 8209SOL     OW25525   6.727   1.267   5.355
 8209SOL    HW125526   6.658   1.195   5.361
 8209SOL    HW225527   6.684   1.352   5.326
 8210SOL     OW25528   1.960   2.860   0.513
 8210SOL    HW125529   2.044   2.806   0.498
 8210SOL    HW225530   1.891   2.833   0.446
 8211SOL     OW25531   2.978   3.613   1.322
 8211SOL    HW125532   3.056   3.641   1.378
 8211SOL    HW225533   2.961   3.680   1.250
 8212SOL     OW25534   1.943   2.257   2.898
 8212SOL    HW125535   2.041   2.240   2.894
 8212SOL    HW225536   1.907   2.269   2.805
 8213SOL     OW25537   0.400   5.139   1.476
 8213SOL    HW125538   0.451   5.074   1.532
 8213SOL    HW225539   0.334   5.089   1.419
 8214SOL     OW25540   5.855   4.360   3.461
 8214SOL    HW125541   5.855   4.322   3.368
 8214SOL    HW225542   5.873   4.459   3.457
 8215SOL     OW25543   3.781   4.963   4.581
 8215SOL    HW125544   3.685   4.957   4.608
 8215SOL    HW225545   3.839   4.965   4.663
 8216SOL     OW25546   5.214   4.489   4.147
 8216SOL    HW125547   5.136   4.481   4.209
 8216SOL    HW225548   5.216   4.581   4.108
 8217SOL     OW25549   1.735   5.920   0.693
 8217SOL    HW125550   1.750   5.920   0.791
 8217SOL    HW225551   1.691   6.006   0.666
 8218SOL     OW25552   0.569   1.731   0.323
 8218SOL    HW125553   0.571   1.782   0.237
 8218SOL    HW225554   0.555   1.634   0.304
 8219SOL     OW25555   5.301   2.343   6.966
 8219SOL    HW125556   5.395   2.377   6.959
 8219SOL    HW225557   5.238   2.411   6.929
 8220SOL     OW25558   3.590   3.675   2.451
 8220SOL    HW125559   3.660   3.688   2.521
 8220SOL    HW225560   3.582   3.578   2.428
 8221SOL     OW25561   4.713   5.760   4.009
 8221SOL    HW125562   4.776   5.837   4.022
 8221SOL    HW225563   4.622   5.786   4.041
 8222SOL     OW25564   5.780   1.831   2.275
 8222SOL    HW125565   5.811   1.746   2.234
 8222SOL    HW225566   5.687   1.851   2.246
 8223SOL     OW25567   0.978   4.431   6.087
 8223SOL    HW125568   1.071   4.458   6.065
 8223SOL    HW225569   0.959   4.340   6.049
 8224SOL     OW25570   0.778   2.882   2.697
 8224SOL    HW125571   0.722   2.931   2.629
 8224SOL    HW225572   0.719   2.821   2.750
 8225SOL     OW25573   4.666   1.078   6.260
 8225SOL    HW125574   4.590   1.076   6.325
 8225SOL    HW225575   4.658   1.158   6.202
 8226SOL     OW25576   5.293   0.887   1.213
 8226SOL    HW125577   5.366   0.943   1.249
 8226SOL    HW225578   5.229   0.863   1.286
 8227SOL     OW25579   6.686   3.287   3.716
 8227SOL    HW125580   6.601   3.330   3.687
 8227SOL    HW225581   6.762   3.350   3.701
 8228SOL     OW25582   0.504   2.231   4.934
 8228SOL    HW125583   0.414   2.205   4.969
 8228SOL    HW225584   0.574   2.173   4.976
 8229SOL     OW25585   3.055   5.644   0.132
 8229SOL    HW125586   2.958   5.632   0.153
 8229SOL    HW225587   3.071   5.624   0.035
 8230SOL     OW25588   4.900   0.361   4.947
 8230SOL    HW125589   4.922   0.307   5.029
 8230SOL    HW225590   4.801   0.361   4.934
 8231SOL     OW25591   5.116   5.689   1.897
 8231SOL    HW125592   5.185   5.652   1.836
 8231SOL    HW225593   5.149   5.775   1.937
 8232SOL     OW25594   3.977   1.550   0.614
 8232SOL    HW125595   3.880   1.525   0.608
 8232SOL    HW225596   4.021   1.538   0.525
 8233SOL     OW25597   0.223   5.380   5.860
 8233SOL    HW125598   0.226   5.427   5.948
 8233SOL    HW225599   0.128   5.363   5.834
 8234SOL     OW25600   2.888   2.626   0.142
 8234SOL    HW125601   2.954   2.550   0.138
 8234SOL    HW225602   2.817   2.612   0.073
 8235SOL     OW25603   3.444   3.196   0.968
 8235SOL    HW125604   3.418   3.171   1.061
 8235SOL    HW225605   3.460   3.294   0.963
 8236SOL     OW25606   6.806   3.268   7.003
 8236SOL    HW125607   6.711   3.241   6.987
 8236SOL    HW225608   6.818   3.296   0.081
 8237SOL     OW25609   4.454   5.712   5.466
 8237SOL    HW125610   4.513   5.739   5.390
 8237SOL    HW225611   4.368   5.764   5.461
 8238SOL     OW25612   1.794   3.783   0.111
 8238SOL    HW125613   1.770   3.737   0.197
 8238SOL    HW225614   1.779   3.881   0.120
 8239SOL     OW25615   6.417   2.229   5.345
 8239SOL    HW125616   6.433   2.314   5.295
 8239SOL    HW225617   6.320   2.205   5.339
 8240SOL     OW25618   3.134   3.841   2.601
 8240SOL    HW125619   3.139   3.851   2.700
 8240SOL    HW225620   3.053   3.787   2.577
 8241SOL     OW25621   3.786   0.013   0.910
 8241SOL    HW125622   3.693   0.016   0.946
 8241SOL    HW225623   3.852   0.016   0.985
 8242SOL     OW25624   0.943   4.551   5.825
 8242SOL    HW125625   0.996   4.588   5.748
 8242SOL    HW225626   1.005   4.527   5.899
 8243SOL     OW25627   0.286   3.248   5.962
 8243SOL    HW125628   0.199   3.213   5.928
 8243SOL    HW225629   0.273   3.338   6.003
 8244SOL     OW25630   0.471   0.166   4.051
 8244SOL    HW125631   0.571   0.163   4.048
 8244SOL    HW225632   0.437   0.227   3.980
 8245SOL     OW25633   4.682   1.874   1.295
 8245SOL    HW125634   4.664   1.808   1.368
 8245SOL    HW225635   4.596   1.916   1.266
 8246SOL     OW25636   6.270   4.125   6.139
 8246SOL    HW125637   6.336   4.053   6.160
 8246SOL    HW225638   6.209   4.094   6.067
 8247SOL     OW25639   0.793   0.487   1.489
 8247SOL    HW125640   0.777   0.568   1.433
 8247SOL    HW225641   0.853   0.510   1.566
 8248SOL     OW25642   5.738   4.786   3.777
 8248SOL    HW125643   5.760   4.701   3.826
 8248SOL    HW225644   5.677   4.842   3.833
 8249SOL     OW25645   2.288   4.753   4.060
 8249SOL    HW125646   2.235   4.669   4.043
 8249SOL    HW225647   2.228   4.832   4.048
 8250SOL     OW25648   3.414   3.755   2.888
 8250SOL    HW125649   3.462   3.675   2.924
 8250SOL    HW225650   3.479   3.831   2.879
 8251SOL     OW25651   4.767   2.048   5.075
 8251SOL    HW125652   4.850   1.993   5.066
 8251SOL    HW225653   4.793   2.145   5.085
 8252SOL     OW25654   2.912   3.553   6.100
 8252SOL    HW125655   2.933   3.486   6.171
 8252SOL    HW225656   2.958   3.527   6.015
 8253SOL     OW25657   3.543   3.042   5.165
 8253SOL    HW125658   3.462   2.984   5.172
 8253SOL    HW225659   3.540   3.093   5.079
 8254SOL     OW25660   4.146   4.761   4.519
 8254SOL    HW125661   4.171   4.792   4.610
 8254SOL    HW225662   4.229   4.748   4.464
 8255SOL     OW25663   3.977   6.094   4.141
 8255SOL    HW125664   3.972   6.171   4.204
 8255SOL    HW225665   3.909   6.025   4.167
 8256SOL     OW25666   5.798   0.948   3.733
 8256SOL    HW125667   5.833   0.928   3.641
 8256SOL    HW225668   5.863   1.006   3.781
 8257SOL     OW25669   6.126   5.111   3.093
 8257SOL    HW125670   6.064   5.054   3.147
 8257SOL    HW225671   6.178   5.171   3.154
 8258SOL     OW25672   4.616   1.051   0.446
 8258SOL    HW125673   4.559   0.977   0.482
 8258SOL    HW225674   4.670   1.016   0.369
 8259SOL     OW25675   4.180   1.432   3.395
 8259SOL    HW125676   4.168   1.465   3.488
 8259SOL    HW225677   4.246   1.357   3.394
 8260SOL     OW25678   2.699   6.758   2.090
 8260SOL    HW125679   2.608   6.770   2.050
 8260SOL    HW225680   2.764   6.735   2.018
 8261SOL     OW25681   5.783   1.287   0.698
 8261SOL    HW125682   5.715   1.247   0.759
 8261SOL    HW225683   5.823   1.367   0.741
 8262SOL     OW25684   1.051   2.431   1.617
 8262SOL    HW125685   1.142   2.458   1.586
 8262SOL    HW225686   1.009   2.370   1.549
 8263SOL     OW25687   0.315   1.200   1.366
 8263SOL    HW125688   0.319   1.106   1.334
 8263SOL    HW225689   0.397   1.222   1.419
 8264SOL     OW25690   1.068   6.187   2.251
 8264SOL    HW125691   1.127   6.119   2.295
 8264SOL    HW225692   0.980   6.146   2.228
 8265SOL     OW25693   1.797   0.239   1.606
 8265SOL    HW125694   1.776   0.256   1.510
 8265SOL    HW225695   1.719   0.193   1.649
 8266SOL     OW25696   2.088   6.679   2.745
 8266SOL    HW125697   2.108   6.607   2.812
 8266SOL    HW225698   1.992   6.672   2.717
 8267SOL     OW25699   1.980   3.515   0.832
 8267SOL    HW125700   2.038   3.460   0.772
 8267SOL    HW225701   1.939   3.590   0.780
 8268SOL     OW25702   2.190   6.439   5.949
 8268SOL    HW125703   2.134   6.433   6.031
 8268SOL    HW225704   2.186   6.533   5.913
 8269SOL     OW25705   5.733   1.762   1.001
 8269SOL    HW125706   5.756   1.858   0.989
 8269SOL    HW225707   5.802   1.718   1.058
 8270SOL     OW25708   3.042   6.561   4.089
 8270SOL    HW125709   2.983   6.513   4.024
 8270SOL    HW225710   3.014   6.657   4.096
 8271SOL     OW25711   6.974   1.222   2.936
 8271SOL    HW125712   6.881   1.187   2.946
 8271SOL    HW225713   6.998   1.274   3.018
 8272SOL     OW25714   4.676   0.693   2.102
 8272SOL    HW125715   4.592   0.709   2.155
 8272SOL    HW225716   4.652   0.669   2.008
 8273SOL     OW25717   2.123   6.635   1.018
 8273SOL    HW125718   2.149   6.729   1.040
 8273SOL    HW225719   2.140   6.576   1.097
 8274SOL     OW25720   4.430   5.031   2.788
 8274SOL    HW125721   4.378   5.109   2.754
 8274SOL    HW225722   4.384   4.946   2.762
 8275SOL     OW25723   4.588   2.101   5.965
 8275SOL    HW125724   4.581   2.140   6.057
 8275SOL    HW225725   4.603   2.003   5.972
 8276SOL     OW25726   0.684   2.182   3.758
 8276SOL    HW125727   0.633   2.266   3.776
 8276SOL    HW225728   0.781   2.196   3.782
 8277SOL     OW25729   7.016   0.937   6.412
 8277SOL    HW125730   6.999   0.846   6.374
 8277SOL    HW225731   0.052   0.928   6.497
 8278SOL     OW25732   2.107   2.126   6.473
 8278SOL    HW125733   2.039   2.198   6.486
 8278SOL    HW225734   2.194   2.168   6.445
 8279SOL     OW25735   0.569   6.200   4.866
 8279SOL    HW125736   0.566   6.100   4.867
 8279SOL    HW225737   0.653   6.231   4.822
 8280SOL     OW25738   2.957   2.648   6.769
 8280SOL    HW125739   2.892   2.613   6.836
 8280SOL    HW225740   2.958   2.748   6.773
 8281SOL     OW25741   1.128   5.484   1.364
 8281SOL    HW125742   1.169   5.574   1.368
 8281SOL    HW225743   1.197   5.416   1.342
 8282SOL     OW25744   5.956   2.905   6.219
 8282SOL    HW125745   5.963   2.809   6.246
 8282SOL    HW225746   5.982   2.914   6.122
 8283SOL     OW25747   1.459   4.712   5.990
 8283SOL    HW125748   1.515   4.791   6.017
 8283SOL    HW225749   1.512   4.628   6.003
 8284SOL     OW25750   0.525   4.533   1.920
 8284SOL    HW125751   0.490   4.615   1.873
 8284SOL    HW225752   0.505   4.539   2.017
 8285SOL     OW25753   3.960   3.175   5.037
 8285SOL    HW125754   3.970   3.131   5.126
 8285SOL    HW225755   3.934   3.106   4.969
 8286SOL     OW25756   5.948   2.551   5.769
 8286SOL    HW125757   6.047   2.563   5.760
 8286SOL    HW225758   5.929   2.465   5.818
 8287SOL     OW25759   1.171   5.601   4.665
 8287SOL    HW125760   1.129   5.566   4.581
 8287SOL    HW225761   1.256   5.649   4.642
 8288SOL     OW25762   2.490   2.482   2.960
 8288SOL    HW125763   2.544   2.432   2.892
 8288SOL    HW225764   2.473   2.575   2.927
 8289SOL     OW25765   0.298   6.860   0.624
 8289SOL    HW125766   0.350   6.808   0.693
 8289SOL    HW225767   0.361   6.907   0.563
 8290SOL     OW25768   6.726   1.535   0.437
 8290SOL    HW125769   6.636   1.551   0.398
 8290SOL    HW225770   6.718   1.523   0.536
 8291SOL     OW25771   4.883   6.993   6.881
 8291SOL    HW125772   4.819   6.996   6.804
 8291SOL    HW225773   4.906   6.898   6.902
 8292SOL     OW25774   2.804   6.332   0.385
 8292SOL    HW125775   2.765   6.278   0.311
 8292SOL    HW225776   2.777   6.428   0.373
 8293SOL     OW25777   4.053   6.982   6.276
 8293SOL    HW125778   4.014   6.985   6.184
 8293SOL    HW225779   4.144   0.006   6.275
 8294SOL     OW25780   6.197   3.607   6.013
 8294SOL    HW125781   6.155   3.568   5.931
 8294SOL    HW225782   6.145   3.579   6.093
 8295SOL     OW25783   5.586   4.906   1.779
 8295SOL    HW125784   5.669   4.897   1.725
 8295SOL    HW225785   5.506   4.901   1.719
 8296SOL     OW25786   1.666   6.741   6.012
 8296SOL    HW125787   1.733   6.731   6.086
 8296SOL    HW225788   1.653   6.654   5.966
 8297SOL     OW25789   6.362   2.673   3.277
 8297SOL    HW125790   6.290   2.627   3.329
 8297SOL    HW225791   6.335   2.679   3.181
 8298SOL     OW25792   5.262   1.352   1.645
 8298SOL    HW125793   5.247   1.267   1.595
 8298SOL    HW225794   5.314   1.416   1.588
 8299SOL     OW25795   0.490   2.836   1.811
 8299SOL    HW125796   0.474   2.760   1.749
 8299SOL    HW225797   0.587   2.858   1.814
 8300SOL     OW25798   0.266   4.818   5.409
 8300SOL    HW125799   0.332   4.779   5.345
 8300SOL    HW225800   0.233   4.747   5.471
 8301SOL     OW25801   4.389   1.899   1.268
 8301SOL    HW125802   4.374   1.934   1.360
 8301SOL    HW225803   4.308   1.851   1.237
 8302SOL     OW25804   6.087   6.152   6.433
 8302SOL    HW125805   6.035   6.178   6.514
 8302SOL    HW225806   6.025   6.139   6.355
 8303SOL     OW25807   0.190   0.333   4.576
 8303SOL    HW125808   0.166   0.392   4.499
 8303SOL    HW225809   0.283   0.354   4.606
 8304SOL     OW25810   0.940   3.264   6.195
 8304SOL    HW125811   0.962   3.266   6.098
 8304SOL    HW225812   0.933   3.358   6.229
 8305SOL     OW25813   3.648   5.188   3.981
 8305SOL    HW125814   3.581   5.161   4.049
 8305SOL    HW225815   3.739   5.156   4.008
 8306SOL     OW25816   0.465   2.713   4.911
 8306SOL    HW125817   0.497   2.778   4.981
 8306SOL    HW225818   0.497   2.621   4.933
 8307SOL     OW25819   3.864   5.168   1.458
 8307SOL    HW125820   3.785   5.157   1.519
 8307SOL    HW225821   3.927   5.235   1.497
 8308SOL     OW25822   4.598   6.516   1.625
 8308SOL    HW125823   4.690   6.542   1.594
 8308SOL    HW225824   4.534   6.590   1.605
 8309SOL     OW25825   5.345   5.560   2.850
 8309SOL    HW125826   5.275   5.493   2.823
 8309SOL    HW225827   5.415   5.566   2.779
 8310SOL     OW25828   0.858   4.435   0.402
 8310SOL    HW125829   0.850   4.404   0.497
 8310SOL    HW225830   0.794   4.509   0.385
 8311SOL     OW25831   0.398   0.843   6.162
 8311SOL    HW125832   0.345   0.912   6.113
 8311SOL    HW225833   0.459   0.886   6.228
 8312SOL     OW25834   4.992   6.317   1.706
 8312SOL    HW125835   4.910   6.306   1.762
 8312SOL    HW225836   5.038   6.229   1.696
 8313SOL     OW25837   3.754   1.739   2.887
 8313SOL    HW125838   3.835   1.791   2.913
 8313SOL    HW225839   3.750   1.730   2.787
 8314SOL     OW25840   4.887   6.628   0.788
 8314SOL    HW125841   4.790   6.619   0.812
 8314SOL    HW225842   4.902   6.716   0.742
 8315SOL     OW25843   4.176   3.310   1.056
 8315SOL    HW125844   4.242   3.272   0.991
 8315SOL    HW225845   4.106   3.361   1.005
 8316SOL     OW25846   0.485   3.449   1.437
 8316SOL    HW125847   0.538   3.481   1.516
 8316SOL    HW225848   0.474   3.349   1.442
 8317SOL     OW25849   2.111   3.407   2.519
 8317SOL    HW125850   2.060   3.379   2.438
 8317SOL    HW225851   2.160   3.492   2.500
 8318SOL     OW25852   4.271   1.967   4.840
 8318SOL    HW125853   4.274   1.875   4.801
 8318SOL    HW225854   4.254   1.961   4.938
 8319SOL     OW25855   3.435   1.542   5.737
 8319SOL    HW125856   3.505   1.513   5.671
 8319SOL    HW225857   3.398   1.630   5.709
 8320SOL     OW25858   3.535   4.738   1.072
 8320SOL    HW125859   3.571   4.676   1.142
 8320SOL    HW225860   3.596   4.816   1.062
 8321SOL     OW25861   0.580   1.351   6.446
 8321SOL    HW125862   0.640   1.337   6.525
 8321SOL    HW225863   0.609   1.290   6.372
 8322SOL     OW25864   0.044   6.916   7.012
 8322SOL    HW125865   0.043   7.015   0.010
 8322SOL    HW225866   0.138   6.883   7.015
 8323SOL     OW25867   0.220   6.941   2.430
 8323SOL    HW125868   0.132   6.894   2.426
 8323SOL    HW225869   0.205   0.023   2.425
 8324SOL     OW25870   6.633   0.484   2.185
 8324SOL    HW125871   6.672   0.462   2.274
 8324SOL    HW225872   6.613   0.399   2.136
 8325SOL     OW25873   3.998   3.283   4.342
 8325SOL    HW125874   4.064   3.351   4.373
 8325SOL    HW225875   4.007   3.270   4.243
 8326SOL     OW25876   4.353   3.641   5.564
 8326SOL    HW125877   4.341   3.658   5.466
 8326SOL    HW225878   4.375   3.728   5.609
 8327SOL     OW25879   4.918   2.257   5.601
 8327SOL    HW125880   4.980   2.224   5.673
 8327SOL    HW225881   4.827   2.273   5.639
 8328SOL     OW25882   2.491   3.740   6.181
 8328SOL    HW125883   2.433   3.817   6.206
 8328SOL    HW225884   2.587   3.764   6.197
 8329SOL     OW25885   6.998   3.043   5.571
 8329SOL    HW125886   7.001   3.133   5.614
 8329SOL    HW225887   0.070   3.023   5.530
 8330SOL     OW25888   1.976   6.587   0.806
 8330SOL    HW125889   2.013   6.614   0.894
 8330SOL    HW225890   1.909   6.654   0.775
 8331SOL     OW25891   3.013   6.739   0.747
 8331SOL    HW125892   3.022   6.839   0.747
 8331SOL    HW225893   2.989   6.708   0.655
 8332SOL     OW25894   4.648   5.038   2.395
 8332SOL    HW125895   4.706   4.976   2.343
 8332SOL    HW225896   4.614   5.110   2.335
 8333SOL     OW25897   0.034   5.574   0.276
 8333SOL    HW125898   0.120   5.530   0.250
 8333SOL    HW225899   0.050   5.672   0.289
 8334SOL     OW25900   5.744   1.347   4.025
 8334SOL    HW125901   5.748   1.332   3.926
 8334SOL    HW225902   5.718   1.442   4.044
 8335SOL     OW25903   6.109   5.183   5.824
 8335SOL    HW125904   6.084   5.278   5.844
 8335SOL    HW225905   6.208   5.177   5.810
 8336SOL     OW25906   6.723   0.842   2.938
 8336SOL    HW125907   6.735   0.769   2.872
 8336SOL    HW225908   6.658   0.814   3.009
 8337SOL     OW25909   0.438   6.852   3.900
 8337SOL    HW125910   0.531   6.871   3.870
 8337SOL    HW225911   0.393   6.792   3.834
 8338SOL     OW25912   2.130   4.997   1.930
 8338SOL    HW125913   2.070   4.917   1.931
 8338SOL    HW225914   2.112   5.053   2.010
 8339SOL     OW25915   6.930   0.976   2.597
 8339SOL    HW125916   6.914   0.878   2.596
 8339SOL    HW225917   6.870   1.021   2.531
 8340SOL     OW25918   4.917   3.733   1.040
 8340SOL    HW125919   4.821   3.707   1.032
 8340SOL    HW225920   4.932   3.821   0.995
 8341SOL     OW25921   2.095   6.779   0.430
 8341SOL    HW125922   2.142   6.836   0.362
 8341SOL    HW225923   2.151   6.699   0.452
 8342SOL     OW25924   3.951   6.793   1.134
 8342SOL    HW125925   3.980   6.755   1.046
 8342SOL    HW225926   3.975   6.730   1.208
 8343SOL     OW25927   1.626   5.260   5.818
 8343SOL    HW125928   1.633   5.341   5.760
 8343SOL    HW225929   1.565   5.278   5.895
 8344SOL     OW25930   4.714   6.401   5.798
 8344SOL    HW125931   4.631   6.453   5.777
 8344SOL    HW225932   4.691   6.305   5.814
 8345SOL     OW25933   5.489   1.933   3.611
 8345SOL    HW125934   5.460   1.848   3.567
 8345SOL    HW225935   5.409   1.978   3.652
 8346SOL     OW25936   2.421   4.811   0.312
 8346SOL    HW125937   2.397   4.739   0.376
 8346SOL    HW225938   2.505   4.786   0.263
 8347SOL     OW25939   2.509   6.995   5.144
 8347SOL    HW125940   2.562   0.059   5.170
 8347SOL    HW225941   2.531   6.969   5.050
 8348SOL     OW25942   1.415   0.285   1.498
 8348SOL    HW125943   1.320   0.259   1.483
 8348SOL    HW225944   1.443   0.256   1.590
 8349SOL     OW25945   5.673   3.681   1.176
 8349SOL    HW125946   5.639   3.590   1.199
 8349SOL    HW225947   5.773   3.677   1.166
 8350SOL     OW25948   5.920   0.795   4.937
 8350SOL    HW125949   5.880   0.847   5.013
 8350SOL    HW225950   5.860   0.802   4.857
 8351SOL     OW25951   3.477   5.418   4.353
 8351SOL    HW125952   3.540   5.351   4.393
 8351SOL    HW225953   3.501   5.432   4.257
 8352SOL     OW25954   6.594   0.115   1.851
 8352SOL    HW125955   6.528   0.125   1.777
 8352SOL    HW225956   6.648   0.031   1.836
 8353SOL     OW25957   5.827   3.728   2.355
 8353SOL    HW125958   5.776   3.692   2.277
 8353SOL    HW225959   5.873   3.813   2.328
 8354SOL     OW25960   3.149   1.406   6.545
 8354SOL    HW125961   3.081   1.341   6.510
 8354SOL    HW225962   3.133   1.496   6.507
 8355SOL     OW25963   2.765   0.852   0.206
 8355SOL    HW125964   2.730   0.943   0.182
 8355SOL    HW225965   2.701   0.782   0.173
 8356SOL     OW25966   0.624   6.695   0.489
 8356SOL    HW125967   0.632   6.733   0.396
 8356SOL    HW225968   0.634   6.595   0.485
 8357SOL     OW25969   4.012   5.359   5.330
 8357SOL    HW125970   4.065   5.365   5.415
 8357SOL    HW225971   4.067   5.395   5.254
 8358SOL     OW25972   2.054   2.549   5.797
 8358SOL    HW125973   2.100   2.537   5.885
 8358SOL    HW225974   2.113   2.601   5.736
 8359SOL     OW25975   3.930   5.908   4.421
 8359SOL    HW125976   3.991   5.843   4.465
 8359SOL    HW225977   3.938   5.997   4.466
 8360SOL     OW25978   3.803   0.254   2.792
 8360SOL    HW125979   3.903   0.248   2.789
 8360SOL    HW225980   3.764   0.166   2.764
 8361SOL     OW25981   1.766   1.007   2.247
 8361SOL    HW125982   1.862   1.027   2.225
 8361SOL    HW225983   1.741   1.055   2.331
 8362SOL     OW25984   2.984   1.938   0.553
 8362SOL    HW125985   3.068   1.988   0.577
 8362SOL    HW225986   3.004   1.840   0.548
 8363SOL     OW25987   1.086   2.882   0.818
 8363SOL    HW125988   0.994   2.879   0.779
 8363SOL    HW225989   1.088   2.828   0.902
 8364SOL     OW25990   0.118   3.443   3.013
 8364SOL    HW125991   0.191   3.376   3.031
 8364SOL    HW225992   0.077   3.424   2.924
 8365SOL     OW25993   2.017   4.070   0.882
 8365SOL    HW125994   1.985   4.049   0.974
 8365SOL    HW225995   2.086   4.003   0.855
 8366SOL     OW25996   4.716   6.066   2.254
 8366SOL    HW125997   4.772   6.098   2.177
 8366SOL    HW225998   4.775   6.054   2.335
 8367SOL     OW25999   4.894   6.195   3.847
 8367SOL    HW126000   4.813   6.161   3.895
 8367SOL    HW226001   4.893   6.162   3.753
 8368SOL     OW26002   2.645   5.836   6.267
 8368SOL    HW126003   2.676   5.922   6.306
 8368SOL    HW226004   2.592   5.854   6.184
 8369SOL     OW26005   1.711   1.029   0.147
 8369SOL    HW126006   1.794   1.085   0.147
 8369SOL    HW226007   1.652   1.057   0.072
 8370SOL     OW26008   2.867   2.300   5.531
 8370SOL    HW126009   2.919   2.318   5.448
 8370SOL    HW226010   2.929   2.298   5.610
 8371SOL     OW26011   1.609   3.517   0.256
 8371SOL    HW126012   1.525   3.526   0.203
 8371SOL    HW226013   1.666   3.445   0.216
 8372SOL     OW26014   0.599   6.840   2.746
 8372SOL    HW126015   0.507   6.837   2.707
 8372SOL    HW226016   0.652   6.763   2.711
 8373SOL     OW26017   0.658   6.458   5.366
 8373SOL    HW126018   0.598   6.433   5.442
 8373SOL    HW226019   0.613   6.527   5.309
 8374SOL     OW26020   0.241   0.896   7.013
 8374SOL    HW126021   0.269   0.810   6.970
 8374SOL    HW226022   0.186   0.876   0.078
 8375SOL     OW26023   3.288   6.084   6.071
 8375SOL    HW126024   3.249   6.123   5.987
 8375SOL    HW226025   3.387   6.073   6.059
 8376SOL     OW26026   2.502   0.440   4.619
 8376SOL    HW126027   2.575   0.473   4.560
 8376SOL    HW226028   2.448   0.371   4.570
 8377SOL     OW26029   5.904   5.711   1.458
 8377SOL    HW126030   5.808   5.727   1.482
 8377SOL    HW226031   5.941   5.792   1.412
 8378SOL     OW26032   4.860   3.951   3.531
 8378SOL    HW126033   4.854   3.926   3.627
 8378SOL    HW226034   4.884   4.048   3.523
 8379SOL     OW26035   6.644   3.635   1.941
 8379SOL    HW126036   6.599   3.724   1.935
 8379SOL    HW226037   6.689   3.614   1.854
 8380SOL     OW26038   6.243   1.032   2.161
 8380SOL    HW126039   6.211   0.968   2.231
 8380SOL    HW226040   6.184   1.112   2.161
 8381SOL     OW26041   0.798   4.991   4.682
 8381SOL    HW126042   0.895   5.013   4.689
 8381SOL    HW226043   0.758   4.984   4.774
 8382SOL     OW26044   1.153   1.708   2.307
 8382SOL    HW126045   1.222   1.665   2.365
 8382SOL    HW226046   1.198   1.763   2.236
 8383SOL     OW26047   2.556   1.901   6.638
 8383SOL    HW126048   2.515   1.986   6.672
 8383SOL    HW226049   2.581   1.912   6.542
 8384SOL     OW26050   6.952   6.575   0.887
 8384SOL    HW126051   7.003   6.655   0.921
 8384SOL    HW226052   6.915   6.597   0.797
 8385SOL     OW26053   5.469   2.418   1.972
 8385SOL    HW126054   5.399   2.468   1.921
 8385SOL    HW226055   5.523   2.362   1.908
 8386SOL     OW26056   0.941   4.319   2.534
 8386SOL    HW126057   0.848   4.284   2.523
 8386SOL    HW226058   1.000   4.280   2.463
 8387SOL     OW26059   1.364   1.104   0.973
 8387SOL    HW126060   1.424   1.087   0.896
 8387SOL    HW226061   1.413   1.156   1.043
 8388SOL     OW26062   2.831   5.819   1.588
 8388SOL    HW126063   2.815   5.905   1.636
 8388SOL    HW226064   2.744   5.770   1.576
 8389SOL     OW26065   5.404   3.607   2.055
 8389SOL    HW126066   5.416   3.547   1.976
 8389SOL    HW226067   5.321   3.660   2.044
 8390SOL     OW26068   3.937   2.204   6.564
 8390SOL    HW126069   3.869   2.260   6.516
 8390SOL    HW226070   3.894   2.119   6.596
 8391SOL     OW26071   5.865   6.924   0.610
 8391SOL    HW126072   5.942   6.894   0.667
 8391SOL    HW226073   5.849   0.005   0.624
 8392SOL     OW26074   6.530   3.711   4.266
 8392SOL    HW126075   6.536   3.778   4.193
 8392SOL    HW226076   6.457   3.737   4.330
 8393SOL     OW26077   5.116   0.476   2.175
 8393SOL    HW126078   5.200   0.529   2.164
 8393SOL    HW226079   5.133   0.398   2.235
 8394SOL     OW26080   6.039   3.563   2.457
 8394SOL    HW126081   5.988   3.523   2.534
 8394SOL    HW226082   5.974   3.595   2.388
 8395SOL     OW26083   2.337   0.208   5.392
 8395SOL    HW126084   2.315   0.256   5.477
 8395SOL    HW226085   2.423   0.243   5.355
 8396SOL     OW26086   3.875   5.123   4.213
 8396SOL    HW126087   3.952   5.177   4.177
 8396SOL    HW226088   3.909   5.053   4.275
 8397SOL     OW26089   6.574   1.509   4.238
 8397SOL    HW126090   6.577   1.492   4.337
 8397SOL    HW226091   6.479   1.515   4.208
 8398SOL     OW26092   4.879   1.587   6.342
 8398SOL    HW126093   4.823   1.660   6.382
 8398SOL    HW226094   4.871   1.589   6.243
 8399SOL     OW26095   6.868   5.902   6.676
 8399SOL    HW126096   6.802   5.833   6.649
 8399SOL    HW226097   6.876   5.971   6.603
 8400SOL     OW26098   1.576   2.143   4.127
 8400SOL    HW126099   1.626   2.074   4.180
 8400SOL    HW226100   1.612   2.146   4.034
 8401SOL     OW26101   2.261   0.166   5.082
 8401SOL    HW126102   2.353   0.132   5.061
 8401SOL    HW226103   2.244   0.158   5.180
 8402SOL     OW26104   4.722   0.923   6.003
 8402SOL    HW126105   4.695   0.968   6.087
 8402SOL    HW226106   4.689   0.828   6.004
 8403SOL     OW26107   6.570   4.760   3.961
 8403SOL    HW126108   6.603   4.853   3.980
 8403SOL    HW226109   6.627   4.694   4.011
 8404SOL     OW26110   2.627   1.816   6.124
 8404SOL    HW126111   2.653   1.734   6.073
 8404SOL    HW226112   2.634   1.896   6.065
 8405SOL     OW26113   3.829   1.662   5.865
 8405SOL    HW126114   3.745   1.608   5.861
 8405SOL    HW226115   3.845   1.706   5.777
 8406SOL     OW26116   4.862   0.824   6.741
 8406SOL    HW126117   4.923   0.763   6.690
 8406SOL    HW226118   4.905   0.848   6.828
 8407SOL     OW26119   4.056   6.231   3.451
 8407SOL    HW126120   4.042   6.219   3.353
 8407SOL    HW226121   4.000   6.307   3.484
 8408SOL     OW26122   5.425   6.677   0.804
 8408SOL    HW126123   5.470   6.685   0.893
 8408SOL    HW226124   5.336   6.722   0.808
 8409SOL     OW26125   4.332   2.372   2.010
 8409SOL    HW126126   4.387   2.437   1.959
 8409SOL    HW226127   4.272   2.322   1.948
 8410SOL     OW26128   6.959   2.132   1.599
 8410SOL    HW126129   6.903   2.178   1.668
 8410SOL    HW226130   0.014   2.080   1.645
 8411SOL     OW26131   0.411   6.084   1.495
 8411SOL    HW126132   0.434   6.162   1.436
 8411SOL    HW226133   0.314   6.090   1.522
 8412SOL     OW26134   3.301   2.955   0.870
 8412SOL    HW126135   3.367   2.881   0.855
 8412SOL    HW226136   3.349   3.035   0.907
 8413SOL     OW26137   4.008   5.435   6.222
 8413SOL    HW126138   4.074   5.441   6.297
 8413SOL    HW226139   3.967   5.343   6.222
 8414SOL     OW26140   1.806   1.026   2.659
 8414SOL    HW126141   1.905   1.024   2.645
 8414SOL    HW226142   1.773   0.933   2.677
 8415SOL     OW26143   3.050   0.040   4.317
 8415SOL    HW126144   3.008   0.092   4.392
 8415SOL    HW226145   3.137   0.002   4.347
 8416SOL     OW26146   5.961   1.841   4.907
 8416SOL    HW126147   5.948   1.933   4.872
 8416SOL    HW226148   5.902   1.826   4.986
 8417SOL     OW26149   1.545   3.138   5.220
 8417SOL    HW126150   1.626   3.137   5.278
 8417SOL    HW226151   1.542   3.055   5.165
 8418SOL     OW26152   0.947   5.506   2.264
 8418SOL    HW126153   1.045   5.505   2.244
 8418SOL    HW226154   0.926   5.577   2.330
 8419SOL     OW26155   5.588   1.120   2.940
 8419SOL    HW126156   5.516   1.109   3.008
 8419SOL    HW226157   5.675   1.140   2.986
 8420SOL     OW26158   3.652   6.970   2.305
 8420SOL    HW126159   3.572   6.915   2.281
 8420SOL    HW226160   3.625   0.048   2.318
 8421SOL     OW26161   3.739   6.474   6.204
 8421SOL    HW126162   3.800   6.525   6.264
 8421SOL    HW226163   3.749   6.376   6.222
 8422SOL     OW26164   4.780   2.884   2.541
 8422SOL    HW126165   4.684   2.860   2.526
 8422SOL    HW226166   4.821   2.911   2.454
 8423SOL     OW26167   5.359   4.189   5.606
 8423SOL    HW126168   5.355   4.252   5.529
 8423SOL    HW226169   5.307   4.227   5.683
 8424SOL     OW26170   2.152   0.394   3.628
 8424SOL    HW126171   2.179   0.473   3.683
 8424SOL    HW226172   2.112   0.426   3.542
 8425SOL     OW26173   3.262   3.758   3.733
 8425SOL    HW126174   3.228   3.852   3.728
 8425SOL    HW226175   3.243   3.721   3.824
 8426SOL     OW26176   3.830   3.365   2.373
 8426SOL    HW126177   3.736   3.384   2.343
 8426SOL    HW226178   3.837   3.382   2.471
 8427SOL     OW26179   2.924   3.346   3.486
 8427SOL    HW126180   2.856   3.396   3.432
 8427SOL    HW226181   3.012   3.351   3.440
 8428SOL     OW26182   0.129   0.382   0.749
 8428SOL    HW126183   0.118   0.302   0.689
 8428SOL    HW226184   0.183   0.451   0.703
 8429SOL     OW26185   1.837   5.525   6.099
 8429SOL    HW126186   1.865   5.474   6.018
 8429SOL    HW226187   1.853   5.623   6.085
 8430SOL     OW26188   4.114   5.522   4.325
 8430SOL    HW126189   4.097   5.463   4.245
 8430SOL    HW226190   4.126   5.616   4.294
 8431SOL     OW26191   2.791   2.695   6.556
 8431SOL    HW126192   2.873   2.707   6.613
 8431SOL    HW226193   2.750   2.785   6.538
 8432SOL     OW26194   6.672   5.103   6.078
 8432SOL    HW126195   6.729   5.150   6.010
 8432SOL    HW226196   6.693   5.005   6.076
 8433SOL     OW26197   4.754   2.571   1.328
 8433SOL    HW126198   4.727   2.569   1.231
 8433SOL    HW226199   4.843   2.528   1.338
 8434SOL     OW26200   1.910   5.481   4.601
 8434SOL    HW126201   2.009   5.495   4.605
 8434SOL    HW226202   1.890   5.396   4.551
 8435SOL     OW26203   5.164   0.923   2.599
 8435SOL    HW126204   5.086   0.920   2.536
 8435SOL    HW226205   5.245   0.889   2.552
 8436SOL     OW26206   2.708   6.343   3.423
 8436SOL    HW126207   2.760   6.286   3.487
 8436SOL    HW226208   2.626   6.295   3.393
 8437SOL     OW26209   2.144   3.136   2.601
 8437SOL    HW126210   2.149   3.075   2.523
 8437SOL    HW226211   2.179   3.226   2.575
 8438SOL     OW26212   1.743   3.765   3.217
 8438SOL    HW126213   1.772   3.749   3.311
 8438SOL    HW226214   1.741   3.863   3.199
 8439SOL     OW26215   6.010   5.053   3.634
 8439SOL    HW126216   5.939   4.987   3.658
 8439SOL    HW226217   6.038   5.104   3.715
 8440SOL     OW26218   1.976   1.862   3.141
 8440SOL    HW126219   1.990   1.931   3.212
 8440SOL    HW226220   2.048   1.793   3.147
 8441SOL     OW26221   5.695   5.981   5.341
 8441SOL    HW126222   5.614   5.935   5.376
 8441SOL    HW226223   5.776   5.925   5.359
 8442SOL     OW26224   3.866   0.778   5.531
 8442SOL    HW126225   3.797   0.846   5.507
 8442SOL    HW226226   3.947   0.824   5.566
 8443SOL     OW26227   1.999   4.768   3.210
 8443SOL    HW126228   2.016   4.698   3.140
 8443SOL    HW226229   1.935   4.732   3.278
 8444SOL     OW26230   4.389   6.500   2.569
 8444SOL    HW126231   4.468   6.535   2.621
 8444SOL    HW226232   4.412   6.496   2.472
 8445SOL     OW26233   2.716   6.912   7.005
 8445SOL    HW126234   2.642   6.962   0.034
 8445SOL    HW226235   2.774   6.868   0.058
 8446SOL     OW26236   0.044   6.415   5.247
 8446SOL    HW126237   0.026   6.513   5.255
 8446SOL    HW226238   0.143   6.400   5.235
 8447SOL     OW26239   4.399   1.612   2.843
 8447SOL    HW126240   4.369   1.525   2.883
 8447SOL    HW226241   4.498   1.622   2.858
 8448SOL     OW26242   5.109   6.559   3.499
 8448SOL    HW126243   5.034   6.625   3.513
 8448SOL    HW226244   5.192   6.608   3.472
 8449SOL     OW26245   1.840   2.955   3.315
 8449SOL    HW126246   1.862   2.921   3.224
 8449SOL    HW226247   1.745   2.931   3.337
 8450SOL     OW26248   6.736   0.853   6.866
 8450SOL    HW126249   6.775   0.925   6.808
 8450SOL    HW226250   6.807   0.788   6.892
 8451SOL     OW26251   3.792   1.283   1.068
 8451SOL    HW126252   3.836   1.214   1.126
 8451SOL    HW226253   3.861   1.346   1.034
 8452SOL     OW26254   5.311   1.557   4.603
 8452SOL    HW126255   5.260   1.639   4.576
 8452SOL    HW226256   5.253   1.498   4.659
 8453SOL     OW26257   1.098   5.792   6.913
 8453SOL    HW126258   1.060   5.823   6.826
 8453SOL    HW226259   1.054   5.842   6.988
 8454SOL     OW26260   1.070   4.181   6.976
 8454SOL    HW126261   0.989   4.182   0.017
 8454SOL    HW226262   1.144   4.132   0.006
 8455SOL     OW26263   0.946   0.377   2.454
 8455SOL    HW126264   0.945   0.411   2.548
 8455SOL    HW226265   0.893   0.438   2.396
 8456SOL     OW26266   5.052   0.374   3.038
 8456SOL    HW126267   5.001   0.348   3.119
 8456SOL    HW226268   5.042   0.472   3.022
 8457SOL     OW26269   6.127   6.747   4.611
 8457SOL    HW126270   6.181   6.831   4.619
 8457SOL    HW226271   6.179   6.670   4.648
 8458SOL     OW26272   0.080   6.852   0.281
 8458SOL    HW126273   0.054   6.907   0.203
 8458SOL    HW226274   7.015   6.812   0.323
 8459SOL     OW26275   1.146   5.450   3.353
 8459SOL    HW126276   1.086   5.371   3.365
 8459SOL    HW226277   1.095   5.534   3.372
 8460SOL     OW26278   4.114   4.101   5.271
 8460SOL    HW126279   4.161   4.014   5.259
 8460SOL    HW226280   4.172   4.164   5.323
 8461SOL     OW26281   6.862   2.919   4.980
 8461SOL    HW126282   6.916   2.942   5.060
 8461SOL    HW226283   6.861   2.997   4.917
 8462SOL     OW26284   2.792   1.898   1.268
 8462SOL    HW126285   2.836   1.869   1.353
 8462SOL    HW226286   2.735   1.979   1.286
 8463SOL     OW26287   6.214   0.541   2.100
 8463SOL    HW126288   6.281   0.598   2.148
 8463SOL    HW226289   6.179   0.471   2.162
 8464SOL     OW26290   6.014   3.212   4.802
 8464SOL    HW126291   6.053   3.271   4.873
 8464SOL    HW226292   5.953   3.265   4.744
 8465SOL     OW26293   1.389   1.891   0.773
 8465SOL    HW126294   1.390   1.835   0.691
 8465SOL    HW226295   1.462   1.860   0.835
 8466SOL     OW26296   1.140   5.895   3.641
 8466SOL    HW126297   1.070   5.929   3.703
 8466SOL    HW226298   1.098   5.832   3.575
 8467SOL     OW26299   2.801   5.347   0.926
 8467SOL    HW126300   2.764   5.360   0.833
 8467SOL    HW226301   2.785   5.430   0.980
 8468SOL     OW26302   4.039   2.112   0.134
 8468SOL    HW126303   3.968   2.142   0.198
 8468SOL    HW226304   4.109   2.062   0.184
 8469SOL     OW26305   3.152   2.713   6.496
 8469SOL    HW126306   3.123   2.808   6.498
 8469SOL    HW226307   3.089   2.660   6.439
 8470SOL     OW26308   2.300   2.770   0.781
 8470SOL    HW126309   2.304   2.793   0.879
 8470SOL    HW226310   2.283   2.853   0.728
 8471SOL     OW26311   3.247   0.336   4.290
 8471SOL    HW126312   3.184   0.363   4.363
 8471SOL    HW226313   3.195   0.303   4.212
 8472SOL     OW26314   0.691   0.004   4.421
 8472SOL    HW126315   0.701   6.973   4.334
 8472SOL    HW226316   0.642   0.090   4.406
 8473SOL     OW26317   6.414   5.314   0.006
 8473SOL    HW126318   6.482   5.240   7.014
 8473SOL    HW226319   6.395   5.331   0.102
 8474SOL     OW26320   3.364   2.893   1.666
 8474SOL    HW126321   3.300   2.828   1.627
 8474SOL    HW226322   3.411   2.852   1.744
 8475SOL     OW26323   6.023   1.696   2.901
 8475SOL    HW126324   6.107   1.743   2.928
 8475SOL    HW226325   5.987   1.738   2.817
 8476SOL     OW26326   5.386   0.509   2.132
 8476SOL    HW126327   5.376   0.477   2.037
 8476SOL    HW226328   5.445   0.590   2.133
 8477SOL     OW26329   2.825   6.742   1.230
 8477SOL    HW126330   2.837   6.694   1.144
 8477SOL    HW226331   2.806   6.677   1.303
 8478SOL     OW26332   1.766   0.529   5.701
 8478SOL    HW126333   1.671   0.536   5.729
 8478SOL    HW226334   1.772   0.535   5.601
 8479SOL     OW26335   6.120   0.962   0.420
 8479SOL    HW126336   6.215   0.991   0.430
 8479SOL    HW226337   6.061   1.042   0.416
 8480SOL     OW26338   3.340   0.413   1.406
 8480SOL    HW126339   3.394   0.492   1.438
 8480SOL    HW226340   3.344   0.340   1.474
 8481SOL     OW26341   3.422   1.746   4.704
 8481SOL    HW126342   3.359   1.680   4.745
 8481SOL    HW226343   3.413   1.742   4.604
 8482SOL     OW26344   1.285   0.319   2.202
 8482SOL    HW126345   1.276   0.311   2.301
 8482SOL    HW226346   1.370   0.368   2.180
 8483SOL     OW26347   3.575   5.651   1.677
 8483SOL    HW126348   3.612   5.742   1.662
 8483SOL    HW226349   3.518   5.651   1.759
 8484SOL     OW26350   0.779   4.796   4.480
 8484SOL    HW126351   0.794   4.860   4.556
 8484SOL    HW226352   0.795   4.843   4.393
 8485SOL     OW26353   2.380   4.019   0.140
 8485SOL    HW126354   2.385   3.952   0.065
 8485SOL    HW226355   2.466   4.069   0.146
 8486SOL     OW26356   6.041   0.798   2.308
 8486SOL    HW126357   5.989   0.720   2.341
 8486SOL    HW226358   6.015   0.818   2.213
 8487SOL     OW26359   5.551   0.314   1.337
 8487SOL    HW126360   5.596   0.384   1.392
 8487SOL    HW226361   5.615   0.279   1.269
 8488SOL     OW26362   5.055   4.438   4.386
 8488SOL    HW126363   5.110   4.453   4.468
 8488SOL    HW226364   4.961   4.415   4.413
 8489SOL     OW26365   5.113   4.321   1.205
 8489SOL    HW126366   5.107   4.276   1.294
 8489SOL    HW226367   5.029   4.374   1.190
 8490SOL     OW26368   4.209   5.841   3.062
 8490SOL    HW126369   4.195   5.839   3.161
 8490SOL    HW226370   4.160   5.765   3.020
 8491SOL     OW26371   2.546   0.526   2.028
 8491SOL    HW126372   2.494   0.448   1.993
 8491SOL    HW226373   2.534   0.532   2.127
 8492SOL     OW26374   6.269   2.662   5.441
 8492SOL    HW126375   6.207   2.590   5.412
 8492SOL    HW226376   6.278   2.661   5.541
 8493SOL     OW26377   4.313   1.693   0.295
 8493SOL    HW126378   4.400   1.698   0.344
 8493SOL    HW226379   4.330   1.669   0.199
 8494SOL     OW26380   2.702   5.711   6.940
 8494SOL    HW126381   2.681   5.707   6.843
 8494SOL    HW226382   2.620   5.691   6.994
 8495SOL     OW26383   6.679   2.438   0.996
 8495SOL    HW126384   6.655   2.370   1.065
 8495SOL    HW226385   6.750   2.400   0.936
 8496SOL     OW26386   0.594   2.281   3.051
 8496SOL    HW126387   0.612   2.280   3.149
 8496SOL    HW226388   0.532   2.206   3.027
 8497SOL     OW26389   5.986   5.203   3.931
 8497SOL    HW126390   5.904   5.233   3.883
 8497SOL    HW226391   6.004   5.263   4.008
 8498SOL     OW26392   0.616   0.310   1.109
 8498SOL    HW126393   0.649   0.405   1.106
 8498SOL    HW226394   0.651   0.260   1.030
 8499SOL     OW26395   3.332   5.085   6.326
 8499SOL    HW126396   3.409   5.146   6.347
 8499SOL    HW226397   3.346   4.997   6.371
 8500SOL     OW26398   2.156   6.827   6.018
 8500SOL    HW126399   2.217   6.786   5.950
 8500SOL    HW226400   2.197   6.819   6.109
 8501SOL     OW26401   2.094   3.630   6.374
 8501SOL    HW126402   2.139   3.551   6.416
 8501SOL    HW226403   1.999   3.634   6.404
 8502SOL     OW26404   0.056   6.290   1.432
 8502SOL    HW126405   7.015   6.362   1.468
 8502SOL    HW226406   0.152   6.313   1.448
 8503SOL     OW26407   2.489   5.061   3.512
 8503SOL    HW126408   2.483   4.996   3.589
 8503SOL    HW226409   2.476   5.154   3.546
 8504SOL     OW26410   1.797   5.801   3.588
 8504SOL    HW126411   1.860   5.766   3.518
 8504SOL    HW226412   1.849   5.823   3.671
 8505SOL     OW26413   5.455   4.182   3.863
 8505SOL    HW126414   5.458   4.097   3.915
 8505SOL    HW226415   5.367   4.228   3.878
 8506SOL     OW26416   1.117   6.249   0.320
 8506SOL    HW126417   1.017   6.249   0.312
 8506SOL    HW226418   1.143   6.286   0.409
 8507SOL     OW26419   2.257   1.105   6.039
 8507SOL    HW126420   2.234   1.038   6.110
 8507SOL    HW226421   2.351   1.090   6.008
 8508SOL     OW26422   0.174   2.651   5.512
 8508SOL    HW126423   0.150   2.687   5.602
 8508SOL    HW226424   0.105   2.586   5.482
 8509SOL     OW26425   5.935   1.378   4.518
 8509SOL    HW126426   5.843   1.397   4.485
 8509SOL    HW226427   5.935   1.369   4.617
 8510SOL     OW26428   5.563   5.583   3.035
 8510SOL    HW126429   5.479   5.578   2.980
 8510SOL    HW226430   5.628   5.644   2.990
 8511SOL     OW26431   6.643   4.564   1.077
 8511SOL    HW126432   6.681   4.590   1.166
 8511SOL    HW226433   6.604   4.644   1.033
 8512SOL     OW26434   4.301   2.518   0.043
 8512SOL    HW126435   4.290   2.428   0.002
 8512SOL    HW226436   4.398   2.535   0.061
 8513SOL     OW26437   5.601   3.600   0.920
 8513SOL    HW126438   5.527   3.658   0.885
 8513SOL    HW226439   5.618   3.622   1.016
 8514SOL     OW26440   2.588   1.653   4.854
 8514SOL    HW126441   2.593   1.753   4.864
 8514SOL    HW226442   2.623   1.627   4.764
 8515SOL     OW26443   0.609   1.439   0.125
 8515SOL    HW126444   0.571   1.488   0.046
 8515SOL    HW226445   0.705   1.464   0.136
 8516SOL     OW26446   6.021   2.853   2.481
 8516SOL    HW126447   6.017   2.753   2.482
 8516SOL    HW226448   6.077   2.885   2.557
 8517SOL     OW26449   2.183   2.725   5.592
 8517SOL    HW126450   2.241   2.805   5.602
 8517SOL    HW226451   2.239   2.642   5.599
 8518SOL     OW26452   4.935   5.070   6.108
 8518SOL    HW126453   4.973   4.980   6.084
 8518SOL    HW226454   4.838   5.060   6.130
 8519SOL     OW26455   1.499   4.634   0.555
 8519SOL    HW126456   1.497   4.549   0.607
 8519SOL    HW226457   1.464   4.618   0.462
 8520SOL     OW26458   4.186   3.652   5.083
 8520SOL    HW126459   4.155   3.685   4.994
 8520SOL    HW226460   4.161   3.556   5.094
 8521SOL     OW26461   1.028   6.616   5.468
 8521SOL    HW126462   1.115   6.568   5.452
 8521SOL    HW226463   0.959   6.583   5.403
 8522SOL     OW26464   1.192   6.797   0.133
 8522SOL    HW126465   1.231   6.723   0.079
 8522SOL    HW226466   1.221   6.789   0.228
 8523SOL     OW26467   2.911   6.655   6.330
 8523SOL    HW126468   2.827   6.694   6.293
 8523SOL    HW226469   2.919   6.560   6.300
 8524SOL     OW26470   1.083   5.303   5.032
 8524SOL    HW126471   1.082   5.227   5.097
 8524SOL    HW226472   1.147   5.373   5.063
 8525SOL     OW26473   6.546   4.796   0.933
 8525SOL    HW126474   6.476   4.858   0.970
 8525SOL    HW226475   6.502   4.723   0.881
 8526SOL     OW26476   2.453   6.362   0.500
 8526SOL    HW126477   2.411   6.303   0.569
 8526SOL    HW226478   2.484   6.306   0.423
 8527SOL     OW26479   3.368   0.532   6.658
 8527SOL    HW126480   3.436   0.564   6.724
 8527SOL    HW226481   3.296   0.481   6.706
 8528SOL     OW26482   4.838   1.888   1.052
 8528SOL    HW126483   4.857   1.905   1.148
 8528SOL    HW226484   4.744   1.854   1.042
 8529SOL     OW26485   0.927   6.522   6.568
 8529SOL    HW126486   1.007   6.508   6.508
 8529SOL    HW226487   0.848   6.476   6.528
 8530SOL     OW26488   2.999   3.153   4.173
 8530SOL    HW126489   2.986   3.252   4.173
 8530SOL    HW226490   2.992   3.118   4.080
 8531SOL     OW26491   6.769   5.869   3.413
 8531SOL    HW126492   6.815   5.804   3.353
 8531SOL    HW226493   6.689   5.907   3.365
 8532SOL     OW26494   3.826   6.520   4.166
 8532SOL    HW126495   3.885   6.505   4.087
 8532SOL    HW226496   3.761   6.593   4.146
 8533SOL     OW26497   0.946   6.137   6.609
 8533SOL    HW126498   0.877   6.136   6.681
 8533SOL    HW226499   1.029   6.091   6.642
 8534SOL     OW26500   4.456   2.052   4.066
 8534SOL    HW126501   4.394   2.049   4.144
 8534SOL    HW226502   4.487   2.147   4.052
 8535SOL     OW26503   5.567   0.793   3.578
 8535SOL    HW126504   5.568   0.775   3.676
 8535SOL    HW226505   5.478   0.767   3.540
 8536SOL     OW26506   0.373   1.569   4.459
 8536SOL    HW126507   0.438   1.633   4.418
 8536SOL    HW226508   0.418   1.517   4.531
 8537SOL     OW26509   6.157   1.459   3.491
 8537SOL    HW126510   6.125   1.544   3.533
 8537SOL    HW226511   6.093   1.432   3.419
 8538SOL     OW26512   1.325   1.442   0.253
 8538SOL    HW126513   1.278   1.517   0.207
 8538SOL    HW226514   1.420   1.440   0.224
 8539SOL     OW26515   6.278   2.682   3.026
 8539SOL    HW126516   6.200   2.744   3.018
 8539SOL    HW226517   6.249   2.589   3.005
 8540SOL     OW26518   4.402   0.313   6.509
 8540SOL    HW126519   4.343   0.379   6.462
 8540SOL    HW226520   4.497   0.341   6.500
 8541SOL     OW26521   2.552   2.055   4.235
 8541SOL    HW126522   2.641   2.036   4.275
 8541SOL    HW226523   2.536   2.154   4.233
 8542SOL     OW26524   3.686   4.095   6.460
 8542SOL    HW126525   3.680   4.155   6.380
 8542SOL    HW226526   3.766   4.035   6.451
 8543SOL     OW26527   1.889   2.257   0.053
 8543SOL    HW126528   1.919   2.217   0.139
 8543SOL    HW226529   1.955   2.235   6.997
 8544SOL     OW26530   5.292   2.544   4.357
 8544SOL    HW126531   5.313   2.582   4.267
 8544SOL    HW226532   5.372   2.552   4.416
 8545SOL     OW26533   4.893   6.454   5.587
 8545SOL    HW126534   4.892   6.389   5.511
 8545SOL    HW226535   4.832   6.420   5.659
 8546SOL     OW26536   5.494   1.694   3.861
 8546SOL    HW126537   5.473   1.659   3.770
 8546SOL    HW226538   5.448   1.782   3.874
 8547SOL     OW26539   1.451   5.312   4.824
 8547SOL    HW126540   1.384   5.238   4.825
 8547SOL    HW226541   1.526   5.288   4.762
 8548SOL     OW26542   5.680   1.649   5.869
 8548SOL    HW126543   5.760   1.678   5.817
 8548SOL    HW226544   5.599   1.698   5.837
 8549SOL     OW26545   6.546   4.252   3.881
 8549SOL    HW126546   6.607   4.173   3.883
 8549SOL    HW226547   6.460   4.226   3.838
 8550SOL     OW26548   1.602   5.439   6.315
 8550SOL    HW126549   1.649   5.357   6.282
 8550SOL    HW226550   1.532   5.466   6.249
 8551SOL     OW26551   3.307   4.449   6.565
 8551SOL    HW126552   3.393   4.500   6.565
 8551SOL    HW226553   3.282   4.424   6.659
 8552SOL     OW26554   3.460   5.580   3.142
 8552SOL    HW126555   3.405   5.589   3.060
 8552SOL    HW226556   3.435   5.653   3.207
 8553SOL     OW26557   5.230   6.583   0.095
 8553SOL    HW126558   5.222   6.678   0.124
 8553SOL    HW226559   5.142   6.552   0.059
 8554SOL     OW26560   0.566   4.564   0.159
 8554SOL    HW126561   0.486   4.510   0.185
 8554SOL    HW226562   0.552   4.603   0.068
 8555SOL     OW26563   0.844   1.084   3.595
 8555SOL    HW126564   0.814   1.063   3.688
 8555SOL    HW226565   0.870   1.181   3.590
 8556SOL     OW26566   6.908   0.728   3.618
 8556SOL    HW126567   6.901   0.634   3.584
 8556SOL    HW226568   6.892   0.729   3.716
 8557SOL     OW26569   6.987   6.734   1.547
 8557SOL    HW126570   0.063   6.698   1.539
 8557SOL    HW226571   6.950   6.712   1.638
 8558SOL     OW26572   2.285   5.376   2.400
 8558SOL    HW126573   2.210   5.434   2.431
 8558SOL    HW226574   2.339   5.346   2.479
 8559SOL     OW26575   0.767   0.739   1.381
 8559SOL    HW126576   0.823   0.821   1.384
 8559SOL    HW226577   0.671   0.763   1.398
 8560SOL     OW26578   0.057   1.563   0.633
 8560SOL    HW126579   0.139   1.557   0.689
 8560SOL    HW226580   0.079   1.540   0.538
 8561SOL     OW26581   4.440   6.173   2.596
 8561SOL    HW126582   4.431   6.160   2.695
 8561SOL    HW226583   4.520   6.230   2.577
 8562SOL     OW26584   3.864   6.173   4.512
 8562SOL    HW126585   3.891   6.218   4.597
 8562SOL    HW226586   3.764   6.173   4.504
 8563SOL     OW26587   2.515   3.025   6.896
 8563SOL    HW126588   2.488   3.077   6.977
 8563SOL    HW226589   2.434   2.988   6.851
 8564SOL     OW26590   0.713   0.373   3.747
 8564SOL    HW126591   0.796   0.380   3.693
 8564SOL    HW226592   0.683   0.465   3.774
 8565SOL     OW26593   4.025   6.841   0.493
 8565SOL    HW126594   4.013   6.934   0.459
 8565SOL    HW226595   3.941   6.811   0.539
 8566SOL     OW26596   1.219   2.441   3.101
 8566SOL    HW126597   1.263   2.367   3.153
 8566SOL    HW226598   1.158   2.401   3.033
 8567SOL     OW26599   5.604   1.609   0.801
 8567SOL    HW126600   5.674   1.546   0.767
 8567SOL    HW226601   5.641   1.662   0.877
 8568SOL     OW26602   4.911   2.018   0.296
 8568SOL    HW126603   4.871   2.020   0.388
 8568SOL    HW226604   5.010   2.017   0.303
 8569SOL     OW26605   4.829   1.074   4.703
 8569SOL    HW126606   4.754   1.057   4.639
 8569SOL    HW226607   4.837   1.172   4.721
 8570SOL     OW26608   0.973   4.077   6.504
 8570SOL    HW126609   1.026   3.999   6.537
 8570SOL    HW226610   0.924   4.052   6.420
 8571SOL     OW26611   6.697   4.188   4.525
 8571SOL    HW126612   6.772   4.136   4.566
 8571SOL    HW226613   6.725   4.283   4.513
 8572SOL     OW26614   2.066   4.728   5.302
 8572SOL    HW126615   2.147   4.777   5.270
 8572SOL    HW226616   2.008   4.706   5.224
 8573SOL     OW26617   4.635   6.387   6.529
 8573SOL    HW126618   4.654   6.485   6.516
 8573SOL    HW226619   4.721   6.339   6.544
 8574SOL     OW26620   0.702   3.845   6.078
 8574SOL    HW126621   0.629   3.913   6.074
 8574SOL    HW226622   0.696   3.793   6.163
 8575SOL     OW26623   2.502   2.837   0.450
 8575SOL    HW126624   2.586   2.787   0.426
 8575SOL    HW226625   2.522   2.935   0.456
 8576SOL     OW26626   1.119   6.783   1.651
 8576SOL    HW126627   1.073   6.736   1.576
 8576SOL    HW226628   1.218   6.778   1.639
 8577SOL     OW26629   6.430   5.602   3.009
 8577SOL    HW126630   6.516   5.646   3.035
 8577SOL    HW226631   6.362   5.616   3.081
 8578SOL     OW26632   4.643   0.180   3.819
 8578SOL    HW126633   4.627   0.277   3.838
 8578SOL    HW226634   4.739   0.158   3.838
 8579SOL     OW26635   1.008   4.806   3.301
 8579SOL    HW126636   1.037   4.856   3.383
 8579SOL    HW226637   1.087   4.759   3.261
 8580SOL     OW26638   1.325   6.142   1.647
 8580SOL    HW126639   1.232   6.177   1.657
 8580SOL    HW226640   1.386   6.188   1.711
 8581SOL     OW26641   3.396   1.622   1.437
 8581SOL    HW126642   3.342   1.595   1.516
 8581SOL    HW226643   3.355   1.584   1.354
 8582SOL     OW26644   4.281   4.684   2.233
 8582SOL    HW126645   4.277   4.641   2.143
 8582SOL    HW226646   4.238   4.775   2.229
 8583SOL     OW26647   6.467   0.230   5.905
 8583SOL    HW126648   6.452   0.143   5.858
 8583SOL    HW226649   6.564   0.253   5.902
 8584SOL     OW26650   6.862   4.723   0.391
 8584SOL    HW126651   6.909   4.636   0.407
 8584SOL    HW226652   6.797   4.712   0.315
 8585SOL     OW26653   0.090   0.507   0.372
 8585SOL    HW126654   0.127   0.521   0.464
 8585SOL    HW226655   0.129   0.576   0.310
 8586SOL     OW26656   3.742   6.178   3.225
 8586SOL    HW126657   3.753   6.084   3.257
 8586SOL    HW226658   3.754   6.181   3.125
 8587SOL     OW26659   6.902   1.803   2.355
 8587SOL    HW126660   6.803   1.814   2.350
 8587SOL    HW226661   6.946   1.893   2.358
 8588SOL     OW26662   3.947   2.388   0.526
 8588SOL    HW126663   3.912   2.477   0.494
 8588SOL    HW226664   4.043   2.398   0.553
 8589SOL     OW26665   3.367   1.164   4.783
 8589SOL    HW126666   3.286   1.111   4.760
 8589SOL    HW226667   3.404   1.207   4.700
 8590SOL     OW26668   6.364   5.107   4.209
 8590SOL    HW126669   6.376   5.161   4.292
 8590SOL    HW226670   6.415   5.021   4.218
 8591SOL     OW26671   1.253   3.474   6.235
 8591SOL    HW126672   1.294   3.406   6.175
 8591SOL    HW226673   1.315   3.494   6.310
 8592SOL     OW26674   6.928   4.322   1.230
 8592SOL    HW126675   7.006   4.302   1.171
 8592SOL    HW226676   6.860   4.249   1.223
 8593SOL     OW26677   1.786   6.368   2.023
 8593SOL    HW126678   1.733   6.453   2.025
 8593SOL    HW226679   1.825   6.355   1.932
 8594SOL     OW26680   3.097   3.760   3.968
 8594SOL    HW126681   3.127   3.695   4.038
 8594SOL    HW226682   3.098   3.853   4.005
 8595SOL     OW26683   1.586   2.066   2.557
 8595SOL    HW126684   1.574   2.062   2.458
 8595SOL    HW226685   1.505   2.028   2.602
 8596SOL     OW26686   5.437   4.816   1.502
 8596SOL    HW126687   5.368   4.875   1.544
 8596SOL    HW226688   5.398   4.725   1.489
 8597SOL     OW26689   2.832   1.305   0.789
 8597SOL    HW126690   2.752   1.365   0.791
 8597SOL    HW226691   2.819   1.235   0.718
 8598SOL     OW26692   6.405   3.441   0.915
 8598SOL    HW126693   6.439   3.501   0.987
 8598SOL    HW226694   6.321   3.479   0.876
 8599SOL     OW26695   0.803   3.010   3.314
 8599SOL    HW126696   0.816   2.914   3.338
 8599SOL    HW226697   0.849   3.068   3.381
 8600SOL     OW26698   6.767   4.782   6.499
 8600SOL    HW126699   6.704   4.788   6.422
 8600SOL    HW226700   6.736   4.843   6.572
 8601SOL     OW26701   6.842   0.763   3.996
 8601SOL    HW126702   6.822   0.847   3.945
 8601SOL    HW226703   6.867   0.786   4.090
 8602SOL     OW26704   2.869   5.801   2.554
 8602SOL    HW126705   2.842   5.706   2.574
 8602SOL    HW226706   2.822   5.832   2.472
 8603SOL     OW26707   3.830   3.221   0.310
 8603SOL    HW126708   3.886   3.288   0.262
 8603SOL    HW226709   3.740   3.260   0.330
 8604SOL     OW26710   5.383   2.981   3.652
 8604SOL    HW126711   5.329   2.904   3.618
 8604SOL    HW226712   5.322   3.054   3.683
 8605SOL     OW26713   2.746   5.569   3.893
 8605SOL    HW126714   2.709   5.645   3.840
 8605SOL    HW226715   2.830   5.536   3.849
 8606SOL     OW26716   2.933   5.034   6.007
 8606SOL    HW126717   2.846   5.053   6.051
 8606SOL    HW226718   2.917   5.003   5.913
 8607SOL     OW26719   4.129   6.106   1.882
 8607SOL    HW126720   4.146   6.127   1.786
 8607SOL    HW226721   4.041   6.144   1.911
 8608SOL     OW26722   3.932   5.154   2.731
 8608SOL    HW126723   3.922   5.246   2.693
 8608SOL    HW226724   3.872   5.145   2.812
 8609SOL     OW26725   3.458   0.426   5.051
 8609SOL    HW126726   3.465   0.411   5.150
 8609SOL    HW226727   3.363   0.415   5.023
 8610SOL     OW26728   0.897   6.408   3.333
 8610SOL    HW126729   0.862   6.345   3.403
 8610SOL    HW226730   0.821   6.462   3.296
 8611SOL     OW26731   1.895   2.130   4.841
 8611SOL    HW126732   1.932   2.093   4.756
 8611SOL    HW226733   1.808   2.177   4.822
 8612SOL     OW26734   3.451   2.694   6.924
 8612SOL    HW126735   3.466   2.595   6.929
 8612SOL    HW226736   3.387   2.721   6.996
 8613SOL     OW26737   1.808   1.486   1.039
 8613SOL    HW126738   1.754   1.485   1.123
 8613SOL    HW226739   1.858   1.572   1.032
 8614SOL     OW26740   1.179   3.881   2.984
 8614SOL    HW126741   1.195   3.846   2.891
 8614SOL    HW226742   1.228   3.824   3.050
 8615SOL     OW26743   3.951   2.142   5.981
 8615SOL    HW126744   3.923   2.189   6.064
 8615SOL    HW226745   3.937   2.044   5.991
 8616SOL     OW26746   1.525   4.608   6.985
 8616SOL    HW126747   1.492   4.648   6.900
 8616SOL    HW226748   1.622   4.627   6.996
 8617SOL     OW26749   6.194   2.294   0.888
 8617SOL    HW126750   6.272   2.314   0.947
 8617SOL    HW226751   6.115   2.349   0.915
 8618SOL     OW26752   4.650   0.395   2.834
 8618SOL    HW126753   4.608   0.349   2.913
 8618SOL    HW226754   4.698   0.477   2.866
 8619SOL     OW26755   4.454   5.013   6.764
 8619SOL    HW126756   4.463   4.954   6.683
 8619SOL    HW226757   4.545   5.038   6.797
 8620SOL     OW26758   5.460   6.565   2.530
 8620SOL    HW126759   5.441   6.571   2.628
 8620SOL    HW226760   5.403   6.630   2.480
 8621SOL     OW26761   5.944   1.156   3.829
 8621SOL    HW126762   5.875   1.225   3.808
 8621SOL    HW226763   5.986   1.177   3.918
 8622SOL     OW26764   5.043   5.249   0.298
 8622SOL    HW126765   5.041   5.333   0.244
 8622SOL    HW226766   5.025   5.171   0.239
 8623SOL     OW26767   1.054   4.121   2.950
 8623SOL    HW126768   1.092   4.031   2.974
 8623SOL    HW226769   0.958   4.125   2.979
 8624SOL     OW26770   0.834   4.314   3.199
 8624SOL    HW126771   0.917   4.358   3.165
 8624SOL    HW226772   0.853   4.217   3.218
 8625SOL     OW26773   4.612   0.713   4.597
 8625SOL    HW126774   4.637   0.749   4.507
 8625SOL    HW226775   4.554   0.779   4.644
 8626SOL     OW26776   3.324   3.211   4.259
 8626SOL    HW126777   3.255   3.138   4.265
 8626SOL    HW226778   3.380   3.211   4.341
 8627SOL     OW26779   1.037   0.591   1.238
 8627SOL    HW126780   1.065   0.583   1.142
 8627SOL    HW226781   1.002   0.503   1.270
 8628SOL     OW26782   6.565   1.216   6.917
 8628SOL    HW126783   6.563   1.181   6.823
 8628SOL    HW226784   6.657   1.206   6.954
 8629SOL     OW26785   0.875   4.812   4.073
 8629SOL    HW126786   0.948   4.768   4.020
 8629SOL    HW226787   0.793   4.756   4.070
 8630SOL     OW26788   5.806   3.943   4.099
 8630SOL    HW126789   5.714   3.959   4.136
 8630SOL    HW226790   5.854   3.877   4.158
 8631SOL     OW26791   3.771   5.633   5.063
 8631SOL    HW126792   3.685   5.610   5.108
 8631SOL    HW226793   3.829   5.685   5.125
 8632SOL     OW26794   3.682   0.324   3.866
 8632SOL    HW126795   3.587   0.346   3.888
 8632SOL    HW226796   3.695   0.225   3.871
 8633SOL     OW26797   5.513   1.356   3.618
 8633SOL    HW126798   5.542   1.431   3.559
 8633SOL    HW226799   5.428   1.380   3.664
 8634SOL     OW26800   6.407   4.228   1.928
 8634SOL    HW126801   6.371   4.147   1.973
 8634SOL    HW226802   6.501   4.245   1.960
 8635SOL     OW26803   6.145   3.995   5.928
 8635SOL    HW126804   6.064   3.970   5.876
 8635SOL    HW226805   6.211   4.040   5.867
 8636SOL     OW26806   6.329   5.703   0.601
 8636SOL    HW126807   6.265   5.772   0.635
 8636SOL    HW226808   6.361   5.645   0.676
 8637SOL     OW26809   1.570   0.827   0.561
 8637SOL    HW126810   1.472   0.808   0.551
 8637SOL    HW226811   1.595   0.904   0.504
 8638SOL     OW26812   2.546   4.508   0.102
 8638SOL    HW126813   2.588   4.422   0.132
 8638SOL    HW226814   2.502   4.494   0.013
 8639SOL     OW26815   5.226   3.257   2.207
 8639SOL    HW126816   5.148   3.291   2.155
 8639SOL    HW226817   5.274   3.334   2.249
 8640SOL     OW26818   4.636   3.996   0.986
 8640SOL    HW126819   4.691   4.069   0.946
 8640SOL    HW226820   4.629   4.009   1.084
 8641SOL     OW26821   0.236   4.432   3.531
 8641SOL    HW126822   0.284   4.371   3.593
 8641SOL    HW226823   0.297   4.463   3.459
 8642SOL     OW26824   4.806   0.863   1.806
 8642SOL    HW126825   4.880   0.797   1.816
 8642SOL    HW226826   4.739   0.829   1.740
 8643SOL     OW26827   4.264   0.576   6.455
 8643SOL    HW126828   4.347   0.610   6.500
 8643SOL    HW226829   4.262   0.608   6.360
 8644SOL     OW26830   5.390   2.595   4.972
 8644SOL    HW126831   5.296   2.629   4.966
 8644SOL    HW226832   5.447   2.640   4.903
 8645SOL     OW26833   6.478   3.768   1.281
 8645SOL    HW126834   6.522   3.792   1.368
 8645SOL    HW226835   6.547   3.732   1.218
 8646SOL     OW26836   4.980   1.062   0.237
 8646SOL    HW126837   4.890   1.019   0.231
 8646SOL    HW226838   4.969   1.162   0.238
 8647SOL     OW26839   3.768   5.015   6.863
 8647SOL    HW126840   3.759   5.019   6.962
 8647SOL    HW226841   3.692   4.964   6.824
 8648SOL     OW26842   5.584   0.575   4.894
 8648SOL    HW126843   5.498   0.555   4.848
 8648SOL    HW226844   5.636   0.642   4.840
 8649SOL     OW26845   6.119   4.217   5.537
 8649SOL    HW126846   6.065   4.203   5.454
 8649SOL    HW226847   6.066   4.269   5.604
 8650SOL     OW26848   2.165   5.238   3.993
 8650SOL    HW126849   2.111   5.236   4.078
 8650SOL    HW226850   2.239   5.305   4.003
 8651SOL     OW26851   3.755   1.906   0.376
 8651SOL    HW126852   3.818   1.845   0.328
 8651SOL    HW226853   3.664   1.901   0.333
 8652SOL     OW26854   2.177   3.882   3.328
 8652SOL    HW126855   2.232   3.963   3.307
 8652SOL    HW226856   2.123   3.857   3.247
 8653SOL     OW26857   0.370   2.455   6.325
 8653SOL    HW126858   0.429   2.502   6.390
 8653SOL    HW226859   0.307   2.395   6.374
 8654SOL     OW26860   0.337   6.692   3.319
 8654SOL    HW126861   0.261   6.671   3.381
 8654SOL    HW226862   0.380   6.607   3.289
 8655SOL     OW26863   5.862   6.652   3.932
 8655SOL    HW126864   5.804   6.673   3.854
 8655SOL    HW226865   5.844   6.559   3.963
 8656SOL     OW26866   6.047   0.916   0.917
 8656SOL    HW126867   6.139   0.954   0.910
 8656SOL    HW226868   5.994   0.968   0.984
 8657SOL     OW26869   5.110   5.319   6.097
 8657SOL    HW126870   5.070   5.231   6.074
 8657SOL    HW226871   5.209   5.316   6.083
 8658SOL     OW26872   5.257   4.789   6.876
 8658SOL    HW126873   5.309   4.743   6.949
 8658SOL    HW226874   5.164   4.753   6.875
 8659SOL     OW26875   4.195   0.803   3.317
 8659SOL    HW126876   4.179   0.707   3.294
 8659SOL    HW226877   4.237   0.809   3.408
 8660SOL     OW26878   6.262   4.070   0.154
 8660SOL    HW126879   6.291   3.979   0.123
 8660SOL    HW226880   6.342   4.128   0.167
 8661SOL     OW26881   6.204   4.028   2.061
 8661SOL    HW126882   6.220   3.992   1.970
 8661SOL    HW226883   6.270   3.989   2.125
 8662SOL     OW26884   6.052   6.366   0.932
 8662SOL    HW126885   6.099   6.448   0.898
 8662SOL    HW226886   5.959   6.391   0.961
 8663SOL     OW26887   2.382   5.438   0.781
 8663SOL    HW126888   2.425   5.350   0.801
 8663SOL    HW226889   2.282   5.428   0.781
 8664SOL     OW26890   4.299   5.650   0.101
 8664SOL    HW126891   4.224   5.715   0.110
 8664SOL    HW226892   4.281   5.569   0.157
 8665SOL     OW26893   4.596   5.742   5.244
 8665SOL    HW126894   4.660   5.815   5.269
 8665SOL    HW226895   4.645   5.656   5.232
 8666SOL     OW26896   5.039   2.091   5.413
 8666SOL    HW126897   5.052   2.147   5.331
 8666SOL    HW226898   4.974   2.136   5.474
 8667SOL     OW26899   5.106   1.770   3.034
 8667SOL    HW126900   5.139   1.676   3.045
 8667SOL    HW226901   5.006   1.769   3.033
 8668SOL     OW26902   5.627   2.683   4.282
 8668SOL    HW126903   5.724   2.695   4.307
 8668SOL    HW226904   5.570   2.694   4.363
 8669SOL     OW26905   4.178   1.396   6.418
 8669SOL    HW126906   4.207   1.340   6.495
 8669SOL    HW226907   4.208   1.354   6.332
 8670SOL     OW26908   3.727   5.564   4.624
 8670SOL    HW126909   3.816   5.518   4.617
 8670SOL    HW226910   3.723   5.614   4.710
 8671SOL     OW26911   5.677   6.774   3.733
 8671SOL    HW126912   5.709   6.810   3.646
 8671SOL    HW226913   5.612   6.699   3.716
 8672SOL     OW26914   2.590   5.157   4.378
 8672SOL    HW126915   2.572   5.250   4.409
 8672SOL    HW226916   2.669   5.156   4.316
 8673SOL     OW26917   0.114   2.116   0.390
 8673SOL    HW126918   0.119   2.051   0.467
 8673SOL    HW226919   0.037   2.091   0.331
 8674SOL     OW26920   0.078   6.863   2.913
 8674SOL    HW126921   0.033   6.927   2.976
 8674SOL    HW226922   0.018   6.843   2.836
 8675SOL     OW26923   2.572   1.855   4.042
 8675SOL    HW126924   2.544   1.915   4.117
 8675SOL    HW226925   2.653   1.894   3.997
 8676SOL     OW26926   3.407   0.523   2.380
 8676SOL    HW126927   3.400   0.562   2.472
 8676SOL    HW226928   3.398   0.595   2.312
 8677SOL     OW26929   2.850   5.247   6.358
 8677SOL    HW126930   2.825   5.320   6.295
 8677SOL    HW226931   2.929   5.198   6.322
 8678SOL     OW26932   1.659   0.259   6.704
 8678SOL    HW126933   1.603   0.236   6.784
 8678SOL    HW226934   1.602   0.260   6.622
 8679SOL     OW26935   6.184   1.856   5.187
 8679SOL    HW126936   6.232   1.777   5.147
 8679SOL    HW226937   6.137   1.827   5.270
 8680SOL     OW26938   2.076   3.637   0.562
 8680SOL    HW126939   2.037   3.679   0.481
 8680SOL    HW226940   2.176   3.650   0.562
 8681SOL     OW26941   4.447   4.879   0.427
 8681SOL    HW126942   4.444   4.834   0.337
 8681SOL    HW226943   4.356   4.914   0.449
 8682SOL     OW26944   2.401   6.747   3.187
 8682SOL    HW126945   2.427   6.700   3.103
 8682SOL    HW226946   2.483   6.786   3.230
 8683SOL     OW26947   1.093   3.068   1.361
 8683SOL    HW126948   1.122   3.132   1.432
 8683SOL    HW226949   0.994   3.059   1.363
 8684SOL     OW26950   5.914   3.021   4.983
 8684SOL    HW126951   5.979   3.082   4.938
 8684SOL    HW226952   5.955   2.984   5.066
 8685SOL     OW26953   0.965   1.729   6.558
 8685SOL    HW126954   0.912   1.814   6.551
 8685SOL    HW226955   1.058   1.746   6.525
 8686SOL     OW26956   0.035   2.059   2.363
 8686SOL    HW126957   0.129   2.034   2.342
 8686SOL    HW226958   0.010   2.142   2.312
 8687SOL     OW26959   3.651   6.768   2.579
 8687SOL    HW126960   3.655   6.702   2.503
 8687SOL    HW226961   3.562   6.813   2.579
 8688SOL     OW26962   2.770   6.872   0.959
 8688SOL    HW126963   2.802   6.839   1.048
 8688SOL    HW226964   2.841   6.927   0.916
 8689SOL     OW26965   4.184   5.927   0.300
 8689SOL    HW126966   4.144   5.986   0.230
 8689SOL    HW226967   4.114   5.864   0.334
 8690SOL     OW26968   1.401   2.139   3.576
 8690SOL    HW126969   1.308   2.118   3.605
 8690SOL    HW226970   1.447   2.055   3.549
 8691SOL     OW26971   4.879   2.958   6.470
 8691SOL    HW126972   4.854   2.948   6.374
 8691SOL    HW226973   4.812   3.016   6.517
 8692SOL     OW26974   3.370   2.054   3.700
 8692SOL    HW126975   3.302   2.076   3.630
 8692SOL    HW226976   3.382   2.133   3.760
 8693SOL     OW26977   5.672   2.431   0.780
 8693SOL    HW126978   5.625   2.433   0.868
 8693SOL    HW226979   5.664   2.520   0.736
 8694SOL     OW26980   5.157   6.960   6.360
 8694SOL    HW126981   5.105   6.987   6.441
 8694SOL    HW226982   5.097   6.907   6.299
 8695SOL     OW26983   5.049   2.860   5.656
 8695SOL    HW126984   4.976   2.795   5.634
 8695SOL    HW226985   5.127   2.844   5.597
 8696SOL     OW26986   3.522   5.326   0.639
 8696SOL    HW126987   3.494   5.416   0.605
 8696SOL    HW226988   3.585   5.338   0.716
 8697SOL     OW26989   6.534   3.210   0.841
 8697SOL    HW126990   6.493   3.120   0.856
 8697SOL    HW226991   6.467   3.281   0.862
 8698SOL     OW26992   5.593   5.776   4.544
 8698SOL    HW126993   5.522   5.762   4.475
 8698SOL    HW226994   5.645   5.858   4.523
 8699SOL     OW26995   1.176   2.463   5.457
 8699SOL    HW126996   1.172   2.403   5.377
 8699SOL    HW226997   1.263   2.448   5.505
 8700SOL     OW26998   1.991   1.033   4.428
 8700SOL    HW126999   1.957   1.009   4.337
 8700SOL    HW227000   2.089   1.017   4.432
 8701SOL     OW27001   0.767   1.258   5.893
 8701SOL    HW127002   0.789   1.348   5.855
 8701SOL    HW227003   0.766   1.263   5.993
 8702SOL     OW27004   5.424   4.695   0.055
 8702SOL    HW127005   5.492   4.628   0.025
 8702SOL    HW227006   5.452   4.733   0.143
 8703SOL     OW27007   3.161   5.784   1.109
 8703SOL    HW127008   3.143   5.882   1.120
 8703SOL    HW227009   3.101   5.747   1.039
 8704SOL     OW27010   6.356   4.565   2.675
 8704SOL    HW127011   6.334   4.538   2.769
 8704SOL    HW227012   6.329   4.661   2.661
 8705SOL     OW27013   5.133   0.924   6.388
 8705SOL    HW127014   5.215   0.904   6.442
 8705SOL    HW227015   5.125   1.024   6.378
 8706SOL     OW27016   4.602   2.225   6.838
 8706SOL    HW127017   4.681   2.265   6.793
 8706SOL    HW227018   4.519   2.250   6.787
 8707SOL     OW27019   3.925   2.887   0.084
 8707SOL    HW127020   3.976   2.820   0.029
 8707SOL    HW227021   3.979   2.971   0.092
 8708SOL     OW27022   3.430   0.499   1.872
 8708SOL    HW127023   3.515   0.448   1.863
 8708SOL    HW227024   3.428   0.547   1.959
 8709SOL     OW27025   0.357   4.442   0.255
 8709SOL    HW127026   0.381   4.393   0.339
 8709SOL    HW227027   0.259   4.431   0.237
 8710SOL     OW27028   1.413   3.367   3.174
 8710SOL    HW127029   1.408   3.273   3.141
 8710SOL    HW227030   1.388   3.429   3.101
 8711SOL     OW27031   0.212   0.438   2.657
 8711SOL    HW127032   0.205   0.537   2.644
 8711SOL    HW227033   0.305   0.408   2.637
 8712SOL     OW27034   3.631   1.561   4.096
 8712SOL    HW127035   3.534   1.581   4.112
 8712SOL    HW227036   3.682   1.647   4.095
 8713SOL     OW27037   6.835   4.491   3.755
 8713SOL    HW127038   6.874   4.544   3.680
 8713SOL    HW227039   6.736   4.503   3.757
 8714SOL     OW27040   1.707   0.867   5.945
 8714SOL    HW127041   1.801   0.889   5.971
 8714SOL    HW227042   1.694   0.886   5.847
 8715SOL     OW27043   5.663   0.777   0.919
 8715SOL    HW127044   5.711   0.731   0.844
 8715SOL    HW227045   5.608   0.710   0.969
 8716SOL     OW27046   0.585   1.384   1.670
 8716SOL    HW127047   0.537   1.348   1.750
 8716SOL    HW227048   0.684   1.373   1.683
 8717SOL     OW27049   4.105   3.626   2.091
 8717SOL    HW127050   4.089   3.597   2.185
 8717SOL    HW227051   4.185   3.685   2.087
 8718SOL     OW27052   6.911   2.801   4.714
 8718SOL    HW127053   6.973   2.738   4.760
 8718SOL    HW227054   6.849   2.841   4.782
 8719SOL     OW27055   1.495   0.618   5.715
 8719SOL    HW127056   1.437   0.650   5.790
 8719SOL    HW227057   1.486   0.681   5.637
 8720SOL     OW27058   6.316   5.243   4.964
 8720SOL    HW127059   6.375   5.197   4.897
 8720SOL    HW227060   6.363   5.246   5.053
 8721SOL     OW27061   6.108   2.385   4.475
 8721SOL    HW127062   6.072   2.445   4.546
 8721SOL    HW227063   6.178   2.326   4.514
 8722SOL     OW27064   3.463   1.367   0.462
 8722SOL    HW127065   3.384   1.318   0.500
 8722SOL    HW227066   3.536   1.370   0.530
 8723SOL     OW27067   6.157   5.570   0.846
 8723SOL    HW127068   6.074   5.614   0.812
 8723SOL    HW227069   6.221   5.640   0.878
 8724SOL     OW27070   5.820   0.278   5.861
 8724SOL    HW127071   5.771   0.199   5.897
 8724SOL    HW227072   5.763   0.326   5.795
 8725SOL     OW27073   2.011   0.322   0.395
 8725SOL    HW127074   2.108   0.332   0.376
 8725SOL    HW227075   1.959   0.337   0.311
 8726SOL     OW27076   5.774   0.093   1.428
 8726SOL    HW127077   5.724   0.150   1.362
 8726SOL    HW227078   5.835   0.150   1.482
 8727SOL     OW27079   6.603   6.617   1.672
 8727SOL    HW127080   6.622   6.707   1.633
 8727SOL    HW227081   6.644   6.546   1.615
 8728SOL     OW27082   3.048   0.028   5.323
 8728SOL    HW127083   3.133   0.043   5.273
 8728SOL    HW227084   3.066   0.033   5.421
 8729SOL     OW27085   4.477   5.665   3.052
 8729SOL    HW127086   4.444   5.637   3.142
 8729SOL    HW227087   4.453   5.596   2.984
 8730SOL     OW27088   0.245   5.840   2.837
 8730SOL    HW127089   0.164   5.832   2.896
 8730SOL    HW227090   0.217   5.864   2.745
 8731SOL     OW27091   1.490   2.359   3.414
 8731SOL    HW127092   1.465   2.454   3.431
 8731SOL    HW227093   1.486   2.308   3.500
 8732SOL     OW27094   5.061   4.216   2.036
 8732SOL    HW127095   5.061   4.282   2.111
 8732SOL    HW227096   5.154   4.183   2.021
 8733SOL     OW27097   0.702   6.202   2.651
 8733SOL    HW127098   0.640   6.194   2.729
 8733SOL    HW227099   0.649   6.197   2.566
 8734SOL     OW27100   0.520   4.908   1.207
 8734SOL    HW127101   0.524   4.850   1.288
 8734SOL    HW227102   0.426   4.933   1.188
 8735SOL     OW27103   0.646   1.997   0.405
 8735SOL    HW127104   0.560   2.045   0.419
 8735SOL    HW227105   0.628   1.900   0.388
 8736SOL     OW27106   1.039   6.108   6.966
 8736SOL    HW127107   1.033   6.207   6.971
 8736SOL    HW227108   1.094   6.082   6.887
 8737SOL     OW27109   3.792   6.092   5.885
 8737SOL    HW127110   3.790   5.992   5.892
 8737SOL    HW227111   3.841   6.119   5.803
 8738SOL     OW27112   1.421   4.087   4.239
 8738SOL    HW127113   1.335   4.119   4.280
 8738SOL    HW227114   1.497   4.139   4.278
 8739SOL     OW27115   6.762   3.971   5.937
 8739SOL    HW127116   6.714   3.923   5.863
 8739SOL    HW227117   6.840   3.916   5.966
 8740SOL     OW27118   3.253   0.615   5.793
 8740SOL    HW127119   3.276   0.634   5.697
 8740SOL    HW227120   3.337   0.610   5.847
 8741SOL     OW27121   1.576   2.459   2.432
 8741SOL    HW127122   1.646   2.418   2.372
 8741SOL    HW227123   1.604   2.449   2.527
 8742SOL     OW27124   4.728   6.367   1.269
 8742SOL    HW127125   4.678   6.370   1.183
 8742SOL    HW227126   4.801   6.436   1.267
 8743SOL     OW27127   2.081   5.405   1.888
 8743SOL    HW127128   2.136   5.337   1.838
 8743SOL    HW227129   2.142   5.471   1.932
 8744SOL     OW27130   4.601   2.723   6.473
 8744SOL    HW127131   4.691   2.723   6.430
 8744SOL    HW227132   4.563   2.631   6.472
 8745SOL     OW27133   6.179   2.118   5.073
 8745SOL    HW127134   6.086   2.156   5.073
 8745SOL    HW227135   6.176   2.024   5.106
 8746SOL     OW27136   4.687   4.434   5.788
 8746SOL    HW127137   4.734   4.522   5.797
 8746SOL    HW227138   4.590   4.449   5.770
 8747SOL     OW27139   0.915   2.640   3.274
 8747SOL    HW127140   0.857   2.666   3.350
 8747SOL    HW227141   0.866   2.576   3.214
 8748SOL     OW27142   1.058   0.486   6.818
 8748SOL    HW127143   1.157   0.499   6.811
 8748SOL    HW227144   1.030   0.412   6.757
 8749SOL     OW27145   3.135   0.920   3.922
 8749SOL    HW127146   3.217   0.968   3.892
 8749SOL    HW227147   3.101   0.861   3.847
 8750SOL     OW27148   1.966   2.325   5.333
 8750SOL    HW127149   2.005   2.299   5.244
 8750SOL    HW227150   1.997   2.260   5.403
 8751SOL     OW27151   0.023   0.112   2.238
 8751SOL    HW127152   6.989   0.044   2.292
 8751SOL    HW227153   0.069   0.176   2.300
 8752SOL     OW27154   2.361   3.701   6.470
 8752SOL    HW127155   2.415   3.778   6.436
 8752SOL    HW227156   2.268   3.706   6.434
 8753SOL     OW27157   5.187   1.701   4.982
 8753SOL    HW127158   5.280   1.720   4.948
 8753SOL    HW227159   5.192   1.630   5.052
 8754SOL     OW27160   0.547   2.126   5.714
 8754SOL    HW127161   0.521   2.154   5.807
 8754SOL    HW227162   0.528   2.200   5.650
 8755SOL     OW27163   2.183   0.643   0.536
 8755SOL    HW127164   2.243   0.575   0.580
 8755SOL    HW227165   2.201   0.733   0.576
 8756SOL     OW27166   2.254   2.951   3.766
 8756SOL    HW127167   2.159   2.968   3.743
 8756SOL    HW227168   2.260   2.911   3.858
 8757SOL     OW27169   4.528   6.390   5.026
 8757SOL    HW127170   4.486   6.455   4.964
 8757SOL    HW227171   4.618   6.423   5.054
 8758SOL     OW27172   5.241   6.570   2.157
 8758SOL    HW127173   5.300   6.495   2.187
 8758SOL    HW227174   5.160   6.573   2.216
 8759SOL     OW27175   5.072   0.946   5.777
 8759SOL    HW127176   4.989   0.892   5.768
 8759SOL    HW227177   5.081   1.007   5.699
 8760SOL     OW27178   1.972   1.597   4.832
 8760SOL    HW127179   1.972   1.680   4.888
 8760SOL    HW227180   1.945   1.620   4.739
 8761SOL     OW27181   5.294   0.818   0.132
 8761SOL    HW127182   5.264   0.833   0.226
 8761SOL    HW227183   5.239   0.874   0.070
 8762SOL     OW27184   1.320   3.189   1.823
 8762SOL    HW127185   1.293   3.148   1.911
 8762SOL    HW227186   1.400   3.140   1.787
 8763SOL     OW27187   6.577   6.153   5.465
 8763SOL    HW127188   6.596   6.239   5.513
 8763SOL    HW227189   6.611   6.077   5.520
 8764SOL     OW27190   4.969   1.476   3.977
 8764SOL    HW127191   4.892   1.521   4.022
 8764SOL    HW227192   5.055   1.518   4.008
 8765SOL     OW27193   5.599   6.734   4.751
 8765SOL    HW127194   5.583   6.830   4.772
 8765SOL    HW227195   5.681   6.724   4.695
 8766SOL     OW27196   3.217   5.026   3.445
 8766SOL    HW127197   3.231   5.118   3.409
 8766SOL    HW227198   3.184   5.032   3.540
 8767SOL     OW27199   4.445   1.377   3.101
 8767SOL    HW127200   4.406   1.322   3.175
 8767SOL    HW227201   4.376   1.391   3.030
 8768SOL     OW27202   1.594   2.847   0.611
 8768SOL    HW127203   1.494   2.844   0.600
 8768SOL    HW227204   1.622   2.940   0.636
 8769SOL     OW27205   0.764   0.304   5.802
 8769SOL    HW127206   0.740   0.234   5.869
 8769SOL    HW227207   0.693   0.307   5.731
 8770SOL     OW27208   5.090   4.337   1.791
 8770SOL    HW127209   5.059   4.297   1.877
 8770SOL    HW227210   5.177   4.296   1.764
 8771SOL     OW27211   1.933   1.556   6.659
 8771SOL    HW127212   2.018   1.602   6.635
 8771SOL    HW227213   1.907   1.492   6.587
 8772SOL     OW27214   6.499   1.110   6.692
 8772SOL    HW127215   6.447   1.026   6.700
 8772SOL    HW227216   6.583   1.092   6.641
 8773SOL     OW27217   3.576   2.100   3.193
 8773SOL    HW127218   3.476   2.103   3.198
 8773SOL    HW227219   3.606   2.006   3.179
 8774SOL     OW27220   0.956   1.347   0.733
 8774SOL    HW127221   0.875   1.399   0.761
 8774SOL    HW227222   1.024   1.347   0.807
 8775SOL     OW27223   5.869   6.795   3.105
 8775SOL    HW127224   5.880   6.700   3.074
 8775SOL    HW227225   5.805   6.798   3.182
 8776SOL     OW27226   3.305   3.432   4.938
 8776SOL    HW127227   3.381   3.496   4.922
 8776SOL    HW227228   3.342   3.344   4.969
 8777SOL     OW27229   6.447   4.846   1.607
 8777SOL    HW127230   6.543   4.847   1.579
 8777SOL    HW227231   6.402   4.765   1.568
 8778SOL     OW27232   0.260   2.242   3.210
 8778SOL    HW127233   0.300   2.187   3.137
 8778SOL    HW227234   0.314   2.229   3.294
 8779SOL     OW27235   1.712   4.529   1.495
 8779SOL    HW127236   1.634   4.544   1.435
 8779SOL    HW227237   1.700   4.444   1.546
 8780SOL     OW27238   1.146   5.906   4.219
 8780SOL    HW127239   1.159   5.865   4.128
 8780SOL    HW227240   1.234   5.919   4.263
 8781SOL     OW27241   0.301   1.859   2.786
 8781SOL    HW127242   0.372   1.790   2.799
 8781SOL    HW227243   0.337   1.933   2.729
 8782SOL     OW27244   4.456   1.406   2.509
 8782SOL    HW127245   4.440   1.429   2.605
 8782SOL    HW227246   4.369   1.406   2.459
 8783SOL     OW27247   6.052   3.856   4.476
 8783SOL    HW127248   5.996   3.936   4.497
 8783SOL    HW227249   6.088   3.864   4.383
 8784SOL     OW27250   5.547   5.462   5.858
 8784SOL    HW127251   5.567   5.467   5.956
 8784SOL    HW227252   5.606   5.526   5.809
 8785SOL     OW27253   5.433   3.986   6.596
 8785SOL    HW127254   5.497   4.062   6.611
 8785SOL    HW227255   5.482   3.907   6.561
 8786SOL     OW27256   1.487   6.395   6.406
 8786SOL    HW127257   1.542   6.347   6.338
 8786SOL    HW227258   1.425   6.330   6.450
 8787SOL     OW27259   2.078   3.220   2.000
 8787SOL    HW127260   2.116   3.312   1.987
 8787SOL    HW227261   2.021   3.196   1.922
 8788SOL     OW27262   6.796   2.096   5.243
 8788SOL    HW127263   6.805   2.007   5.199
 8788SOL    HW227264   6.726   2.150   5.196
 8789SOL     OW27265   6.692   0.514   6.026
 8789SOL    HW127266   6.689   0.414   6.027
 8789SOL    HW227267   6.665   0.548   5.936
 8790SOL     OW27268   0.133   1.658   6.871
 8790SOL    HW127269   0.201   1.685   6.939
 8790SOL    HW227270   0.104   1.564   6.890
 8791SOL     OW27271   5.322   6.849   5.316
 8791SOL    HW127272   5.304   6.878   5.222
 8791SOL    HW227273   5.254   6.781   5.343
 8792SOL     OW27274   4.419   0.037   3.109
 8792SOL    HW127275   4.358   0.116   3.110
 8792SOL    HW227276   4.380   6.980   3.164
 8793SOL     OW27277   2.649   6.048   3.631
 8793SOL    HW127278   2.693   5.959   3.618
 8793SOL    HW227279   2.554   6.035   3.661
 8794SOL     OW27280   2.148   6.954   2.862
 8794SOL    HW127281   2.224   6.932   2.924
 8794SOL    HW227282   2.117   6.870   2.817
 8795SOL     OW27283   1.304   6.562   5.425
 8795SOL    HW127284   1.370   6.491   5.448
 8795SOL    HW227285   1.322   6.644   5.480
 8796SOL     OW27286   4.455   1.953   5.341
 8796SOL    HW127287   4.455   1.967   5.242
 8796SOL    HW227288   4.546   1.923   5.371
 8797SOL     OW27289   0.782   6.877   6.168
 8797SOL    HW127290   0.872   6.835   6.159
 8797SOL    HW227291   0.711   6.805   6.171
 8798SOL     OW27292   5.799   3.733   5.070
 8798SOL    HW127293   5.779   3.642   5.107
 8798SOL    HW227294   5.714   3.776   5.041
 8799SOL     OW27295   2.776   4.663   2.977
 8799SOL    HW127296   2.870   4.650   3.009
 8799SOL    HW227297   2.777   4.681   2.878
 8800SOL     OW27298   4.511   4.653   5.958
 8800SOL    HW127299   4.429   4.706   5.980
 8800SOL    HW227300   4.484   4.562   5.927
 8801SOL     OW27301   2.124   1.376   4.362
 8801SOL    HW127302   2.125   1.280   4.387
 8801SOL    HW227303   2.030   1.404   4.342
 8802SOL     OW27304   1.612   6.383   2.466
 8802SOL    HW127305   1.613   6.408   2.563
 8802SOL    HW227306   1.523   6.406   2.426
 8803SOL     OW27307   2.231   5.723   0.047
 8803SOL    HW127308   2.145   5.763   0.078
 8803SOL    HW227309   2.273   5.784   6.996
 8804SOL     OW27310   4.293   0.501   1.047
 8804SOL    HW127311   4.336   0.443   0.978
 8804SOL    HW227312   4.197   0.516   1.022
 8805SOL     OW27313   1.038   0.072   3.341
 8805SOL    HW127314   1.108   0.137   3.371
 8805SOL    HW227315   1.054   0.048   3.245
 8806SOL     OW27316   1.496   5.498   0.316
 8806SOL    HW127317   1.569   5.477   0.251
 8806SOL    HW227318   1.412   5.520   0.266
 8807SOL     OW27319   6.551   6.075   6.144
 8807SOL    HW127320   6.563   6.066   6.045
 8807SOL    HW227321   6.598   6.000   6.190
 8808SOL     OW27322   5.650   1.058   0.296
 8808SOL    HW127323   5.727   1.007   0.255
 8808SOL    HW227324   5.594   1.097   0.223
 8809SOL     OW27325   5.281   3.729   1.625
 8809SOL    HW127326   5.272   3.790   1.703
 8809SOL    HW227327   5.296   3.635   1.657
 8810SOL     OW27328   4.830   1.706   3.807
 8810SOL    HW127329   4.927   1.683   3.796
 8810SOL    HW227330   4.805   1.701   3.904
 8811SOL     OW27331   2.350   1.596   3.493
 8811SOL    HW127332   2.433   1.579   3.546
 8811SOL    HW227333   2.300   1.510   3.481
 8812SOL     OW27334   0.890   1.085   0.818
 8812SOL    HW127335   0.815   1.071   0.883
 8812SOL    HW227336   0.891   1.181   0.789
 8813SOL     OW27337   0.894   6.051   1.921
 8813SOL    HW127338   0.811   6.003   1.949
 8813SOL    HW227339   0.925   6.017   1.833
 8814SOL     OW27340   6.631   0.661   6.699
 8814SOL    HW127341   6.626   0.728   6.773
 8814SOL    HW227342   6.629   0.569   6.736
 8815SOL     OW27343   0.139   5.612   1.858
 8815SOL    HW127344   0.205   5.619   1.782
 8815SOL    HW227345   0.157   5.528   1.909
 8816SOL     OW27346   1.097   5.991   0.947
 8816SOL    HW127347   1.098   5.993   0.847
 8816SOL    HW227348   1.184   5.956   0.980
 8817SOL     OW27349   1.560   5.816   5.312
 8817SOL    HW127350   1.519   5.743   5.366
 8817SOL    HW227351   1.584   5.782   5.221
 8818SOL     OW27352   0.013   4.287   4.138
 8818SOL    HW127353   0.022   4.336   4.051
 8818SOL    HW227354   6.935   4.295   4.170
 8819SOL     OW27355   4.627   6.586   4.217
 8819SOL    HW127356   4.578   6.516   4.269
 8819SOL    HW227357   4.666   6.544   4.134
 8820SOL     OW27358   1.875   3.072   4.180
 8820SOL    HW127359   1.831   3.113   4.259
 8820SOL    HW227360   1.863   2.973   4.182
 8821SOL     OW27361   2.627   0.635   6.424
 8821SOL    HW127362   2.578   0.721   6.414
 8821SOL    HW227363   2.608   0.596   6.515
 8822SOL     OW27364   0.718   1.853   3.382
 8822SOL    HW127365   0.737   1.854   3.480
 8822SOL    HW227366   0.636   1.799   3.364
 8823SOL     OW27367   1.758   0.009   0.686
 8823SOL    HW127368   1.815   0.028   0.606
 8823SOL    HW227369   1.770   0.081   0.754
 8824SOL     OW27370   3.124   3.652   0.810
 8824SOL    HW127371   3.201   3.613   0.760
 8824SOL    HW227372   3.144   3.747   0.834
 8825SOL     OW27373   1.822   1.256   2.114
 8825SOL    HW127374   1.832   1.179   2.052
 8825SOL    HW227375   1.743   1.241   2.174
 8826SOL     OW27376   5.749   0.682   6.836
 8826SOL    HW127377   5.679   0.726   6.892
 8826SOL    HW227378   5.781   0.745   6.766
 8827SOL     OW27379   2.496   1.614   2.763
 8827SOL    HW127380   2.526   1.520   2.778
 8827SOL    HW227381   2.564   1.677   2.801
 8828SOL     OW27382   3.093   6.109   3.529
 8828SOL    HW127383   3.088   6.103   3.430
 8828SOL    HW227384   3.186   6.087   3.560
 8829SOL     OW27385   0.180   2.975   6.412
 8829SOL    HW127386   0.266   2.977   6.361
 8829SOL    HW227387   0.199   2.968   6.509
 8830SOL     OW27388   0.517   0.963   0.099
 8830SOL    HW127389   0.562   1.048   0.128
 8830SOL    HW227390   0.443   0.984   0.036
 8831SOL     OW27391   6.052   0.587   2.639
 8831SOL    HW127392   5.989   0.588   2.560
 8831SOL    HW227393   6.061   0.493   2.672
 8832SOL     OW27394   0.427   0.024   2.110
 8832SOL    HW127395   0.361   0.085   2.066
 8832SOL    HW227396   0.514   0.072   2.122
 8833SOL     OW27397   2.647   5.412   4.439
 8833SOL    HW127398   2.706   5.428   4.359
 8833SOL    HW227399   2.585   5.489   4.450
 8834SOL     OW27400   6.225   2.946   4.895
 8834SOL    HW127401   6.289   3.015   4.928
 8834SOL    HW227402   6.193   2.971   4.804
 8835SOL     OW27403   6.627   6.806   5.416
 8835SOL    HW127404   6.615   6.789   5.514
 8835SOL    HW227405   6.724   6.800   5.393
 8836SOL     OW27406   4.038   1.235   0.533
 8836SOL    HW127407   3.970   1.233   0.459
 8836SOL    HW227408   3.991   1.222   0.620
 8837SOL     OW27409   0.576   0.765   1.594
 8837SOL    HW127410   0.477   0.755   1.607
 8837SOL    HW227411   0.624   0.707   1.659
 8838SOL     OW27412   2.662   5.048   3.241
 8838SOL    HW127413   2.760   5.036   3.227
 8838SOL    HW227414   2.642   5.052   3.339
 8839SOL     OW27415   6.358   6.203   3.057
 8839SOL    HW127416   6.414   6.121   3.060
 8839SOL    HW227417   6.278   6.191   3.116
 8840SOL     OW27418   5.249   2.346   2.536
 8840SOL    HW127419   5.284   2.271   2.592
 8840SOL    HW227420   5.286   2.433   2.569
 8841SOL     OW27421   1.110   2.186   5.382
 8841SOL    HW127422   1.072   2.205   5.472
 8841SOL    HW227423   1.208   2.170   5.389
 8842SOL     OW27424   2.486   2.793   1.413
 8842SOL    HW127425   2.452   2.819   1.503
 8842SOL    HW227426   2.582   2.820   1.404
 8843SOL     OW27427   1.243   2.901   5.344
 8843SOL    HW127428   1.311   2.839   5.305
 8843SOL    HW227429   1.273   2.995   5.333
 8844SOL     OW27430   6.258   1.089   5.931
 8844SOL    HW127431   6.165   1.054   5.938
 8844SOL    HW227432   6.297   1.063   5.842
 8845SOL     OW27433   4.707   3.833   0.161
 8845SOL    HW127434   4.665   3.763   0.103
 8845SOL    HW227435   4.806   3.820   0.164
 8846SOL     OW27436   1.977   4.833   4.164
 8846SOL    HW127437   2.032   4.866   4.088
 8846SOL    HW227438   1.884   4.870   4.157
 8847SOL     OW27439   2.847   0.205   2.685
 8847SOL    HW127440   2.814   0.160   2.602
 8847SOL    HW227441   2.779   0.197   2.757
 8848SOL     OW27442   1.884   0.470   2.162
 8848SOL    HW127443   1.882   0.568   2.179
 8848SOL    HW227444   1.943   0.450   2.084
 8849SOL     OW27445   1.907   6.130   2.287
 8849SOL    HW127446   1.829   6.125   2.349
 8849SOL    HW227447   1.917   6.042   2.240
 8850SOL     OW27448   2.997   2.384   6.540
 8850SOL    HW127449   2.903   2.375   6.571
 8850SOL    HW227450   3.005   2.464   6.480
 8851SOL     OW27451   1.575   4.579   2.255
 8851SOL    HW127452   1.650   4.600   2.317
 8851SOL    HW227453   1.602   4.506   2.192
 8852SOL     OW27454   1.589   1.153   5.993
 8852SOL    HW127455   1.542   1.171   5.906
 8852SOL    HW227456   1.623   1.059   5.992
 8853SOL     OW27457   3.136   0.897   1.214
 8853SOL    HW127458   3.230   0.918   1.188
 8853SOL    HW227459   3.129   0.800   1.237
 8854SOL     OW27460   1.433   2.826   4.786
 8854SOL    HW127461   1.400   2.828   4.880
 8854SOL    HW227462   1.506   2.893   4.775
 8855SOL     OW27463   5.592   5.059   1.401
 8855SOL    HW127464   5.637   5.118   1.468
 8855SOL    HW227465   5.548   4.982   1.448
 8856SOL     OW27466   0.311   5.363   6.476
 8856SOL    HW127467   0.259   5.432   6.426
 8856SOL    HW227468   0.347   5.296   6.412
 8857SOL     OW27469   6.597   1.519   5.310
 8857SOL    HW127470   6.588   1.613   5.344
 8857SOL    HW227471   6.506   1.478   5.301
 8858SOL     OW27472   6.114   4.933   4.892
 8858SOL    HW127473   6.192   4.959   4.950
 8858SOL    HW227474   6.060   4.864   4.940
 8859SOL     OW27475   0.461   1.075   3.509
 8859SOL    HW127476   0.396   1.113   3.575
 8859SOL    HW227477   0.414   1.006   3.453
 8860SOL     OW27478   6.569   2.326   1.633
 8860SOL    HW127479   6.475   2.357   1.650
 8860SOL    HW227480   6.632   2.381   1.688
 8861SOL     OW27481   4.337   1.611   1.638
 8861SOL    HW127482   4.363   1.674   1.711
 8861SOL    HW227483   4.245   1.632   1.606
 8862SOL     OW27484   4.537   5.254   5.124
 8862SOL    HW127485   4.602   5.178   5.121
 8862SOL    HW227486   4.584   5.337   5.153
 8863SOL     OW27487   1.954   4.240   3.720
 8863SOL    HW127488   1.959   4.154   3.669
 8863SOL    HW227489   1.900   4.306   3.668
 8864SOL     OW27490   5.738   2.400   6.214
 8864SOL    HW127491   5.761   2.366   6.305
 8864SOL    HW227492   5.721   2.322   6.153
 8865SOL     OW27493   2.380   1.706   6.466
 8865SOL    HW127494   2.440   1.781   6.495
 8865SOL    HW227495   2.310   1.690   6.536
 8866SOL     OW27496   5.734   6.572   2.128
 8866SOL    HW127497   5.681   6.489   2.144
 8866SOL    HW227498   5.821   6.550   2.085
 8867SOL     OW27499   6.362   3.558   2.753
 8867SOL    HW127500   6.401   3.577   2.843
 8867SOL    HW227501   6.387   3.631   2.690
 8868SOL     OW27502   6.875   3.653   3.130
 8868SOL    HW127503   6.881   3.591   3.207
 8868SOL    HW227504   6.961   3.653   3.079
 8869SOL     OW27505   3.372   6.137   3.552
 8869SOL    HW127506   3.420   6.100   3.631
 8869SOL    HW227507   3.438   6.176   3.488
 8870SOL     OW27508   1.667   0.003   1.786
 8870SOL    HW127509   1.652   6.987   1.880
 8870SOL    HW227510   1.741   6.967   1.744
 8871SOL     OW27511   0.911   0.758   2.753
 8871SOL    HW127512   0.971   0.796   2.683
 8871SOL    HW227513   0.961   0.750   2.839
 8872SOL     OW27514   0.342   4.357   5.320
 8872SOL    HW127515   0.313   4.410   5.240
 8872SOL    HW227516   0.417   4.296   5.295
 8873SOL     OW27517   1.487   0.543   2.268
 8873SOL    HW127518   1.522   0.632   2.295
 8873SOL    HW227519   1.552   0.472   2.295
 8874SOL     OW27520   2.586   5.370   0.441
 8874SOL    HW127521   2.656   5.354   0.371
 8874SOL    HW227522   2.530   5.288   0.452
 8875SOL     OW27523   6.950   3.134   3.419
 8875SOL    HW127524   6.882   3.083   3.471
 8875SOL    HW227525   6.903   3.202   3.362
 8876SOL     OW27526   3.653   0.519   6.171
 8876SOL    HW127527   3.717   0.592   6.150
 8876SOL    HW227528   3.666   0.488   6.265
 8877SOL     OW27529   1.921   3.807   1.087
 8877SOL    HW127530   2.013   3.843   1.100
 8877SOL    HW227531   1.870   3.814   1.173
 8878SOL     OW27532   3.908   4.588   0.564
 8878SOL    HW127533   3.993   4.636   0.583
 8878SOL    HW227534   3.863   4.629   0.485
 8879SOL     OW27535   6.296   4.472   2.925
 8879SOL    HW127536   6.314   4.562   2.966
 8879SOL    HW227537   6.354   4.404   2.968
 8880SOL     OW27538   4.755   6.504   3.685
 8880SOL    HW127539   4.813   6.583   3.666
 8880SOL    HW227540   4.717   6.512   3.778
 8881SOL     OW27541   3.756   4.909   4.015
 8881SOL    HW127542   3.660   4.899   3.987
 8881SOL    HW227543   3.760   4.949   4.106
 8882SOL     OW27544   4.049   0.597   0.927
 8882SOL    HW127545   4.074   0.541   0.847
 8882SOL    HW227546   3.974   0.552   0.976
 8883SOL     OW27547   0.273   5.941   5.226
 8883SOL    HW127548   0.302   5.845   5.222
 8883SOL    HW227549   0.174   5.947   5.212
 8884SOL     OW27550   5.585   3.797   4.886
 8884SOL    HW127551   5.545   3.706   4.874
 8884SOL    HW227552   5.519   3.855   4.935
 8885SOL     OW27553   5.932   5.696   0.452
 8885SOL    HW127554   5.989   5.712   0.371
 8885SOL    HW227555   5.846   5.747   0.441
 8886SOL     OW27556   3.045   6.159   0.077
 8886SOL    HW127557   2.998   6.247   0.066
 8886SOL    HW227558   3.020   6.119   0.165
 8887SOL     OW27559   5.064   1.747   0.991
 8887SOL    HW127560   4.988   1.802   1.024
 8887SOL    HW227561   5.146   1.769   1.044
 8888SOL     OW27562   2.299   1.835   3.400
 8888SOL    HW127563   2.324   1.739   3.416
 8888SOL    HW227564   2.380   1.892   3.408
 8889SOL     OW27565   0.453   6.439   6.346
 8889SOL    HW127566   0.540   6.422   6.392
 8889SOL    HW227567   0.466   6.438   6.247
 8890SOL     OW27568   0.242   0.016   6.776
 8890SOL    HW127569   0.246   0.033   6.875
 8890SOL    HW227570   0.333   7.009   6.743
 8891SOL     OW27571   6.229   4.552   6.892
 8891SOL    HW127572   6.265   4.614   6.961
 8891SOL    HW227573   6.304   4.502   6.849
 8892SOL     OW27574   3.245   5.289   3.393
 8892SOL    HW127575   3.331   5.310   3.438
 8892SOL    HW227576   3.170   5.337   3.440
 8893SOL     OW27577   1.454   4.917   4.852
 8893SOL    HW127578   1.470   4.818   4.857
 8893SOL    HW227579   1.486   4.960   4.937
 8894SOL     OW27580   4.435   2.144   0.231
 8894SOL    HW127581   4.395   2.116   0.144
 8894SOL    HW227582   4.366   2.190   0.287
 8895SOL     OW27583   0.922   4.055   0.914
 8895SOL    HW127584   0.847   4.082   0.855
 8895SOL    HW227585   0.995   4.124   0.910
 8896SOL     OW27586   0.136   2.320   3.927
 8896SOL    HW127587   0.104   2.229   3.900
 8896SOL    HW227588   0.068   2.363   3.986
 8897SOL     OW27589   2.205   4.111   3.617
 8897SOL    HW127590   2.255   4.056   3.550
 8897SOL    HW227591   2.114   4.132   3.582
 8898SOL     OW27592   4.874   3.745   3.161
 8898SOL    HW127593   4.835   3.664   3.205
 8898SOL    HW227594   4.859   3.741   3.063
 8899SOL     OW27595   6.904   3.839   6.372
 8899SOL    HW127596   6.963   3.891   6.310
 8899SOL    HW227597   6.830   3.898   6.404
 8900SOL     OW27598   5.545   2.872   4.085
 8900SOL    HW127599   5.582   2.891   3.994
 8900SOL    HW227600   5.569   2.779   4.113
 8901SOL     OW27601   1.193   2.332   3.931
 8901SOL    HW127602   1.174   2.301   3.838
 8901SOL    HW227603   1.270   2.396   3.929
 8902SOL     OW27604   1.050   4.462   6.799
 8902SOL    HW127605   1.070   4.374   6.844
 8902SOL    HW227606   1.001   4.444   6.713
 8903SOL     OW27607   1.266   1.074   4.751
 8903SOL    HW127608   1.253   1.133   4.671
 8903SOL    HW227609   1.320   1.122   4.820
 8904SOL     OW27610   0.764   1.208   3.068
 8904SOL    HW127611   0.749   1.156   3.153
 8904SOL    HW227612   0.842   1.170   3.019
 8905SOL     OW27613   1.735   3.588   2.081
 8905SOL    HW127614   1.788   3.519   2.131
 8905SOL    HW227615   1.732   3.565   1.984
 8906SOL     OW27616   6.825   0.247   0.738
 8906SOL    HW127617   6.846   0.344   0.755
 8906SOL    HW227618   6.731   0.229   0.769
 8907SOL     OW27619   3.724   2.830   5.095
 8907SOL    HW127620   3.666   2.909   5.113
 8907SOL    HW227621   3.789   2.852   5.022
 8908SOL     OW27622   1.589   6.157   0.554
 8908SOL    HW127623   1.531   6.077   0.538
 8908SOL    HW227624   1.604   6.205   0.467
 8909SOL     OW27625   2.833   1.059   6.921
 8909SOL    HW127626   2.896   1.136   6.935
 8909SOL    HW227627   2.758   1.066   6.986
 8910SOL     OW27628   1.592   2.301   4.349
 8910SOL    HW127629   1.653   2.250   4.411
 8910SOL    HW227630   1.566   2.242   4.273
 8911SOL     OW27631   4.666   1.913   4.172
 8911SOL    HW127632   4.603   1.982   4.135
 8911SOL    HW227633   4.638   1.889   4.264
 8912SOL     OW27634   3.613   3.851   4.973
 8912SOL    HW127635   3.561   3.936   4.980
 8912SOL    HW227636   3.677   3.857   4.896
 8913SOL     OW27637   5.031   5.693   6.670
 8913SOL    HW127638   5.091   5.681   6.749
 8913SOL    HW227639   4.991   5.605   6.646
 8914SOL     OW27640   5.068   6.660   5.591
 8914SOL    HW127641   5.125   6.676   5.671
 8914SOL    HW227642   5.010   6.580   5.608
 8915SOL     OW27643   0.453   1.443   3.440
 8915SOL    HW127644   0.357   1.416   3.432
 8915SOL    HW227645   0.502   1.417   3.356
 8916SOL     OW27646   5.400   1.529   6.747
 8916SOL    HW127647   5.497   1.552   6.733
 8916SOL    HW227648   5.349   1.612   6.768
 8917SOL     OW27649   5.950   1.624   0.229
 8917SOL    HW127650   5.976   1.720   0.223
 8917SOL    HW227651   5.998   1.582   0.307
 8918SOL     OW27652   1.350   4.838   1.458
 8918SOL    HW127653   1.316   4.932   1.454
 8918SOL    HW227654   1.276   4.776   1.482
 8919SOL     OW27655   5.648   4.201   6.638
 8919SOL    HW127656   5.583   4.268   6.601
 8919SOL    HW227657   5.722   4.187   6.573
 8920SOL     OW27658   0.184   1.250   6.667
 8920SOL    HW127659   0.224   1.160   6.653
 8920SOL    HW227660   0.236   1.319   6.617
 8921SOL     OW27661   1.122   2.731   1.057
 8921SOL    HW127662   1.197   2.751   1.120
 8921SOL    HW227663   1.147   2.653   1.000
 8922SOL     OW27664   3.443   0.435   3.875
 8922SOL    HW127665   3.402   0.347   3.848
 8922SOL    HW227666   3.383   0.509   3.845
 8923SOL     OW27667   2.011   2.118   5.556
 8923SOL    HW127668   1.961   2.032   5.566
 8923SOL    HW227669   1.983   2.182   5.627
 8924SOL     OW27670   5.063   4.982   4.695
 8924SOL    HW127671   5.064   4.909   4.626
 8924SOL    HW227672   5.147   4.978   4.749
 8925SOL     OW27673   1.003   0.659   3.001
 8925SOL    HW127674   0.988   0.565   2.970
 8925SOL    HW227675   0.960   0.671   3.091
 8926SOL     OW27676   6.554   3.551   5.501
 8926SOL    HW127677   6.567   3.515   5.409
 8926SOL    HW227678   6.631   3.523   5.559
 8927SOL     OW27679   7.016   2.196   5.970
 8927SOL    HW127680   0.054   2.232   6.046
 8927SOL    HW227681   0.038   2.110   5.939
 8928SOL     OW27682   2.297   6.697   5.219
 8928SOL    HW127683   2.391   6.723   5.243
 8928SOL    HW227684   2.256   6.767   5.162
 8929SOL     OW27685   0.036   2.506   5.190
 8929SOL    HW127686   6.973   2.529   5.247
 8929SOL    HW227687   0.021   2.541   5.097
 8930SOL     OW27688   1.559   4.482   3.633
 8930SOL    HW127689   1.529   4.400   3.584
 8930SOL    HW227690   1.503   4.494   3.715
 8931SOL     OW27691   3.529   3.169   1.638
 8931SOL    HW127692   3.434   3.201   1.640
 8931SOL    HW227693   3.545   3.108   1.715
 8932SOL     OW27694   6.850   2.340   2.906
 8932SOL    HW127695   6.867   2.295   2.819
 8932SOL    HW227696   6.821   2.272   2.973
 8933SOL     OW27697   3.472   2.157   6.251
 8933SOL    HW127698   3.561   2.188   6.217
 8933SOL    HW227699   3.441   2.079   6.196
 8934SOL     OW27700   3.112   5.628   4.156
 8934SOL    HW127701   3.160   5.590   4.235
 8934SOL    HW227702   3.177   5.644   4.082
 8935SOL     OW27703   6.796   5.245   1.011
 8935SOL    HW127704   6.735   5.167   1.020
 8935SOL    HW227705   6.891   5.215   1.024
 8936SOL     OW27706   2.112   3.341   0.659
 8936SOL    HW127707   2.108   3.395   0.574
 8936SOL    HW227708   2.070   3.252   0.642
 8937SOL     OW27709   6.913   6.213   5.323
 8937SOL    HW127710   6.825   6.228   5.279
 8937SOL    HW227711   6.963   6.299   5.330
 8938SOL     OW27712   6.122   5.167   1.653
 8938SOL    HW127713   6.025   5.148   1.643
 8938SOL    HW227714   6.170   5.084   1.681
 8939SOL     OW27715   5.117   2.045   4.688
 8939SOL    HW127716   5.147   2.060   4.782
 8939SOL    HW227717   5.124   2.131   4.637
 8940SOL     OW27718   6.254   0.612   3.700
 8940SOL    HW127719   6.325   0.651   3.641
 8940SOL    HW227720   6.189   0.684   3.726
 8941SOL     OW27721   5.671   2.164   6.104
 8941SOL    HW127722   5.586   2.210   6.080
 8941SOL    HW227723   5.653   2.091   6.170
 8942SOL     OW27724   0.474   2.424   5.259
 8942SOL    HW127725   0.489   2.417   5.357
 8942SOL    HW227726   0.377   2.412   5.239
 8943SOL     OW27727   4.766   3.411   1.150
 8943SOL    HW127728   4.695   3.344   1.129
 8943SOL    HW227729   4.744   3.498   1.107
 8944SOL     OW27730   4.792   5.913   0.277
 8944SOL    HW127731   4.809   5.845   0.348
 8944SOL    HW227732   4.810   5.873   0.187
 8945SOL     OW27733   2.527   0.781   4.837
 8945SOL    HW127734   2.519   0.721   4.917
 8945SOL    HW227735   2.608   0.839   4.848
 8946SOL     OW27736   3.619   1.865   5.269
 8946SOL    HW127737   3.614   1.786   5.208
 8946SOL    HW227738   3.560   1.938   5.234
 8947SOL     OW27739   3.612   3.549   5.631
 8947SOL    HW127740   3.518   3.574   5.608
 8947SOL    HW227741   3.673   3.623   5.604
 8948SOL     OW27742   5.398   4.854   3.183
 8948SOL    HW127743   5.438   4.833   3.273
 8948SOL    HW227744   5.365   4.948   3.183
 8949SOL     OW27745   1.813   6.740   7.007
 8949SOL    HW127746   1.816   6.677   6.930
 8949SOL    HW227747   1.722   6.737   0.032
 8950SOL     OW27748   5.023   2.986   5.229
 8950SOL    HW127749   4.952   2.989   5.300
 8950SOL    HW227750   5.093   2.920   5.255
 8951SOL     OW27751   1.957   2.887   5.579
 8951SOL    HW127752   1.991   2.794   5.593
 8951SOL    HW227753   2.034   2.947   5.556
 8952SOL     OW27754   1.346   1.464   3.164
 8952SOL    HW127755   1.429   1.500   3.122
 8952SOL    HW227756   1.292   1.539   3.202
 8953SOL     OW27757   1.756   3.316   0.135
 8953SOL    HW127758   1.802   3.298   0.048
 8953SOL    HW227759   1.663   3.278   0.132
 8954SOL     OW27760   1.142   5.980   6.244
 8954SOL    HW127761   1.215   5.976   6.176
 8954SOL    HW227762   1.092   5.893   6.244
 8955SOL     OW27763   0.120   4.688   3.537
 8955SOL    HW127764   0.160   4.596   3.543
 8955SOL    HW227765   0.176   4.745   3.478
 8956SOL     OW27766   0.811   0.937   6.228
 8956SOL    HW127767   0.797   0.875   6.305
 8956SOL    HW227768   0.810   0.884   6.143
 8957SOL     OW27769   2.701   4.769   1.766
 8957SOL    HW127770   2.747   4.690   1.808
 8957SOL    HW227771   2.766   4.844   1.757
 8958SOL     OW27772   1.058   0.205   4.138
 8958SOL    HW127773   1.115   0.124   4.153
 8958SOL    HW227774   0.992   0.186   4.065
 8959SOL     OW27775   1.061   4.760   0.506
 8959SOL    HW127776   1.119   4.826   0.553
 8959SOL    HW227777   1.000   4.807   0.442
 8960SOL     OW27778   4.142   5.691   2.148
 8960SOL    HW127779   4.093   5.773   2.120
 8960SOL    HW227780   4.080   5.631   2.199
 8961SOL     OW27781   1.349   1.475   4.107
 8961SOL    HW127782   1.349   1.375   4.099
 8961SOL    HW227783   1.287   1.514   4.040
 8962SOL     OW27784   5.794   0.226   3.224
 8962SOL    HW127785   5.720   0.274   3.270
 8962SOL    HW227786   5.759   0.142   3.182
 8963SOL     OW27787   5.115   0.051   4.335
 8963SOL    HW127788   5.108   0.138   4.286
 8963SOL    HW227789   5.210   0.022   4.336
 8964SOL     OW27790   4.809   4.551   1.957
 8964SOL    HW127791   4.832   4.548   2.054
 8964SOL    HW227792   4.814   4.459   1.918
 8965SOL     OW27793   1.307   5.290   1.306
 8965SOL    HW127794   1.387   5.323   1.356
 8965SOL    HW227795   1.274   5.205   1.348
 8966SOL     OW27796   1.869   2.641   6.142
 8966SOL    HW127797   1.858   2.703   6.219
 8966SOL    HW227798   1.884   2.694   6.058
 8967SOL     OW27799   3.901   0.056   1.202
 8967SOL    HW127800   3.829   0.086   1.264
 8967SOL    HW227801   3.952   6.997   1.243
 8968SOL     OW27802   5.136   6.098   1.671
 8968SOL    HW127803   5.199   6.031   1.711
 8968SOL    HW227804   5.044   6.060   1.670
 8969SOL     OW27805   5.898   0.725   3.247
 8969SOL    HW127806   5.850   0.682   3.324
 8969SOL    HW227807   5.952   0.656   3.199
 8970SOL     OW27808   3.443   2.404   1.065
 8970SOL    HW127809   3.467   2.447   1.152
 8970SOL    HW227810   3.462   2.468   0.990
 8971SOL     OW27811   3.466   5.926   2.236
 8971SOL    HW127812   3.518   5.841   2.235
 8971SOL    HW227813   3.517   5.996   2.286
 8972SOL     OW27814   5.421   6.254   5.920
 8972SOL    HW127815   5.442   6.335   5.974
 8972SOL    HW227816   5.331   6.218   5.946
 8973SOL     OW27817   1.368   4.790   0.860
 8973SOL    HW127818   1.398   4.877   0.900
 8973SOL    HW227819   1.428   4.766   0.783
 8974SOL     OW27820   1.158   4.264   6.476
 8974SOL    HW127821   1.090   4.190   6.485
 8974SOL    HW227822   1.111   4.352   6.479
 8975SOL     OW27823   2.735   0.351   0.755
 8975SOL    HW127824   2.698   0.440   0.730
 8975SOL    HW227825   2.740   0.293   0.674
 8976SOL     OW27826   1.638   5.191   4.649
 8976SOL    HW127827   1.632   5.257   4.574
 8976SOL    HW227828   1.602   5.103   4.619
 8977SOL     OW27829   5.945   1.351   5.915
 8977SOL    HW127830   6.016   1.406   5.959
 8977SOL    HW227831   5.975   1.256   5.908
 8978SOL     OW27832   5.598   5.754   0.624
 8978SOL    HW127833   5.582   5.827   0.691
 8978SOL    HW227834   5.658   5.788   0.551
 8979SOL     OW27835   1.825   3.675   4.696
 8979SOL    HW127836   1.799   3.665   4.792
 8979SOL    HW227837   1.873   3.593   4.666
 8980SOL     OW27838   3.312   3.554   5.292
 8980SOL    HW127839   3.409   3.547   5.271
 8980SOL    HW227840   3.268   3.618   5.229
 8981SOL     OW27841   3.762   1.507   5.410
 8981SOL    HW127842   3.845   1.478   5.458
 8981SOL    HW227843   3.772   1.602   5.380
 8982SOL     OW27844   2.291   3.551   0.129
 8982SOL    HW127845   2.342   3.582   0.049
 8982SOL    HW227846   2.196   3.583   0.123
 8983SOL     OW27847   3.882   5.895   6.821
 8983SOL    HW127848   3.823   5.968   6.856
 8983SOL    HW227849   3.833   5.808   6.826
 8984SOL     OW27850   2.322   6.116   2.842
 8984SOL    HW127851   2.302   6.019   2.854
 8984SOL    HW227852   2.372   6.149   2.923
 8985SOL     OW27853   3.019   2.486   0.406
 8985SOL    HW127854   3.113   2.452   0.406
 8985SOL    HW227855   2.971   2.449   0.327
 8986SOL     OW27856   3.298   4.908   2.985
 8986SOL    HW127857   3.229   4.920   2.914
 8986SOL    HW227858   3.385   4.882   2.943
 8987SOL     OW27859   5.177   5.827   2.651
 8987SOL    HW127860   5.257   5.837   2.710
 8987SOL    HW227861   5.141   5.733   2.659
 8988SOL     OW27862   0.593   5.862   3.683
 8988SOL    HW127863   0.604   5.811   3.768
 8988SOL    HW227864   0.610   5.959   3.699
 8989SOL     OW27865   5.114   2.951   6.043
 8989SOL    HW127866   5.184   2.880   6.052
 8989SOL    HW227867   5.157   3.041   6.054
 8990SOL     OW27868   1.036   5.028   3.783
 8990SOL    HW127869   1.065   4.945   3.830
 8990SOL    HW227870   0.957   5.008   3.725
 8991SOL     OW27871   1.509   2.561   4.392
 8991SOL    HW127872   1.548   2.471   4.372
 8991SOL    HW227873   1.573   2.613   4.450
 8992SOL     OW27874   5.339   1.697   0.190
 8992SOL    HW127875   5.262   1.720   0.250
 8992SOL    HW227876   5.421   1.745   0.221
 8993SOL     OW27877   3.954   3.317   6.911
 8993SOL    HW127878   3.930   3.318   6.814
 8993SOL    HW227879   3.958   3.411   6.945
 8994SOL     OW27880   1.825   4.657   4.522
 8994SOL    HW127881   1.799   4.592   4.450
 8994SOL    HW227882   1.915   4.695   4.502
 8995SOL     OW27883   6.842   1.475   1.626
 8995SOL    HW127884   6.897   1.436   1.700
 8995SOL    HW227885   6.777   1.407   1.592
 8996SOL     OW27886   5.305   4.064   6.330
 8996SOL    HW127887   5.372   4.092   6.398
 8996SOL    HW227888   5.248   3.991   6.368
 8997SOL     OW27889   4.938   1.007   5.258
 8997SOL    HW127890   4.890   1.080   5.307
 8997SOL    HW227891   4.924   1.017   5.160
 8998SOL     OW27892   6.318   3.959   3.968
 8998SOL    HW127893   6.298   3.882   3.906
 8998SOL    HW227894   6.404   3.942   4.015
 8999SOL     OW27895   4.519   6.841   5.996
 8999SOL    HW127896   4.471   6.768   5.947
 8999SOL    HW227897   4.481   6.850   6.088
 9000SOL     OW27898   1.322   3.737   1.238
 9000SOL    HW127899   1.352   3.819   1.286
 9000SOL    HW227900   1.394   3.707   1.175
 9001SOL     OW27901   0.000   4.724   2.123
 9001SOL    HW127902   0.006   4.820   2.098
 9001SOL    HW227903   0.013   4.667   2.042
 9002SOL     OW27904   1.214   4.518   5.421
 9002SOL    HW127905   1.185   4.613   5.435
 9002SOL    HW227906   1.134   4.459   5.415
 9003SOL     OW27907   5.194   3.169   1.556
 9003SOL    HW127908   5.194   3.156   1.655
 9003SOL    HW227909   5.131   3.104   1.514
 9004SOL     OW27910   4.422   5.247   1.139
 9004SOL    HW127911   4.511   5.209   1.117
 9004SOL    HW227912   4.409   5.333   1.089
 9005SOL     OW27913   5.756   1.228   6.252
 9005SOL    HW127914   5.721   1.182   6.334
 9005SOL    HW227915   5.746   1.327   6.262
 9006SOL     OW27916   2.919   6.606   0.977
 9006SOL    HW127917   2.972   6.657   0.909
 9006SOL    HW227918   2.858   6.542   0.930
 9007SOL     OW27919   2.229   1.355   2.254
 9007SOL    HW127920   2.322   1.329   2.279
 9007SOL    HW227921   2.173   1.273   2.243
 9008SOL     OW27922   0.190   5.013   2.915
 9008SOL    HW127923   0.134   4.966   2.984
 9008SOL    HW227924   0.176   5.112   2.923
 9009SOL     OW27925   3.686   5.023   0.858
 9009SOL    HW127926   3.620   4.954   0.827
 9009SOL    HW227927   3.752   4.981   0.920
 9010SOL     OW27928   2.031   6.665   4.292
 9010SOL    HW127929   2.021   6.729   4.216
 9010SOL    HW227930   1.942   6.630   4.319
 9011SOL     OW27931   3.947   0.964   1.790
 9011SOL    HW127932   3.980   1.036   1.852
 9011SOL    HW227933   3.866   0.997   1.741
 9012SOL     OW27934   2.413   5.595   0.409
 9012SOL    HW127935   2.485   5.525   0.415
 9012SOL    HW227936   2.395   5.633   0.500
 9013SOL     OW27937   1.308   0.380   4.817
 9013SOL    HW127938   1.238   0.310   4.804
 9013SOL    HW227939   1.337   0.415   4.728
 9014SOL     OW27940   5.961   2.805   1.508
 9014SOL    HW127941   6.025   2.870   1.467
 9014SOL    HW227942   5.943   2.830   1.603
 9015SOL     OW27943   5.010   2.560   1.079
 9015SOL    HW127944   5.090   2.524   1.032
 9015SOL    HW227945   4.937   2.492   1.078
 9016SOL     OW27946   5.603   5.087   6.501
 9016SOL    HW127947   5.615   5.184   6.479
 9016SOL    HW227948   5.591   5.035   6.417
 9017SOL     OW27949   3.796   1.194   5.227
 9017SOL    HW127950   3.751   1.245   5.155
 9017SOL    HW227951   3.840   1.112   5.189
 9018SOL     OW27952   3.734   3.588   6.574
 9018SOL    HW127953   3.669   3.532   6.626
 9018SOL    HW227954   3.695   3.612   6.486
 9019SOL     OW27955   1.108   4.164   2.676
 9019SOL    HW127956   1.091   4.132   2.769
 9019SOL    HW227957   1.022   4.194   2.635
 9020SOL     OW27958   6.633   4.633   1.344
 9020SOL    HW127959   6.549   4.666   1.300
 9020SOL    HW227960   6.620   4.630   1.443
 9021SOL     OW27961   0.180   0.731   4.083
 9021SOL    HW127962   0.082   0.755   4.082
 9021SOL    HW227963   0.227   0.789   4.150
 9022SOL     OW27964   3.479   2.070   0.085
 9022SOL    HW127965   3.406   2.131   0.055
 9022SOL    HW227966   3.549   2.063   0.014
 9023SOL     OW27967   4.076   3.086   1.389
 9023SOL    HW127968   4.136   3.054   1.315
 9023SOL    HW227969   4.063   3.184   1.381
 9024SOL     OW27970   0.936   4.405   5.360
 9024SOL    HW127971   0.879   4.474   5.316
 9024SOL    HW227972   0.910   4.396   5.456
 9025SOL     OW27973   0.333   5.294   0.825
 9025SOL    HW127974   0.313   5.341   0.912
 9025SOL    HW227975   0.265   5.222   0.811
 9026SOL     OW27976   3.308   1.631   0.742
 9026SOL    HW127977   3.280   1.606   0.835
 9026SOL    HW227978   3.394   1.683   0.746
 9027SOL     OW27979   1.262   3.768   3.797
 9027SOL    HW127980   1.258   3.822   3.882
 9027SOL    HW227981   1.281   3.673   3.819
 9028SOL     OW27982   3.735   3.109   5.378
 9028SOL    HW127983   3.668   3.072   5.314
 9028SOL    HW227984   3.827   3.089   5.346
 9029SOL     OW27985   4.188   0.635   4.868
 9029SOL    HW127986   4.192   0.732   4.844
 9029SOL    HW227987   4.256   0.615   4.939
 9030SOL     OW27988   2.071   2.758   4.116
 9030SOL    HW127989   1.975   2.782   4.126
 9030SOL    HW227990   2.118   2.768   4.204
 9031SOL     OW27991   4.152   0.558   4.414
 9031SOL    HW127992   4.201   0.529   4.497
 9031SOL    HW227993   4.096   0.483   4.381
 9032SOL     OW27994   4.531   4.121   1.206
 9032SOL    HW127995   4.473   4.042   1.226
 9032SOL    HW227996   4.480   4.205   1.226
 9033SOL     OW27997   0.466   4.654   2.695
 9033SOL    HW127998   0.417   4.568   2.680
 9033SOL    HW227999   0.561   4.635   2.719
 9034SOL     OW28000   3.586   6.179   5.089
 9034SOL    HW128001   3.623   6.117   5.158
 9034SOL    HW228002   3.529   6.126   5.026
 9035SOL     OW28003   1.760   6.440   0.101
 9035SOL    HW128004   1.781   6.386   0.020
 9035SOL    HW228005   1.844   6.461   0.150
 9036SOL     OW28006   1.592   3.718   5.590
 9036SOL    HW128007   1.522   3.669   5.537
 9036SOL    HW228008   1.672   3.660   5.601
 9037SOL     OW28009   1.216   2.852   4.591
 9037SOL    HW128010   1.294   2.794   4.611
 9037SOL    HW228011   1.200   2.854   4.492
 9038SOL     OW28012   4.692   3.127   6.573
 9038SOL    HW128013   4.629   3.074   6.631
 9038SOL    HW228014   4.646   3.153   6.488
 9039SOL     OW28015   3.233   4.603   6.853
 9039SOL    HW128016   3.257   4.632   6.946
 9039SOL    HW228017   3.191   4.512   6.855
 9040SOL     OW28018   2.761   2.358   2.335
 9040SOL    HW128019   2.816   2.363   2.252
 9040SOL    HW228020   2.706   2.441   2.344
 9041SOL     OW28021   0.895   2.505   1.104
 9041SOL    HW128022   0.971   2.503   1.038
 9041SOL    HW228023   0.926   2.464   1.190
 9042SOL     OW28024   3.897   6.015   5.194
 9042SOL    HW128025   3.815   5.981   5.240
 9042SOL    HW228026   3.872   6.059   5.108
 9043SOL     OW28027   2.232   1.372   6.743
 9043SOL    HW128028   2.162   1.337   6.805
 9043SOL    HW228029   2.309   1.408   6.796
 9044SOL     OW28030   0.528   0.659   6.907
 9044SOL    HW128031   0.587   0.724   6.858
 9044SOL    HW228032   0.583   0.610   6.975
 9045SOL     OW28033   3.952   0.672   3.506
 9045SOL    HW128034   3.888   0.612   3.553
 9045SOL    HW228035   3.916   0.766   3.505
 9046SOL     OW28036   4.110   3.359   2.592
 9046SOL    HW128037   4.106   3.308   2.678
 9046SOL    HW228038   4.087   3.298   2.516
 9047SOL     OW28039   1.554   3.989   5.172
 9047SOL    HW128040   1.648   4.023   5.175
 9047SOL    HW228041   1.517   3.990   5.265
 9048SOL     OW28042   6.248   2.171   6.282
 9048SOL    HW128043   6.297   2.174   6.195
 9048SOL    HW228044   6.305   2.209   6.354
 9049SOL     OW28045   3.807   6.354   5.677
 9049SOL    HW128046   3.801   6.416   5.755
 9049SOL    HW228047   3.730   6.290   5.679
 9050SOL     OW28048   0.734   4.306   1.603
 9050SOL    HW128049   0.783   4.227   1.567
 9050SOL    HW228050   0.705   4.287   1.697
 9051SOL     OW28051   2.723   0.725   1.502
 9051SOL    HW128052   2.807   0.672   1.512
 9051SOL    HW228053   2.710   0.749   1.406
 9052SOL     OW28054   1.634   3.135   4.060
 9052SOL    HW128055   1.716   3.114   4.112
 9052SOL    HW228056   1.637   3.231   4.030
 9053SOL     OW28057   2.351   1.082   0.980
 9053SOL    HW128058   2.448   1.070   1.003
 9053SOL    HW228059   2.305   1.130   1.054
 9054SOL     OW28060   2.239   5.524   4.154
 9054SOL    HW128061   2.178   5.570   4.090
 9054SOL    HW228062   2.308   5.472   4.104
 9055SOL     OW28063   6.586   4.588   4.720
 9055SOL    HW128064   6.645   4.668   4.722
 9055SOL    HW228065   6.560   4.564   4.813
 9056SOL     OW28066   6.526   2.254   2.481
 9056SOL    HW128067   6.589   2.187   2.521
 9056SOL    HW228068   6.459   2.207   2.424
 9057SOL     OW28069   4.857   1.623   4.540
 9057SOL    HW128070   4.769   1.576   4.542
 9057SOL    HW228071   4.896   1.623   4.632
 9058SOL     OW28072   1.661   0.614   6.604
 9058SOL    HW128073   1.605   0.556   6.663
 9058SOL    HW228074   1.743   0.643   6.654
 9059SOL     OW28075   1.452   2.703   2.400
 9059SOL    HW128076   1.496   2.791   2.418
 9059SOL    HW228077   1.521   2.631   2.404
 9060SOL     OW28078   5.342   3.219   4.871
 9060SOL    HW128079   5.293   3.138   4.903
 9060SOL    HW228080   5.424   3.190   4.821
 9061SOL     OW28081   4.283   5.480   2.386
 9061SOL    HW128082   4.217   5.468   2.313
 9061SOL    HW228083   4.320   5.573   2.382
 9062SOL     OW28084   1.112   5.305   1.649
 9062SOL    HW128085   1.100   5.343   1.741
 9062SOL    HW228086   1.064   5.362   1.583
 9063SOL     OW28087   2.799   1.577   3.909
 9063SOL    HW128088   2.821   1.508   3.978
 9063SOL    HW228089   2.700   1.583   3.899
 9064SOL     OW28090   6.528   3.626   0.020
 9064SOL    HW128091   6.584   3.657   6.960
 9064SOL    HW228092   6.457   3.563   7.004
 9065SOL     OW28093   3.288   0.618   0.449
 9065SOL    HW128094   3.361   0.599   0.384
 9065SOL    HW228095   3.201   0.622   0.401
 9066SOL     OW28096   5.739   6.986   0.084
 9066SOL    HW128097   5.838   6.977   0.075
 9066SOL    HW228098   5.702   6.905   0.129
 9067SOL     OW28099   1.960   6.897   3.419
 9067SOL    HW128100   2.026   6.862   3.353
 9067SOL    HW228101   1.988   6.989   3.447
 9068SOL     OW28102   1.355   6.270   5.415
 9068SOL    HW128103   1.315   6.295   5.327
 9068SOL    HW228104   1.293   6.210   5.464
 9069SOL     OW28105   1.744   2.730   6.392
 9069SOL    HW128106   1.700   2.645   6.420
 9069SOL    HW228107   1.678   2.805   6.401
 9070SOL     OW28108   1.822   3.956   4.341
 9070SOL    HW128109   1.877   3.879   4.374
 9070SOL    HW228110   1.880   4.021   4.292
 9071SOL     OW28111   6.372   6.566   0.598
 9071SOL    HW128112   6.377   6.467   0.599
 9071SOL    HW228113   6.422   6.604   0.676
 9072SOL     OW28114   6.611   3.544   0.573
 9072SOL    HW128115   6.672   3.531   0.494
 9072SOL    HW228116   6.516   3.539   0.542
 9073SOL     OW28117   2.252   1.040   1.713
 9073SOL    HW128118   2.284   1.126   1.751
 9073SOL    HW228119   2.307   0.965   1.749
 9074SOL     OW28120   1.669   6.789   2.593
 9074SOL    HW128121   1.706   6.709   2.639
 9074SOL    HW228122   1.578   6.769   2.558
 9075SOL     OW28123   6.609   0.900   2.061
 9075SOL    HW128124   6.570   0.992   2.070
 9075SOL    HW228125   6.679   0.901   1.989
 9076SOL     OW28126   6.808   1.282   5.894
 9076SOL    HW128127   6.874   1.268   5.820
 9076SOL    HW228128   6.723   1.234   5.872
 9077SOL     OW28129   4.803   6.664   2.492
 9077SOL    HW128130   4.760   6.600   2.555
 9077SOL    HW228131   4.753   6.664   2.405
 9078SOL     OW28132   3.887   3.537   4.949
 9078SOL    HW128133   3.980   3.513   4.922
 9078SOL    HW228134   3.828   3.456   4.945
 9079SOL     OW28135   3.553   6.426   4.273
 9079SOL    HW128136   3.640   6.470   4.251
 9079SOL    HW228137   3.498   6.415   4.191
 9080SOL     OW28138   5.549   2.756   0.028
 9080SOL    HW128139   5.587   2.816   6.974
 9080SOL    HW228140   5.622   2.704   0.071
 9081SOL     OW28141   5.381   6.126   2.405
 9081SOL    HW128142   5.417   6.215   2.375
 9081SOL    HW228143   5.319   6.140   2.482
 9082SOL     OW28144   2.393   0.564   3.969
 9082SOL    HW128145   2.362   0.492   4.031
 9082SOL    HW228146   2.455   0.625   4.018
 9083SOL     OW28147   4.665   4.715   5.232
 9083SOL    HW128148   4.716   4.792   5.271
 9083SOL    HW228149   4.727   4.637   5.222
 9084SOL     OW28150   3.204   3.467   3.030
 9084SOL    HW128151   3.188   3.559   3.067
 9084SOL    HW228152   3.173   3.464   2.935
 9085SOL     OW28153   2.431   1.868   1.209
 9085SOL    HW128154   2.347   1.871   1.264
 9085SOL    HW228155   2.478   1.956   1.215
 9086SOL     OW28156   0.468   3.979   1.248
 9086SOL    HW128157   0.552   3.958   1.198
 9086SOL    HW228158   0.485   4.052   1.313
 9087SOL     OW28159   4.868   3.727   2.451
 9087SOL    HW128160   4.876   3.721   2.550
 9087SOL    HW228161   4.836   3.639   2.415
 9088SOL     OW28162   6.694   0.763   6.425
 9088SOL    HW128163   6.692   0.675   6.377
 9088SOL    HW228164   6.685   0.747   6.523
 9089SOL     OW28165   4.586   0.077   5.878
 9089SOL    HW128166   4.678   0.073   5.839
 9089SOL    HW228167   4.565   7.007   5.923
 9090SOL     OW28168   5.678   0.325   4.804
 9090SOL    HW128169   5.678   0.419   4.838
 9090SOL    HW228170   5.759   0.277   4.839
 9091SOL     OW28171   3.241   3.881   7.009
 9091SOL    HW128172   3.300   3.909   0.068
 9091SOL    HW228173   3.157   3.842   0.029
 9092SOL     OW28174   6.996   2.024   0.146
 9092SOL    HW128175   6.917   2.081   0.168
 9092SOL    HW228176   6.988   1.993   0.051
 9093SOL     OW28177   1.476   7.004   5.312
 9093SOL    HW128178   1.569   6.973   5.333
 9093SOL    HW228179   1.469   0.007   5.215
 9094SOL     OW28180   0.460   3.537   1.944
 9094SOL    HW128181   0.524   3.498   2.010
 9094SOL    HW228182   0.368   3.536   1.983
 9095SOL     OW28183   5.466   5.845   5.441
 9095SOL    HW128184   5.438   5.770   5.381
 9095SOL    HW228185   5.511   5.808   5.522
 9096SOL     OW28186   6.457   5.439   2.797
 9096SOL    HW128187   6.453   5.518   2.858
 9096SOL    HW228188   6.367   5.424   2.755
 9097SOL     OW28189   0.605   3.259   5.565
 9097SOL    HW128190   0.649   3.177   5.604
 9097SOL    HW228191   0.525   3.282   5.619
 9098SOL     OW28192   2.168   2.922   4.601
 9098SOL    HW128193   2.188   2.916   4.698
 9098SOL    HW228194   2.101   2.995   4.585
 9099SOL     OW28195   2.335   3.304   6.717
 9099SOL    HW128196   2.398   3.316   6.794
 9099SOL    HW228197   2.241   3.300   6.751
 9100SOL     OW28198   1.126   4.570   2.433
 9100SOL    HW128199   1.055   4.635   2.461
 9100SOL    HW228200   1.160   4.522   2.514
 9101SOL     OW28201   2.157   1.336   1.659
 9101SOL    HW128202   2.067   1.377   1.647
 9101SOL    HW228203   2.189   1.301   1.571
 9102SOL     OW28204   4.122   5.879   2.500
 9102SOL    HW128205   4.042   5.935   2.520
 9102SOL    HW228206   4.134   5.873   2.401
 9103SOL     OW28207   6.539   1.778   0.617
 9103SOL    HW128208   6.506   1.684   0.624
 9103SOL    HW228209   6.499   1.822   0.538
 9104SOL     OW28210   6.561   0.717   0.020
 9104SOL    HW128211   6.631   0.780   7.004
 9104SOL    HW228212   6.599   0.659   0.092
 9105SOL     OW28213   1.889   6.976   6.276
 9105SOL    HW128214   1.927   6.997   6.367
 9105SOL    HW228215   1.846   0.041   6.239
 9106SOL     OW28216   0.985   5.098   6.802
 9106SOL    HW128217   0.920   5.027   6.774
 9106SOL    HW228218   1.030   5.070   6.887
 9107SOL     OW28219   2.455   1.136   0.515
 9107SOL    HW128220   2.491   1.086   0.437
 9107SOL    HW228221   2.520   1.130   0.592
 9108SOL     OW28222   5.231   5.598   6.100
 9108SOL    HW128223   5.271   5.510   6.123
 9108SOL    HW228224   5.225   5.606   6.000
 9109SOL     OW28225   5.264   2.646   2.590
 9109SOL    HW128226   5.171   2.681   2.578
 9109SOL    HW228227   5.328   2.707   2.543
 9110SOL     OW28228   1.319   5.544   4.864
 9110SOL    HW128229   1.369   5.457   4.854
 9110SOL    HW228230   1.251   5.552   4.791
 9111SOL     OW28231   4.458   2.855   5.345
 9111SOL    HW128232   4.498   2.814   5.427
 9111SOL    HW228233   4.476   2.953   5.344
 9112SOL     OW28234   2.029   5.194   2.104
 9112SOL    HW128235   2.120   5.228   2.127
 9112SOL    HW228236   2.004   5.226   2.013
 9113SOL     OW28237   4.722   1.971   3.432
 9113SOL    HW128238   4.665   1.892   3.454
 9113SOL    HW228239   4.797   1.977   3.498
 9114SOL     OW28240   1.573   6.076   4.512
 9114SOL    HW128241   1.498   6.081   4.578
 9114SOL    HW228242   1.659   6.101   4.558
 9115SOL     OW28243   5.639   4.291   4.071
 9115SOL    HW128244   5.625   4.389   4.087
 9115SOL    HW228245   5.589   4.263   3.989
 9116SOL     OW28246   0.660   6.900   3.766
 9116SOL    HW128247   0.615   6.987   3.748
 9116SOL    HW228248   0.743   6.893   3.711
 9117SOL     OW28249   3.993   0.925   0.060
 9117SOL    HW128250   3.973   0.849   0.121
 9117SOL    HW228251   4.015   0.890   6.985
 9118SOL     OW28252   6.043   3.799   0.956
 9118SOL    HW128253   5.955   3.832   0.921
 9118SOL    HW228254   6.113   3.869   0.942
 9119SOL     OW28255   3.634   0.221   0.752
 9119SOL    HW128256   3.618   0.308   0.798
 9119SOL    HW228257   3.700   0.167   0.805
 9120SOL     OW28258   5.609   2.986   5.368
 9120SOL    HW128259   5.523   3.036   5.358
 9120SOL    HW228260   5.600   2.896   5.325
 9121SOL     OW28261   3.206   0.444   5.329
 9121SOL    HW128262   3.195   0.433   5.428
 9121SOL    HW228263   3.149   0.520   5.297
 9122SOL     OW28264   2.292   4.287   2.225
 9122SOL    HW128265   2.298   4.286   2.125
 9122SOL    HW228266   2.347   4.363   2.261
 9123SOL     OW28267   0.796   1.078   3.885
 9123SOL    HW128268   0.757   1.169   3.898
 9123SOL    HW228269   0.895   1.085   3.871
 9124SOL     OW28270   2.988   5.833   1.367
 9124SOL    HW128271   2.958   5.821   1.462
 9124SOL    HW228272   3.043   5.754   1.339
 9125SOL     OW28273   4.788   6.818   0.472
 9125SOL    HW128274   4.688   6.820   0.480
 9125SOL    HW228275   4.829   6.831   0.562
 9126SOL     OW28276   3.828   4.491   0.164
 9126SOL    HW128277   3.816   4.437   0.247
 9126SOL    HW228278   3.914   4.466   0.119
 9127SOL     OW28279   0.234   4.111   5.715
 9127SOL    HW128280   0.178   4.030   5.733
 9127SOL    HW228281   0.313   4.085   5.659
 9128SOL     OW28282   5.709   3.532   5.452
 9128SOL    HW128283   5.666   3.613   5.492
 9128SOL    HW228284   5.792   3.558   5.403
 9129SOL     OW28285   1.471   1.779   0.521
 9129SOL    HW128286   1.504   1.792   0.428
 9129SOL    HW228287   1.546   1.749   0.580
 9130SOL     OW28288   2.574   3.863   5.347
 9130SOL    HW128289   2.524   3.929   5.291
 9130SOL    HW228290   2.571   3.891   5.443
 9131SOL     OW28291   5.677   2.762   1.110
 9131SOL    HW128292   5.652   2.698   1.183
 9131SOL    HW228293   5.654   2.855   1.139
 9132SOL     OW28294   0.404   4.217   3.620
 9132SOL    HW128295   0.435   4.227   3.715
 9132SOL    HW228296   0.410   4.121   3.593
 9133SOL     OW28297   4.888   0.827   0.878
 9133SOL    HW128298   4.869   0.752   0.943
 9133SOL    HW228299   4.956   0.888   0.918
 9134SOL     OW28300   4.435   5.427   0.893
 9134SOL    HW128301   4.512   5.486   0.918
 9134SOL    HW228302   4.350   5.480   0.897
 9135SOL     OW28303   0.476   6.915   3.091
 9135SOL    HW128304   0.443   6.824   3.068
 9135SOL    HW228305   0.399   6.974   3.116
 9136SOL     OW28306   6.218   4.594   6.500
 9136SOL    HW128307   6.210   4.667   6.433
 9136SOL    HW228308   6.243   4.508   6.454
 9137SOL     OW28309   5.399   6.250   6.525
 9137SOL    HW128310   5.360   6.342   6.536
 9137SOL    HW228311   5.494   6.250   6.558
 9138SOL     OW28312   3.131   3.060   1.156
 9138SOL    HW128313   3.143   3.009   1.071
 9138SOL    HW228314   3.210   3.119   1.171
 9139SOL     OW28315   6.632   0.348   1.302
 9139SOL    HW128316   6.552   0.378   1.354
 9139SOL    HW228317   6.699   0.308   1.363
 9140SOL     OW28318   0.815   4.566   3.076
 9140SOL    HW128319   0.789   4.504   3.150
 9140SOL    HW228320   0.894   4.621   3.106
 9141SOL     OW28321   6.705   5.751   5.560
 9141SOL    HW128322   6.674   5.679   5.498
 9141SOL    HW228323   6.804   5.763   5.549
 9142SOL     OW28324   1.218   4.056   3.566
 9142SOL    HW128325   1.258   4.090   3.481
 9142SOL    HW228326   1.275   3.982   3.601
 9143SOL     OW28327   6.325   3.226   2.526
 9143SOL    HW128328   6.321   3.318   2.489
 9143SOL    HW228329   6.328   3.230   2.626
 9144SOL     OW28330   2.514   4.457   5.370
 9144SOL    HW128331   2.473   4.388   5.310
 9144SOL    HW228332   2.614   4.448   5.366
 9145SOL     OW28333   1.328   6.450   5.810
 9145SOL    HW128334   1.325   6.439   5.910
 9145SOL    HW228335   1.236   6.471   5.776
 9146SOL     OW28336   6.218   3.001   3.096
 9146SOL    HW128337   6.236   3.017   2.999
 9146SOL    HW228338   6.126   2.963   3.107
 9147SOL     OW28339   4.490   0.057   4.223
 9147SOL    HW128340   4.578   0.103   4.238
 9147SOL    HW228341   4.452   0.087   4.136
 9148SOL     OW28342   6.195   6.529   1.778
 9148SOL    HW128343   6.098   6.532   1.753
 9148SOL    HW228344   6.232   6.438   1.759
 9149SOL     OW28345   0.278   3.761   1.735
 9149SOL    HW128346   0.263   3.823   1.658
 9149SOL    HW228347   0.247   3.805   1.820
 9150SOL     OW28348   2.792   2.487   1.161
 9150SOL    HW128349   2.765   2.574   1.203
 9150SOL    HW228350   2.848   2.435   1.225
 9151SOL     OW28351   1.865   3.387   3.505
 9151SOL    HW128352   1.960   3.419   3.514
 9151SOL    HW228353   1.853   3.340   3.418
 9152SOL     OW28354   2.303   4.862   3.064
 9152SOL    HW128355   2.395   4.887   3.033
 9152SOL    HW228356   2.305   4.840   3.161
 9153SOL     OW28357   6.410   3.440   0.358
 9153SOL    HW128358   6.396   3.407   0.264
 9153SOL    HW228359   6.321   3.452   0.402
 9154SOL     OW28360   5.623   4.418   2.634
 9154SOL    HW128361   5.702   4.461   2.678
 9154SOL    HW228362   5.623   4.441   2.537
 9155SOL     OW28363   1.033   6.779   2.860
 9155SOL    HW128364   1.085   6.794   2.776
 9155SOL    HW228365   0.946   6.734   2.838
 9156SOL     OW28366   0.002   4.007   0.413
 9156SOL    HW128367   0.097   3.976   0.419
 9156SOL    HW228368   6.958   3.928   0.400
 9157SOL     OW28369   1.905   5.289   5.980
 9157SOL    HW128370   1.993   5.260   6.019
 9157SOL    HW228371   1.832   5.270   6.045
 9158SOL     OW28372   6.628   3.333   4.714
 9158SOL    HW128373   6.663   3.427   4.723
 9158SOL    HW228374   6.530   3.332   4.731
 9159SOL     OW28375   3.638   1.390   3.688
 9159SOL    HW128376   3.549   1.346   3.678
 9159SOL    HW228377   3.679   1.363   3.776
 9160SOL     OW28378   6.876   4.419   0.940
 9160SOL    HW128379   6.890   4.320   0.934
 9160SOL    HW228380   6.806   4.439   1.009
 9161SOL     OW28381   6.543   4.284   1.466
 9161SOL    HW128382   6.634   4.243   1.459
 9161SOL    HW228383   6.548   4.368   1.520
 9162SOL     OW28384   4.015   2.021   1.641
 9162SOL    HW128385   4.038   1.987   1.732
 9162SOL    HW228386   3.979   2.114   1.648
 9163SOL     OW28387   1.738   2.615   3.344
 9163SOL    HW128388   1.814   2.655   3.292
 9163SOL    HW228389   1.691   2.547   3.288
 9164SOL     OW28390   2.604   0.407   0.269
 9164SOL    HW128391   2.691   0.420   0.222
 9164SOL    HW228392   2.602   0.463   0.352
 9165SOL     OW28393   5.253   1.481   6.172
 9165SOL    HW128394   5.246   1.568   6.221
 9165SOL    HW228395   5.264   1.498   6.074
 9166SOL     OW28396   5.300   5.870   1.713
 9166SOL    HW128397   5.343   5.897   1.627
 9166SOL    HW228398   5.303   5.770   1.722
 9167SOL     OW28399   1.719   1.568   5.007
 9167SOL    HW128400   1.784   1.576   5.083
 9167SOL    HW228401   1.769   1.551   4.922
 9168SOL     OW28402   6.886   6.158   4.164
 9168SOL    HW128403   6.878   6.188   4.069
 9168SOL    HW228404   6.815   6.203   4.219
 9169SOL     OW28405   6.315   5.745   0.940
 9169SOL    HW128406   6.377   5.799   0.882
 9169SOL    HW228407   6.351   5.743   1.033
 9170SOL     OW28408   1.740   1.296   6.178
 9170SOL    HW128409   1.738   1.396   6.174
 9170SOL    HW228410   1.683   1.258   6.105
 9171SOL     OW28411   3.351   4.638   0.109
 9171SOL    HW128412   3.325   4.713   0.169
 9171SOL    HW228413   3.449   4.640   0.092
 9172SOL     OW28414   4.552   1.328   4.266
 9172SOL    HW128415   4.647   1.328   4.296
 9172SOL    HW228416   4.512   1.419   4.282
 9173SOL     OW28417   5.473   2.820   4.713
 9173SOL    HW128418   5.439   2.907   4.679
 9173SOL    HW228419   5.519   2.834   4.801
 9174SOL     OW28420   0.284   4.747   0.291
 9174SOL    HW128421   0.354   4.802   0.245
 9174SOL    HW228422   0.304   4.650   0.279
 9175SOL     OW28423   1.821   6.737   6.460
 9175SOL    HW128424   1.899   6.680   6.435
 9175SOL    HW228425   1.852   6.829   6.482
 9176SOL     OW28426   1.761   1.414   2.397
 9176SOL    HW128427   1.838   1.476   2.415
 9176SOL    HW228428   1.684   1.466   2.360
 9177SOL     OW28429   0.718   4.205   3.871
 9177SOL    HW128430   0.623   4.232   3.886
 9177SOL    HW228431   0.735   4.118   3.917
 9178SOL     OW28432   2.201   5.881   0.649
 9178SOL    HW128433   2.141   5.929   0.713
 9178SOL    HW228434   2.260   5.817   0.699
 9179SOL     OW28435   3.164   5.454   4.828
 9179SOL    HW128436   3.138   5.363   4.861
 9179SOL    HW228437   3.172   5.517   4.905
 9180SOL     OW28438   6.978   1.052   4.887
 9180SOL    HW128439   6.978   1.006   4.976
 9180SOL    HW228440   7.012   0.989   4.817
 9181SOL     OW28441   3.470   2.092   3.989
 9181SOL    HW128442   3.393   2.146   4.024
 9181SOL    HW228443   3.442   1.996   3.980
 9182SOL     OW28444   1.335   1.189   2.802
 9182SOL    HW128445   1.300   1.097   2.781
 9182SOL    HW228446   1.435   1.187   2.806
 9183SOL     OW28447   0.180   2.485   5.984
 9183SOL    HW128448   0.156   2.491   6.081
 9183SOL    HW228449   0.276   2.508   5.972
 9184SOL     OW28450   3.214   3.208   0.385
 9184SOL    HW128451   3.290   3.178   0.444
 9184SOL    HW228452   3.145   3.253   0.440
 9185SOL     OW28453   1.354   0.810   6.681
 9185SOL    HW128454   1.378   0.826   6.585
 9185SOL    HW228455   1.431   0.833   6.740
 9186SOL     OW28456   5.793   0.865   6.628
 9186SOL    HW128457   5.740   0.796   6.578
 9186SOL    HW228458   5.774   0.956   6.591
 9187SOL     OW28459   5.026   2.262   0.508
 9187SOL    HW128460   5.118   2.291   0.537
 9187SOL    HW228461   5.016   2.164   0.522
 9188SOL     OW28462   1.495   0.196   1.755
 9188SOL    HW128463   1.542   0.115   1.790
 9188SOL    HW228464   1.405   0.203   1.797
 9189SOL     OW28465   3.893   1.229   4.633
 9189SOL    HW128466   3.840   1.179   4.702
 9189SOL    HW228467   3.959   1.166   4.591
 9190SOL     OW28468   6.201   2.600   5.715
 9190SOL    HW128469   6.203   2.655   5.798
 9190SOL    HW228470   6.208   2.503   5.738
 9191SOL     OW28471   5.521   6.236   0.642
 9191SOL    HW128472   5.434   6.283   0.630
 9191SOL    HW228473   5.579   6.250   0.562
 9192SOL     OW28474   5.838   4.769   4.633
 9192SOL    HW128475   5.775   4.779   4.710
 9192SOL    HW228476   5.900   4.692   4.650
 9193SOL     OW28477   3.773   3.357   3.742
 9193SOL    HW128478   3.847   3.319   3.686
 9193SOL    HW228479   3.700   3.290   3.751
 9194SOL     OW28480   3.250   5.957   2.416
 9194SOL    HW128481   3.292   5.905   2.342
 9194SOL    HW228482   3.284   5.922   2.504
 9195SOL     OW28483   6.462   3.594   3.008
 9195SOL    HW128484   6.550   3.554   3.035
 9195SOL    HW228485   6.441   3.670   3.069
 9196SOL     OW28486   4.582   6.996   3.633
 9196SOL    HW128487   4.615   0.043   3.703
 9196SOL    HW228488   4.631   7.013   3.547
 9197SOL     OW28489   3.600   3.232   6.472
 9197SOL    HW128490   3.569   3.138   6.455
 9197SOL    HW228491   3.536   3.296   6.431
 9198SOL     OW28492   5.258   2.833   5.164
 9198SOL    HW128493   5.252   2.776   5.247
 9198SOL    HW228494   5.247   2.775   5.084
 9199SOL     OW28495   1.082   3.837   6.573
 9199SOL    HW128496   1.118   3.746   6.556
 9199SOL    HW228497   1.131   3.880   6.649
 9200SOL     OW28498   6.121   0.180   0.090
 9200SOL    HW128499   6.157   0.230   0.169
 9200SOL    HW228500   6.031   0.218   0.066
 9201SOL     OW28501   1.756   4.249   3.338
 9201SOL    HW128502   1.689   4.248   3.413
 9201SOL    HW228503   1.732   4.321   3.273
 9202SOL     OW28504   3.170   5.192   4.254
 9202SOL    HW128505   3.134   5.262   4.193
 9202SOL    HW228506   3.109   5.181   4.333
 9203SOL     OW28507   4.986   0.761   6.062
 9203SOL    HW128508   4.962   0.677   6.112
 9203SOL    HW228509   4.905   0.797   6.017
 9204SOL     OW28510   4.480   4.485   2.295
 9204SOL    HW128511   4.415   4.559   2.275
 9204SOL    HW228512   4.500   4.435   2.210
 9205SOL     OW28513   4.856   3.185   2.919
 9205SOL    HW128514   4.937   3.144   2.961
 9205SOL    HW228515   4.792   3.113   2.892
 9206SOL     OW28516   0.572   0.141   3.754
 9206SOL    HW128517   0.491   0.159   3.698
 9206SOL    HW228518   0.632   0.221   3.754
 9207SOL     OW28519   4.200   6.958   7.007
 9207SOL    HW128520   4.194   6.926   0.086
 9207SOL    HW228521   4.181   0.040   7.004
 9208SOL     OW28522   4.855   4.486   2.561
 9208SOL    HW128523   4.861   4.543   2.643
 9208SOL    HW228524   4.924   4.516   2.496
 9209SOL     OW28525   3.919   1.059   2.658
 9209SOL    HW128526   3.995   1.057   2.593
 9209SOL    HW228527   3.839   1.015   2.617
 9210SOL     OW28528   1.143   6.992   1.310
 9210SOL    HW128529   1.188   6.964   1.225
 9210SOL    HW228530   1.134   6.913   1.370
 9211SOL     OW28531   4.866   1.102   6.463
 9211SOL    HW128532   4.808   1.072   6.387
 9211SOL    HW228533   4.943   1.040   6.472
 9212SOL     OW28534   5.736   3.934   4.702
 9212SOL    HW128535   5.790   3.996   4.758
 9212SOL    HW228536   5.655   3.904   4.753
 9213SOL     OW28537   6.416   7.010   2.697
 9213SOL    HW128538   6.328   0.011   2.654
 9213SOL    HW228539   6.405   6.942   2.770
 9214SOL     OW28540   1.944   2.293   5.729
 9214SOL    HW128541   1.980   2.386   5.736
 9214SOL    HW228542   1.985   2.236   5.800
 9215SOL     OW28543   0.876   3.270   2.902
 9215SOL    HW128544   0.911   3.196   2.959
 9215SOL    HW228545   0.785   3.297   2.933
 9216SOL     OW28546   2.651   5.854   4.760
 9216SOL    HW128547   2.720   5.877   4.692
 9216SOL    HW228548   2.664   5.760   4.791
 9217SOL     OW28549   4.454   1.155   6.415
 9217SOL    HW128550   4.466   1.248   6.448
 9217SOL    HW228551   4.432   1.094   6.491
 9218SOL     OW28552   5.904   5.306   6.900
 9218SOL    HW128553   5.949   5.393   6.921
 9218SOL    HW228554   5.897   5.252   6.983
 9219SOL     OW28555   3.543   3.009   5.655
 9219SOL    HW128556   3.545   3.071   5.576
 9219SOL    HW228557   3.602   2.931   5.638
 9220SOL     OW28558   0.770   6.524   3.894
 9220SOL    HW128559   0.806   6.586   3.824
 9220SOL    HW228560   0.843   6.464   3.925
 9221SOL     OW28561   2.698   0.992   1.011
 9221SOL    HW128562   2.763   1.067   1.025
 9221SOL    HW228563   2.710   0.924   1.083
 9222SOL     OW28564   1.396   3.471   3.919
 9222SOL    HW128565   1.380   3.399   3.852
 9222SOL    HW228566   1.482   3.518   3.898
 9223SOL     OW28567   0.758   3.494   4.887
 9223SOL    HW128568   0.718   3.452   4.805
 9223SOL    HW228569   0.703   3.572   4.915
 9224SOL     OW28570   2.060   4.607   3.714
 9224SOL    HW128571   2.134   4.657   3.669
 9224SOL    HW228572   2.040   4.523   3.663
 9225SOL     OW28573   4.987   6.081   6.837
 9225SOL    HW128574   5.073   6.103   6.790
 9225SOL    HW228575   4.910   6.098   6.775
 9226SOL     OW28576   1.020   0.670   0.891
 9226SOL    HW128577   1.022   0.637   0.797
 9226SOL    HW228578   1.089   0.742   0.903
 9227SOL     OW28579   2.283   4.895   0.712
 9227SOL    HW128580   2.283   4.843   0.627
 9227SOL    HW228581   2.261   4.833   0.788
 9228SOL     OW28582   3.451   2.963   5.898
 9228SOL    HW128583   3.497   3.000   5.817
 9228SOL    HW228584   3.384   2.895   5.869
 9229SOL     OW28585   0.366   4.675   7.017
 9229SOL    HW128586   0.379   4.769   0.033
 9229SOL    HW228587   0.406   4.667   6.925
 9230SOL     OW28588   4.540   1.595   4.812
 9230SOL    HW128589   4.447   1.631   4.806
 9230SOL    HW228590   4.592   1.647   4.879
 9231SOL     OW28591   6.855   5.768   3.686
 9231SOL    HW128592   6.788   5.726   3.748
 9231SOL    HW228593   6.810   5.792   3.600
 9232SOL     OW28594   1.510   5.203   1.931
 9232SOL    HW128595   1.543   5.134   1.996
 9232SOL    HW228596   1.498   5.290   1.978
 9233SOL     OW28597   0.504   6.500   0.193
 9233SOL    HW128598   0.440   6.459   0.129
 9233SOL    HW228599   0.458   6.570   0.248
 9234SOL     OW28600   2.285   4.398   0.524
 9234SOL    HW128601   2.288   4.317   0.582
 9234SOL    HW228602   2.371   4.407   0.475
 9235SOL     OW28603   1.920   2.174   3.848
 9235SOL    HW128604   1.821   2.166   3.839
 9235SOL    HW228605   1.953   2.112   3.919
 9236SOL     OW28606   2.735   3.104   6.747
 9236SOL    HW128607   2.706   3.148   6.662
 9236SOL    HW228608   2.654   3.087   6.804
 9237SOL     OW28609   5.703   4.681   3.019
 9237SOL    HW128610   5.793   4.705   3.056
 9237SOL    HW228611   5.657   4.618   3.083
 9238SOL     OW28612   1.796   2.723   5.244
 9238SOL    HW128613   1.825   2.815   5.218
 9238SOL    HW228614   1.855   2.688   5.316
 9239SOL     OW28615   1.192   4.802   6.785
 9239SOL    HW128616   1.131   4.749   6.843
 9239SOL    HW228617   1.201   4.895   6.821
 9240SOL     OW28618   4.365   2.456   2.856
 9240SOL    HW128619   4.370   2.387   2.928
 9240SOL    HW228620   4.408   2.540   2.886
 9241SOL     OW28621   5.795   6.432   0.984
 9241SOL    HW128622   5.717   6.423   0.921
 9241SOL    HW228623   5.800   6.526   1.016
 9242SOL     OW28624   1.516   2.612   0.786
 9242SOL    HW128625   1.460   2.691   0.761
 9242SOL    HW228626   1.598   2.609   0.729
 9243SOL     OW28627   0.841   0.771   6.920
 9243SOL    HW128628   0.924   0.751   6.868
 9243SOL    HW228629   0.771   0.808   6.859
 9244SOL     OW28630   3.678   6.658   5.427
 9244SOL    HW128631   3.718   6.680   5.338
 9244SOL    HW228632   3.630   6.738   5.463
 9245SOL     OW28633   1.138   4.606   3.184
 9245SOL    HW128634   1.226   4.620   3.140
 9245SOL    HW228635   1.143   4.527   3.245
 9246SOL     OW28636   6.444   0.347   5.537
 9246SOL    HW128637   6.382   0.397   5.476
 9246SOL    HW228638   6.404   0.341   5.628
 9247SOL     OW28639   4.021   6.832   2.954
 9247SOL    HW128640   4.007   6.744   3.001
 9247SOL    HW228641   3.932   6.877   2.944
 9248SOL     OW28642   2.422   1.204   6.357
 9248SOL    HW128643   2.340   1.224   6.410
 9248SOL    HW228644   2.481   1.284   6.354
 9249SOL     OW28645   3.656   5.417   1.064
 9249SOL    HW128646   3.654   5.324   1.101
 9249SOL    HW228647   3.726   5.423   0.994
 9250SOL     OW28648   0.638   2.844   4.199
 9250SOL    HW128649   0.599   2.776   4.138
 9250SOL    HW228650   0.717   2.806   4.246
 9251SOL     OW28651   3.015   2.812   1.275
 9251SOL    HW128652   3.020   2.849   1.368
 9251SOL    HW228653   3.107   2.790   1.243
 9252SOL     OW28654   4.930   1.799   5.834
 9252SOL    HW128655   4.924   1.874   5.900
 9252SOL    HW228656   4.846   1.794   5.781
 9253SOL     OW28657   0.975   5.350   5.336
 9253SOL    HW128658   0.984   5.261   5.292
 9253SOL    HW228659   0.892   5.395   5.304
 9254SOL     OW28660   6.976   5.063   2.663
 9254SOL    HW128661   6.882   5.075   2.696
 9254SOL    HW228662   0.021   5.124   2.713
 9255SOL     OW28663   6.865   4.159   0.915
 9255SOL    HW128664   6.785   4.131   0.969
 9255SOL    HW228665   6.934   4.087   0.919
 9256SOL     OW28666   1.870   6.007   1.911
 9256SOL    HW128667   1.887   6.093   1.960
 9256SOL    HW228668   1.808   5.950   1.965
 9257SOL     OW28669   6.418   5.941   4.116
 9257SOL    HW128670   6.489   5.941   4.187
 9257SOL    HW228671   6.370   6.028   4.117
 9258SOL     OW28672   3.637   5.130   1.127
 9258SOL    HW128673   3.654   5.080   1.042
 9258SOL    HW228674   3.670   5.075   1.205
 9259SOL     OW28675   2.013   1.273   6.883
 9259SOL    HW128676   1.974   1.365   6.889
 9259SOL    HW228677   1.944   1.210   6.846
 9260SOL     OW28678   6.124   4.038   4.814
 9260SOL    HW128679   6.083   3.957   4.856
 9260SOL    HW228680   6.056   4.111   4.807
 9261SOL     OW28681   3.653   2.520   1.672
 9261SOL    HW128682   3.658   2.610   1.715
 9261SOL    HW228683   3.657   2.449   1.742
 9262SOL     OW28684   6.145   5.696   4.532
 9262SOL    HW128685   6.080   5.666   4.463
 9262SOL    HW228686   6.222   5.743   4.488
 9263SOL     OW28687   1.827   3.927   3.945
 9263SOL    HW128688   1.919   3.901   3.914
 9263SOL    HW228689   1.777   3.845   3.973
 9264SOL     OW28690   4.284   3.816   0.071
 9264SOL    HW128691   4.338   3.791   7.008
 9264SOL    HW228692   4.344   3.829   0.150
 9265SOL     OW28693   5.864   2.133   6.981
 9265SOL    HW128694   5.862   2.047   6.929
 9265SOL    HW228695   5.833   2.116   0.058
 9266SOL     OW28696   1.028   4.557   1.154
 9266SOL    HW128697   1.065   4.615   1.082
 9266SOL    HW228698   1.036   4.604   1.242
 9267SOL     OW28699   6.632   0.823   5.046
 9267SOL    HW128700   6.575   0.904   5.060
 9267SOL    HW228701   6.608   0.779   4.959
 9268SOL     OW28702   0.770   6.996   1.923
 9268SOL    HW128703   0.740   0.041   1.997
 9268SOL    HW228704   0.830   0.029   1.861
 9269SOL     OW28705   4.150   0.837   0.750
 9269SOL    HW128706   4.202   0.900   0.693
 9269SOL    HW228707   4.118   0.884   0.832
 9270SOL     OW28708   1.924   0.265   6.074
 9270SOL    HW128709   1.827   0.292   6.071
 9270SOL    HW228710   1.979   0.342   6.106
 9271SOL     OW28711   1.603   6.954   4.518
 9271SOL    HW128712   1.693   6.940   4.559
 9271SOL    HW228713   1.534   6.954   4.591
 9272SOL     OW28714   6.619   7.014   5.783
 9272SOL    HW128715   6.667   6.994   5.869
 9272SOL    HW228716   6.679   0.050   5.723
 9273SOL     OW28717   4.933   5.162   4.483
 9273SOL    HW128718   4.956   5.135   4.390
 9273SOL    HW228719   4.994   5.116   4.547
 9274SOL     OW28720   0.630   2.689   0.435
 9274SOL    HW128721   0.616   2.606   0.382
 9274SOL    HW228722   0.691   2.751   0.386
 9275SOL     OW28723   0.138   0.558   6.841
 9275SOL    HW128724   0.081   0.628   6.798
 9275SOL    HW228725   0.088   0.472   6.844
 9276SOL     OW28726   2.385   5.465   6.954
 9276SOL    HW128727   2.348   5.541   6.902
 9276SOL    HW228728   2.485   5.470   6.954
 9277SOL     OW28729   5.132   5.958   2.011
 9277SOL    HW128730   5.231   5.967   2.016
 9277SOL    HW228731   5.093   5.957   2.103
 9278SOL     OW28732   0.849   0.817   5.091
 9278SOL    HW128733   0.759   0.832   5.131
 9278SOL    HW228734   0.840   0.803   4.992
 9279SOL     OW28735   4.492   6.184   1.768
 9279SOL    HW128736   4.451   6.251   1.830
 9279SOL    HW228737   4.470   6.209   1.673
 9280SOL     OW28738   1.662   0.004   2.774
 9280SOL    HW128739   1.748   0.006   2.825
 9280SOL    HW228740   1.671   6.956   2.698
 9281SOL     OW28741   2.396   5.148   6.752
 9281SOL    HW128742   2.418   5.242   6.726
 9281SOL    HW228743   2.297   5.133   6.740
 9282SOL     OW28744   2.887   6.631   4.755
 9282SOL    HW128745   2.863   6.688   4.833
 9282SOL    HW228746   2.811   6.629   4.690
 9283SOL     OW28747   4.593   6.110   0.289
 9283SOL    HW128748   4.659   6.035   0.281
 9283SOL    HW228749   4.577   6.130   0.386
 9284SOL     OW28750   3.302   3.940   4.826
 9284SOL    HW128751   3.223   4.000   4.842
 9284SOL    HW228752   3.270   3.845   4.818
 9285SOL     OW28753   0.463   4.758   2.429
 9285SOL    HW128754   0.365   4.757   2.410
 9285SOL    HW228755   0.480   4.725   2.521
 9286SOL     OW28756   4.781   6.001   1.157
 9286SOL    HW128757   4.760   5.975   1.063
 9286SOL    HW228758   4.696   6.009   1.209
 9287SOL     OW28759   3.417   4.448   6.245
 9287SOL    HW128760   3.398   4.440   6.343
 9287SOL    HW228761   3.364   4.379   6.195
 9288SOL     OW28762   3.779   2.069   2.811
 9288SOL    HW128763   3.837   2.055   2.731
 9288SOL    HW228764   3.695   2.015   2.801
 9289SOL     OW28765   4.987   6.453   0.022
 9289SOL    HW128766   4.889   6.443   0.043
 9289SOL    HW228767   5.026   6.362   0.007
 9290SOL     OW28768   5.142   0.787   3.777
 9290SOL    HW128769   5.212   0.718   3.760
 9290SOL    HW228770   5.087   0.761   3.856
 9291SOL     OW28771   1.076   4.975   6.349
 9291SOL    HW128772   1.066   5.049   6.415
 9291SOL    HW228773   1.159   4.989   6.295
 9292SOL     OW28774   1.854   1.443   6.438
 9292SOL    HW128775   1.759   1.475   6.440
 9292SOL    HW228776   1.858   1.355   6.390
 9293SOL     OW28777   5.133   2.694   4.944
 9293SOL    HW128778   5.111   2.758   4.870
 9293SOL    HW228779   5.049   2.662   4.987
 9294SOL     OW28780   4.482   1.413   0.103
 9294SOL    HW128781   4.533   1.418   0.189
 9294SOL    HW228782   4.444   1.502   0.081
 9295SOL     OW28783   0.374   1.382   4.845
 9295SOL    HW128784   0.341   1.476   4.833
 9295SOL    HW228785   0.399   1.344   4.756
 9296SOL     OW28786   1.507   4.916   0.057
 9296SOL    HW128787   1.488   4.823   0.087
 9296SOL    HW228788   1.575   4.958   0.118
 9297SOL     OW28789   5.597   5.599   2.418
 9297SOL    HW128790   5.643   5.648   2.345
 9297SOL    HW228791   5.656   5.526   2.452
 9298SOL     OW28792   1.396   5.554   6.136
 9298SOL    HW128793   1.448   5.637   6.153
 9298SOL    HW228794   1.298   5.575   6.137
 9299SOL     OW28795   1.797   2.512   5.047
 9299SOL    HW128796   1.808   2.573   5.125
 9299SOL    HW228797   1.711   2.532   5.000
 9300SOL     OW28798   1.530   5.196   5.462
 9300SOL    HW128799   1.570   5.271   5.514
 9300SOL    HW228800   1.578   5.111   5.484
 9301SOL     OW28801   0.032   4.189   5.025
 9301SOL    HW128802   6.977   4.196   5.093
 9301SOL    HW228803   7.008   4.180   4.934
 9302SOL     OW28804   2.087   3.607   4.897
 9302SOL    HW128805   2.168   3.626   4.952
 9302SOL    HW228806   2.031   3.689   4.890
 9303SOL     OW28807   2.261   4.683   0.508
 9303SOL    HW128808   2.312   4.606   0.548
 9303SOL    HW228809   2.168   4.653   0.486
 9304SOL     OW28810   4.236   5.405   0.267
 9304SOL    HW128811   4.326   5.361   0.264
 9304SOL    HW228812   4.174   5.358   0.205
 9305SOL     OW28813   1.969   1.931   1.252
 9305SOL    HW128814   2.055   1.950   1.300
 9305SOL    HW228815   1.941   2.012   1.200
 9306SOL     OW28816   6.725   5.627   4.771
 9306SOL    HW128817   6.639   5.614   4.722
 9306SOL    HW228818   6.707   5.663   4.862
 9307SOL     OW28819   2.648   2.996   1.689
 9307SOL    HW128820   2.573   2.931   1.696
 9307SOL    HW228821   2.647   3.040   1.599
 9308SOL     OW28822   2.152   3.874   2.127
 9308SOL    HW128823   2.136   3.928   2.210
 9308SOL    HW228824   2.143   3.777   2.148
 9309SOL     OW28825   4.811   5.633   6.245
 9309SOL    HW128826   4.752   5.698   6.293
 9309SOL    HW228827   4.873   5.683   6.184
 9310SOL     OW28828   5.744   5.942   0.455
 9310SOL    HW128829   5.706   5.957   0.364
 9310SOL    HW228830   5.752   6.029   0.503
 9311SOL     OW28831   4.590   3.664   1.565
 9311SOL    HW128832   4.566   3.627   1.475
 9311SOL    HW228833   4.643   3.748   1.554
 9312SOL     OW28834   0.647   2.903   2.101
 9312SOL    HW128835   0.745   2.894   2.083
 9312SOL    HW228836   0.606   2.811   2.104
 9313SOL     OW28837   0.417   6.800   2.227
 9313SOL    HW128838   0.355   6.811   2.305
 9313SOL    HW228839   0.417   6.883   2.172
 9314SOL     OW28840   4.886   3.546   0.439
 9314SOL    HW128841   4.967   3.600   0.461
 9314SOL    HW228842   4.804   3.599   0.462
 9315SOL     OW28843   5.289   0.578   6.045
 9315SOL    HW128844   5.288   0.672   6.079
 9315SOL    HW228845   5.373   0.561   5.994
 9316SOL     OW28846   4.554   0.615   5.301
 9316SOL    HW128847   4.527   0.700   5.255
 9316SOL    HW228848   4.539   0.625   5.399
 9317SOL     OW28849   3.922   6.679   3.228
 9317SOL    HW128850   3.889   6.657   3.320
 9317SOL    HW228851   4.003   6.623   3.208
 9318SOL     OW28852   4.908   6.589   1.387
 9318SOL    HW128853   4.960   6.505   1.372
 9318SOL    HW228854   4.927   6.624   1.479
 9319SOL     OW28855   2.780   3.813   0.381
 9319SOL    HW128856   2.876   3.839   0.365
 9319SOL    HW228857   2.740   3.874   0.449
 9320SOL     OW28858   6.773   6.296   6.855
 9320SOL    HW128859   6.733   6.206   6.873
 9320SOL    HW228860   6.870   6.295   6.879
 9321SOL     OW28861   0.974   3.738   4.588
 9321SOL    HW128862   1.030   3.667   4.631
 9321SOL    HW228863   0.896   3.697   4.542
 9322SOL     OW28864   5.973   3.596   6.180
 9322SOL    HW128865   5.906   3.537   6.135
 9322SOL    HW228866   5.960   3.591   6.279
 9323SOL     OW28867   1.424   2.149   4.897
 9323SOL    HW128868   1.338   2.169   4.851
 9323SOL    HW228869   1.440   2.217   4.969
 9324SOL     OW28870   0.762   4.635   1.464
 9324SOL    HW128871   0.720   4.588   1.387
 9324SOL    HW228872   0.701   4.706   1.497
 9325SOL     OW28873   0.911   4.924   3.078
 9325SOL    HW128874   0.946   4.871   3.155
 9325SOL    HW228875   0.953   4.893   2.993
 9326SOL     OW28876   4.436   4.630   1.722
 9326SOL    HW128877   4.354   4.659   1.674
 9326SOL    HW228878   4.496   4.709   1.738
 9327SOL     OW28879   3.992   0.415   4.013
 9327SOL    HW128880   4.054   0.490   3.991
 9327SOL    HW228881   3.916   0.448   4.068
 9328SOL     OW28882   2.657   6.991   4.393
 9328SOL    HW128883   2.659   6.891   4.391
 9328SOL    HW228884   2.703   0.011   4.312
 9329SOL     OW28885   0.067   5.163   6.618
 9329SOL    HW128886   0.139   5.112   6.665
 9329SOL    HW228887   0.029   5.106   6.545
 9330SOL     OW28888   6.529   5.215   6.596
 9330SOL    HW128889   6.603   5.204   6.530
 9330SOL    HW228890   6.510   5.127   6.640
 9331SOL     OW28891   1.659   2.981   4.770
 9331SOL    HW128892   1.672   3.079   4.786
 9331SOL    HW228893   1.732   2.948   4.710
 9332SOL     OW28894   4.799   5.631   0.941
 9332SOL    HW128895   4.752   5.610   0.855
 9332SOL    HW228896   4.896   5.647   0.923
 9333SOL     OW28897   3.764   4.355   1.157
 9333SOL    HW128898   3.821   4.327   1.234
 9333SOL    HW228899   3.815   4.346   1.072
 9334SOL     OW28900   6.195   5.875   5.554
 9334SOL    HW128901   6.217   5.971   5.543
 9334SOL    HW228902   6.216   5.846   5.648
 9335SOL     OW28903   1.456   3.293   1.244
 9335SOL    HW128904   1.385   3.277   1.176
 9335SOL    HW228905   1.542   3.316   1.198
 9336SOL     OW28906   6.166   6.689   5.142
 9336SOL    HW128907   6.147   6.718   5.235
 9336SOL    HW228908   6.260   6.655   5.136
 9337SOL     OW28909   2.635   0.362   6.593
 9337SOL    HW128910   2.702   0.367   6.519
 9337SOL    HW228911   2.617   0.266   6.615
 9338SOL     OW28912   5.845   6.619   6.958
 9338SOL    HW128913   5.875   6.697   6.903
 9338SOL    HW228914   5.891   6.620   0.030
 9339SOL     OW28915   6.392   4.234   5.390
 9339SOL    HW128916   6.298   4.226   5.422
 9339SOL    HW228917   6.439   4.306   5.442
 9340SOL     OW28918   4.185   6.095   1.611
 9340SOL    HW128919   4.285   6.091   1.610
 9340SOL    HW228920   4.148   6.009   1.577
 9341SOL     OW28921   4.838   4.194   0.082
 9341SOL    HW128922   4.747   4.164   0.056
 9341SOL    HW228923   4.903   4.171   0.009
 9342SOL     OW28924   3.060   0.370   4.469
 9342SOL    HW128925   3.084   0.467   4.477
 9342SOL    HW228926   3.037   0.334   4.560
 9343SOL     OW28927   4.563   4.406   1.672
 9343SOL    HW128928   4.506   4.485   1.691
 9343SOL    HW228929   4.560   4.342   1.749
 9344SOL     OW28930   6.032   5.847   5.042
 9344SOL    HW128931   5.947   5.882   5.081
 9344SOL    HW228932   6.017   5.822   4.947
 9345SOL     OW28933   0.040   6.185   0.875
 9345SOL    HW128934   0.088   6.269   0.901
 9345SOL    HW228935   0.036   6.179   0.775
 9346SOL     OW28936   5.875   6.052   1.142
 9346SOL    HW128937   5.839   6.142   1.167
 9346SOL    HW228938   5.800   5.986   1.139
 9347SOL     OW28939   3.759   5.490   0.753
 9347SOL    HW128940   3.779   5.400   0.791
 9347SOL    HW228941   3.840   5.548   0.758
 9348SOL     OW28942   2.330   6.011   1.721
 9348SOL    HW128943   2.388   6.056   1.653
 9348SOL    HW228944   2.269   5.945   1.675
 9349SOL     OW28945   6.043   5.785   1.984
 9349SOL    HW128946   6.004   5.877   1.997
 9349SOL    HW228947   6.060   5.770   1.886
 9350SOL     OW28948   0.069   0.249   5.584
 9350SOL    HW128949   0.130   0.226   5.660
 9350SOL    HW228950   0.095   0.337   5.546
 9351SOL     OW28951   2.878   1.648   6.503
 9351SOL    HW128952   2.801   1.682   6.448
 9351SOL    HW228953   2.963   1.688   6.469
 9352SOL     OW28954   3.731   2.397   6.448
 9352SOL    HW128955   3.665   2.331   6.413
 9352SOL    HW228956   3.768   2.452   6.373
 9353SOL     OW28957   0.986   3.499   0.908
 9353SOL    HW128958   0.935   3.462   0.830
 9353SOL    HW228959   0.940   3.581   0.942
 9354SOL     OW28960   4.991   2.098   1.218
 9354SOL    HW128961   4.987   2.134   1.311
 9354SOL    HW228962   4.905   2.115   1.171
 9355SOL     OW28963   6.962   6.971   3.150
 9355SOL    HW128964   6.972   6.878   3.187
 9355SOL    HW228965   6.892   0.003   3.202
 9356SOL     OW28966   4.307   4.684   2.517
 9356SOL    HW128967   4.363   4.601   2.520
 9356SOL    HW228968   4.271   4.696   2.425
 9357SOL     OW28969   3.262   2.214   1.135
 9357SOL    HW128970   3.315   2.292   1.102
 9357SOL    HW228971   3.198   2.245   1.207
 9358SOL     OW28972   6.393   4.747   2.393
 9358SOL    HW128973   6.363   4.652   2.401
 9358SOL    HW228974   6.358   4.786   2.308
 9359SOL     OW28975   6.676   4.233   5.917
 9359SOL    HW128976   6.716   4.141   5.918
 9359SOL    HW228977   6.735   4.294   5.865
 9360SOL     OW28978   2.432   0.961   0.278
 9360SOL    HW128979   2.382   1.025   0.219
 9360SOL    HW228980   2.477   0.892   0.221
 9361SOL     OW28981   2.839   6.415   2.462
 9361SOL    HW128982   2.853   6.333   2.407
 9361SOL    HW228983   2.761   6.466   2.427
 9362SOL     OW28984   2.371   1.319   2.551
 9362SOL    HW128985   2.328   1.398   2.508
 9362SOL    HW228986   2.310   1.282   2.621
 9363SOL     OW28987   3.256   6.274   2.199
 9363SOL    HW128988   3.191   6.199   2.204
 9363SOL    HW228989   3.275   6.296   2.104
 9364SOL     OW28990   4.458   3.774   0.280
 9364SOL    HW128991   4.478   3.713   0.357
 9364SOL    HW228992   4.542   3.823   0.255
 9365SOL     OW28993   2.651   1.880   5.037
 9365SOL    HW128994   2.566   1.872   5.091
 9365SOL    HW228995   2.634   1.940   4.958
 9366SOL     OW28996   2.506   1.622   1.113
 9366SOL    HW128997   2.554   1.691   1.059
 9366SOL    HW228998   2.514   1.533   1.067
 9367SOL     OW28999   6.970   5.785   2.891
 9367SOL    HW129000   6.926   5.717   2.949
 9367SOL    HW229001   6.971   5.753   2.797
 9368SOL     OW29002   3.153   1.956   1.919
 9368SOL    HW129003   3.135   1.979   1.824
 9368SOL    HW229004   3.203   2.030   1.963
 9369SOL     OW29005   6.905   2.487   4.903
 9369SOL    HW129006   6.962   2.491   4.821
 9369SOL    HW229007   6.847   2.569   4.908
 9370SOL     OW29008   6.229   1.070   2.680
 9370SOL    HW129009   6.304   1.018   2.721
 9370SOL    HW229010   6.184   1.015   2.610
 9371SOL     OW29011   0.200   6.231   0.216
 9371SOL    HW129012   0.124   6.175   0.247
 9371SOL    HW229013   0.282   6.207   0.268
 9372SOL     OW29014   6.172   6.639   3.854
 9372SOL    HW129015   6.075   6.659   3.865
 9372SOL    HW229016   6.224   6.683   3.927
 9373SOL     OW29017   3.795   1.662   3.422
 9373SOL    HW129018   3.753   1.665   3.513
 9373SOL    HW229019   3.788   1.569   3.385
 9374SOL     OW29020   4.953   3.004   0.068
 9374SOL    HW129021   5.048   3.034   0.054
 9374SOL    HW229022   4.923   2.952   7.005
 9375SOL     OW29023   0.566   1.324   3.221
 9375SOL    HW129024   0.644   1.362   3.172
 9375SOL    HW229025   0.560   1.226   3.203
 9376SOL     OW29026   2.776   3.779   0.796
 9376SOL    HW129027   2.688   3.791   0.751
 9376SOL    HW229028   2.768   3.712   0.870
 9377SOL     OW29029   6.136   5.589   3.760
 9377SOL    HW129030   6.157   5.669   3.704
 9377SOL    HW229031   6.200   5.584   3.837
 9378SOL     OW29032   2.178   6.904   0.192
 9378SOL    HW129033   2.222   6.898   0.103
 9378SOL    HW229034   2.079   6.908   0.181
 9379SOL     OW29035   5.189   5.250   3.819
 9379SOL    HW129036   5.258   5.322   3.829
 9379SOL    HW229037   5.127   5.275   3.744
 9380SOL     OW29038   6.126   6.731   5.408
 9380SOL    HW129039   6.057   6.697   5.473
 9380SOL    HW229040   6.140   6.829   5.424
 9381SOL     OW29041   2.616   1.998   5.907
 9381SOL    HW129042   2.521   1.995   5.937
 9381SOL    HW229043   2.646   2.093   5.900
 9382SOL     OW29044   4.362   1.766   2.562
 9382SOL    HW129045   4.274   1.767   2.608
 9382SOL    HW229046   4.427   1.711   2.615
 9383SOL     OW29047   4.142   6.439   3.989
 9383SOL    HW129048   4.046   6.461   3.974
 9383SOL    HW229049   4.177   6.492   4.067
 9384SOL     OW29050   4.876   6.394   2.238
 9384SOL    HW129051   4.889   6.345   2.151
 9384SOL    HW229052   4.928   6.480   2.235
 9385SOL     OW29053   3.996   1.110   3.311
 9385SOL    HW129054   4.072   1.149   3.363
 9385SOL    HW229055   4.032   1.047   3.243
 9386SOL     OW29056   2.758   6.523   5.642
 9386SOL    HW129057   2.804   6.480   5.564
 9386SOL    HW229058   2.731   6.453   5.707
 9387SOL     OW29059   3.089   6.510   1.174
 9387SOL    HW129060   3.022   6.538   1.105
 9387SOL    HW229061   3.056   6.535   1.265
 9388SOL     OW29062   0.462   0.660   2.574
 9388SOL    HW129063   0.487   0.598   2.500
 9388SOL    HW229064   0.529   0.734   2.580
 9389SOL     OW29065   2.710   1.219   5.611
 9389SOL    HW129066   2.720   1.120   5.622
 9389SOL    HW229067   2.615   1.244   5.627
 9390SOL     OW29068   3.234   5.319   2.274
 9390SOL    HW129069   3.241   5.358   2.365
 9390SOL    HW229070   3.293   5.371   2.211
 9391SOL     OW29071   0.435   1.199   5.611
 9391SOL    HW129072   0.499   1.155   5.673
 9391SOL    HW229073   0.354   1.228   5.662
 9392SOL     OW29074   1.754   6.492   4.605
 9392SOL    HW129075   1.660   6.513   4.579
 9392SOL    HW229076   1.754   6.432   4.685
 9393SOL     OW29077   3.637   2.380   5.471
 9393SOL    HW129078   3.605   2.475   5.476
 9393SOL    HW229079   3.563   2.321   5.439
 9394SOL     OW29080   6.820   3.143   3.000
 9394SOL    HW129081   6.911   3.173   2.974
 9394SOL    HW229082   6.759   3.144   2.921
 9395SOL     OW29083   2.739   3.537   0.975
 9395SOL    HW129084   2.696   3.487   0.899
 9395SOL    HW229085   2.832   3.501   0.989
 9396SOL     OW29086   6.399   0.017   6.249
 9396SOL    HW129087   6.402   0.116   6.236
 9396SOL    HW229088   6.484   7.002   6.290
 9397SOL     OW29089   2.243   6.975   0.605
 9397SOL    HW129090   2.325   6.988   0.661
 9397SOL    HW229091   2.214   6.880   0.609
 9398SOL     OW29092   2.747   1.415   6.608
 9398SOL    HW129093   2.800   1.495   6.580
 9398SOL    HW229094   2.809   1.337   6.618
 9399SOL     OW29095   6.711   1.498   6.065
 9399SOL    HW129096   6.720   1.490   6.164
 9399SOL    HW229097   6.762   1.425   6.020
 9400SOL     OW29098   5.374   3.463   2.305
 9400SOL    HW129099   5.370   3.525   2.227
 9400SOL    HW229100   5.467   3.462   2.341
 9401SOL     OW29101   2.873   6.219   3.655
 9401SOL    HW129102   2.809   6.143   3.661
 9401SOL    HW229103   2.963   6.185   3.627
 9402SOL     OW29104   2.357   5.060   6.160
 9402SOL    HW129105   2.365   5.098   6.253
 9402SOL    HW229106   2.365   4.961   6.164
 9403SOL     OW29107   5.225   1.433   3.669
 9403SOL    HW129108   5.157   1.373   3.713
 9403SOL    HW229109   5.212   1.431   3.570
 9404SOL     OW29110   1.438   5.044   6.848
 9404SOL    HW129111   1.387   5.125   6.877
 9404SOL    HW229112   1.459   4.987   6.927
 9405SOL     OW29113   6.505   7.008   1.074
 9405SOL    HW129114   6.455   6.969   0.997
 9405SOL    HW229115   6.441   0.043   1.132
 9406SOL     OW29116   0.095   1.805   5.203
 9406SOL    HW129117   0.103   1.734   5.133
 9406SOL    HW229118   0.067   1.762   5.290
 9407SOL     OW29119   3.252   6.052   3.253
 9407SOL    HW129120   3.334   5.999   3.273
 9407SOL    HW229121   3.276   6.149   3.247
 9408SOL     OW29122   3.895   2.098   6.924
 9408SOL    HW129123   3.938   2.071   7.011
 9408SOL    HW229124   3.949   2.171   6.882
 9409SOL     OW29125   5.933   3.436   3.716
 9409SOL    HW129126   5.887   3.473   3.796
 9409SOL    HW229127   5.945   3.508   3.648
 9410SOL     OW29128   4.180   6.489   2.316
 9410SOL    HW129129   4.093   6.493   2.267
 9410SOL    HW229130   4.167   6.522   2.409
 9411SOL     OW29131   4.205   5.552   0.505
 9411SOL    HW129132   4.142   5.628   0.486
 9411SOL    HW229133   4.218   5.499   0.421
 9412SOL     OW29134   0.198   2.541   1.093
 9412SOL    HW129135   0.109   2.581   1.072
 9412SOL    HW229136   0.267   2.613   1.095
 9413SOL     OW29137   4.267   5.883   5.396
 9413SOL    HW129138   4.236   5.940   5.320
 9413SOL    HW229139   4.215   5.905   5.478
 9414SOL     OW29140   3.105   1.424   2.960
 9414SOL    HW129141   3.146   1.362   2.894
 9414SOL    HW229142   3.031   1.475   2.917
 9415SOL     OW29143   2.162   6.288   2.306
 9415SOL    HW129144   2.156   6.335   2.395
 9415SOL    HW229145   2.073   6.251   2.282
 9416SOL     OW29146   1.449   2.156   2.129
 9416SOL    HW129147   1.431   2.176   2.033
 9416SOL    HW229148   1.499   2.233   2.170
 9417SOL     OW29149   2.255   5.608   5.543
 9417SOL    HW129150   2.215   5.548   5.474
 9417SOL    HW229151   2.354   5.595   5.546
 9418SOL     OW29152   2.310   5.270   1.775
 9418SOL    HW129153   2.333   5.336   1.703
 9418SOL    HW229154   2.325   5.177   1.741
 9419SOL     OW29155   3.025   6.611   5.046
 9419SOL    HW129156   2.978   6.699   5.038
 9419SOL    HW229157   2.995   6.551   4.972
 9420SOL     OW29158   6.576   1.312   4.879
 9420SOL    HW129159   6.635   1.392   4.872
 9420SOL    HW229160   6.618   1.235   4.831
 9421SOL     OW29161   1.410   4.026   5.426
 9421SOL    HW129162   1.471   4.017   5.504
 9421SOL    HW229163   1.376   4.120   5.420
 9422SOL     OW29164   5.509   0.266   2.192
 9422SOL    HW129165   5.425   0.316   2.174
 9422SOL    HW229166   5.494   0.168   2.174
 9423SOL     OW29167   3.928   1.215   3.711
 9423SOL    HW129168   3.847   1.250   3.664
 9423SOL    HW229169   3.959   1.282   3.779
 9424SOL     OW29170   4.235   0.217   4.832
 9424SOL    HW129171   4.178   0.210   4.914
 9424SOL    HW229172   4.216   0.304   4.786
 9425SOL     OW29173   0.861   4.151   5.320
 9425SOL    HW129174   0.884   4.248   5.314
 9425SOL    HW229175   0.918   4.099   5.256
 9426SOL     OW29176   3.024   0.546   6.959
 9426SOL    HW129177   3.082   0.484   6.904
 9426SOL    HW229178   3.016   0.634   6.912
 9427SOL     OW29179   2.693   5.277   4.929
 9427SOL    HW129180   2.720   5.303   4.837
 9427SOL    HW229181   2.697   5.178   4.939
 9428SOL     OW29182   5.394   0.399   2.846
 9428SOL    HW129183   5.417   0.375   2.751
 9428SOL    HW229184   5.380   0.497   2.853
 9429SOL     OW29185   0.800   4.185   2.058
 9429SOL    HW129186   0.779   4.261   2.118
 9429SOL    HW229187   0.862   4.216   1.985
 9430SOL     OW29188   6.710   6.087   1.828
 9430SOL    HW129189   6.780   6.109   1.760
 9430SOL    HW229190   6.731   5.998   1.870
 9431SOL     OW29191   6.683   3.869   0.432
 9431SOL    HW129192   6.692   3.934   0.508
 9431SOL    HW229193   6.749   3.795   0.444
 9432SOL     OW29194   5.960   0.433   3.156
 9432SOL    HW129195   5.990   0.430   3.061
 9432SOL    HW229196   5.917   0.346   3.180
 9433SOL     OW29197   3.563   4.876   5.211
 9433SOL    HW129198   3.478   4.830   5.239
 9433SOL    HW229199   3.545   4.932   5.130
 9434SOL     OW29200   5.792   4.024   2.978
 9434SOL    HW129201   5.850   3.968   2.919
 9434SOL    HW229202   5.760   4.104   2.927
 9435SOL     OW29203   1.497   1.711   4.263
 9435SOL    HW129204   1.595   1.726   4.247
 9435SOL    HW229205   1.454   1.797   4.289
 9436SOL     OW29206   1.991   4.170   0.432
 9436SOL    HW129207   2.089   4.153   0.443
 9436SOL    HW229208   1.940   4.090   0.465
 9437SOL     OW29209   1.435   5.051   3.203
 9437SOL    HW129210   1.343   5.083   3.181
 9437SOL    HW229211   1.443   5.036   3.301
 9438SOL     OW29212   0.666   6.786   2.335
 9438SOL    HW129213   0.593   6.783   2.266
 9438SOL    HW229214   0.628   6.768   2.425
 9439SOL     OW29215   0.203   3.514   2.045
 9439SOL    HW129216   0.187   3.599   2.095
 9439SOL    HW229217   0.197   3.436   2.108
 9440SOL     OW29218   5.073   6.744   5.303
 9440SOL    HW129219   5.074   6.700   5.393
 9440SOL    HW229220   5.025   6.831   5.310
 9441SOL     OW29221   2.017   4.745   4.803
 9441SOL    HW129222   2.008   4.789   4.714
 9441SOL    HW229223   1.995   4.810   4.876
 9442SOL     OW29224   6.854   2.485   0.275
 9442SOL    HW129225   6.886   2.467   0.182
 9442SOL    HW229226   6.895   2.419   0.338
 9443SOL     OW29227   2.002   4.695   0.843
 9443SOL    HW129228   2.088   4.647   0.822
 9443SOL    HW229229   2.007   4.735   0.934
 9444SOL     OW29230   0.421   3.058   0.230
 9444SOL    HW129231   0.396   3.129   0.164
 9444SOL    HW229232   0.340   3.005   0.255
 9445SOL     OW29233   5.318   3.821   2.484
 9445SOL    HW129234   5.345   3.749   2.549
 9445SOL    HW229235   5.400   3.862   2.445
 9446SOL     OW29236   6.042   6.474   2.291
 9446SOL    HW129237   6.019   6.508   2.200
 9446SOL    HW229238   5.965   6.489   2.353
 9447SOL     OW29239   5.084   3.862   2.351
 9447SOL    HW129240   5.015   3.807   2.398
 9447SOL    HW229241   5.174   3.840   2.388
 9448SOL     OW29242   5.946   6.364   6.679
 9448SOL    HW129243   6.026   6.423   6.687
 9448SOL    HW229244   5.863   6.419   6.688
 9449SOL     OW29245   5.931   5.533   5.634
 9449SOL    HW129246   5.872   5.462   5.597
 9449SOL    HW229247   5.878   5.617   5.647
 9450SOL     OW29248   2.343   5.143   4.276
 9450SOL    HW129249   2.439   5.130   4.300
 9450SOL    HW229250   2.293   5.058   4.293
 9451SOL     OW29251   4.895   5.455   6.741
 9451SOL    HW129252   4.930   5.449   6.834
 9451SOL    HW229253   4.948   5.394   6.682
 9452SOL     OW29254   2.467   3.639   0.961
 9452SOL    HW129255   2.388   3.630   1.021
 9452SOL    HW229256   2.551   3.622   1.013
 9453SOL     OW29257   1.943   5.223   2.861
 9453SOL    HW129258   2.027   5.219   2.914
 9453SOL    HW229259   1.962   5.196   2.766
 9454SOL     OW29260   1.396   4.079   6.345
 9454SOL    HW129261   1.308   4.120   6.369
 9454SOL    HW229262   1.449   4.142   6.288
 9455SOL     OW29263   2.989   1.277   2.659
 9455SOL    HW129264   2.893   1.304   2.656
 9455SOL    HW229265   2.995   1.177   2.650
 9456SOL     OW29266   1.052   3.907   1.185
 9456SOL    HW129267   0.977   3.856   1.145
 9456SOL    HW229268   1.133   3.848   1.191
 9457SOL     OW29269   1.703   3.079   6.862
 9457SOL    HW129270   1.760   3.026   6.925
 9457SOL    HW229271   1.733   3.174   6.862
 9458SOL     OW29272   6.762   4.841   6.044
 9458SOL    HW129273   6.743   4.795   5.957
 9458SOL    HW229274   6.855   4.818   6.073
 9459SOL     OW29275   6.070   5.371   1.860
 9459SOL    HW129276   6.105   5.459   1.827
 9459SOL    HW229277   6.097   5.298   1.797
 9460SOL     OW29278   0.645   2.020   5.032
 9460SOL    HW129279   0.651   1.920   5.022
 9460SOL    HW229280   0.729   2.062   4.997
 9461SOL     OW29281   0.782   1.125   3.318
 9461SOL    HW129282   0.709   1.191   3.336
 9461SOL    HW229283   0.805   1.077   3.403
 9462SOL     OW29284   1.314   3.170   3.036
 9462SOL    HW129285   1.250   3.194   2.963
 9462SOL    HW229286   1.312   3.071   3.050
 9463SOL     OW29287   6.687   1.113   0.222
 9463SOL    HW129288   6.696   1.210   0.200
 9463SOL    HW229289   6.608   1.099   0.282
 9464SOL     OW29290   5.962   6.915   6.371
 9464SOL    HW129291   6.055   6.899   6.405
 9464SOL    HW229292   5.955   7.008   6.335
 9465SOL     OW29293   6.643   0.617   3.371
 9465SOL    HW129294   6.650   0.518   3.371
 9465SOL    HW229295   6.715   0.656   3.314
 9466SOL     OW29296   2.613   3.110   6.040
 9466SOL    HW129297   2.701   3.132   5.998
 9466SOL    HW229298   2.625   3.104   6.139
 9467SOL     OW29299   1.965   2.601   2.071
 9467SOL    HW129300   2.052   2.557   2.093
 9467SOL    HW229301   1.938   2.660   2.147
 9468SOL     OW29302   6.347   2.973   5.908
 9468SOL    HW129303   6.360   3.044   5.977
 9468SOL    HW229304   6.353   3.013   5.817
 9469SOL     OW29305   5.996   5.872   2.464
 9469SOL    HW129306   6.073   5.842   2.520
 9469SOL    HW229307   5.970   5.798   2.402
 9470SOL     OW29308   4.972   3.540   0.124
 9470SOL    HW129309   5.045   3.474   0.143
 9470SOL    HW229310   4.993   3.627   0.170
 9471SOL     OW29311   6.698   2.525   5.886
 9471SOL    HW129312   6.644   2.574   5.955
 9471SOL    HW229313   6.765   2.588   5.846
 9472SOL     OW29314   6.163   4.548   4.428
 9472SOL    HW129315   6.261   4.542   4.446
 9472SOL    HW229316   6.147   4.615   4.355
 9473SOL     OW29317   3.253   6.392   6.089
 9473SOL    HW129318   3.246   6.301   6.049
 9473SOL    HW229319   3.312   6.449   6.031
 9474SOL     OW29320   5.171   4.777   2.189
 9474SOL    HW129321   5.271   4.777   2.190
 9474SOL    HW229322   5.139   4.744   2.100
 9475SOL     OW29323   3.265   3.490   1.123
 9475SOL    HW129324   3.338   3.483   1.055
 9475SOL    HW229325   3.281   3.425   1.197
 9476SOL     OW29326   4.183   3.360   5.390
 9476SOL    HW129327   4.197   3.312   5.477
 9476SOL    HW229328   4.252   3.432   5.381
 9477SOL     OW29329   1.473   2.411   0.965
 9477SOL    HW129330   1.524   2.472   0.905
 9477SOL    HW229331   1.406   2.360   0.911
 9478SOL     OW29332   5.239   4.256   5.334
 9478SOL    HW129333   5.213   4.243   5.238
 9478SOL    HW229334   5.338   4.255   5.342
 9479SOL     OW29335   5.844   5.252   6.632
 9479SOL    HW129336   5.878   5.245   6.726
 9479SOL    HW229337   5.797   5.167   6.608
 9480SOL     OW29338   4.823   4.433   6.657
 9480SOL    HW129339   4.869   4.441   6.569
 9480SOL    HW229340   4.801   4.338   6.675
 9481SOL     OW29341   0.086   4.158   1.852
 9481SOL    HW129342   0.164   4.182   1.910
 9481SOL    HW229343   0.094   4.206   1.764
 9482SOL     OW29344   4.806   0.719   2.631
 9482SOL    HW129345   4.751   0.752   2.555
 9482SOL    HW229346   4.758   0.644   2.677
 9483SOL     OW29347   1.702   1.866   1.213
 9483SOL    HW129348   1.672   1.929   1.141
 9483SOL    HW229349   1.791   1.896   1.248
 9484SOL     OW29350   6.203   1.075   3.669
 9484SOL    HW129351   6.116   1.096   3.714
 9484SOL    HW229352   6.223   1.146   3.601
 9485SOL     OW29353   0.972   1.076   1.975
 9485SOL    HW129354   1.047   1.093   2.038
 9485SOL    HW229355   0.934   0.985   1.992
 9486SOL     OW29356   2.624   5.802   0.549
 9486SOL    HW129357   2.572   5.728   0.590
 9486SOL    HW229358   2.571   5.887   0.554
 9487SOL     OW29359   3.226   4.108   3.525
 9487SOL    HW129360   3.227   4.105   3.625
 9487SOL    HW229361   3.256   4.019   3.490
 9488SOL     OW29362   2.109   6.165   1.152
 9488SOL    HW129363   2.070   6.257   1.147
 9488SOL    HW229364   2.038   6.099   1.175
 9489SOL     OW29365   4.202   4.714   1.608
 9489SOL    HW129366   4.250   4.730   1.522
 9489SOL    HW229367   4.129   4.647   1.594
 9490SOL     OW29368   5.291   1.019   0.700
 9490SOL    HW129369   5.353   0.962   0.648
 9490SOL    HW229370   5.297   0.997   0.798
 9491SOL     OW29371   6.188   5.304   3.763
 9491SOL    HW129372   6.121   5.308   3.838
 9491SOL    HW229373   6.176   5.384   3.704
 9492SOL     OW29374   3.235   3.820   1.967
 9492SOL    HW129375   3.137   3.837   1.954
 9492SOL    HW229376   3.288   3.897   1.932
 9493SOL     OW29377   4.705   5.814   3.123
 9493SOL    HW129378   4.659   5.736   3.082
 9493SOL    HW229379   4.743   5.872   3.051
 9494SOL     OW29380   5.410   3.365   0.178
 9494SOL    HW129381   5.399   3.424   0.259
 9494SOL    HW229382   5.419   3.423   0.097
 9495SOL     OW29383   6.455   2.220   4.334
 9495SOL    HW129384   6.469   2.313   4.368
 9495SOL    HW229385   6.371   2.217   4.279
 9496SOL     OW29386   5.392   4.130   0.022
 9496SOL    HW129387   5.401   4.180   6.952
 9496SOL    HW229388   5.475   4.142   0.076
 9497SOL     OW29389   5.077   4.647   0.952
 9497SOL    HW129390   5.118   4.737   0.937
 9497SOL    HW229391   5.048   4.640   1.048
 9498SOL     OW29392   3.553   6.960   5.241
 9498SOL    HW129393   3.565   0.009   5.166
 9498SOL    HW229394   3.620   6.887   5.232
 9499SOL     OW29395   2.828   3.784   5.222
 9499SOL    HW129396   2.844   3.689   5.196
 9499SOL    HW229397   2.746   3.790   5.278
 9500SOL     OW29398   4.575   5.978   1.502
 9500SOL    HW129399   4.610   6.071   1.515
 9500SOL    HW229400   4.584   5.927   1.587
 9501SOL     OW29401   3.706   1.775   4.381
 9501SOL    HW129402   3.674   1.847   4.443
 9501SOL    HW229403   3.802   1.790   4.359
 9502SOL     OW29404   6.282   2.693   4.960
 9502SOL    HW129405   6.345   2.708   5.036
 9502SOL    HW229406   6.267   2.780   4.913
 9503SOL     OW29407   0.329   0.253   1.962
 9503SOL    HW129408   0.390   0.286   1.890
 9503SOL    HW229409   0.288   0.331   2.010
 9504SOL     OW29410   0.398   2.579   0.846
 9504SOL    HW129411   0.456   2.510   0.888
 9504SOL    HW229412   0.397   2.662   0.903
 9505SOL     OW29413   6.109   3.819   3.073
 9505SOL    HW129414   6.090   3.742   3.013
 9505SOL    HW229415   6.200   3.856   3.053
 9506SOL     OW29416   0.182   3.097   6.924
 9506SOL    HW129417   0.158   3.075   0.002
 9506SOL    HW229418   0.102   3.132   6.876
 9507SOL     OW29419   1.395   1.259   3.890
 9507SOL    HW129420   1.375   1.224   3.982
 9507SOL    HW229421   1.327   1.224   3.826
 9508SOL     OW29422   5.495   2.049   0.231
 9508SOL    HW129423   5.577   2.059   0.175
 9508SOL    HW229424   5.496   1.960   0.276
 9509SOL     OW29425   1.660   6.567   5.210
 9509SOL    HW129426   1.661   6.467   5.216
 9509SOL    HW229427   1.565   6.599   5.218
 9510SOL     OW29428   0.061   4.192   2.288
 9510SOL    HW129429   7.008   4.207   2.218
 9510SOL    HW229430   0.022   4.138   2.362
 9511SOL     OW29431   0.281   2.416   0.453
 9511SOL    HW129432   0.282   2.504   0.406
 9511SOL    HW229433   0.268   2.342   0.387
 9512SOL     OW29434   0.035   2.460   3.612
 9512SOL    HW129435   6.984   2.387   3.600
 9512SOL    HW229436   0.023   2.503   3.701
 9513SOL     OW29437   2.048   3.758   3.882
 9513SOL    HW129438   2.069   3.733   3.787
 9513SOL    HW229439   2.072   3.682   3.943
 9514SOL     OW29440   2.256   3.426   6.473
 9514SOL    HW129441   2.297   3.380   6.552
 9514SOL    HW229442   2.300   3.515   6.460
 9515SOL     OW29443   1.274   6.288   6.554
 9515SOL    HW129444   1.207   6.268   6.483
 9515SOL    HW229445   1.227   6.312   6.639
 9516SOL     OW29446   4.870   3.509   3.870
 9516SOL    HW129447   4.834   3.423   3.833
 9516SOL    HW229448   4.929   3.552   3.803
 9517SOL     OW29449   0.996   5.226   1.355
 9517SOL    HW129450   1.050   5.310   1.364
 9517SOL    HW229451   0.906   5.249   1.317
 9518SOL     OW29452   0.616   2.619   5.678
 9518SOL    HW129453   0.665   2.664   5.753
 9518SOL    HW229454   0.661   2.641   5.591
 9519SOL     OW29455   3.246   3.028   2.840
 9519SOL    HW129456   3.280   2.961   2.775
 9519SOL    HW229457   3.275   3.119   2.813
 9520SOL     OW29458   6.952   1.194   5.185
 9520SOL    HW129459   6.878   1.233   5.239
 9520SOL    HW229460   6.919   1.111   5.140
 9521SOL     OW29461   3.591   6.168   1.607
 9521SOL    HW129462   3.529   6.090   1.614
 9521SOL    HW229463   3.539   6.252   1.598
 9522SOL     OW29464   4.258   5.351   1.822
 9522SOL    HW129465   4.312   5.370   1.740
 9522SOL    HW229466   4.318   5.332   1.899
 9523SOL     OW29467   2.536   4.924   4.584
 9523SOL    HW129468   2.467   4.926   4.656
 9523SOL    HW229469   2.568   5.018   4.567
 9524SOL     OW29470   1.544   4.180   0.915
 9524SOL    HW129471   1.627   4.124   0.902
 9524SOL    HW229472   1.463   4.122   0.907
 9525SOL     OW29473   1.712   2.153   5.731
 9525SOL    HW129474   1.796   2.203   5.751
 9525SOL    HW229475   1.634   2.216   5.731
 9526SOL     OW29476   5.253   5.220   6.712
 9526SOL    HW129477   5.295   5.309   6.733
 9526SOL    HW229478   5.270   5.157   6.789
 9527SOL     OW29479   3.109   6.818   3.837
 9527SOL    HW129480   3.190   6.759   3.844
 9527SOL    HW229481   3.092   6.862   3.925
 9528SOL     OW29482   6.296   1.026   0.909
 9528SOL    HW129483   6.327   0.988   0.822
 9528SOL    HW229484   6.374   1.068   0.957
 9529SOL     OW29485   6.134   2.386   1.867
 9529SOL    HW129486   6.108   2.472   1.911
 9529SOL    HW229487   6.107   2.309   1.926
 9530SOL     OW29488   1.025   5.497   4.435
 9530SOL    HW129489   1.074   5.430   4.380
 9530SOL    HW229490   0.936   5.517   4.392
 9531SOL     OW29491   4.526   4.739   3.880
 9531SOL    HW129492   4.620   4.774   3.872
 9531SOL    HW229493   4.465   4.814   3.908
 9532SOL     OW29494   6.123   4.763   1.971
 9532SOL    HW129495   6.104   4.710   2.054
 9532SOL    HW229496   6.040   4.812   1.943
 9533SOL     OW29497   1.239   5.552   4.243
 9533SOL    HW129498   1.307   5.593   4.183
 9533SOL    HW229499   1.253   5.586   4.337
 9534SOL     OW29500   6.095   5.064   4.274
 9534SOL    HW129501   6.099   5.032   4.369
 9534SOL    HW229502   6.175   5.119   4.253
 9535SOL     OW29503   2.162   1.440   6.258
 9535SOL    HW129504   2.201   1.402   6.342
 9535SOL    HW229505   2.108   1.369   6.213
 9536SOL     OW29506   3.632   3.416   5.055
 9536SOL    HW129507   3.606   3.510   5.073
 9536SOL    HW229508   3.610   3.359   5.135
 9537SOL     OW29509   1.788   1.724   3.932
 9537SOL    HW129510   1.763   1.640   3.883
 9537SOL    HW229511   1.753   1.803   3.882
 9538SOL     OW29512   3.553   0.684   5.039
 9538SOL    HW129513   3.635   0.680   5.096
 9538SOL    HW229514   3.502   0.598   5.047
 9539SOL     OW29515   3.580   2.894   3.955
 9539SOL    HW129516   3.507   2.831   3.978
 9539SOL    HW229517   3.583   2.968   4.022
 9540SOL     OW29518   4.636   5.159   3.873
 9540SOL    HW129519   4.562   5.216   3.838
 9540SOL    HW229520   4.689   5.211   3.940
 9541SOL     OW29521   0.965   0.559   5.066
 9541SOL    HW129522   1.064   0.563   5.050
 9541SOL    HW229523   0.925   0.650   5.054
 9542SOL     OW29524   5.586   4.673   4.119
 9542SOL    HW129525   5.675   4.670   4.074
 9542SOL    HW229526   5.599   4.685   4.218
 9543SOL     OW29527   3.055   0.072   5.997
 9543SOL    HW129528   3.043   0.052   6.095
 9543SOL    HW229529   3.083   0.167   5.986
 9544SOL     OW29530   4.823   3.922   3.794
 9544SOL    HW129531   4.872   3.999   3.836
 9544SOL    HW229532   4.777   3.869   3.864
 9545SOL     OW29533   0.852   4.800   1.851
 9545SOL    HW129534   0.847   4.855   1.767
 9545SOL    HW229535   0.837   4.703   1.828
 9546SOL     OW29536   3.246   1.336   5.820
 9546SOL    HW129537   3.181   1.325   5.745
 9546SOL    HW229538   3.307   1.413   5.801
 9547SOL     OW29539   3.377   5.768   4.933
 9547SOL    HW129540   3.426   5.807   4.854
 9547SOL    HW229541   3.436   5.701   4.978
 9548SOL     OW29542   0.690   5.193   5.473
 9548SOL    HW129543   0.744   5.128   5.526
 9548SOL    HW229544   0.724   5.285   5.489
 9549SOL     OW29545   3.940   1.537   2.591
 9549SOL    HW129546   3.877   1.613   2.608
 9549SOL    HW229547   4.017   1.542   2.656
 9550SOL     OW29548   5.827   2.576   1.457
 9550SOL    HW129549   5.885   2.657   1.472
 9550SOL    HW229550   5.884   2.494   1.453
 9551SOL     OW29551   6.088   2.458   6.101
 9551SOL    HW129552   6.083   2.445   6.200
 9551SOL    HW229553   6.003   2.426   6.059
 9552SOL     OW29554   2.613   0.838   6.814
 9552SOL    HW129555   2.696   0.791   6.784
 9552SOL    HW229556   2.632   0.936   6.825
 9553SOL     OW29557   5.291   2.328   0.579
 9553SOL    HW129558   5.351   2.330   0.499
 9553SOL    HW229559   5.300   2.413   0.630
 9554SOL     OW29560   2.687   6.342   3.822
 9554SOL    HW129561   2.755   6.300   3.761
 9554SOL    HW229562   2.641   6.271   3.875
 9555SOL     OW29563   6.763   1.690   3.923
 9555SOL    HW129564   6.738   1.601   3.962
 9555SOL    HW229565   6.770   1.683   3.824
 9556SOL     OW29566   1.519   4.551   1.254
 9556SOL    HW129567   1.570   4.511   1.178
 9556SOL    HW229568   1.486   4.642   1.228
 9557SOL     OW29569   4.936   6.972   1.714
 9557SOL    HW129570   5.018   6.980   1.657
 9557SOL    HW229571   4.962   6.942   1.805
 9558SOL     OW29572   6.236   6.205   5.942
 9558SOL    HW129573   6.218   6.131   6.007
 9558SOL    HW229574   6.221   6.293   5.987
 9559SOL     OW29575   1.529   3.389   6.789
 9559SOL    HW129576   1.540   3.480   6.750
 9559SOL    HW229577   1.486   3.328   6.722
 9560SOL     OW29578   3.382   0.693   2.146
 9560SOL    HW129579   3.467   0.728   2.185
 9560SOL    HW229580   3.324   0.770   2.120
 9561SOL     OW29581   0.531   6.894   1.254
 9561SOL    HW129582   0.524   6.898   1.353
 9561SOL    HW229583   0.467   6.960   1.214
 9562SOL     OW29584   3.411   6.062   4.916
 9562SOL    HW129585   3.437   6.003   4.840
 9562SOL    HW229586   3.321   6.037   4.950
 9563SOL     OW29587   0.134   6.584   0.509
 9563SOL    HW129588   0.079   6.634   0.576
 9563SOL    HW229589   0.214   6.639   0.484
 9564SOL     OW29590   1.012   1.081   1.710
 9564SOL    HW129591   1.016   1.058   1.807
 9564SOL    HW229592   1.028   0.998   1.655
 9565SOL     OW29593   2.837   1.672   4.616
 9565SOL    HW129594   2.916   1.733   4.625
 9565SOL    HW229595   2.757   1.725   4.588
 9566SOL     OW29596   2.903   6.191   0.620
 9566SOL    HW129597   2.860   6.243   0.546
 9566SOL    HW229598   2.831   6.148   0.675
 9567SOL     OW29599   6.664   4.281   0.499
 9567SOL    HW129600   6.592   4.244   0.441
 9567SOL    HW229601   6.725   4.206   0.527
 9568SOL     OW29602   3.747   1.478   0.825
 9568SOL    HW129603   3.672   1.422   0.861
 9568SOL    HW229604   3.784   1.435   0.742
 9569SOL     OW29605   6.718   0.769   2.359
 9569SOL    HW129606   6.709   0.848   2.300
 9569SOL    HW229607   6.629   0.748   2.401
 9570SOL     OW29608   0.629   2.871   1.071
 9570SOL    HW129609   0.710   2.813   1.077
 9570SOL    HW229610   0.632   2.922   0.984
 9571SOL     OW29611   2.389   2.856   6.100
 9571SOL    HW129612   2.436   2.943   6.118
 9571SOL    HW229613   2.294   2.875   6.075
 9572SOL     OW29614   2.312   4.129   3.319
 9572SOL    HW129615   2.313   4.212   3.263
 9572SOL    HW229616   2.399   4.122   3.369
 9573SOL     OW29617   6.511   1.019   5.639
 9573SOL    HW129618   6.547   1.025   5.732
 9573SOL    HW229619   6.500   0.923   5.613
 9574SOL     OW29620   3.963   3.030   1.816
 9574SOL    HW129621   3.969   3.127   1.840
 9574SOL    HW229622   4.043   3.003   1.763
 9575SOL     OW29623   6.086   0.294   2.727
 9575SOL    HW129624   5.988   0.275   2.730
 9575SOL    HW229625   6.129   0.265   2.813
 9576SOL     OW29626   1.827   1.698   0.165
 9576SOL    HW129627   1.914   1.745   0.147
 9576SOL    HW229628   1.755   1.766   0.181
 9577SOL     OW29629   6.788   5.659   0.329
 9577SOL    HW129630   6.873   5.624   0.368
 9577SOL    HW229631   6.805   5.745   0.282
 9578SOL     OW29632   1.270   2.886   3.065
 9578SOL    HW129633   1.171   2.870   3.067
 9578SOL    HW229634   1.316   2.817   3.121
 9579SOL     OW29635   5.939   0.170   2.470
 9579SOL    HW129636   6.020   0.128   2.512
 9579SOL    HW229637   5.879   0.205   2.542
 9580SOL     OW29638   4.850   4.123   1.173
 9580SOL    HW129639   4.803   4.199   1.217
 9580SOL    HW229640   4.918   4.085   1.236
 9581SOL     OW29641   0.305   0.637   6.323
 9581SOL    HW129642   0.320   0.717   6.264
 9581SOL    HW229643   0.248   0.663   6.400
 9582SOL     OW29644   3.520   5.860   4.727
 9582SOL    HW129645   3.510   5.841   4.629
 9582SOL    HW229646   3.616   5.854   4.753
 9583SOL     OW29647   3.199   4.577   1.447
 9583SOL    HW129648   3.150   4.604   1.530
 9583SOL    HW229649   3.223   4.658   1.394
 9584SOL     OW29650   1.656   4.779   5.557
 9584SOL    HW129651   1.618   4.687   5.556
 9584SOL    HW229652   1.728   4.785   5.626
 9585SOL     OW29653   5.261   6.731   1.817
 9585SOL    HW129654   5.255   6.784   1.733
 9585SOL    HW229655   5.210   6.645   1.806
 9586SOL     OW29656   4.732   5.363   2.064
 9586SOL    HW129657   4.816   5.378   2.012
 9586SOL    HW229658   4.680   5.448   2.070
 9587SOL     OW29659   1.681   6.108   2.466
 9587SOL    HW129660   1.630   6.086   2.549
 9587SOL    HW229661   1.656   6.199   2.434
 9588SOL     OW29662   6.043   6.121   0.816
 9588SOL    HW129663   6.071   6.065   0.894
 9588SOL    HW229664   6.033   6.216   0.846
 9589SOL     OW29665   1.553   3.634   6.697
 9589SOL    HW129666   1.639   3.658   6.743
 9589SOL    HW229667   1.492   3.714   6.698
 9590SOL     OW29668   6.072   2.145   1.984
 9590SOL    HW129669   5.998   2.164   2.048
 9590SOL    HW229670   6.157   2.127   2.034
 9591SOL     OW29671   3.499   6.591   6.277
 9591SOL    HW129672   3.581   6.539   6.253
 9591SOL    HW229673   3.433   6.529   6.320
 9592SOL     OW29674   3.261   4.831   6.686
 9592SOL    HW129675   3.258   4.742   6.731
 9592SOL    HW229676   3.284   4.902   6.753
 9593SOL     OW29677   1.308   1.895   5.535
 9593SOL    HW129678   1.371   1.844   5.594
 9593SOL    HW229679   1.360   1.958   5.478
 9594SOL     OW29680   3.130   6.440   4.312
 9594SOL    HW129681   3.175   6.354   4.287
 9594SOL    HW229682   3.086   6.479   4.231
 9595SOL     OW29683   0.635   3.466   3.267
 9595SOL    HW129684   0.679   3.511   3.345
 9595SOL    HW229685   0.705   3.436   3.203
 9596SOL     OW29686   0.946   5.494   0.517
 9596SOL    HW129687   1.040   5.467   0.496
 9596SOL    HW229688   0.884   5.457   0.448
 9597SOL     OW29689   0.320   4.443   1.441
 9597SOL    HW129690   0.317   4.344   1.427
 9597SOL    HW229691   0.311   4.489   1.353
 9598SOL     OW29692   2.012   3.964   3.064
 9598SOL    HW129693   2.018   3.873   3.104
 9598SOL    HW229694   1.923   4.004   3.087
 9599SOL     OW29695   3.333   6.626   4.340
 9599SOL    HW129696   3.413   6.565   4.330
 9599SOL    HW229697   3.250   6.576   4.315
 9600SOL     OW29698   2.858   0.293   1.015
 9600SOL    HW129699   2.894   0.204   0.989
 9600SOL    HW229700   2.782   0.318   0.954
 9601SOL     OW29701   5.908   3.971   0.803
 9601SOL    HW129702   5.829   3.979   0.742
 9601SOL    HW229703   5.900   4.038   0.877
 9602SOL     OW29704   5.039   3.986   5.707
 9602SOL    HW129705   5.078   4.055   5.645
 9602SOL    HW229706   4.950   3.957   5.673
 9603SOL     OW29707   5.606   6.710   6.247
 9603SOL    HW129708   5.645   6.769   6.318
 9603SOL    HW229709   5.597   6.760   6.162
 9604SOL     OW29710   5.116   0.255   1.387
 9604SOL    HW129711   5.116   0.342   1.436
 9604SOL    HW229712   5.189   0.197   1.424
 9605SOL     OW29713   0.709   5.515   2.639
 9605SOL    HW129714   0.643   5.496   2.566
 9605SOL    HW229715   0.718   5.435   2.698
 9606SOL     OW29716   1.907   0.921   6.765
 9606SOL    HW129717   1.927   0.839   6.819
 9606SOL    HW229718   1.950   0.913   6.675
 9607SOL     OW29719   2.839   1.309   0.124
 9607SOL    HW129720   2.815   1.405   0.138
 9607SOL    HW229721   2.906   1.302   0.050
 9608SOL     OW29722   6.904   4.786   2.719
 9608SOL    HW129723   6.952   4.870   2.744
 9608SOL    HW229724   6.807   4.794   2.743
 9609SOL     OW29725   4.089   3.352   0.260
 9609SOL    HW129726   4.174   3.381   0.215
 9609SOL    HW229727   4.021   3.425   0.254
 9610SOL     OW29728   1.758   4.525   2.678
 9610SOL    HW129729   1.784   4.586   2.603
 9610SOL    HW229730   1.761   4.575   2.764
 9611SOL     OW29731   1.692   6.473   0.477
 9611SOL    HW129732   1.682   6.428   0.566
 9611SOL    HW229733   1.724   6.406   0.410
 9612SOL     OW29734   0.626   3.492   1.672
 9612SOL    HW129735   0.657   3.397   1.686
 9612SOL    HW229736   0.558   3.515   1.740
 9613SOL     OW29737   5.444   6.255   3.206
 9613SOL    HW129738   5.363   6.196   3.204
 9613SOL    HW229739   5.509   6.220   3.274
 9614SOL     OW29740   3.655   1.792   2.273
 9614SOL    HW129741   3.747   1.764   2.246
 9614SOL    HW229742   3.606   1.714   2.311
 9615SOL     OW29743   2.831   1.404   1.455
 9615SOL    HW129744   2.816   1.497   1.420
 9615SOL    HW229745   2.883   1.409   1.540
 9616SOL     OW29746   3.712   3.520   1.004
 9616SOL    HW129747   3.754   3.435   0.974
 9616SOL    HW229748   3.764   3.558   1.080
 9617SOL     OW29749   2.044   2.920   3.510
 9617SOL    HW129750   2.097   2.843   3.475
 9617SOL    HW229751   1.965   2.936   3.450
 9618SOL     OW29752   2.831   0.192   1.313
 9618SOL    HW129753   2.856   0.231   1.402
 9618SOL    HW229754   2.913   0.186   1.256
 9619SOL     OW29755   2.218   0.512   5.314
 9619SOL    HW129756   2.119   0.504   5.300
 9619SOL    HW229757   2.235   0.574   5.391
 9620SOL     OW29758   4.148   0.045   4.624
 9620SOL    HW129759   4.193   0.106   4.689
 9620SOL    HW229760   4.056   0.080   4.605
 9621SOL     OW29761   1.714   3.209   1.571
 9621SOL    HW129762   1.770   3.199   1.489
 9621SOL    HW229763   1.661   3.125   1.585
 9622SOL     OW29764   6.357   1.555   0.670
 9622SOL    HW129765   6.304   1.470   0.665
 9622SOL    HW229766   6.324   1.611   0.746
 9623SOL     OW29767   2.354   3.224   6.042
 9623SOL    HW129768   2.395   3.133   6.030
 9623SOL    HW229769   2.420   3.294   6.016
 9624SOL     OW29770   5.772   4.184   3.225
 9624SOL    HW129771   5.778   4.121   3.148
 9624SOL    HW229772   5.805   4.274   3.198
 9625SOL     OW29773   5.527   5.377   0.412
 9625SOL    HW129774   5.427   5.380   0.423
 9625SOL    HW229775   5.549   5.329   0.327
 9626SOL     OW29776   3.879   4.980   0.541
 9626SOL    HW129777   3.867   4.902   0.479
 9626SOL    HW229778   3.789   5.016   0.566
 9627SOL     OW29779   0.719   6.339   6.462
 9627SOL    HW129780   0.737   6.346   6.364
 9627SOL    HW229781   0.755   6.253   6.497
 9628SOL     OW29782   5.283   4.829   0.884
 9628SOL    HW129783   5.308   4.868   0.796
 9628SOL    HW229784   5.329   4.879   0.957
 9629SOL     OW29785   2.029   0.621   1.711
 9629SOL    HW129786   1.980   0.668   1.637
 9629SOL    HW229787   1.967   0.560   1.759
 9630SOL     OW29788   6.178   6.429   4.820
 9630SOL    HW129789   6.129   6.433   4.908
 9630SOL    HW229790   6.114   6.401   4.749
 9631SOL     OW29791   6.736   0.266   5.929
 9631SOL    HW129792   6.764   0.259   5.833
 9631SOL    HW229793   6.763   0.182   5.978
 9632SOL     OW29794   1.376   6.627   2.807
 9632SOL    HW129795   1.286   6.585   2.819
 9632SOL    HW229796   1.437   6.598   2.880
 9633SOL     OW29797   5.698   4.889   6.662
 9633SOL    HW129798   5.670   4.956   6.593
 9633SOL    HW229799   5.620   4.832   6.687
 9634SOL     OW29800   1.189   6.692   4.074
 9634SOL    HW129801   1.143   6.684   3.985
 9634SOL    HW229802   1.285   6.712   4.060
 9635SOL     OW29803   2.268   5.955   5.026
 9635SOL    HW129804   2.229   5.982   4.938
 9635SOL    HW229805   2.367   5.945   5.018
 9636SOL     OW29806   3.991   1.534   5.559
 9636SOL    HW129807   4.055   1.541   5.483
 9636SOL    HW229808   4.027   1.469   5.626
 9637SOL     OW29809   2.328   2.271   6.363
 9637SOL    HW129810   2.328   2.352   6.305
 9637SOL    HW229811   2.422   2.241   6.378
 9638SOL     OW29812   0.002   3.825   6.012
 9638SOL    HW129813   0.042   3.736   6.034
 9638SOL    HW229814   0.022   3.889   6.085
 9639SOL     OW29815   3.856   1.615   2.185
 9639SOL    HW129816   3.825   1.553   2.258
 9639SOL    HW229817   3.956   1.620   2.187
 9640SOL     OW29818   2.330   2.672   3.783
 9640SOL    HW129819   2.416   2.629   3.755
 9640SOL    HW229820   2.325   2.764   3.745
 9641SOL     OW29821   4.408   0.209   0.157
 9641SOL    HW129822   4.481   0.273   0.179
 9641SOL    HW229823   4.322   0.240   0.199
 9642SOL     OW29824   2.486   0.114   4.779
 9642SOL    HW129825   2.441   0.192   4.823
 9642SOL    HW229826   2.562   0.147   4.722
 9643SOL     OW29827   5.414   3.924   3.645
 9643SOL    HW129828   5.421   3.930   3.745
 9643SOL    HW229829   5.349   3.992   3.612
 9644SOL     OW29830   1.252   3.224   6.408
 9644SOL    HW129831   1.209   3.286   6.343
 9644SOL    HW229832   1.183   3.166   6.450
 9645SOL     OW29833   2.497   5.071   5.473
 9645SOL    HW129834   2.520   5.011   5.396
 9645SOL    HW229835   2.498   5.018   5.558
 9646SOL     OW29836   3.804   5.119   2.415
 9646SOL    HW129837   3.714   5.111   2.457
 9646SOL    HW229838   3.824   5.036   2.363
 9647SOL     OW29839   6.274   3.619   1.430
 9647SOL    HW129840   6.250   3.536   1.380
 9647SOL    HW229841   6.337   3.674   1.375
 9648SOL     OW29842   3.968   1.636   1.330
 9648SOL    HW129843   3.879   1.658   1.288
 9648SOL    HW229844   3.958   1.554   1.386
 9649SOL     OW29845   2.875   6.728   0.100
 9649SOL    HW129846   2.947   6.774   0.153
 9649SOL    HW229847   2.903   6.723   0.004
 9650SOL     OW29848   0.064   5.011   2.177
 9650SOL    HW129849   0.083   5.003   2.275
 9650SOL    HW229850   6.994   5.060   2.164
 9651SOL     OW29851   0.185   2.068   5.296
 9651SOL    HW129852   0.127   2.023   5.363
 9651SOL    HW229853   0.196   2.009   5.216
 9652SOL     OW29854   0.964   4.915   1.584
 9652SOL    HW129855   0.934   5.006   1.615
 9652SOL    HW229856   1.057   4.898   1.616
 9653SOL     OW29857   4.222   4.815   4.774
 9653SOL    HW129858   4.259   4.752   4.842
 9653SOL    HW229859   4.223   4.908   4.811
 9654SOL     OW29860   2.615   2.308   2.032
 9654SOL    HW129861   2.597   2.218   1.992
 9654SOL    HW229862   2.713   2.325   2.033
 9655SOL     OW29863   0.266   2.066   5.992
 9655SOL    HW129864   0.304   1.996   6.053
 9655SOL    HW229865   0.340   2.107   5.939
 9656SOL     OW29866   2.804   0.484   2.684
 9656SOL    HW129867   2.767   0.553   2.620
 9656SOL    HW229868   2.797   0.394   2.642
 9657SOL     OW29869   5.503   0.818   4.335
 9657SOL    HW129870   5.487   0.727   4.373
 9657SOL    HW229871   5.586   0.857   4.376
 9658SOL     OW29872   6.859   2.709   2.277
 9658SOL    HW129873   6.830   2.684   2.369
 9658SOL    HW229874   6.803   2.785   2.244
 9659SOL     OW29875   0.065   4.224   0.558
 9659SOL    HW129876   0.039   4.146   0.502
 9659SOL    HW229877   0.040   4.206   0.654
 9660SOL     OW29878   0.711   5.854   1.170
 9660SOL    HW129879   0.807   5.854   1.145
 9660SOL    HW229880   0.663   5.781   1.121
 9661SOL     OW29881   4.630   6.644   0.890
 9661SOL    HW129882   4.542   6.677   0.923
 9661SOL    HW229883   4.627   6.636   0.790
 9662SOL     OW29884   6.047   2.562   4.993
 9662SOL    HW129885   6.135   2.609   4.994
 9662SOL    HW229886   6.025   2.532   5.086
 9663SOL     OW29887   1.569   5.320   3.284
 9663SOL    HW129888   1.621   5.238   3.310
 9663SOL    HW229889   1.495   5.293   3.222
 9664SOL     OW29890   4.795   6.891   2.851
 9664SOL    HW129891   4.699   6.882   2.879
 9664SOL    HW229892   4.818   6.988   2.841
 9665SOL     OW29893   5.823   4.724   5.021
 9665SOL    HW129894   5.847   4.629   5.003
 9665SOL    HW229895   5.859   4.752   5.110
 9666SOL     OW29896   5.876   3.823   1.928
 9666SOL    HW129897   5.918   3.739   1.963
 9666SOL    HW229898   5.894   3.898   1.991
 9667SOL     OW29899   3.677   3.766   3.826
 9667SOL    HW129900   3.739   3.843   3.832
 9667SOL    HW229901   3.602   3.788   3.763
 9668SOL     OW29902   0.216   1.207   5.824
 9668SOL    HW129903   0.160   1.286   5.846
 9668SOL    HW229904   0.165   1.146   5.763
 9669SOL     OW29905   0.424   0.396   0.123
 9669SOL    HW129906   0.483   0.399   0.204
 9669SOL    HW229907   0.376   0.483   0.114
 9670SOL     OW29908   4.885   4.535   6.152
 9670SOL    HW129909   4.871   4.464   6.083
 9670SOL    HW229910   4.815   4.605   6.143
 9671SOL     OW29911   6.961   5.666   5.917
 9671SOL    HW129912   0.005   5.712   5.852
 9671SOL    HW229913   6.875   5.717   5.924
 9672SOL     OW29914   1.503   6.279   4.350
 9672SOL    HW129915   1.415   6.293   4.396
 9672SOL    HW229916   1.560   6.219   4.405
 9673SOL     OW29917   3.834   3.834   6.544
 9673SOL    HW129918   3.813   3.755   6.602
 9673SOL    HW229919   3.932   3.854   6.549
 9674SOL     OW29920   3.267   5.993   1.423
 9674SOL    HW129921   3.333   6.050   1.376
 9674SOL    HW229922   3.176   6.007   1.384
 9675SOL     OW29923   6.512   1.297   2.244
 9675SOL    HW129924   6.480   1.283   2.338
 9675SOL    HW229925   6.484   1.388   2.213
 9676SOL     OW29926   1.032   3.369   5.189
 9676SOL    HW129927   1.108   3.307   5.207
 9676SOL    HW229928   0.950   3.315   5.167
 9677SOL     OW29929   2.470   4.203   5.795
 9677SOL    HW129930   2.534   4.172   5.865
 9677SOL    HW229931   2.474   4.141   5.716
 9678SOL     OW29932   4.085   3.382   2.888
 9678SOL    HW129933   4.078   3.306   2.953
 9678SOL    HW229934   4.106   3.466   2.938
 9679SOL     OW29935   1.496   3.015   1.642
 9679SOL    HW129936   1.462   3.025   1.549
 9679SOL    HW229937   1.498   2.918   1.667
 9680SOL     OW29938   5.782   5.923   3.325
 9680SOL    HW129939   5.880   5.913   3.306
 9680SOL    HW229940   5.748   5.838   3.367
 9681SOL     OW29941   1.939   0.514   1.112
 9681SOL    HW129942   1.859   0.531   1.055
 9681SOL    HW229943   1.999   0.594   1.110
 9682SOL     OW29944   5.232   5.096   3.224
 9682SOL    HW129945   5.268   5.157   3.153
 9682SOL    HW229946   5.207   5.151   3.304
 9683SOL     OW29947   3.775   4.993   0.116
 9683SOL    HW129948   3.757   5.048   0.198
 9683SOL    HW229949   3.846   4.925   0.137
 9684SOL     OW29950   0.336   3.803   4.688
 9684SOL    HW129951   0.434   3.804   4.706
 9684SOL    HW229952   0.316   3.735   4.617
 9685SOL     OW29953   2.384   3.178   0.950
 9685SOL    HW129954   2.422   3.224   1.031
 9685SOL    HW229955   2.284   3.185   0.952
 9686SOL     OW29956   6.633   0.882   1.353
 9686SOL    HW129957   6.675   0.841   1.273
 9686SOL    HW229958   6.590   0.968   1.328
 9687SOL     OW29959   2.559   0.780   3.232
 9687SOL    HW129960   2.504   0.700   3.205
 9687SOL    HW229961   2.500   0.848   3.275
 9688SOL     OW29962   0.051   1.939   2.766
 9688SOL    HW129963   0.144   1.906   2.746
 9688SOL    HW229964   0.007   1.877   2.830
 9689SOL     OW29965   2.612   6.230   7.016
 9689SOL    HW129966   2.620   6.134   6.987
 9689SOL    HW229967   2.701   6.275   7.008
 9690SOL     OW29968   6.327   4.809   7.011
 9690SOL    HW129969   6.321   4.813   0.095
 9690SOL    HW229970   6.318   4.902   6.974
 9691SOL     OW29971   2.092   5.482   1.501
 9691SOL    HW129972   2.062   5.390   1.478
 9691SOL    HW229973   2.012   5.542   1.510
 9692SOL     OW29974   3.030   5.206   1.901
 9692SOL    HW129975   3.031   5.255   1.987
 9692SOL    HW229976   3.006   5.268   1.826
 9693SOL     OW29977   6.453   5.602   1.792
 9693SOL    HW129978   6.410   5.628   1.878
 9693SOL    HW229979   6.467   5.503   1.790
 9694SOL     OW29980   1.517   2.367   0.288
 9694SOL    HW129981   1.433   2.370   0.233
 9694SOL    HW229982   1.533   2.456   0.330
 9695SOL     OW29983   6.195   4.478   0.779
 9695SOL    HW129984   6.284   4.523   0.774
 9695SOL    HW229985   6.202   4.394   0.833
 9696SOL     OW29986   3.873   2.780   1.703
 9696SOL    HW129987   3.789   2.746   1.746
 9696SOL    HW229988   3.906   2.860   1.753
 9697SOL     OW29989   0.640   4.804   6.994
 9697SOL    HW129990   0.738   4.790   6.979
 9697SOL    HW229991   0.625   4.833   0.072
 9698SOL     OW29992   6.200   0.832   4.953
 9698SOL    HW129993   6.254   0.819   4.870
 9698SOL    HW229994   6.105   0.805   4.935
 9699SOL     OW29995   0.827   3.250   6.609
 9699SOL    HW129996   0.917   3.207   6.601
 9699SOL    HW229997   0.836   3.349   6.602
 9700SOL     OW29998   3.468   4.736   5.727
 9700SOL    HW129999   3.383   4.753   5.777
 9700SOL    HW230000   3.493   4.639   5.737
 9701SOL     OW30001   3.799   5.343   4.864
 9701SOL    HW130002   3.775   5.433   4.899
 9701SOL    HW230003   3.766   5.273   4.928
 9702SOL     OW30004   5.262   1.192   0.148
 9702SOL    HW130005   5.311   1.257   0.205
 9702SOL    HW230006   5.171   1.175   0.186
 9703SOL     OW30007   3.244   5.844   4.439
 9703SOL    HW130008   3.239   5.744   4.445
 9703SOL    HW230009   3.217   5.873   4.347
 9704SOL     OW30010   3.402   0.034   2.939
 9704SOL    HW130011   3.361   0.121   2.966
 9704SOL    HW230012   3.340   6.976   2.961
 9705SOL     OW30013   3.788   4.767   0.399
 9705SOL    HW130014   3.690   4.744   0.399
 9705SOL    HW230015   3.825   4.750   0.308
 9706SOL     OW30016   6.433   2.764   1.568
 9706SOL    HW130017   6.365   2.746   1.639
 9706SOL    HW230018   6.520   2.721   1.593
 9707SOL     OW30019   1.092   4.142   2.362
 9707SOL    HW130020   1.081   4.113   2.267
 9707SOL    HW230021   1.148   4.075   2.411
 9708SOL     OW30022   1.725   1.944   4.262
 9708SOL    HW130023   1.763   1.988   4.343
 9708SOL    HW230024   1.758   1.849   4.256
 9709SOL     OW30025   0.833   6.295   3.603
 9709SOL    HW130026   0.929   6.275   3.618
 9709SOL    HW230027   0.776   6.228   3.651
 9710SOL     OW30028   0.342   0.987   2.891
 9710SOL    HW130029   0.270   1.010   2.826
 9710SOL    HW230030   0.302   0.944   2.971
 9711SOL     OW30031   1.505   3.055   5.989
 9711SOL    HW130032   1.602   3.048   6.010
 9711SOL    HW230033   1.481   2.985   5.921
 9712SOL     OW30034   5.565   2.207   4.726
 9712SOL    HW130035   5.532   2.119   4.758
 9712SOL    HW230036   5.597   2.261   4.804
 9713SOL     OW30037   0.272   4.962   3.405
 9713SOL    HW130038   0.328   5.032   3.360
 9713SOL    HW230039   0.180   4.998   3.418
 9714SOL     OW30040   2.352   1.586   1.947
 9714SOL    HW130041   2.294   1.579   2.028
 9714SOL    HW230042   2.415   1.508   1.945
 9715SOL     OW30043   5.720   5.453   4.987
 9715SOL    HW130044   5.703   5.432   5.084
 9715SOL    HW230045   5.817   5.438   4.967
 9716SOL     OW30046   4.199   1.825   6.905
 9716SOL    HW130047   4.254   1.792   6.828
 9716SOL    HW230048   4.102   1.814   6.883
 9717SOL     OW30049   5.133   5.873   3.966
 9717SOL    HW130050   5.114   5.843   3.873
 9717SOL    HW230051   5.047   5.889   4.015
 9718SOL     OW30052   3.906   3.362   1.310
 9718SOL    HW130053   3.944   3.451   1.333
 9718SOL    HW230054   3.897   3.307   1.393
 9719SOL     OW30055   0.797   2.192   0.261
 9719SOL    HW130056   0.747   2.113   0.298
 9719SOL    HW230057   0.792   2.268   0.325
 9720SOL     OW30058   0.246   6.241   2.390
 9720SOL    HW130059   0.216   6.318   2.334
 9720SOL    HW230060   0.171   6.213   2.451
 9721SOL     OW30061   0.232   3.886   1.986
 9721SOL    HW130062   0.145   3.841   2.007
 9721SOL    HW230063   0.223   3.984   2.003
 9722SOL     OW30064   0.343   0.876   3.329
 9722SOL    HW130065   0.325   0.808   3.400
 9722SOL    HW230066   0.289   0.854   3.248
 9723SOL     OW30067   0.816   0.213   3.148
 9723SOL    HW130068   0.778   0.226   3.056
 9723SOL    HW230069   0.792   0.121   3.180
 9724SOL     OW30070   2.840   2.597   1.698
 9724SOL    HW130071   2.872   2.682   1.739
 9724SOL    HW230072   2.830   2.527   1.770
 9725SOL     OW30073   4.914   3.424   6.207
 9725SOL    HW130074   4.836   3.378   6.250
 9725SOL    HW230075   4.955   3.487   6.273
 9726SOL     OW30076   5.474   6.807   4.480
 9726SOL    HW130077   5.426   6.737   4.533
 9726SOL    HW230078   5.529   6.863   4.541
 9727SOL     OW30079   1.021   3.036   5.486
 9727SOL    HW130080   1.105   2.990   5.456
 9727SOL    HW230081   0.942   2.977   5.469
 9728SOL     OW30082   1.633   6.278   6.169
 9728SOL    HW130083   1.663   6.367   6.202
 9728SOL    HW230084   1.690   6.250   6.091
 9729SOL     OW30085   1.069   4.581   2.832
 9729SOL    HW130086   1.141   4.530   2.783
 9729SOL    HW230087   1.044   4.532   2.915
 9730SOL     OW30088   0.143   3.232   2.509
 9730SOL    HW130089   0.213   3.304   2.511
 9730SOL    HW230090   0.117   3.208   2.602
 9731SOL     OW30091   4.119   4.995   0.964
 9731SOL    HW130092   4.140   5.092   0.964
 9731SOL    HW230093   4.037   4.979   1.020
 9732SOL     OW30094   0.167   5.924   2.589
 9732SOL    HW130095   0.242   5.884   2.536
 9732SOL    HW230096   0.109   5.977   2.528
 9733SOL     OW30097   5.529   5.141   5.154
 9733SOL    HW130098   5.460   5.082   5.112
 9733SOL    HW230099   5.620   5.104   5.135
 9734SOL     OW30100   5.311   1.796   4.338
 9734SOL    HW130101   5.217   1.810   4.308
 9734SOL    HW230102   5.318   1.811   4.437
 9735SOL     OW30103   2.566   5.146   2.361
 9735SOL    HW130104   2.555   5.054   2.400
 9735SOL    HW230105   2.537   5.145   2.266
 9736SOL     OW30106   5.537   1.109   6.797
 9736SOL    HW130107   5.613   1.162   6.759
 9736SOL    HW230108   5.458   1.117   6.737
 9737SOL     OW30109   4.145   2.224   4.814
 9737SOL    HW130110   4.154   2.268   4.904
 9737SOL    HW230111   4.185   2.133   4.817
 9738SOL     OW30112   1.547   0.876   3.330
 9738SOL    HW130113   1.597   0.791   3.346
 9738SOL    HW230114   1.463   0.855   3.279
 9739SOL     OW30115   6.820   5.127   1.737
 9739SOL    HW130116   6.754   5.059   1.769
 9739SOL    HW230117   6.813   5.136   1.638
 9740SOL     OW30118   5.961   3.894   2.801
 9740SOL    HW130119   5.995   3.806   2.836
 9740SOL    HW230120   5.978   3.899   2.703
 9741SOL     OW30121   4.102   1.623   2.789
 9741SOL    HW130122   4.196   1.616   2.821
 9741SOL    HW230123   4.086   1.716   2.754
 9742SOL     OW30124   5.389   0.675   2.820
 9742SOL    HW130125   5.470   0.708   2.867
 9742SOL    HW230126   5.390   0.707   2.725
 9743SOL     OW30127   1.849   3.098   5.815
 9743SOL    HW130128   1.929   3.139   5.858
 9743SOL    HW230129   1.878   3.042   5.737
 9744SOL     OW30130   1.911   0.733   2.262
 9744SOL    HW130131   1.969   0.788   2.203
 9744SOL    HW230132   1.817   0.768   2.259
 9745SOL     OW30133   0.853   2.247   4.977
 9745SOL    HW130134   0.882   2.340   4.997
 9745SOL    HW230135   0.850   2.234   4.877
 9746SOL     OW30136   5.491   0.817   5.359
 9746SOL    HW130137   5.554   0.740   5.365
 9746SOL    HW230138   5.474   0.838   5.262
 9747SOL     OW30139   1.255   0.570   0.764
 9747SOL    HW130140   1.273   0.545   0.669
 9747SOL    HW230141   1.260   0.489   0.822
 9748SOL     OW30142   1.425   5.722   4.066
 9748SOL    HW130143   1.452   5.708   3.971
 9748SOL    HW230144   1.338   5.772   4.069
 9749SOL     OW30145   1.429   3.283   4.850
 9749SOL    HW130146   1.518   3.249   4.881
 9749SOL    HW230147   1.442   3.349   4.777
 9750SOL     OW30148   5.000   4.817   3.618
 9750SOL    HW130149   4.984   4.810   3.520
 9750SOL    HW230150   5.091   4.853   3.635
 9751SOL     OW30151   1.520   2.077   1.110
 9751SOL    HW130152   1.469   2.092   1.025
 9751SOL    HW230153   1.469   2.118   1.186
 9752SOL     OW30154   4.425   0.732   5.787
 9752SOL    HW130155   4.363   0.806   5.815
 9752SOL    HW230156   4.374   0.646   5.782
 9753SOL     OW30157   6.663   5.673   5.030
 9753SOL    HW130158   6.682   5.586   5.075
 9753SOL    HW230159   6.564   5.680   5.013
 9754SOL     OW30160   1.219   1.543   0.006
 9754SOL    HW130161   1.260   1.601   6.952
 9754SOL    HW230162   1.125   1.522   6.998
 9755SOL     OW30163   4.152   3.369   5.096
 9755SOL    HW130164   4.073   3.312   5.074
 9755SOL    HW230165   4.183   3.349   5.189
 9756SOL     OW30166   6.053   3.136   6.854
 9756SOL    HW130167   6.043   3.055   6.911
 9756SOL    HW230168   6.025   3.217   6.907
 9757SOL     OW30169   5.150   2.494   3.852
 9757SOL    HW130170   5.193   2.503   3.942
 9757SOL    HW230171   5.065   2.441   3.860
 9758SOL     OW30172   2.202   0.237   6.738
 9758SOL    HW130173   2.121   0.261   6.792
 9758SOL    HW230174   2.268   0.313   6.742
 9759SOL     OW30175   2.162   6.254   1.748
 9759SOL    HW130176   2.226   6.183   1.774
 9759SOL    HW230177   2.100   6.219   1.678
 9760SOL     OW30178   5.291   5.038   4.828
 9760SOL    HW130179   5.327   5.039   4.921
 9760SOL    HW230180   5.346   5.099   4.771
 9761SOL     OW30181   5.724   4.616   1.734
 9761SOL    HW130182   5.814   4.580   1.757
 9761SOL    HW230183   5.672   4.632   1.818
 9762SOL     OW30184   2.179   1.754   5.141
 9762SOL    HW130185   2.189   1.751   5.241
 9762SOL    HW230186   2.260   1.712   5.099
 9763SOL     OW30187   3.741   1.111   1.658
 9763SOL    HW130188   3.772   1.192   1.709
 9763SOL    HW230189   3.710   1.139   1.567
 9764SOL     OW30190   1.303   3.328   3.416
 9764SOL    HW130191   1.229   3.269   3.382
 9764SOL    HW230192   1.327   3.395   3.345
 9765SOL     OW30193   6.968   2.496   5.513
 9765SOL    HW130194   6.903   2.555   5.466
 9765SOL    HW230195   6.951   2.401   5.488
 9766SOL     OW30196   3.059   0.678   3.245
 9766SOL    HW130197   2.965   0.704   3.266
 9766SOL    HW230198   3.117   0.693   3.325
 9767SOL     OW30199   5.432   1.053   5.540
 9767SOL    HW130200   5.472   0.964   5.521
 9767SOL    HW230201   5.332   1.044   5.548
 9768SOL     OW30202   4.623   1.996   2.319
 9768SOL    HW130203   4.534   1.952   2.306
 9768SOL    HW230204   4.618   2.091   2.290
 9769SOL     OW30205   1.258   2.236   1.381
 9769SOL    HW130206   1.287   2.331   1.373
 9769SOL    HW230207   1.282   2.202   1.472
 9770SOL     OW30208   5.290   5.352   5.801
 9770SOL    HW130209   5.237   5.339   5.885
 9770SOL    HW230210   5.387   5.360   5.824
 9771SOL     OW30211   4.642   5.024   0.112
 9771SOL    HW130212   4.599   4.940   0.144
 9771SOL    HW230213   4.573   5.082   0.069
 9772SOL     OW30214   6.775   6.824   2.065
 9772SOL    HW130215   6.860   6.784   2.101
 9772SOL    HW230216   6.791   6.858   1.972
 9773SOL     OW30217   5.620   5.684   3.395
 9773SOL    HW130218   5.585   5.601   3.352
 9773SOL    HW230219   5.556   5.715   3.465
 9774SOL     OW30220   5.601   5.121   3.748
 9774SOL    HW130221   5.591   5.081   3.839
 9774SOL    HW230222   5.679   5.184   3.748
 9775SOL     OW30223   1.976   2.763   4.394
 9775SOL    HW130224   2.036   2.691   4.429
 9775SOL    HW230225   1.954   2.827   4.467
 9776SOL     OW30226   6.885   5.420   4.227
 9776SOL    HW130227   6.944   5.383   4.299
 9776SOL    HW230228   6.882   5.520   4.234
 9777SOL     OW30229   5.819   3.971   5.938
 9777SOL    HW130230   5.770   4.046   5.894
 9777SOL    HW230231   5.782   3.884   5.905
 9778SOL     OW30232   4.802   6.461   2.712
 9778SOL    HW130233   4.729   6.527   2.728
 9778SOL    HW230234   4.763   6.369   2.703
 9779SOL     OW30235   3.059   1.441   5.066
 9779SOL    HW130236   3.070   1.537   5.092
 9779SOL    HW230237   2.997   1.434   4.988
 9780SOL     OW30238   2.318   3.031   0.706
 9780SOL    HW130239   2.330   3.078   0.619
 9780SOL    HW230240   2.326   3.096   0.781
 9781SOL     OW30241   2.547   4.780   5.076
 9781SOL    HW130242   2.475   4.791   5.007
 9781SOL    HW230243   2.610   4.708   5.046
 9782SOL     OW30244   6.182   0.274   1.232
 9782SOL    HW130245   6.257   0.209   1.247
 9782SOL    HW230246   6.112   0.259   1.302
 9783SOL     OW30247   6.252   1.508   2.636
 9783SOL    HW130248   6.266   1.475   2.729
 9783SOL    HW230249   6.155   1.529   2.622
 9784SOL     OW30250   4.260   1.380   2.922
 9784SOL    HW130251   4.217   1.292   2.902
 9784SOL    HW230252   4.190   1.446   2.949
 9785SOL     OW30253   6.703   2.537   2.791
 9785SOL    HW130254   6.652   2.599   2.851
 9785SOL    HW230255   6.757   2.474   2.847
 9786SOL     OW30256   2.048   5.412   5.758
 9786SOL    HW130257   2.008   5.347   5.823
 9786SOL    HW230258   2.145   5.391   5.745
 9787SOL     OW30259   4.749   3.877   1.853
 9787SOL    HW130260   4.782   3.926   1.933
 9787SOL    HW230261   4.769   3.779   1.863
 9788SOL     OW30262   6.527   0.742   4.201
 9788SOL    HW130263   6.569   0.666   4.151
 9788SOL    HW230264   6.554   0.828   4.158
 9789SOL     OW30265   2.355   5.910   4.739
 9789SOL    HW130266   2.454   5.897   4.733
 9789SOL    HW230267   2.335   6.008   4.750
 9790SOL     OW30268   5.823   1.846   4.161
 9790SOL    HW130269   5.788   1.872   4.252
 9790SOL    HW230270   5.765   1.887   4.091
 9791SOL     OW30271   1.343   1.202   1.336
 9791SOL    HW130272   1.361   1.247   1.424
 9791SOL    HW230273   1.296   1.115   1.352
 9792SOL     OW30274   4.488   4.676   1.008
 9792SOL    HW130275   4.579   4.696   1.046
 9792SOL    HW230276   4.418   4.693   1.077
 9793SOL     OW30277   5.751   5.676   2.174
 9793SOL    HW130278   5.759   5.767   2.133
 9793SOL    HW230279   5.747   5.607   2.102
 9794SOL     OW30280   5.340   3.253   5.869
 9794SOL    HW130281   5.325   3.322   5.799
 9794SOL    HW230282   5.279   3.175   5.853
 9795SOL     OW30283   1.837   3.576   4.156
 9795SOL    HW130284   1.772   3.652   4.160
 9795SOL    HW230285   1.856   3.553   4.061
 9796SOL     OW30286   3.074   5.294   0.369
 9796SOL    HW130287   3.151   5.281   0.432
 9796SOL    HW230288   3.086   5.234   0.290
 9797SOL     OW30289   4.669   3.378   6.796
 9797SOL    HW130290   4.685   3.438   6.718
 9797SOL    HW230291   4.669   3.282   6.766
 9798SOL     OW30292   2.852   0.513   1.193
 9798SOL    HW130293   2.767   0.508   1.245
 9798SOL    HW230294   2.873   0.424   1.154
 9799SOL     OW30295   3.043   3.216   2.660
 9799SOL    HW130296   3.039   3.117   2.652
 9799SOL    HW230297   3.125   3.242   2.712
 9800SOL     OW30298   4.476   5.450   6.842
 9800SOL    HW130299   4.390   5.500   6.843
 9800SOL    HW230300   4.537   5.487   6.911
 9801SOL     OW30301   4.426   5.852   6.806
 9801SOL    HW130302   4.441   5.829   6.709
 9801SOL    HW230303   4.372   5.935   6.812
 9802SOL     OW30304   0.554   3.297   0.938
 9802SOL    HW130305   0.621   3.343   0.880
 9802SOL    HW230306   0.593   3.281   1.029
 9803SOL     OW30307   6.230   0.187   6.760
 9803SOL    HW130308   6.175   0.191   6.843
 9803SOL    HW230309   6.324   0.162   6.783
 9804SOL     OW30310   6.426   5.350   4.046
 9804SOL    HW130311   6.446   5.324   3.951
 9804SOL    HW230312   6.390   5.270   4.095
 9805SOL     OW30313   1.628   5.376   6.810
 9805SOL    HW130314   1.638   5.278   6.826
 9805SOL    HW230315   1.709   5.411   6.763
 9806SOL     OW30316   6.964   2.839   1.956
 9806SOL    HW130317   6.982   2.750   1.999
 9806SOL    HW230318   6.906   2.894   2.017
 9807SOL     OW30319   4.043   2.013   0.607
 9807SOL    HW130320   3.946   2.019   0.629
 9807SOL    HW230321   4.055   1.955   0.526
 9808SOL     OW30322   6.994   1.912   4.567
 9808SOL    HW130323   6.958   1.916   4.660
 9808SOL    HW230324   0.070   1.875   4.568
 9809SOL     OW30325   0.026   1.503   4.178
 9809SOL    HW130326   0.096   1.440   4.211
 9809SOL    HW230327   7.014   1.563   4.253
 9810SOL     OW30328   2.557   1.420   3.345
 9810SOL    HW130329   2.569   1.390   3.251
 9810SOL    HW230330   2.461   1.411   3.371
 9811SOL     OW30331   6.667   6.385   2.802
 9811SOL    HW130332   6.746   6.395   2.862
 9811SOL    HW230333   6.585   6.420   2.848
 9812SOL     OW30334   4.843   2.378   6.030
 9812SOL    HW130335   4.907   2.438   6.078
 9812SOL    HW230336   4.772   2.348   6.093
 9813SOL     OW30337   6.845   4.969   6.966
 9813SOL    HW130338   6.833   5.065   6.994
 9813SOL    HW230339   6.943   4.948   6.963
 9814SOL     OW30340   6.910   6.593   5.560
 9814SOL    HW130341   6.832   6.530   5.554
 9814SOL    HW230342   6.899   6.665   5.492
 9815SOL     OW30343   6.036   3.537   1.746
 9815SOL    HW130344   6.017   3.583   1.659
 9815SOL    HW230345   6.125   3.491   1.740
 9816SOL     OW30346   6.637   6.996   6.720
 9816SOL    HW130347   6.699   6.929   6.761
 9816SOL    HW230348   6.688   0.035   6.654
 9817SOL     OW30349   3.599   5.882   0.759
 9817SOL    HW130350   3.604   5.979   0.735
 9817SOL    HW230351   3.588   5.874   0.858
 9818SOL     OW30352   0.842   0.018   3.534
 9818SOL    HW130353   0.872   0.025   3.629
 9818SOL    HW230354   0.918   0.044   3.474
 9819SOL     OW30355   6.425   4.262   4.914
 9819SOL    HW130356   6.360   4.247   4.989
 9819SOL    HW230357   6.430   4.180   4.857
 9820SOL     OW30358   3.207   1.948   6.368
 9820SOL    HW130359   3.174   2.010   6.438
 9820SOL    HW230360   3.297   1.978   6.336
 9821SOL     OW30361   4.443   2.607   1.759
 9821SOL    HW130362   4.511   2.534   1.768
 9821SOL    HW230363   4.367   2.575   1.702
 9822SOL     OW30364   3.831   6.147   4.987
 9822SOL    HW130365   3.867   6.172   4.897
 9822SOL    HW230366   3.738   6.182   4.997
 9823SOL     OW30367   1.635   0.496   2.949
 9823SOL    HW130368   1.536   0.509   2.944
 9823SOL    HW230369   1.658   0.405   2.915
 9824SOL     OW30370   1.167   6.161   5.606
 9824SOL    HW130371   1.095   6.127   5.546
 9824SOL    HW230372   1.135   6.245   5.652
 9825SOL     OW30373   5.103   6.059   6.179
 9825SOL    HW130374   5.134   6.142   6.225
 9825SOL    HW230375   5.140   6.057   6.086
 9826SOL     OW30376   2.589   6.193   5.563
 9826SOL    HW130377   2.569   6.170   5.659
 9826SOL    HW230378   2.505   6.187   5.509
 9827SOL     OW30379   1.634   5.430   2.043
 9827SOL    HW130380   1.685   5.458   1.962
 9827SOL    HW230381   1.698   5.417   2.119
 9828SOL     OW30382   3.492   2.078   5.128
 9828SOL    HW130383   3.435   2.033   5.058
 9828SOL    HW230384   3.435   2.141   5.181
 9829SOL     OW30385   4.705   5.133   5.398
 9829SOL    HW130386   4.626   5.189   5.424
 9829SOL    HW230387   4.785   5.162   5.451
 9830SOL     OW30388   5.712   2.328   2.629
 9830SOL    HW130389   5.792   2.382   2.655
 9830SOL    HW230390   5.660   2.304   2.711
 9831SOL     OW30391   0.660   4.007   1.798
 9831SOL    HW130392   0.616   4.096   1.811
 9831SOL    HW230393   0.626   3.943   1.867
 9832SOL     OW30394   4.419   4.639   4.427
 9832SOL    HW130395   4.385   4.673   4.339
 9832SOL    HW230396   4.497   4.579   4.412
 9833SOL     OW30397   3.380   4.145   4.410
 9833SOL    HW130398   3.290   4.137   4.452
 9833SOL    HW230399   3.373   4.126   4.312
 9834SOL     OW30400   2.181   5.445   5.333
 9834SOL    HW130401   2.231   5.390   5.266
 9834SOL    HW230402   2.096   5.399   5.358
 9835SOL     OW30403   3.745   4.170   4.800
 9835SOL    HW130404   3.698   4.179   4.712
 9835SOL    HW230405   3.804   4.249   4.814
 9836SOL     OW30406   0.324   3.695   5.171
 9836SOL    HW130407   0.316   3.596   5.175
 9836SOL    HW230408   0.380   3.727   5.248
 9837SOL     OW30409   4.936   2.228   2.183
 9837SOL    HW130410   4.990   2.297   2.231
 9837SOL    HW230411   4.966   2.137   2.210
 9838SOL     OW30412   0.621   6.629   1.702
 9838SOL    HW130413   0.711   6.609   1.665
 9838SOL    HW230414   0.628   6.703   1.768
 9839SOL     OW30415   4.341   0.578   3.047
 9839SOL    HW130416   4.395   0.659   3.069
 9839SOL    HW230417   4.299   0.542   3.131
 9840SOL     OW30418   6.430   0.908   0.189
 9840SOL    HW130419   6.372   0.969   0.136
 9840SOL    HW230420   6.495   0.863   0.128
 9841SOL     OW30421   6.955   6.655   4.072
 9841SOL    HW130422   0.015   6.606   4.114
 9841SOL    HW230423   6.985   6.692   3.983
 9842SOL     OW30424   2.565   1.935   6.372
 9842SOL    HW130425   2.514   1.897   6.294
 9842SOL    HW230426   2.663   1.921   6.357
 9843SOL     OW30427   0.214   6.649   1.490
 9843SOL    HW130428   0.205   6.660   1.391
 9843SOL    HW230429   0.300   6.602   1.511
 9844SOL     OW30430   5.165   0.135   3.985
 9844SOL    HW130431   5.229   0.177   4.050
 9844SOL    HW230432   5.216   0.093   3.910
 9845SOL     OW30433   1.914   3.439   1.294
 9845SOL    HW130434   2.010   3.469   1.290
 9845SOL    HW230435   1.909   3.348   1.332
 9846SOL     OW30436   5.300   1.395   0.552
 9846SOL    HW130437   5.208   1.369   0.579
 9846SOL    HW230438   5.362   1.387   0.630
 9847SOL     OW30439   4.128   4.136   0.773
 9847SOL    HW130440   4.030   4.115   0.775
 9847SOL    HW230441   4.163   4.122   0.681
 9848SOL     OW30442   3.400   3.836   5.391
 9848SOL    HW130443   3.321   3.851   5.332
 9848SOL    HW230444   3.456   3.762   5.353
 9849SOL     OW30445   0.858   1.800   4.528
 9849SOL    HW130446   0.880   1.819   4.624
 9849SOL    HW230447   0.765   1.832   4.508
 9850SOL     OW30448   0.591   0.717   4.656
 9850SOL    HW130449   0.509   0.751   4.609
 9850SOL    HW230450   0.635   0.648   4.599
 9851SOL     OW30451   3.955   4.895   4.359
 9851SOL    HW130452   4.031   4.836   4.386
 9851SOL    HW230453   3.901   4.919   4.440
 9852SOL     OW30454   2.110   1.517   0.239
 9852SOL    HW130455   2.131   1.573   0.320
 9852SOL    HW230456   2.048   1.443   0.265
 9853SOL     OW30457   6.550   4.523   3.771
 9853SOL    HW130458   6.538   4.601   3.833
 9853SOL    HW230459   6.566   4.440   3.824
 9854SOL     OW30460   0.867   5.451   6.175
 9854SOL    HW130461   0.796   5.435   6.107
 9854SOL    HW230462   0.873   5.374   6.237
 9855SOL     OW30463   1.654   4.361   1.694
 9855SOL    HW130464   1.728   4.350   1.760
 9855SOL    HW230465   1.583   4.419   1.733
 9856SOL     OW30466   5.566   4.057   3.367
 9856SOL    HW130467   5.519   4.019   3.287
 9856SOL    HW230468   5.622   4.135   3.338
 9857SOL     OW30469   3.724   1.073   4.783
 9857SOL    HW130470   3.741   0.986   4.830
 9857SOL    HW230471   3.628   1.098   4.794
 9858SOL     OW30472   6.306   6.451   2.403
 9858SOL    HW130473   6.316   6.519   2.475
 9858SOL    HW230474   6.211   6.446   2.374
 9859SOL     OW30475   6.494   5.852   3.224
 9859SOL    HW130476   6.530   5.908   3.149
 9859SOL    HW230477   6.434   5.908   3.281
 9860SOL     OW30478   1.515   3.288   4.467
 9860SOL    HW130479   1.586   3.291   4.537
 9860SOL    HW230480   1.450   3.215   4.489
 9861SOL     OW30481   3.769   1.401   4.861
 9861SOL    HW130482   3.782   1.304   4.840
 9861SOL    HW230483   3.678   1.430   4.832
 9862SOL     OW30484   1.276   5.408   0.580
 9862SOL    HW130485   1.359   5.354   0.573
 9862SOL    HW230486   1.298   5.505   0.573
 9863SOL     OW30487   4.052   6.248   0.429
 9863SOL    HW130488   4.024   6.156   0.403
 9863SOL    HW230489   4.017   6.313   0.362
 9864SOL     OW30490   2.587   5.844   5.522
 9864SOL    HW130491   2.620   5.750   5.515
 9864SOL    HW230492   2.644   5.903   5.465
 9865SOL     OW30493   0.324   6.145   5.384
 9865SOL    HW130494   0.330   6.064   5.325
 9865SOL    HW230495   0.304   6.225   5.328
 9866SOL     OW30496   6.113   5.389   4.097
 9866SOL    HW130497   6.187   5.413   4.033
 9866SOL    HW230498   6.146   5.395   4.191
 9867SOL     OW30499   4.734   2.135   1.890
 9867SOL    HW130500   4.781   2.056   1.929
 9867SOL    HW230501   4.796   2.183   1.827
 9868SOL     OW30502   1.711   4.439   3.165
 9868SOL    HW130503   1.799   4.460   3.124
 9868SOL    HW230504   1.640   4.443   3.095
 9869SOL     OW30505   6.919   2.398   0.860
 9869SOL    HW130506   6.989   2.424   0.794
 9869SOL    HW230507   6.957   2.399   0.952
 9870SOL     OW30508   2.960   1.008   2.617
 9870SOL    HW130509   2.964   0.923   2.669
 9870SOL    HW230510   2.926   0.990   2.525
 9871SOL     OW30511   0.449   4.282   4.362
 9871SOL    HW130512   0.457   4.359   4.299
 9871SOL    HW230513   0.453   4.315   4.457
 9872SOL     OW30514   1.459   4.953   5.613
 9872SOL    HW130515   1.501   4.998   5.692
 9872SOL    HW230516   1.517   4.878   5.582
 9873SOL     OW30517   1.592   1.316   5.696
 9873SOL    HW130518   1.655   1.307   5.774
 9873SOL    HW230519   1.634   1.374   5.626
 9874SOL     OW30520   0.840   2.858   4.644
 9874SOL    HW130521   0.908   2.926   4.617
 9874SOL    HW230522   0.884   2.788   4.701
 9875SOL     OW30523   6.683   5.303   0.729
 9875SOL    HW130524   6.584   5.307   0.740
 9875SOL    HW230525   6.727   5.314   0.818
 9876SOL     OW30526   1.778   6.698   3.708
 9876SOL    HW130527   1.750   6.710   3.613
 9876SOL    HW230528   1.697   6.685   3.765
 9877SOL     OW30529   0.772   5.715   5.540
 9877SOL    HW130530   0.710   5.642   5.512
 9877SOL    HW230531   0.790   5.775   5.462
 9878SOL     OW30532   2.105   2.858   6.988
 9878SOL    HW130533   2.066   2.808   6.910
 9878SOL    HW230534   2.059   2.946   6.997
 9879SOL     OW30535   0.386   5.187   6.224
 9879SOL    HW130536   0.473   5.139   6.239
 9879SOL    HW230537   0.404   5.281   6.195
 9880SOL     OW30538   2.781   1.555   0.203
 9880SOL    HW130539   2.810   1.612   0.280
 9880SOL    HW230540   2.696   1.508   0.226
 9881SOL     OW30541   5.776   0.454   4.354
 9881SOL    HW130542   5.713   0.443   4.431
 9881SOL    HW230543   5.724   0.478   4.272
 9882SOL     OW30544   3.654   3.205   4.865
 9882SOL    HW130545   3.664   3.291   4.915
 9882SOL    HW230546   3.559   3.174   4.871
 9883SOL     OW30547   2.349   6.728   1.814
 9883SOL    HW130548   2.402   6.810   1.791
 9883SOL    HW230549   2.386   6.687   1.898
 9884SOL     OW30550   2.294   3.761   5.642
 9884SOL    HW130551   2.374   3.700   5.640
 9884SOL    HW230552   2.242   3.751   5.557
 9885SOL     OW30553   6.039   3.490   4.316
 9885SOL    HW130554   6.138   3.486   4.309
 9885SOL    HW230555   6.011   3.463   4.408
 9886SOL     OW30556   4.414   5.815   1.771
 9886SOL    HW130557   4.440   5.884   1.838
 9886SOL    HW230558   4.317   5.796   1.779
 9887SOL     OW30559   3.554   0.328   6.942
 9887SOL    HW130560   3.574   0.244   6.893
 9887SOL    HW230561   3.519   0.397   6.879
 9888SOL     OW30562   6.199   5.271   2.543
 9888SOL    HW130563   6.187   5.177   2.574
 9888SOL    HW230564   6.160   5.334   2.610
 9889SOL     OW30565   6.878   5.359   3.526
 9889SOL    HW130566   6.867   5.357   3.427
 9889SOL    HW230567   6.884   5.453   3.558
 9890SOL     OW30568   6.685   4.200   1.980
 9890SOL    HW130569   6.645   4.176   2.069
 9890SOL    HW230570   6.721   4.118   1.936
 9891SOL     OW30571   6.070   4.650   0.956
 9891SOL    HW130572   6.120   4.585   0.899
 9891SOL    HW230573   5.978   4.614   0.974
 9892SOL     OW30574   2.529   4.873   3.985
 9892SOL    HW130575   2.450   4.812   3.990
 9892SOL    HW230576   2.559   4.897   4.077
 9893SOL     OW30577   4.995   5.298   3.609
 9893SOL    HW130578   4.915   5.240   3.621
 9893SOL    HW230579   4.965   5.392   3.589
 9894SOL     OW30580   4.154   3.237   5.933
 9894SOL    HW130581   4.056   3.226   5.918
 9894SOL    HW230582   4.171   3.325   5.978
 9895SOL     OW30583   5.578   2.379   6.976
 9895SOL    HW130584   5.601   2.414   0.051
 9895SOL    HW230585   5.636   2.423   6.908
 9896SOL     OW30586   4.365   3.999   0.926
 9896SOL    HW130587   4.340   4.079   0.870
 9896SOL    HW230588   4.457   4.013   0.964
 9897SOL     OW30589   6.092   2.096   3.627
 9897SOL    HW130590   6.166   2.152   3.663
 9897SOL    HW230591   6.024   2.081   3.700
 9898SOL     OW30592   1.622   4.757   5.298
 9898SOL    HW130593   1.524   4.753   5.280
 9898SOL    HW230594   1.638   4.772   5.395
 9899SOL     OW30595   5.000   5.368   1.719
 9899SOL    HW130596   5.002   5.390   1.817
 9899SOL    HW230597   4.918   5.408   1.678
 9900SOL     OW30598   1.634   2.866   3.789
 9900SOL    HW130599   1.581   2.935   3.741
 9900SOL    HW230600   1.704   2.910   3.846
 9901SOL     OW30601   3.109   2.530   5.390
 9901SOL    HW130602   3.160   2.481   5.319
 9901SOL    HW230603   3.155   2.517   5.478
 9902SOL     OW30604   4.306   3.455   0.147
 9902SOL    HW130605   4.301   3.555   0.155
 9902SOL    HW230606   4.347   3.430   0.060
 9903SOL     OW30607   3.963   1.976   1.949
 9903SOL    HW130608   3.877   2.000   1.903
 9903SOL    HW230609   3.959   2.010   2.044
 9904SOL     OW30610   6.474   1.051   1.222
 9904SOL    HW130611   6.375   1.043   1.231
 9904SOL    HW230612   6.496   1.105   1.140
 9905SOL     OW30613   1.620   6.679   4.845
 9905SOL    HW130614   1.666   6.659   4.758
 9905SOL    HW230615   1.577   6.596   4.880
 9906SOL     OW30616   2.834   3.061   6.322
 9906SOL    HW130617   2.862   3.040   6.228
 9906SOL    HW230618   2.793   3.152   6.326
 9907SOL     OW30619   2.728   6.266   2.710
 9907SOL    HW130620   2.642   6.239   2.667
 9907SOL    HW230621   2.771   6.338   2.656
 9908SOL     OW30622   1.054   3.298   5.910
 9908SOL    HW130623   1.102   3.385   5.898
 9908SOL    HW230624   1.002   3.277   5.827
 9909SOL     OW30625   3.711   0.480   2.573
 9909SOL    HW130626   3.650   0.402   2.588
 9909SOL    HW230627   3.796   0.448   2.532
 9910SOL     OW30628   6.668   4.165   1.136
 9910SOL    HW130629   6.601   4.239   1.146
 9910SOL    HW230630   6.641   4.087   1.194
 9911SOL     OW30631   3.385   4.932   3.249
 9911SOL    HW130632   3.348   4.900   3.161
 9911SOL    HW230633   3.310   4.942   3.314
 9912SOL     OW30634   5.134   0.258   1.034
 9912SOL    HW130635   5.134   0.234   0.937
 9912SOL    HW230636   5.040   0.259   1.069
 9913SOL     OW30637   4.766   2.021   2.807
 9913SOL    HW130638   4.693   1.982   2.864
 9913SOL    HW230639   4.758   1.985   2.714
 9914SOL     OW30640   1.525   6.938   4.867
 9914SOL    HW130641   1.534   6.841   4.847
 9914SOL    HW230642   1.615   6.978   4.879
 9915SOL     OW30643   5.472   3.304   4.505
 9915SOL    HW130644   5.518   3.344   4.425
 9915SOL    HW230645   5.398   3.245   4.475
 9916SOL     OW30646   2.176   2.908   2.114
 9916SOL    HW130647   2.181   2.833   2.049
 9916SOL    HW230648   2.166   2.995   2.065
 9917SOL     OW30649   2.566   3.399   5.961
 9917SOL    HW130650   2.533   3.487   5.927
 9917SOL    HW230651   2.613   3.351   5.887
 9918SOL     OW30652   1.986   1.292   6.051
 9918SOL    HW130653   2.037   1.214   6.015
 9918SOL    HW230654   1.889   1.269   6.056
 9919SOL     OW30655   0.920   5.664   2.510
 9919SOL    HW130656   0.921   5.741   2.574
 9919SOL    HW230657   0.842   5.604   2.531
 9920SOL     OW30658   4.290   6.471   1.144
 9920SOL    HW130659   4.304   6.510   1.235
 9920SOL    HW230660   4.377   6.436   1.109
 9921SOL     OW30661   5.494   0.454   3.254
 9921SOL    HW130662   5.568   0.503   3.207
 9921SOL    HW230663   5.531   0.400   3.329
 9922SOL     OW30664   4.334   4.377   0.835
 9922SOL    HW130665   4.254   4.319   0.814
 9922SOL    HW230666   4.305   4.453   0.893
 9923SOL     OW30667   6.328   1.889   6.388
 9923SOL    HW130668   6.362   1.982   6.400
 9923SOL    HW230669   6.249   1.874   6.447
 9924SOL     OW30670   6.782   1.187   3.264
 9924SOL    HW130671   6.879   1.162   3.265
 9924SOL    HW230672   6.752   1.199   3.169
 9925SOL     OW30673   2.317   2.647   5.253
 9925SOL    HW130674   2.245   2.590   5.293
 9925SOL    HW230675   2.299   2.660   5.155
 9926SOL     OW30676   1.418   0.812   0.246
 9926SOL    HW130677   1.456   0.903   0.260
 9926SOL    HW230678   1.347   0.794   0.314
 9927SOL     OW30679   0.487   1.769   1.975
 9927SOL    HW130680   0.411   1.761   2.040
 9927SOL    HW230681   0.544   1.688   1.980
 9928SOL     OW30682   6.987   4.058   2.520
 9928SOL    HW130683   6.903   4.025   2.476
 9928SOL    HW230684   0.014   3.982   2.568
 9929SOL     OW30685   2.705   4.113   6.995
 9929SOL    HW130686   2.680   4.049   6.922
 9929SOL    HW230687   2.726   4.202   6.956
 9930SOL     OW30688   6.973   6.220   6.206
 9930SOL    HW130689   6.921   6.200   6.123
 9930SOL    HW230690   0.054   6.225   6.184
 9931SOL     OW30691   1.412   5.626   5.444
 9931SOL    HW130692   1.316   5.597   5.449
 9931SOL    HW230693   1.471   5.546   5.440
 9932SOL     OW30694   1.244   1.624   0.478
 9932SOL    HW130695   1.204   1.623   0.386
 9932SOL    HW230696   1.331   1.673   0.476
 9933SOL     OW30697   1.283   1.976   3.987
 9933SOL    HW130698   1.362   1.976   4.050
 9933SOL    HW230699   1.284   2.060   3.933
 9934SOL     OW30700   4.251   1.233   6.191
 9934SOL    HW130701   4.340   1.221   6.236
 9934SOL    HW230702   4.220   1.146   6.154
 9935SOL     OW30703   2.715   1.821   1.003
 9935SOL    HW130704   2.778   1.833   0.927
 9935SOL    HW230705   2.755   1.859   1.086
 9936SOL     OW30706   6.063   5.827   6.362
 9936SOL    HW130707   6.134   5.831   6.432
 9936SOL    HW230708   5.985   5.883   6.390
 9937SOL     OW30709   0.575   0.581   3.469
 9937SOL    HW130710   0.571   0.482   3.454
 9937SOL    HW230711   0.484   0.620   3.460
 9938SOL     OW30712   6.627   1.543   4.522
 9938SOL    HW130713   6.589   1.629   4.558
 9938SOL    HW230714   6.560   1.470   4.534
 9939SOL     OW30715   2.753   4.491   1.343
 9939SOL    HW130716   2.765   4.449   1.433
 9939SOL    HW230717   2.776   4.424   1.272
 9940SOL     OW30718   0.230   1.101   3.688
 9940SOL    HW130719   0.142   1.057   3.674
 9940SOL    HW230720   0.219   1.182   3.746
 9941SOL     OW30721   5.025   4.810   6.178
 9941SOL    HW130722   4.965   4.730   6.179
 9941SOL    HW230723   4.980   4.885   6.226
 9942SOL     OW30724   4.570   5.234   3.204
 9942SOL    HW130725   4.531   5.255   3.114
 9942SOL    HW230726   4.666   5.208   3.194
 9943SOL     OW30727   2.588   3.947   6.685
 9943SOL    HW130728   2.530   3.949   6.604
 9943SOL    HW230729   2.652   4.024   6.682
 9944SOL     OW30730   1.132   5.006   0.032
 9944SOL    HW130731   1.195   4.960   0.095
 9944SOL    HW230732   1.122   5.102   0.060
 9945SOL     OW30733   5.920   3.565   6.449
 9945SOL    HW130734   5.843   3.514   6.488
 9945SOL    HW230735   5.928   3.653   6.496
 9946SOL     OW30736   5.616   1.526   2.375
 9946SOL    HW130737   5.522   1.544   2.348
 9946SOL    HW230738   5.634   1.570   2.463
 9947SOL     OW30739   1.213   1.812   3.779
 9947SOL    HW130740   1.268   1.853   3.851
 9947SOL    HW230741   1.118   1.842   3.788
 9948SOL     OW30742   6.156   6.769   4.333
 9948SOL    HW130743   6.135   6.775   4.430
 9948SOL    HW230744   6.151   6.861   4.293
 9949SOL     OW30745   5.632   5.057   4.027
 9949SOL    HW130746   5.718   5.041   4.074
 9949SOL    HW230747   5.556   5.018   4.079
 9950SOL     OW30748   6.201   4.915   5.208
 9950SOL    HW130749   6.268   4.909   5.283
 9950SOL    HW230750   6.242   4.879   5.124
 9951SOL     OW30751   0.877   2.320   2.026
 9951SOL    HW130752   0.949   2.378   2.064
 9951SOL    HW230753   0.891   2.310   1.928
 9952SOL     OW30754   0.782   4.542   1.773
 9952SOL    HW130755   0.697   4.538   1.825
 9952SOL    HW230756   0.762   4.531   1.676
 9953SOL     OW30757   5.935   2.698   3.504
 9953SOL    HW130758   5.904   2.703   3.599
 9953SOL    HW230759   5.866   2.651   3.449
 9954SOL     OW30760   3.478   1.982   5.653
 9954SOL    HW130761   3.420   1.931   5.589
 9954SOL    HW230762   3.573   1.951   5.644
 9955SOL     OW30763   6.172   3.455   0.496
 9955SOL    HW130764   6.126   3.536   0.530
 9955SOL    HW230765   6.126   3.422   0.413
 9956SOL     OW30766   2.078   3.714   3.130
 9956SOL    HW130767   2.109   3.664   3.211
 9956SOL    HW230768   2.051   3.649   3.059
 9957SOL     OW30769   4.829   6.897   0.941
 9957SOL    HW130770   4.920   6.925   0.969
 9957SOL    HW230771   4.799   6.819   0.996
 9958SOL     OW30772   4.851   4.835   6.992
 9958SOL    HW130773   4.885   4.928   7.003
 9958SOL    HW230774   4.751   4.837   6.994
 9959SOL     OW30775   4.612   4.240   0.535
 9959SOL    HW130776   4.581   4.297   0.459
 9959SOL    HW230777   4.549   4.163   0.547
 9960SOL     OW30778   0.667   0.876   6.755
 9960SOL    HW130779   0.725   0.899   6.677
 9960SOL    HW230780   0.622   0.958   6.789
 9961SOL     OW30781   2.881   4.713   1.412
 9961SOL    HW130782   2.930   4.690   1.496
 9961SOL    HW230783   2.826   4.635   1.382
 9962SOL     OW30784   3.323   6.486   1.307
 9962SOL    HW130785   3.376   6.524   1.231
 9962SOL    HW230786   3.234   6.454   1.273
 9963SOL     OW30787   1.132   1.443   6.189
 9963SOL    HW130788   1.219   1.468   6.148
 9963SOL    HW230789   1.102   1.355   6.154
 9964SOL     OW30790   4.683   3.738   5.552
 9964SOL    HW130791   4.717   3.759   5.460
 9964SOL    HW230792   4.680   3.639   5.564
 9965SOL     OW30793   2.817   5.743   4.573
 9965SOL    HW130794   2.809   5.703   4.481
 9965SOL    HW230795   2.874   5.684   4.630
 9966SOL     OW30796   3.984   4.791   2.620
 9966SOL    HW130797   4.017   4.877   2.581
 9966SOL    HW230798   4.029   4.715   2.574
 9967SOL     OW30799   6.663   0.041   3.191
 9967SOL    HW130800   6.672   0.110   3.119
 9967SOL    HW230801   6.641   6.969   3.150
 9968SOL     OW30802   3.763   6.808   0.542
 9968SOL    HW130803   3.713   6.801   0.455
 9968SOL    HW230804   3.715   6.755   0.612
 9969SOL     OW30805   1.535   5.209   3.677
 9969SOL    HW130806   1.595   5.180   3.752
 9969SOL    HW230807   1.498   5.300   3.696
 9970SOL     OW30808   6.271   3.946   1.795
 9970SOL    HW130809   6.174   3.947   1.772
 9970SOL    HW230810   6.324   3.986   1.720
 9971SOL     OW30811   0.699   4.368   2.227
 9971SOL    HW130812   0.603   4.388   2.205
 9971SOL    HW230813   0.703   4.311   2.309
 9972SOL     OW30814   2.604   2.808   0.032
 9972SOL    HW130815   2.619   2.853   0.120
 9972SOL    HW230816   2.574   2.876   6.981
 9973SOL     OW30817   3.336   1.768   3.694
 9973SOL    HW130818   3.258   1.714   3.725
 9973SOL    HW230819   3.308   1.864   3.686
 9974SOL     OW30820   0.966   3.065   3.053
 9974SOL    HW130821   0.905   3.034   3.126
 9974SOL    HW230822   1.006   2.986   3.008
 9975SOL     OW30823   1.601   5.196   0.046
 9975SOL    HW130824   1.649   5.277   0.077
 9975SOL    HW230825   1.644   5.160   6.980
 9976SOL     OW30826   2.918   3.938   6.365
 9976SOL    HW130827   2.962   3.954   6.453
 9976SOL    HW230828   2.934   4.017   6.306
 9977SOL     OW30829   5.266   6.029   5.447
 9977SOL    HW130830   5.182   5.975   5.438
 9977SOL    HW230831   5.344   5.967   5.459
 9978SOL     OW30832   0.596   3.121   6.508
 9978SOL    HW130833   0.558   3.053   6.572
 9978SOL    HW230834   0.685   3.152   6.542
 9979SOL     OW30835   4.471   3.134   5.348
 9979SOL    HW130836   4.373   3.133   5.364
 9979SOL    HW230837   4.505   3.227   5.355
 9980SOL     OW30838   1.692   0.525   0.566
 9980SOL    HW130839   1.616   0.460   0.576
 9980SOL    HW230840   1.654   0.617   0.553
 9981SOL     OW30841   0.752   2.858   1.805
 9981SOL    HW130842   0.824   2.809   1.854
 9981SOL    HW230843   0.792   2.920   1.738
 9982SOL     OW30844   2.194   2.010   5.379
 9982SOL    HW130845   2.288   2.044   5.391
 9982SOL    HW230846   2.133   2.061   5.440
 9983SOL     OW30847   0.491   3.119   1.767
 9983SOL    HW130848   0.493   3.019   1.763
 9983SOL    HW230849   0.561   3.151   1.831
 9984SOL     OW30850   6.546   6.307   0.561
 9984SOL    HW130851   6.563   6.308   0.462
 9984SOL    HW230852   6.471   6.245   0.581
 9985SOL     OW30853   4.219   5.344   0.723
 9985SOL    HW130854   4.211   5.414   0.651
 9985SOL    HW230855   4.138   5.285   0.720
 9986SOL     OW30856   5.102   4.267   0.463
 9986SOL    HW130857   5.121   4.272   0.365
 9986SOL    HW230858   5.005   4.246   0.478
 9987SOL     OW30859   5.626   2.979   1.838
 9987SOL    HW130860   5.638   3.066   1.790
 9987SOL    HW230861   5.645   2.904   1.776
 9988SOL     OW30862   4.973   6.301   4.381
 9988SOL    HW130863   5.023   6.292   4.295
 9988SOL    HW230864   5.022   6.363   4.442
 9989SOL     OW30865   6.261   5.006   2.195
 9989SOL    HW130866   6.220   5.072   2.132
 9989SOL    HW230867   6.339   5.048   2.240
 9990SOL     OW30868   0.389   0.350   3.862
 9990SOL    HW130869   0.320   0.285   3.831
 9990SOL    HW230870   0.403   0.420   3.792
 9991SOL     OW30871   1.696   4.407   4.177
 9991SOL    HW130872   1.613   4.457   4.199
 9991SOL    HW230873   1.680   4.309   4.190
 9992SOL     OW30874   3.177   4.639   0.907
 9992SOL    HW130875   3.105   4.629   0.975
 9992SOL    HW230876   3.162   4.723   0.854
 9993SOL     OW30877   3.961   6.804   4.321
 9993SOL    HW130878   4.023   6.730   4.300
 9993SOL    HW230879   3.941   6.805   4.419
 9994SOL     OW30880   6.415   5.258   4.433
 9994SOL    HW130881   6.505   5.272   4.474
 9994SOL    HW230882   6.352   5.221   4.502
 9995SOL     OW30883   2.790   0.765   5.043
 9995SOL    HW130884   2.889   0.757   5.048
 9995SOL    HW230885   2.764   0.818   4.962
 9996SOL     OW30886   1.929   4.280   0.695
 9996SOL    HW130887   1.970   4.212   0.756
 9996SOL    HW230888   1.966   4.269   0.603
 9997SOL     OW30889   6.215   3.022   4.237
 9997SOL    HW130890   6.310   3.053   4.233
 9997SOL    HW230891   6.201   2.971   4.322
 9998SOL     OW30892   5.092   4.102   2.693
 9998SOL    HW130893   5.075   4.119   2.596
 9998SOL    HW230894   5.013   4.055   2.733
 9999SOL     OW30895   0.565   6.497   4.592
 9999SOL    HW130896   0.554   6.520   4.495
 9999SOL    HW230897   0.503   6.422   4.615
10000SOL     OW30898   5.194   1.779   1.639
10000SOL    HW130899   5.156   1.778   1.547
10000SOL    HW230900   5.222   1.872   1.663
10001SOL     OW30901   3.824   5.773   2.047
10001SOL    HW130902   3.811   5.850   1.984
10001SOL    HW230903   3.757   5.702   2.026
10002SOL     OW30904   2.425   0.773   1.788
10002SOL    HW130905   2.446   0.707   1.716
10002SOL    HW230906   2.509   0.821   1.815
10003SOL     OW30907   1.584   1.135   3.269
10003SOL    HW130908   1.515   1.202   3.296
10003SOL    HW230909   1.566   1.048   3.315
10004SOL     OW30910   6.383   4.910   4.997
10004SOL    HW130911   6.445   4.980   5.034
10004SOL    HW230912   6.397   4.903   4.898
10005SOL     OW30913   2.048   5.956   3.480
10005SOL    HW130914   1.949   5.966   3.474
10005SOL    HW230915   2.076   5.951   3.576
10006SOL     OW30916   5.441   0.315   5.770
10006SOL    HW130917   5.416   0.301   5.866
10006SOL    HW230918   5.361   0.300   5.713
10007SOL     OW30919   1.253   5.133   4.872
10007SOL    HW130920   1.233   5.160   4.966
10007SOL    HW230921   1.329   5.068   4.871
10008SOL     OW30922   4.108   1.914   5.703
10008SOL    HW130923   4.148   1.919   5.795
10008SOL    HW230924   4.177   1.939   5.636
10009SOL     OW30925   1.323   4.530   1.517
10009SOL    HW130926   1.364   4.544   1.427
10009SOL    HW230927   1.227   4.502   1.506
10010SOL     OW30928   2.468   4.897   6.804
10010SOL    HW130929   2.548   4.872   6.751
10010SOL    HW230930   2.433   4.986   6.774
10011SOL     OW30931   0.818   3.405   0.458
10011SOL    HW130932   0.749   3.334   0.469
10011SOL    HW230933   0.773   3.491   0.432
10012SOL     OW30934   4.909   1.264   1.787
10012SOL    HW130935   4.876   1.226   1.873
10012SOL    HW230936   4.964   1.196   1.739
10013SOL     OW30937   1.350   6.065   4.693
10013SOL    HW130938   1.252   6.049   4.680
10013SOL    HW230939   1.388   5.990   4.748
10014SOL     OW30940   0.712   6.592   3.304
10014SOL    HW130941   0.771   6.656   3.354
10014SOL    HW230942   0.618   6.600   3.337
10015SOL     OW30943   4.011   4.626   5.598
10015SOL    HW130944   4.006   4.585   5.507
10015SOL    HW230945   3.945   4.701   5.605
10016SOL     OW30946   2.206   6.824   3.669
10016SOL    HW130947   2.200   6.749   3.735
10016SOL    HW230948   2.181   6.791   3.578
10017SOL     OW30949   2.694   1.763   2.873
10017SOL    HW130950   2.722   1.832   2.807
10017SOL    HW230951   2.714   1.795   2.966
10018SOL     OW30952   6.381   3.395   5.699
10018SOL    HW130953   6.445   3.462   5.736
10018SOL    HW230954   6.430   3.309   5.679
10019SOL     OW30955   0.512   1.626   2.489
10019SOL    HW130956   0.582   1.588   2.549
10019SOL    HW230957   0.555   1.679   2.416
10020SOL     OW30958   6.842   0.594   2.052
10020SOL    HW130959   6.770   0.571   2.117
10020SOL    HW230960   6.810   0.667   1.992
10021SOL     OW30961   1.426   3.898   1.782
10021SOL    HW130962   1.516   3.869   1.749
10021SOL    HW230963   1.359   3.826   1.764
10022SOL     OW30964   3.025   6.503   0.331
10022SOL    HW130965   3.100   6.524   0.393
10022SOL    HW230966   2.987   6.413   0.353
10023SOL     OW30967   2.515   0.091   5.894
10023SOL    HW130968   2.421   0.118   5.913
10023SOL    HW230969   2.520   0.046   5.805
10024SOL     OW30970   1.524   4.545   2.946
10024SOL    HW130971   1.502   4.505   2.857
10024SOL    HW230972   1.606   4.601   2.938
10025SOL     OW30973   1.517   4.244   1.396
10025SOL    HW130974   1.447   4.198   1.452
10025SOL    HW230975   1.501   4.343   1.398
10026SOL     OW30976   5.012   1.362   3.125
10026SOL    HW130977   5.046   1.352   3.218
10026SOL    HW230978   4.912   1.364   3.126
10027SOL     OW30979   1.835   1.934   5.649
10027SOL    HW130980   1.812   1.851   5.701
10027SOL    HW230981   1.780   2.010   5.683
10028SOL     OW30982   3.997   0.384   1.624
10028SOL    HW130983   3.974   0.387   1.527
10028SOL    HW230984   4.026   0.475   1.654
10029SOL     OW30985   0.490   3.246   4.527
10029SOL    HW130986   0.485   3.152   4.561
10029SOL    HW230987   0.400   3.290   4.535
10030SOL     OW30988   2.620   6.651   4.597
10030SOL    HW130989   2.536   6.705   4.599
10030SOL    HW230990   2.614   6.581   4.526
10031SOL     OW30991   3.777   5.507   4.281
10031SOL    HW130992   3.871   5.531   4.307
10031SOL    HW230993   3.748   5.426   4.331
10032SOL     OW30994   3.296   5.878   5.250
10032SOL    HW130995   3.355   5.919   5.320
10032SOL    HW230996   3.263   5.789   5.281
10033SOL     OW30997   3.957   1.885   2.975
10033SOL    HW130998   3.923   1.976   2.951
10033SOL    HW230999   3.943   1.868   3.073
10034SOL     OW31000   2.090   0.658   3.166
10034SOL    HW131001   2.050   0.622   3.081
10034SOL    HW231002   2.188   0.643   3.166
10035SOL     OW31003   6.086   2.993   0.884
10035SOL    HW131004   6.028   2.958   0.957
10035SOL    HW231005   6.030   3.014   0.804
10036SOL     OW31006   6.397   0.537   6.569
10036SOL    HW131007   6.350   0.548   6.657
10036SOL    HW231008   6.495   0.553   6.581
10037SOL     OW31009   6.456   6.809   6.625
10037SOL    HW131010   6.497   6.741   6.564
10037SOL    HW231011   6.525   6.876   6.651
10038SOL     OW31012   4.189   0.224   6.952
10038SOL    HW131013   4.127   0.288   6.996
10038SOL    HW231014   4.276   0.222   7.001
10039SOL     OW31015   5.468   5.230   4.365
10039SOL    HW131016   5.459   5.176   4.281
10039SOL    HW231017   5.466   5.327   4.342
10040SOL     OW31018   3.706   0.187   0.390
10040SOL    HW131019   3.688   0.168   0.487
10040SOL    HW231020   3.637   0.252   0.356
10041SOL     OW31021   6.219   4.771   5.591
10041SOL    HW131022   6.138   4.828   5.576
10041SOL    HW231023   6.301   4.822   5.562
10042SOL     OW31024   0.470   1.177   5.029
10042SOL    HW131025   0.469   1.267   4.986
10042SOL    HW231026   0.505   1.185   5.123
10043SOL     OW31027   0.920   0.918   3.227
10043SOL    HW131028   0.851   0.985   3.255
10043SOL    HW231029   0.961   0.877   3.309
10044SOL     OW31030   2.143   0.892   4.919
10044SOL    HW131031   2.087   0.868   4.840
10044SOL    HW231032   2.175   0.809   4.963
10045SOL     OW31033   4.410   6.790   4.182
10045SOL    HW131034   4.442   6.880   4.210
10045SOL    HW231035   4.478   6.721   4.205
10046SOL     OW31036   0.038   2.199   1.348
10046SOL    HW131037   0.011   2.183   1.443
10046SOL    HW231038   0.114   2.265   1.346
10047SOL     OW31039   6.298   2.304   4.911
10047SOL    HW131040   6.261   2.237   4.974
10047SOL    HW231041   6.326   2.259   4.826
10048SOL     OW31042   3.561   1.314   1.786
10048SOL    HW131043   3.524   1.298   1.877
10048SOL    HW231044   3.642   1.373   1.792
10049SOL     OW31045   1.950   0.600   6.651
10049SOL    HW131046   2.027   0.541   6.628
10049SOL    HW231047   1.935   0.598   6.750
10050SOL     OW31048   5.068   2.884   4.758
10050SOL    HW131049   5.054   2.900   4.660
10050SOL    HW231050   5.128   2.954   4.796
10051SOL     OW31051   6.999   3.123   4.552
10051SOL    HW131052   6.963   3.114   4.459
10051SOL    HW231053   0.079   3.097   4.552
10052SOL     OW31054   1.964   3.485   1.626
10052SOL    HW131055   2.001   3.505   1.536
10052SOL    HW231056   1.872   3.524   1.634
10053SOL     OW31057   3.585   5.046   3.464
10053SOL    HW131058   3.623   5.132   3.430
10053SOL    HW231059   3.507   5.020   3.407
10054SOL     OW31060   4.526   5.610   5.973
10054SOL    HW131061   4.560   5.650   6.058
10054SOL    HW231062   4.427   5.595   5.980
10055SOL     OW31063   6.778   2.515   5.236
10055SOL    HW131064   6.747   2.478   5.324
10055SOL    HW231065   6.729   2.471   5.162
10056SOL     OW31066   6.272   4.851   0.980
10056SOL    HW131067   6.274   4.912   0.901
10056SOL    HW231068   6.196   4.786   0.971
10057SOL     OW31069   4.037   1.908   4.657
10057SOL    HW131070   4.005   2.001   4.640
10057SOL    HW231071   4.034   1.889   4.756
10058SOL     OW31072   5.938   4.986   3.264
10058SOL    HW131073   5.934   5.012   3.361
10058SOL    HW231074   5.992   4.902   3.255
10059SOL     OW31075   5.139   0.121   0.769
10059SOL    HW131076   5.160   0.033   0.811
10059SOL    HW231077   5.187   0.129   0.682
10060SOL     OW31078   2.879   2.082   2.095
10060SOL    HW131079   2.872   2.182   2.095
10060SOL    HW231080   2.975   2.055   2.103
10061SOL     OW31081   6.091   0.867   4.048
10061SOL    HW131082   6.024   0.918   4.103
10061SOL    HW231083   6.143   0.806   4.107
10062SOL     OW31084   6.004   6.351   3.609
10062SOL    HW131085   6.050   6.433   3.576
10062SOL    HW231086   5.914   6.376   3.646
10063SOL     OW31087   1.131   2.833   3.333
10063SOL    HW131088   1.160   2.812   3.426
10063SOL    HW231089   1.071   2.761   3.299
10064SOL     OW31090   5.258   5.427   4.983
10064SOL    HW131091   5.352   5.416   4.951
10064SOL    HW231092   5.195   5.396   4.912
10065SOL     OW31093   1.546   6.591   1.973
10065SOL    HW131094   1.475   6.527   2.001
10065SOL    HW231095   1.585   6.635   2.055
10066SOL     OW31096   0.437   1.288   4.145
10066SOL    HW131097   0.511   1.283   4.211
10066SOL    HW231098   0.349   1.274   4.192
10067SOL     OW31099   5.305   4.884   4.396
10067SOL    HW131100   5.393   4.903   4.438
10067SOL    HW231101   5.259   4.811   4.447
10068SOL     OW31102   5.522   3.110   4.696
10068SOL    HW131103   5.490   3.175   4.626
10068SOL    HW231104   5.610   3.071   4.668
10069SOL     OW31105   2.224   1.045   3.800
10069SOL    HW131106   2.174   1.121   3.757
10069SOL    HW231107   2.279   0.998   3.731
10070SOL     OW31108   0.182   6.488   4.787
10070SOL    HW131109   0.183   6.569   4.846
10070SOL    HW231110   0.093   6.481   4.742
10071SOL     OW31111   4.315   5.251   3.992
10071SOL    HW131112   4.358   5.303   3.919
10071SOL    HW231113   4.382   5.231   4.063
10072SOL     OW31114   0.508   6.430   3.799
10072SOL    HW131115   0.584   6.469   3.852
10072SOL    HW231116   0.445   6.383   3.860
10073SOL     OW31117   5.942   4.512   4.633
10073SOL    HW131118   5.986   4.547   4.550
10073SOL    HW231119   5.965   4.415   4.644
10074SOL     OW31120   1.317   6.773   5.608
10074SOL    HW131121   1.287   6.857   5.563
10074SOL    HW231122   1.238   6.728   5.649
10075SOL     OW31123   1.365   2.648   3.190
10075SOL    HW131124   1.445   2.589   3.186
10075SOL    HW231125   1.284   2.597   3.160
10076SOL     OW31126   4.885   0.117   4.570
10076SOL    HW131127   4.790   0.114   4.602
10076SOL    HW231128   4.901   0.039   4.509
10077SOL     OW31129   3.961   2.329   6.811
10077SOL    HW131130   3.935   2.288   6.723
10077SOL    HW231131   3.957   2.429   6.804
10078SOL     OW31132   6.220   6.197   4.522
10078SOL    HW131133   6.303   6.250   4.505
10078SOL    HW231134   6.146   6.232   4.465
10079SOL     OW31135   1.480   3.013   2.010
10079SOL    HW131136   1.486   3.081   2.083
10079SOL    HW231137   1.565   3.014   1.957
10080SOL     OW31138   2.487   2.546   0.309
10080SOL    HW131139   2.455   2.526   0.402
10080SOL    HW231140   2.584   2.568   0.311
10081SOL     OW31141   0.907   0.390   6.163
10081SOL    HW131142   0.944   0.366   6.253
10081SOL    HW231143   0.923   0.314   6.099
10082SOL     OW31144   6.372   2.275   2.077
10082SOL    HW131145   6.370   2.374   2.095
10082SOL    HW231146   6.373   2.226   2.164
10083SOL     OW31147   4.615   1.451   3.718
10083SOL    HW131148   4.544   1.518   3.741
10083SOL    HW231149   4.702   1.497   3.704
10084SOL     OW31150   3.286   0.687   6.205
10084SOL    HW131151   3.210   0.705   6.143
10084SOL    HW231152   3.283   0.592   6.235
10085SOL     OW31153   0.492   4.983   2.921
10085SOL    HW131154   0.407   5.032   2.940
10085SOL    HW231155   0.550   4.983   3.002
10086SOL     OW31156   6.039   4.895   2.282
10086SOL    HW131157   6.121   4.946   2.259
10086SOL    HW231158   6.064   4.804   2.315
10087SOL     OW31159   1.023   1.241   4.200
10087SOL    HW131160   0.990   1.215   4.290
10087SOL    HW231161   0.958   1.304   4.157
10088SOL     OW31162   0.483   0.226   5.000
10088SOL    HW131163   0.438   0.307   4.963
10088SOL    HW231164   0.543   0.187   4.930
10089SOL     OW31165   2.809   1.298   2.982
10089SOL    HW131166   2.857   1.210   2.973
10089SOL    HW231167   2.815   1.348   2.896
10090SOL     OW31168   1.270   4.496   0.770
10090SOL    HW131169   1.224   4.524   0.686
10090SOL    HW231170   1.275   4.574   0.833
10091SOL     OW31171   1.289   3.674   4.606
10091SOL    HW131172   1.244   3.718   4.684
10091SOL    HW231173   1.350   3.739   4.561
10092SOL     OW31174   1.871   3.866   5.308
10092SOL    HW131175   1.950   3.831   5.357
10092SOL    HW231176   1.802   3.794   5.299
10093SOL     OW31177   0.496   4.939   5.179
10093SOL    HW131178   0.528   4.923   5.085
10093SOL    HW231179   0.479   4.851   5.224
10094SOL     OW31180   2.505   0.483   2.307
10094SOL    HW131181   2.508   0.383   2.317
10094SOL    HW231182   2.562   0.525   2.378
10095SOL     OW31183   5.935   1.578   5.254
10095SOL    HW131184   5.944   1.493   5.307
10095SOL    HW231185   5.971   1.563   5.162
10096SOL     OW31186   6.708   5.434   2.672
10096SOL    HW131187   6.612   5.439   2.699
10096SOL    HW231188   6.717   5.464   2.577
10097SOL     OW31189   1.006   0.792   0.373
10097SOL    HW131190   1.006   0.817   0.470
10097SOL    HW231191   0.966   0.865   0.319
10098SOL     OW31192   1.766   5.860   5.734
10098SOL    HW131193   1.681   5.913   5.743
10098SOL    HW231194   1.830   5.910   5.676
10099SOL     OW31195   0.068   3.896   5.770
10099SOL    HW131196   0.006   3.851   5.706
10099SOL    HW231197   0.033   3.886   5.863
10100SOL     OW31198   4.899   0.336   5.220
10100SOL    HW131199   4.876   0.278   5.298
10100SOL    HW231200   4.858   0.426   5.232
10101SOL     OW31201   6.812   4.677   2.300
10101SOL    HW131202   6.890   4.653   2.242
10101SOL    HW231203   6.813   4.619   2.382
10102SOL     OW31204   2.926   1.025   2.989
10102SOL    HW131205   2.850   0.965   2.965
10102SOL    HW231206   2.934   1.030   3.089
10103SOL     OW31207   3.357   1.549   5.065
10103SOL    HW131208   3.296   1.621   5.030
10103SOL    HW231209   3.315   1.508   5.146
10104SOL     OW31210   0.552   4.139   5.003
10104SOL    HW131211   0.556   4.194   5.086
10104SOL    HW231212   0.588   4.192   4.926
10105SOL     OW31213   1.425   1.321   6.182
10105SOL    HW131214   1.407   1.226   6.157
10105SOL    HW231215   1.465   1.325   6.273
10106SOL     OW31216   5.118   4.699   0.532
10106SOL    HW131217   5.157   4.607   0.534
10106SOL    HW231218   5.052   4.709   0.607
10107SOL     OW31219   6.580   1.636   5.852
10107SOL    HW131220   6.563   1.727   5.890
10107SOL    HW231221   6.619   1.578   5.923
10108SOL     OW31222   6.228   6.230   0.091
10108SOL    HW131223   6.190   6.162   0.027
10108SOL    HW231224   6.197   6.321   0.066
10109SOL     OW31225   3.894   6.305   2.845
10109SOL    HW131226   3.970   6.270   2.790
10109SOL    HW231227   3.853   6.229   2.897
10110SOL     OW31228   3.747   6.779   5.170
10110SOL    HW131229   3.695   6.725   5.103
10110SOL    HW231230   3.837   6.801   5.133
10111SOL     OW31231   6.998   3.837   3.697
10111SOL    HW131232   7.016   3.932   3.719
10111SOL    HW231233   7.014   3.822   3.599
10112SOL     OW31234   5.965   3.593   5.374
10112SOL    HW131235   6.007   3.614   5.462
10112SOL    HW231236   5.980   3.669   5.311
10113SOL     OW31237   4.107   1.143   0.159
10113SOL    HW131238   4.077   1.057   0.118
10113SOL    HW231239   4.201   1.134   0.191
10114SOL     OW31240   5.428   0.922   0.422
10114SOL    HW131241   5.470   0.892   0.508
10114SOL    HW231242   5.499   0.952   0.359
10115SOL     OW31243   2.471   2.207   3.487
10115SOL    HW131244   2.378   2.175   3.506
10115SOL    HW231245   2.490   2.287   3.544
10116SOL     OW31246   1.026   6.737   1.408
10116SOL    HW131247   1.089   6.677   1.358
10116SOL    HW231248   0.966   6.782   1.342
10117SOL     OW31249   6.423   0.325   4.167
10117SOL    HW131250   6.435   0.231   4.201
10117SOL    HW231251   6.340   0.330   4.113
10118SOL     OW31252   0.291   4.869   2.684
10118SOL    HW131253   0.274   4.930   2.762
10118SOL    HW231254   0.386   4.840   2.684
10119SOL     OW31255   2.281   6.716   4.182
10119SOL    HW131256   2.189   6.685   4.208
10119SOL    HW231257   2.277   6.813   4.160
10120SOL     OW31258   0.854   3.184   3.827
10120SOL    HW131259   0.840   3.243   3.906
10120SOL    HW231260   0.812   3.095   3.845
10121SOL     OW31261   6.620   5.050   5.001
10121SOL    HW131262   6.706   5.098   5.020
10121SOL    HW231263   6.608   5.039   4.903
10122SOL     OW31264   6.079   2.889   0.099
10122SOL    HW131265   6.042   2.967   0.150
10122SOL    HW231266   6.045   2.804   0.140
10123SOL     OW31267   6.616   5.991   0.565
10123SOL    HW131268   6.593   5.980   0.468
10123SOL    HW231269   6.595   6.084   0.594
10124SOL     OW31270   2.452   3.857   6.897
10124SOL    HW131271   2.519   3.892   6.831
10124SOL    HW231272   2.389   3.795   6.850
10125SOL     OW31273   1.697   0.687   2.610
10125SOL    HW131274   1.722   0.700   2.706
10125SOL    HW231275   1.738   0.603   2.575
10126SOL     OW31276   6.101   5.570   6.326
10126SOL    HW131277   6.080   5.531   6.415
10126SOL    HW231278   6.073   5.666   6.324
10127SOL     OW31279   3.265   5.699   5.895
10127SOL    HW131280   3.283   5.600   5.892
10127SOL    HW231281   3.352   5.748   5.902
10128SOL     OW31282   0.598   1.294   1.140
10128SOL    HW131283   0.543   1.210   1.137
10128SOL    HW231284   0.602   1.327   1.235
10129SOL     OW31285   4.588   2.637   3.805
10129SOL    HW131286   4.652   2.601   3.874
10129SOL    HW231287   4.520   2.567   3.784
10130SOL     OW31288   1.569   4.870   2.358
10130SOL    HW131289   1.519   4.803   2.413
10130SOL    HW231290   1.646   4.826   2.313
10131SOL     OW31291   0.426   2.082   2.598
10131SOL    HW131292   0.375   2.157   2.640
10131SOL    HW231293   0.516   2.115   2.571
10132SOL     OW31294   3.458   6.461   3.091
10132SOL    HW131295   3.420   6.501   3.008
10132SOL    HW231296   3.558   6.464   3.087
10133SOL     OW31297   4.465   6.232   2.880
10133SOL    HW131298   4.424   6.189   2.961
10133SOL    HW231299   4.491   6.326   2.902
10134SOL     OW31300   6.550   0.390   3.690
10134SOL    HW131301   6.546   0.386   3.590
10134SOL    HW231302   6.460   0.368   3.728
10135SOL     OW31303   4.893   3.774   2.864
10135SOL    HW131304   4.842   3.855   2.836
10135SOL    HW231305   4.860   3.694   2.814
10136SOL     OW31306   5.655   0.038   3.057
10136SOL    HW131307   5.626   6.964   3.087
10136SOL    HW231308   5.706   0.031   2.972
10137SOL     OW31309   0.042   5.382   3.947
10137SOL    HW131310   0.074   5.445   4.019
10137SOL    HW231311   0.056   5.424   3.858
10138SOL     OW31312   4.777   2.218   0.865
10138SOL    HW131313   4.839   2.146   0.835
10138SOL    HW231314   4.770   2.288   0.794
10139SOL     OW31315   3.898   3.123   2.589
10139SOL    HW131316   3.882   3.054   2.660
10139SOL    HW231317   3.917   3.077   2.502
10140SOL     OW31318   6.281   6.064   6.156
10140SOL    HW131319   6.263   5.987   6.217
10140SOL    HW231320   6.375   6.096   6.170
10141SOL     OW31321   3.167   2.227   4.366
10141SOL    HW131322   3.072   2.244   4.394
10141SOL    HW231323   3.223   2.210   4.448
10142SOL     OW31324   5.475   6.403   5.251
10142SOL    HW131325   5.538   6.326   5.239
10142SOL    HW231326   5.513   6.484   5.206
10143SOL     OW31327   4.510   0.202   1.305
10143SOL    HW131328   4.545   0.110   1.285
10143SOL    HW231329   4.583   0.257   1.344
10144SOL     OW31330   4.084   6.038   5.869
10144SOL    HW131331   4.045   5.968   5.929
10144SOL    HW231332   4.071   6.128   5.911
10145SOL     OW31333   3.188   5.818   5.640
10145SOL    HW131334   3.206   5.744   5.704
10145SOL    HW231335   3.193   5.784   5.546
10146SOL     OW31336   3.806   5.170   5.298
10146SOL    HW131337   3.783   5.132   5.387
10146SOL    HW231338   3.877   5.240   5.309
10147SOL     OW31339   5.138   4.711   4.530
10147SOL    HW131340   5.184   4.622   4.531
10147SOL    HW231341   5.065   4.711   4.599
10148SOL     OW31342   6.416   5.726   0.336
10148SOL    HW131343   6.441   5.633   0.310
10148SOL    HW231344   6.393   5.729   0.433
10149SOL     OW31345   4.890   2.408   0.311
10149SOL    HW131346   4.941   2.356   0.380
10149SOL    HW231347   4.955   2.456   0.251
10150SOL     OW31348   5.160   3.883   0.733
10150SOL    HW131349   5.139   3.912   0.827
10150SOL    HW231350   5.166   3.963   0.674
10151SOL     OW31351   1.644   0.153   6.263
10151SOL    HW131352   1.659   0.216   6.186
10151SOL    HW231353   1.702   0.180   6.340
10152SOL     OW31354   1.823   5.718   3.973
10152SOL    HW131355   1.731   5.682   3.965
10152SOL    HW231356   1.821   5.806   4.021
10153SOL     OW31357   4.253   5.936   3.893
10153SOL    HW131358   4.200   6.007   3.847
10153SOL    HW231359   4.192   5.859   3.915
10154SOL     OW31360   6.139   6.531   5.836
10154SOL    HW131361   6.092   6.619   5.837
10154SOL    HW231362   6.087   6.464   5.889
10155SOL     OW31363   4.153   1.483   6.078
10155SOL    HW131364   4.060   1.484   6.042
10155SOL    HW231365   4.182   1.388   6.093
10156SOL     OW31366   6.406   0.080   1.573
10156SOL    HW131367   6.345   0.004   1.554
10156SOL    HW231368   6.351   0.162   1.594
10157SOL     OW31369   5.691   2.009   5.836
10157SOL    HW131370   5.599   2.031   5.804
10157SOL    HW231371   5.712   2.063   5.918
10158SOL     OW31372   4.600   4.067   0.037
10158SOL    HW131373   4.616   4.020   0.124
10158SOL    HW231374   4.621   4.005   6.978
10159SOL     OW31375   2.977   3.392   6.317
10159SOL    HW131376   3.057   3.351   6.361
10159SOL    HW231377   2.896   3.374   6.373
10160SOL     OW31378   0.817   4.579   2.598
10160SOL    HW131379   0.768   4.558   2.683
10160SOL    HW231380   0.877   4.503   2.574
10161SOL     OW31381   3.503   4.677   0.482
10161SOL    HW131382   3.419   4.664   0.534
10161SOL    HW231383   3.521   4.597   0.425
10162SOL     OW31384   2.987   3.983   0.733
10162SOL    HW131385   3.069   3.981   0.791
10162SOL    HW231386   2.909   3.948   0.784
10163SOL     OW31387   5.849   4.205   6.440
10163SOL    HW131388   5.929   4.250   6.480
10163SOL    HW231389   5.844   4.228   6.342
10164SOL     OW31390   6.297   3.012   5.188
10164SOL    HW131391   6.348   3.060   5.117
10164SOL    HW231392   6.224   3.071   5.222
10165SOL     OW31393   1.891   2.434   4.009
10165SOL    HW131394   1.889   2.441   4.108
10165SOL    HW231395   1.922   2.343   3.982
10166SOL     OW31396   3.749   0.676   1.844
10166SOL    HW131397   3.721   0.772   1.838
10166SOL    HW231398   3.711   0.625   1.766
10167SOL     OW31399   4.340   1.517   6.702
10167SOL    HW131400   4.354   1.614   6.686
10167SOL    HW231401   4.429   1.471   6.704
10168SOL     OW31402   6.870   3.792   4.748
10168SOL    HW131403   6.801   3.850   4.791
10168SOL    HW231404   6.959   3.810   4.791
10169SOL     OW31405   6.692   3.829   3.255
10169SOL    HW131406   6.759   3.761   3.224
10169SOL    HW231407   6.701   3.842   3.354
10170SOL     OW31408   0.844   4.176   6.024
10170SOL    HW131409   0.750   4.205   6.011
10170SOL    HW231410   0.874   4.123   5.944
10171SOL     OW31411   6.398   3.979   6.659
10171SOL    HW131412   6.463   3.914   6.619
10171SOL    HW231413   6.319   3.990   6.600
10172SOL     OW31414   6.411   0.278   3.262
10172SOL    HW131415   6.402   0.253   3.165
10172SOL    HW231416   6.333   0.335   3.289
10173SOL     OW31417   1.781   2.115   1.104
10173SOL    HW131418   1.812   2.194   1.156
10173SOL    HW231419   1.686   2.094   1.130
10174SOL     OW31420   5.620   5.166   1.918
10174SOL    HW131421   5.608   5.164   2.018
10174SOL    HW231422   5.586   5.081   1.879
10175SOL     OW31423   6.784   2.615   3.997
10175SOL    HW131424   6.714   2.671   3.954
10175SOL    HW231425   6.805   2.651   4.088
10176SOL     OW31426   1.305   3.199   5.603
10176SOL    HW131427   1.226   3.260   5.601
10176SOL    HW231428   1.301   3.142   5.685
10177SOL     OW31429   2.288   0.359   0.311
10177SOL    HW131430   2.257   0.366   0.216
10177SOL    HW231431   2.374   0.409   0.323
10178SOL     OW31432   6.422   3.155   4.995
10178SOL    HW131433   6.495   3.205   5.042
10178SOL    HW231434   6.462   3.100   4.921
10179SOL     OW31435   1.152   1.431   5.841
10179SOL    HW131436   1.215   1.371   5.791
10179SOL    HW231437   1.140   1.515   5.789
10180SOL     OW31438   4.241   6.033   6.591
10180SOL    HW131439   4.181   5.953   6.585
10180SOL    HW231440   4.197   6.103   6.648
10181SOL     OW31441   4.984   3.481   2.038
10181SOL    HW131442   4.948   3.542   1.967
10181SOL    HW231443   4.926   3.401   2.045
10182SOL     OW31444   5.826   1.582   2.181
10182SOL    HW131445   5.777   1.534   2.107
10182SOL    HW231446   5.790   1.553   2.269
10183SOL     OW31447   0.767   2.009   6.242
10183SOL    HW131448   0.687   2.034   6.296
10183SOL    HW231449   0.834   1.964   6.301
10184SOL     OW31450   4.677   1.335   6.182
10184SOL    HW131451   4.617   1.374   6.252
10184SOL    HW231452   4.772   1.357   6.203
10185SOL     OW31453   4.874   6.012   1.635
10185SOL    HW131454   4.881   6.055   1.545
10185SOL    HW231455   4.838   5.920   1.626
10186SOL     OW31456   5.655   3.250   3.132
10186SOL    HW131457   5.708   3.331   3.155
10186SOL    HW231458   5.660   3.185   3.207
10187SOL     OW31459   0.528   2.166   1.749
10187SOL    HW131460   0.561   2.072   1.743
10187SOL    HW231461   0.447   2.177   1.690
10188SOL     OW31462   3.798   6.398   0.337
10188SOL    HW131463   3.790   6.431   0.431
10188SOL    HW231464   3.710   6.408   0.290
10189SOL     OW31465   2.679   0.886   5.268
10189SOL    HW131466   2.693   0.836   5.354
10189SOL    HW231467   2.727   0.840   5.194
10190SOL     OW31468   4.985   2.819   1.215
10190SOL    HW131469   4.976   2.736   1.161
10190SOL    HW231470   4.903   2.876   1.202
10191SOL     OW31471   4.455   4.312   6.705
10191SOL    HW131472   4.525   4.244   6.683
10191SOL    HW231473   4.371   4.265   6.733
10192SOL     OW31474   4.568   0.787   5.087
10192SOL    HW131475   4.562   0.883   5.061
10192SOL    HW231476   4.634   0.740   5.028
10193SOL     OW31477   4.324   3.687   1.640
10193SOL    HW131478   4.420   3.660   1.649
10193SOL    HW231479   4.281   3.689   1.730
10194SOL     OW31480   5.980   5.150   4.858
10194SOL    HW131481   6.010   5.223   4.921
10194SOL    HW231482   6.039   5.070   4.871
10195SOL     OW31483   6.178   4.470   1.277
10195SOL    HW131484   6.255   4.483   1.214
10195SOL    HW231485   6.120   4.551   1.275
10196SOL     OW31486   5.109   1.276   4.576
10196SOL    HW131487   5.093   1.332   4.494
10196SOL    HW231488   5.144   1.186   4.548
10197SOL     OW31489   6.947   2.171   4.969
10197SOL    HW131490   6.915   2.197   5.060
10197SOL    HW231491   6.917   2.240   4.903
10198SOL     OW31492   3.958   0.662   1.645
10198SOL    HW131493   3.915   0.679   1.734
10198SOL    HW231494   3.944   0.741   1.586
10199SOL     OW31495   2.463   2.724   6.377
10199SOL    HW131496   2.456   2.786   6.299
10199SOL    HW231497   2.530   2.761   6.442
10200SOL     OW31498   5.126   2.051   0.975
10200SOL    HW131499   5.081   2.052   1.065
10200SOL    HW231500   5.070   1.999   0.911
10201SOL     OW31501   0.647   4.578   0.659
10201SOL    HW131502   0.723   4.516   0.640
10201SOL    HW231503   0.661   4.620   0.749
10202SOL     OW31504   3.914   2.208   6.257
10202SOL    HW131505   3.946   2.300   6.278
10202SOL    HW231506   3.922   2.150   6.338
10203SOL     OW31507   5.574   3.017   4.314
10203SOL    HW131508   5.541   2.966   4.234
10203SOL    HW231509   5.500   3.027   4.380
10204SOL     OW31510   5.561   6.652   6.580
10204SOL    HW131511   5.557   6.752   6.580
10204SOL    HW231512   5.476   6.615   6.541
10205SOL     OW31513   0.375   1.559   0.685
10205SOL    HW131514   0.441   1.490   0.654
10205SOL    HW231515   0.419   1.619   0.751
10206SOL     OW31516   1.090   0.761   5.667
10206SOL    HW131517   1.032   0.820   5.611
10206SOL    HW231518   1.033   0.689   5.709
10207SOL     OW31519   1.117   1.999   6.673
10207SOL    HW131520   1.186   2.067   6.696
10207SOL    HW231521   1.105   1.937   6.750
10208SOL     OW31522   5.544   5.371   4.061
10208SOL    HW131523   5.462   5.349   4.010
10208SOL    HW231524   5.520   5.396   4.155
10209SOL     OW31525   6.795   7.015   5.997
10209SOL    HW131526   6.884   6.975   5.976
10209SOL    HW231527   6.781   0.000   6.096
10210SOL     OW31528   4.551   6.380   1.025
10210SOL    HW131529   4.562   6.469   0.982
10210SOL    HW231530   4.563   6.308   0.956
10211SOL     OW31531   3.416   6.690   4.802
10211SOL    HW131532   3.456   6.666   4.714
10211SOL    HW231533   3.319   6.665   4.802
10212SOL     OW31534   1.053   6.947   4.734
10212SOL    HW131535   0.963   6.915   4.765
10212SOL    HW231536   1.124   6.886   4.768
10213SOL     OW31537   4.549   2.786   1.171
10213SOL    HW131538   4.545   2.710   1.107
10213SOL    HW231539   4.549   2.751   1.265
10214SOL     OW31540   1.265   2.107   1.614
10214SOL    HW131541   1.169   2.126   1.637
10214SOL    HW231542   1.270   2.021   1.562
10215SOL     OW31543   3.870   3.270   3.078
10215SOL    HW131544   3.777   3.306   3.076
10215SOL    HW231545   3.898   3.254   3.173
10216SOL     OW31546   6.389   0.754   1.368
10216SOL    HW131547   6.479   0.794   1.349
10216SOL    HW231548   6.340   0.741   1.281
10217SOL     OW31549   2.374   0.907   3.603
10217SOL    HW131550   2.473   0.904   3.611
10217SOL    HW231551   2.341   0.821   3.562
10218SOL     OW31552   1.149   3.198   1.604
10218SOL    HW131553   1.098   3.279   1.635
10218SOL    HW231554   1.245   3.207   1.630
10219SOL     OW31555   0.035   1.663   2.125
10219SOL    HW131556   6.988   1.678   2.200
10219SOL    HW231557   0.129   1.682   2.155
10220SOL     OW31558   3.835   2.742   1.211
10220SOL    HW131559   3.781   2.797   1.147
10220SOL    HW231560   3.852   2.794   1.294
10221SOL     OW31561   0.832   5.361   2.984
10221SOL    HW131562   0.849   5.459   2.975
10221SOL    HW231563   0.763   5.334   2.917
10222SOL     OW31564   2.885   3.653   4.861
10222SOL    HW131565   2.867   3.634   4.957
10222SOL    HW231566   2.907   3.568   4.813
10223SOL     OW31567   0.609   5.175   0.818
10223SOL    HW131568   0.524   5.219   0.790
10223SOL    HW231569   0.661   5.235   0.878
10224SOL     OW31570   5.824   3.237   3.449
10224SOL    HW131571   5.845   3.195   3.537
10224SOL    HW231572   5.826   3.168   3.377
10225SOL     OW31573   1.623   3.988   5.645
10225SOL    HW131574   1.627   3.890   5.627
10225SOL    HW231575   1.558   4.005   5.720
10226SOL     OW31576   3.555   1.537   0.238
10226SOL    HW131577   3.515   1.492   0.159
10226SOL    HW231578   3.570   1.470   0.311
10227SOL     OW31579   5.144   3.654   0.476
10227SOL    HW131580   5.230   3.629   0.432
10227SOL    HW231581   5.152   3.745   0.516
10228SOL     OW31582   6.476   0.281   0.623
10228SOL    HW131583   6.532   0.358   0.591
10228SOL    HW231584   6.467   0.287   0.723
10229SOL     OW31585   0.505   3.138   4.912
10229SOL    HW131586   0.487   3.235   4.924
10229SOL    HW231587   0.443   3.085   4.971
10230SOL     OW31588   6.324   5.619   2.321
10230SOL    HW131589   6.294   5.636   2.228
10230SOL    HW231590   6.354   5.705   2.363
10231SOL     OW31591   1.574   5.930   3.764
10231SOL    HW131592   1.520   5.971   3.690
10231SOL    HW231593   1.653   5.988   3.784
10232SOL     OW31594   3.038   0.802   3.656
10232SOL    HW131595   3.091   0.773   3.576
10232SOL    HW231596   2.992   0.888   3.636
10233SOL     OW31597   3.932   3.910   5.616
10233SOL    HW131598   3.956   4.000   5.580
10233SOL    HW231599   4.001   3.882   5.683
10234SOL     OW31600   5.778   0.107   0.941
10234SOL    HW131601   5.699   0.067   0.895
10234SOL    HW231602   5.807   0.189   0.892
10235SOL     OW31603   1.180   1.337   2.972
10235SOL    HW131604   1.242   1.358   3.047
10235SOL    HW231605   1.234   1.309   2.892
10236SOL     OW31606   2.492   6.807   0.343
10236SOL    HW131607   2.488   6.723   0.288
10236SOL    HW231608   2.457   6.788   0.435
10237SOL     OW31609   0.456   3.167   6.959
10237SOL    HW131610   0.379   3.157   6.897
10237SOL    HW231611   0.526   3.225   6.917
10238SOL     OW31612   4.176   5.154   1.229
10238SOL    HW131613   4.269   5.174   1.199
10238SOL    HW231614   4.175   5.069   1.282
10239SOL     OW31615   1.595   2.731   4.574
10239SOL    HW131616   1.631   2.809   4.521
10239SOL    HW231617   1.532   2.765   4.644
10240SOL     OW31618   2.497   6.941   2.034
10240SOL    HW131619   2.572   6.992   2.075
10240SOL    HW231620   2.478   6.976   1.942
10241SOL     OW31621   4.884   1.780   1.991
10241SOL    HW131622   4.934   1.852   1.943
10241SOL    HW231623   4.941   1.697   1.995
10242SOL     OW31624   0.264   2.307   0.994
10242SOL    HW131625   0.220   2.384   1.041
10242SOL    HW231626   0.205   2.276   0.919
10243SOL     OW31627   2.163   4.629   1.146
10243SOL    HW131628   2.093   4.560   1.167
10243SOL    HW231629   2.246   4.609   1.197
10244SOL     OW31630   2.262   3.811   1.353
10244SOL    HW131631   2.304   3.866   1.426
10244SOL    HW231632   2.333   3.774   1.294
10245SOL     OW31633   3.616   3.813   0.772
10245SOL    HW131634   3.705   3.798   0.728
10245SOL    HW231635   3.621   3.782   0.867
10246SOL     OW31636   3.231   2.924   4.523
10246SOL    HW131637   3.153   2.974   4.559
10246SOL    HW231638   3.226   2.922   4.423
10247SOL     OW31639   0.843   4.319   4.863
10247SOL    HW131640   0.899   4.270   4.796
10247SOL    HW231641   0.890   4.323   4.951
10248SOL     OW31642   1.324   6.758   3.737
10248SOL    HW131643   1.329   6.840   3.795
10248SOL    HW231644   1.241   6.707   3.758
10249SOL     OW31645   1.852   4.854   6.758
10249SOL    HW131646   1.830   4.780   6.822
10249SOL    HW231647   1.950   4.851   6.737
10250SOL     OW31648   5.865   2.947   0.443
10250SOL    HW131649   5.855   2.852   0.472
10250SOL    HW231650   5.775   2.986   0.423
10251SOL     OW31651   1.628   0.508   3.781
10251SOL    HW131652   1.723   0.540   3.776
10251SOL    HW231653   1.614   0.433   3.717
10252SOL     OW31654   4.832   3.708   5.316
10252SOL    HW131655   4.825   3.672   5.222
10252SOL    HW231656   4.876   3.798   5.313
10253SOL     OW31657   3.990   6.733   6.891
10253SOL    HW131658   4.079   6.774   6.909
10253SOL    HW231659   3.938   6.791   6.828
10254SOL     OW31660   5.017   1.895   5.050
10254SOL    HW131661   5.075   1.815   5.032
10254SOL    HW231662   5.070   1.979   5.039
10255SOL     OW31663   2.767   5.830   1.127
10255SOL    HW131664   2.789   5.888   1.048
10255SOL    HW231665   2.817   5.863   1.207
10256SOL     OW31666   5.357   0.996   1.832
10256SOL    HW131667   5.268   0.961   1.863
10256SOL    HW231668   5.396   1.055   1.902
10257SOL     OW31669   2.937   5.015   3.280
10257SOL    HW131670   2.978   5.061   3.201
10257SOL    HW231671   3.003   5.015   3.356
10258SOL     OW31672   3.226   2.160   3.053
10258SOL    HW131673   3.289   2.205   3.117
10258SOL    HW231674   3.206   2.068   3.086
10259SOL     OW31675   1.189   4.125   4.039
10259SOL    HW131676   1.193   4.026   4.051
10259SOL    HW231677   1.097   4.157   4.059
10260SOL     OW31678   1.489   1.289   3.494
10260SOL    HW131679   1.402   1.314   3.451
10260SOL    HW231680   1.474   1.267   3.590
10261SOL     OW31681   0.210   3.606   0.686
10261SOL    HW131682   0.255   3.617   0.597
10261SOL    HW231683   0.204   3.509   0.708
10262SOL     OW31684   3.748   0.920   6.715
10262SOL    HW131685   3.791   0.835   6.684
10262SOL    HW231686   3.731   0.980   6.637
10263SOL     OW31687   6.183   0.596   0.557
10263SOL    HW131688   6.233   0.646   0.487
10263SOL    HW231689   6.144   0.661   0.623
10264SOL     OW31690   5.823   5.027   6.256
10264SOL    HW131691   5.734   4.983   6.246
10264SOL    HW231692   5.865   4.997   6.342
10265SOL     OW31693   2.046   2.653   0.769
10265SOL    HW131694   2.044   2.553   0.774
10265SOL    HW231695   2.140   2.683   0.751
10266SOL     OW31696   3.159   3.086   3.108
10266SOL    HW131697   3.149   2.993   3.144
10266SOL    HW231698   3.166   3.083   3.009
10267SOL     OW31699   5.168   0.928   0.392
10267SOL    HW131700   5.133   0.975   0.310
10267SOL    HW231701   5.267   0.937   0.395
10268SOL     OW31702   5.648   6.919   1.556
10268SOL    HW131703   5.682   6.924   1.651
10268SOL    HW231704   5.700   6.982   1.499
10269SOL     OW31705   1.401   2.540   6.717
10269SOL    HW131706   1.389   2.556   6.815
10269SOL    HW231707   1.337   2.597   6.666
10270SOL     OW31708   3.539   6.417   2.128
10270SOL    HW131709   3.606   6.388   2.197
10270SOL    HW231710   3.459   6.455   2.174
10271SOL     OW31711   3.079   2.151   0.949
10271SOL    HW131712   3.061   2.222   0.881
10271SOL    HW231713   3.095   2.193   1.038
10272SOL     OW31714   6.798   1.149   4.195
10272SOL    HW131715   6.731   1.107   4.134
10272SOL    HW231716   6.821   1.241   4.161
10273SOL     OW31717   2.968   5.077   4.414
10273SOL    HW131718   2.949   4.981   4.395
10273SOL    HW231719   2.927   5.102   4.503
10274SOL     OW31720   0.457   4.976   5.537
10274SOL    HW131721   0.418   4.912   5.471
10274SOL    HW231722   0.483   5.060   5.490
10275SOL     OW31723   0.182   0.849   3.091
10275SOL    HW131724   0.089   0.883   3.097
10275SOL    HW231725   0.182   0.760   3.045
10276SOL     OW31726   4.566   5.476   5.486
10276SOL    HW131727   4.525   5.567   5.475
10276SOL    HW231728   4.598   5.465   5.580
10277SOL     OW31729   1.212   0.162   4.436
10277SOL    HW131730   1.213   0.073   4.389
10277SOL    HW231731   1.122   0.178   4.475
10278SOL     OW31732   0.156   0.597   4.996
10278SOL    HW131733   0.077   0.617   5.054
10278SOL    HW231734   0.142   0.637   4.906
10279SOL     OW31735   2.299   5.670   4.367
10279SOL    HW131736   2.396   5.693   4.373
10279SOL    HW231737   2.281   5.626   4.279
10280SOL     OW31738   5.720   3.486   0.433
10280SOL    HW131739   5.739   3.397   0.473
10280SOL    HW231740   5.765   3.557   0.487
10281SOL     OW31741   6.612   2.328   3.263
10281SOL    HW131742   6.519   2.335   3.229
10281SOL    HW231743   6.651   2.419   3.273
10282SOL     OW31744   4.859   3.255   3.203
10282SOL    HW131745   4.819   3.265   3.113
10282SOL    HW231746   4.869   3.158   3.225
10283SOL     OW31747   0.400   3.719   1.067
10283SOL    HW131748   0.357   3.630   1.053
10283SOL    HW231749   0.341   3.777   1.122
10284SOL     OW31750   6.986   2.608   3.838
10284SOL    HW131751   0.024   2.628   3.920
10284SOL    HW231752   6.892   2.587   3.865
10285SOL     OW31753   4.203   6.882   3.248
10285SOL    HW131754   4.133   6.950   3.271
10285SOL    HW231755   4.221   6.825   3.329
10286SOL     OW31756   2.717   1.250   3.849
10286SOL    HW131757   2.778   1.173   3.868
10286SOL    HW231758   2.726   1.318   3.922
10287SOL     OW31759   2.080   5.869   1.750
10287SOL    HW131760   2.035   5.780   1.753
10287SOL    HW231761   2.029   5.934   1.806
10288SOL     OW31762   3.382   6.920   4.960
10288SOL    HW131763   3.435   7.001   4.935
10288SOL    HW231764   3.408   6.843   4.901
10289SOL     OW31765   3.249   6.122   0.754
10289SOL    HW131766   3.270   6.148   0.848
10289SOL    HW231767   3.218   6.027   0.752
10290SOL     OW31768   3.124   3.277   2.408
10290SOL    HW131769   3.046   3.314   2.357
10290SOL    HW231770   3.094   3.253   2.500
10291SOL     OW31771   3.155   1.082   3.418
10291SOL    HW131772   3.139   1.173   3.381
10291SOL    HW231773   3.252   1.072   3.442
10292SOL     OW31774   0.455   1.205   6.033
10292SOL    HW131775   0.471   1.156   5.947
10292SOL    HW231776   0.372   1.170   6.076
10293SOL     OW31777   0.819   3.725   3.735
10293SOL    HW131778   0.719   3.730   3.726
10293SOL    HW231779   0.852   3.641   3.691
10294SOL     OW31780   3.569   1.825   3.077
10294SOL    HW131781   3.554   1.761   3.152
10294SOL    HW231782   3.631   1.783   3.010
10295SOL     OW31783   1.114   2.681   6.156
10295SOL    HW131784   1.201   2.725   6.133
10295SOL    HW231785   1.096   2.608   6.090
10296SOL     OW31786   5.613   0.880   5.901
10296SOL    HW131787   5.563   0.798   5.875
10296SOL    HW231788   5.583   0.911   5.991
10297SOL     OW31789   2.650   1.680   6.993
10297SOL    HW131790   2.685   1.628   0.054
10297SOL    HW231791   2.724   1.697   6.928
10298SOL     OW31792   1.431   4.491   1.783
10298SOL    HW131793   1.362   4.502   1.711
10298SOL    HW231794   1.387   4.456   1.866
10299SOL     OW31795   4.625   6.705   2.270
10299SOL    HW131796   4.568   6.625   2.252
10299SOL    HW231797   4.672   6.733   2.186
10300SOL     OW31798   1.301   4.146   1.886
10300SOL    HW131799   1.392   4.142   1.927
10300SOL    HW231800   1.261   4.236   1.901
10301SOL     OW31801   3.958   1.838   5.330
10301SOL    HW131802   4.056   1.843   5.313
10301SOL    HW231803   3.923   1.930   5.351
10302SOL     OW31804   2.730   6.382   4.220
10302SOL    HW131805   2.777   6.451   4.274
10302SOL    HW231806   2.654   6.424   4.171
10303SOL     OW31807   0.940   5.974   3.829
10303SOL    HW131808   0.898   5.889   3.797
10303SOL    HW231809   0.869   6.042   3.849
10304SOL     OW31810   6.331   6.893   0.632
10304SOL    HW131811   6.291   6.967   0.577
10304SOL    HW231812   6.359   6.818   0.573
10305SOL     OW31813   3.196   3.980   6.144
10305SOL    HW131814   3.110   3.950   6.186
10305SOL    HW231815   3.187   4.074   6.113
10306SOL     OW31816   5.127   6.527   1.168
10306SOL    HW131817   5.120   6.465   1.246
10306SOL    HW231818   5.221   6.530   1.135
10307SOL     OW31819   3.195   1.632   4.479
10307SOL    HW131820   3.152   1.571   4.412
10307SOL    HW231821   3.287   1.655   4.447
10308SOL     OW31822   1.987   4.314   2.543
10308SOL    HW131823   1.970   4.225   2.585
10308SOL    HW231824   1.906   4.341   2.490
10309SOL     OW31825   6.474   0.775   5.540
10309SOL    HW131826   6.490   0.717   5.461
10309SOL    HW231827   6.379   0.766   5.570
10310SOL     OW31828   2.802   3.648   6.988
10310SOL    HW131829   2.727   3.611   0.027
10310SOL    HW231830   2.871   3.577   6.973
10311SOL     OW31831   6.174   5.463   0.476
10311SOL    HW131832   6.184   5.520   0.558
10311SOL    HW231833   6.124   5.380   0.499
10312SOL     OW31834   4.624   0.600   1.850
10312SOL    HW131835   4.526   0.602   1.864
10312SOL    HW231836   4.644   0.566   1.758
10313SOL     OW31837   3.889   6.061   2.977
10313SOL    HW131838   3.838   5.979   2.950
10313SOL    HW231839   3.980   6.035   3.009
10314SOL     OW31840   0.327   0.383   6.749
10314SOL    HW131841   0.330   0.305   6.812
10314SOL    HW231842   0.272   0.456   6.789
10315SOL     OW31843   5.137   6.612   3.794
10315SOL    HW131844   5.158   6.589   3.699
10315SOL    HW231845   5.208   6.673   3.830
10316SOL     OW31846   6.203   2.259   5.941
10316SOL    HW131847   6.178   2.338   5.998
10316SOL    HW231848   6.123   2.201   5.928
10317SOL     OW31849   3.575   6.107   6.047
10317SOL    HW131850   3.612   6.054   6.124
10317SOL    HW231851   3.642   6.107   5.972
10318SOL     OW31852   4.986   0.366   6.409
10318SOL    HW131853   5.071   0.375   6.357
10318SOL    HW231854   5.008   0.354   6.506
10319SOL     OW31855   0.685   4.549   5.723
10319SOL    HW131856   0.770   4.527   5.771
10319SOL    HW231857   0.667   4.478   5.654
10320SOL     OW31858   6.743   6.523   3.330
10320SOL    HW131859   6.782   6.431   3.328
10320SOL    HW231860   6.643   6.516   3.332
10321SOL     OW31861   5.591   2.019   2.199
10321SOL    HW131862   5.527   2.093   2.219
10321SOL    HW231863   5.607   2.014   2.100
10322SOL     OW31864   3.974   4.992   4.780
10322SOL    HW131865   4.034   4.912   4.774
10322SOL    HW231866   3.939   5.000   4.873
10323SOL     OW31867   6.162   5.229   5.269
10323SOL    HW131868   6.160   5.200   5.364
10323SOL    HW231869   6.251   5.206   5.229
10324SOL     OW31870   2.919   3.668   2.501
10324SOL    HW131871   2.885   3.582   2.540
10324SOL    HW231872   2.963   3.649   2.413
10325SOL     OW31873   0.139   5.018   2.467
10325SOL    HW131874   0.069   5.028   2.538
10325SOL    HW231875   0.209   4.955   2.499
10326SOL     OW31876   5.736   3.954   6.402
10326SOL    HW131877   5.784   4.039   6.379
10326SOL    HW231878   5.736   3.893   6.323
10327SOL     OW31879   2.497   3.230   1.637
10327SOL    HW131880   2.430   3.253   1.708
10327SOL    HW231881   2.569   3.172   1.677
10328SOL     OW31882   6.346   2.800   2.032
10328SOL    HW131883   6.274   2.760   2.089
10328SOL    HW231884   6.327   2.897   2.017
10329SOL     OW31885   2.863   0.616   2.909
10329SOL    HW131886   2.874   0.570   2.997
10329SOL    HW231887   2.813   0.556   2.847
10330SOL     OW31888   4.660   0.557   1.251
10330SOL    HW131889   4.599   0.620   1.205
10330SOL    HW231890   4.674   0.476   1.195
10331SOL     OW31891   6.426   5.879   6.773
10331SOL    HW131892   6.406   5.841   6.863
10331SOL    HW231893   6.500   5.827   6.730
10332SOL     OW31894   1.018   0.253   6.664
10332SOL    HW131895   1.065   0.235   6.578
10332SOL    HW231896   0.922   0.276   6.646
10333SOL     OW31897   0.280   5.958   4.819
10333SOL    HW131898   0.379   5.956   4.828
10333SOL    HW231899   0.238   5.967   4.909
10334SOL     OW31900   3.346   6.872   4.396
10334SOL    HW131901   3.354   6.775   4.374
10334SOL    HW231902   3.435   6.916   4.385
10335SOL     OW31903   1.562   4.445   6.482
10335SOL    HW131904   1.625   4.509   6.527
10335SOL    HW231905   1.528   4.379   6.549
10336SOL     OW31906   6.534   6.456   1.894
10336SOL    HW131907   6.534   6.501   1.804
10336SOL    HW231908   6.440   6.431   1.918
10337SOL     OW31909   6.946   5.445   0.052
10337SOL    HW131910   6.953   5.526   0.111
10337SOL    HW231911   0.005   5.445   7.003
10338SOL     OW31912   1.255   6.620   2.219
10338SOL    HW131913   1.273   6.696   2.282
10338SOL    HW231914   1.204   6.653   2.140
10339SOL     OW31915   6.262   3.434   6.403
10339SOL    HW131916   6.163   3.421   6.407
10339SOL    HW231917   6.282   3.531   6.389
10340SOL     OW31918   1.789   2.441   6.733
10340SOL    HW131919   1.730   2.418   6.811
10340SOL    HW231920   1.737   2.495   6.667
10341SOL     OW31921   2.049   3.566   2.206
10341SOL    HW131922   1.980   3.496   2.189
10341SOL    HW231923   2.126   3.552   2.144
10342SOL     OW31924   1.687   0.647   3.387
10342SOL    HW131925   1.643   0.561   3.361
10342SOL    HW231926   1.705   0.648   3.485
10343SOL     OW31927   2.731   5.102   0.615
10343SOL    HW131928   2.761   5.197   0.629
10343SOL    HW231929   2.794   5.056   0.552
10344SOL     OW31930   3.645   3.820   6.954
10344SOL    HW131931   3.651   3.807   6.855
10344SOL    HW231932   3.634   3.918   6.974
10345SOL     OW31933   1.579   3.128   5.558
10345SOL    HW131934   1.489   3.137   5.517
10345SOL    HW231935   1.594   3.202   5.624
10346SOL     OW31936   6.864   5.177   1.464
10346SOL    HW131937   6.894   5.262   1.421
10346SOL    HW231938   6.929   5.104   1.443
10347SOL     OW31939   4.615   1.266   3.407
10347SOL    HW131940   4.526   1.236   3.374
10347SOL    HW231941   4.622   1.365   3.398
10348SOL     OW31942   5.926   2.310   0.331
10348SOL    HW131943   5.863   2.366   0.277
10348SOL    HW231944   5.950   2.358   0.416
10349SOL     OW31945   0.433   0.317   6.502
10349SOL    HW131946   0.406   0.343   6.595
10349SOL    HW231947   0.475   0.396   6.457
10350SOL     OW31948   2.823   5.745   5.350
10350SOL    HW131949   2.749   5.749   5.282
10350SOL    HW231950   2.851   5.837   5.375
10351SOL     OW31951   4.667   5.255   5.920
10351SOL    HW131952   4.714   5.334   5.958
10351SOL    HW231953   4.636   5.195   5.995
10352SOL     OW31954   3.452   1.022   6.127
10352SOL    HW131955   3.463   0.967   6.044
10352SOL    HW231956   3.408   1.109   6.104
10353SOL     OW31957   6.578   2.931   4.916
10353SOL    HW131958   6.550   2.842   4.881
10353SOL    HW231959   6.677   2.933   4.927
10354SOL     OW31960   5.524   0.828   0.671
10354SOL    HW131961   5.556   0.872   0.755
10354SOL    HW231962   5.584   0.751   0.649
10355SOL     OW31963   2.983   5.843   2.124
10355SOL    HW131964   2.934   5.822   2.039
10355SOL    HW231965   3.077   5.808   2.118
10356SOL     OW31966   6.986   4.228   6.285
10356SOL    HW131967   6.941   4.302   6.236
10356SOL    HW231968   0.064   4.255   6.307
10357SOL     OW31969   2.357   2.100   5.965
10357SOL    HW131970   2.282   2.078   6.027
10357SOL    HW231971   2.407   2.179   6.000
10358SOL     OW31972   6.546   2.664   2.959
10358SOL    HW131973   6.447   2.654   2.957
10358SOL    HW231974   6.572   2.734   3.026
10359SOL     OW31975   0.454   1.504   1.314
10359SOL    HW131976   0.378   1.479   1.254
10359SOL    HW231977   0.485   1.424   1.365
10360SOL     OW31978   4.460   5.340   2.967
10360SOL    HW131979   4.509   5.400   2.904
10360SOL    HW231980   4.392   5.287   2.917
10361SOL     OW31981   2.797   5.925   2.334
10361SOL    HW131982   2.883   5.905   2.287
10361SOL    HW231983   2.721   5.890   2.280
10362SOL     OW31984   1.919   5.036   4.719
10362SOL    HW131985   1.856   5.069   4.648
10362SOL    HW231986   2.013   5.059   4.694
10363SOL     OW31987   5.620   0.820   2.958
10363SOL    HW131988   5.713   0.826   2.924
10363SOL    HW231989   5.574   0.909   2.946
10364SOL     OW31990   2.503   3.767   1.246
10364SOL    HW131991   2.510   3.698   1.319
10364SOL    HW231992   2.583   3.827   1.250
10365SOL     OW31993   4.046   5.314   0.090
10365SOL    HW131994   4.001   5.397   0.122
10365SOL    HW231995   4.038   5.308   7.007
10366SOL     OW31996   2.545   6.954   3.980
10366SOL    HW131997   2.617   7.001   4.032
10366SOL    HW231998   2.564   6.963   3.882
10367SOL     OW31999   5.902   1.903   3.032
10367SOL    HW132000   5.924   1.816   2.989
10367SOL    HW232001   5.917   1.897   3.130
10368SOL     OW32002   2.553   1.369   1.965
10368SOL    HW132003   2.529   1.298   2.031
10368SOL    HW232004   2.639   1.346   1.920
10369SOL     OW32005   3.941   1.556   0.993
10369SOL    HW132006   3.904   1.629   1.050
10369SOL    HW232007   3.868   1.519   0.936
10370SOL     OW32008   4.195   0.871   5.044
10370SOL    HW132009   4.132   0.798   5.070
10370SOL    HW232010   4.218   0.926   5.124
10371SOL     OW32011   4.004   5.649   5.483
10371SOL    HW132012   3.997   5.549   5.477
10371SOL    HW232013   4.083   5.673   5.540
10372SOL     OW32014   2.578   0.950   4.434
10372SOL    HW132015   2.540   1.035   4.471
10372SOL    HW232016   2.526   0.872   4.469
10373SOL     OW32017   1.242   6.794   4.868
10373SOL    HW132018   1.241   6.836   4.959
10373SOL    HW232019   1.303   6.846   4.808
10374SOL     OW32020   2.607   1.608   3.621
10374SOL    HW132021   2.575   1.624   3.715
10374SOL    HW232022   2.698   1.567   3.624
10375SOL     OW32023   5.530   2.140   0.943
10375SOL    HW132024   5.476   2.127   0.860
10375SOL    HW232025   5.625   2.116   0.925
10376SOL     OW32026   0.047   1.789   3.744
10376SOL    HW132027   0.070   1.704   3.793
10376SOL    HW232028   6.965   1.806   3.754
10377SOL     OW32029   0.638   0.717   3.703
10377SOL    HW132030   0.629   0.689   3.607
10377SOL    HW232031   0.548   0.718   3.746
10378SOL     OW32032   6.837   0.695   5.606
10378SOL    HW132033   6.906   0.657   5.544
10378SOL    HW232034   6.751   0.646   5.594
10379SOL     OW32035   5.342   0.157   5.184
10379SOL    HW132036   5.395   0.171   5.101
10379SOL    HW232037   5.351   0.238   5.243
10380SOL     OW32038   5.821   0.821   2.767
10380SOL    HW132039   5.903   0.793   2.715
10380SOL    HW232040   5.747   0.841   2.703
10381SOL     OW32041   4.931   5.440   5.786
10381SOL    HW132042   4.938   5.536   5.759
10381SOL    HW232043   4.918   5.434   5.884
10382SOL     OW32044   2.688   5.750   5.869
10382SOL    HW132045   2.659   5.703   5.786
10382SOL    HW232046   2.766   5.809   5.848
10383SOL     OW32047   0.977   3.284   0.694
10383SOL    HW132048   1.071   3.248   0.699
10383SOL    HW232049   0.955   3.306   0.599
10384SOL     OW32050   6.910   0.496   0.833
10384SOL    HW132051   7.004   0.466   0.813
10384SOL    HW232052   6.888   0.475   0.929
10385SOL     OW32053   6.012   0.772   6.068
10385SOL    HW132054   5.946   0.826   6.121
10385SOL    HW232055   5.967   0.736   5.986
10386SOL     OW32056   6.642   3.233   5.159
10386SOL    HW132057   6.608   3.182   5.238
10386SOL    HW232058   6.625   3.331   5.173
10387SOL     OW32059   2.059   2.603   2.824
10387SOL    HW132060   2.043   2.580   2.920
10387SOL    HW232061   2.142   2.659   2.816
10388SOL     OW32062   1.612   4.966   2.984
10388SOL    HW132063   1.614   5.045   2.922
10388SOL    HW232064   1.549   4.985   3.059
10389SOL     OW32065   1.454   4.814   3.801
10389SOL    HW132066   1.413   4.727   3.829
10389SOL    HW232067   1.451   4.822   3.701
10390SOL     OW32068   1.792   3.324   3.000
10390SOL    HW132069   1.717   3.281   2.949
10390SOL    HW232070   1.771   3.421   3.014
10391SOL     OW32071   1.842   6.257   6.887
10391SOL    HW132072   1.927   6.231   6.841
10391SOL    HW232073   1.789   6.176   6.909
10392SOL     OW32074   6.052   5.024   0.351
10392SOL    HW132075   6.146   4.995   0.367
10392SOL    HW232076   5.997   4.945   0.324
10393SOL     OW32077   0.366   1.615   4.135
10393SOL    HW132078   0.310   1.572   4.206
10393SOL    HW232079   0.461   1.620   4.167
10394SOL     OW32080   2.749   6.685   6.840
10394SOL    HW132081   2.695   6.755   6.887
10394SOL    HW232082   2.705   6.660   6.754
10395SOL     OW32083   6.980   0.746   4.420
10395SOL    HW132084   6.938   0.662   4.384
10395SOL    HW232085   6.968   0.820   4.354
10396SOL     OW32086   0.771   0.329   4.780
10396SOL    HW132087   0.861   0.371   4.793
10396SOL    HW232088   0.781   0.229   4.781
10397SOL     OW32089   3.707   0.957   3.811
10397SOL    HW132090   3.710   0.941   3.910
10397SOL    HW232091   3.800   0.962   3.776
10398SOL     OW32092   6.018   2.660   1.238
10398SOL    HW132093   6.110   2.677   1.273
10398SOL    HW232094   5.951   2.701   1.299
10399SOL     OW32095   5.109   2.237   5.191
10399SOL    HW132096   5.156   2.295   5.257
10399SOL    HW232097   5.030   2.286   5.153
10400SOL     OW32098   3.108   5.658   2.677
10400SOL    HW132099   3.042   5.728   2.649
10400SOL    HW232100   3.063   5.592   2.738
10401SOL     OW32101   0.624   5.522   2.097
10401SOL    HW132102   0.564   5.599   2.114
10401SOL    HW232103   0.603   5.448   2.162
10402SOL     OW32104   1.026   3.513   4.770
10402SOL    HW132105   0.945   3.474   4.814
10402SOL    HW232106   1.101   3.447   4.774
10403SOL     OW32107   5.512   1.352   1.834
10403SOL    HW132108   5.419   1.345   1.870
10403SOL    HW232109   5.516   1.426   1.767
10404SOL     OW32110   0.612   6.886   4.136
10404SOL    HW132111   0.693   6.838   4.103
10404SOL    HW232112   0.556   6.916   4.059
10405SOL     OW32113   1.786   6.286   5.546
10405SOL    HW132114   1.697   6.306   5.587
10405SOL    HW232115   1.857   6.297   5.615
10406SOL     OW32116   2.716   4.152   5.978
10406SOL    HW132117   2.781   4.085   5.942
10406SOL    HW232118   2.766   4.234   6.006
10407SOL     OW32119   1.073   2.275   6.300
10407SOL    HW132120   1.106   2.299   6.209
10407SOL    HW232121   1.113   2.337   6.368
10408SOL     OW32122   4.444   5.043   3.681
10408SOL    HW132123   4.391   5.002   3.755
10408SOL    HW232124   4.523   4.985   3.661
10409SOL     OW32125   0.319   4.187   1.969
10409SOL    HW132126   0.415   4.216   1.964
10409SOL    HW232127   0.266   4.256   2.019
10410SOL     OW32128   4.940   1.015   1.584
10410SOL    HW132129   4.867   1.032   1.517
10410SOL    HW232130   4.900   0.990   1.672
10411SOL     OW32131   2.184   4.647   2.933
10411SOL    HW132132   2.225   4.723   2.983
10411SOL    HW232133   2.253   4.577   2.916
10412SOL     OW32134   1.529   2.096   0.346
10412SOL    HW132135   1.545   2.195   0.345
10412SOL    HW232136   1.521   2.063   0.440
10413SOL     OW32137   6.886   2.328   0.031
10413SOL    HW132138   6.838   2.316   6.961
10413SOL    HW232139   6.850   2.262   0.098
10414SOL     OW32140   5.650   6.225   6.618
10414SOL    HW132141   5.698   6.162   6.678
10414SOL    HW232142   5.677   6.319   6.640
10415SOL     OW32143   0.351   6.009   4.046
10415SOL    HW132144   0.253   5.996   4.062
10415SOL    HW232145   0.401   5.998   4.132
10416SOL     OW32146   5.447   2.051   5.000
10416SOL    HW132147   5.491   1.996   4.928
10416SOL    HW232148   5.421   1.991   5.076
10417SOL     OW32149   3.776   4.851   3.534
10417SOL    HW132150   3.688   4.899   3.533
10417SOL    HW232151   3.825   4.873   3.618
10418SOL     OW32152   6.803   4.241   6.845
10418SOL    HW132153   6.705   4.221   6.836
10418SOL    HW232154   6.838   4.275   6.758
10419SOL     OW32155   3.502   1.420   4.835
10419SOL    HW132156   3.414   1.438   4.878
10419SOL    HW232157   3.488   1.375   4.747
10420SOL     OW32158   6.777   3.463   3.465
10420SOL    HW132159   6.702   3.529   3.473
10420SOL    HW232160   6.769   3.414   3.379
10421SOL     OW32161   1.224   4.751   4.178
10421SOL    HW132162   1.138   4.724   4.220
10421SOL    HW232163   1.300   4.704   4.223
10422SOL     OW32164   6.649   3.605   4.666
10422SOL    HW132165   6.580   3.665   4.626
10422SOL    HW232166   6.725   3.660   4.702
10423SOL     OW32167   3.449   4.943   3.918
10423SOL    HW132168   3.466   4.995   3.834
10423SOL    HW232169   3.382   4.871   3.899
10424SOL     OW32170   3.451   0.883   0.213
10424SOL    HW132171   3.426   0.973   0.248
10424SOL    HW232172   3.543   0.887   0.174
10425SOL     OW32173   1.661   1.305   0.417
10425SOL    HW132174   1.599   1.359   0.474
10425SOL    HW232175   1.632   1.210   0.417
10426SOL     OW32176   6.006   2.086   5.987
10426SOL    HW132177   5.957   2.008   5.949
10426SOL    HW232178   6.030   2.068   6.082
10427SOL     OW32179   5.969   6.302   4.644
10427SOL    HW132180   5.870   6.305   4.661
10427SOL    HW232181   5.998   6.207   4.633
10428SOL     OW32182   1.810   0.691   4.017
10428SOL    HW132183   1.797   0.774   3.961
10428SOL    HW232184   1.753   0.698   4.099
10429SOL     OW32185   1.177   3.223   2.809
10429SOL    HW132186   1.205   3.257   2.719
10429SOL    HW232187   1.096   3.166   2.800
10430SOL     OW32188   3.056   0.424   4.024
10430SOL    HW132189   3.123   0.490   4.058
10430SOL    HW232190   2.986   0.408   4.094
10431SOL     OW32191   2.835   1.220   3.484
10431SOL    HW132192   2.862   1.190   3.393
10431SOL    HW232193   2.735   1.220   3.491
10432SOL     OW32194   0.903   6.196   5.442
10432SOL    HW132195   0.822   6.203   5.501
10432SOL    HW232196   0.913   6.281   5.389
10433SOL     OW32197   1.892   6.872   2.483
10433SOL    HW132198   1.934   6.784   2.461
10433SOL    HW232199   1.804   6.857   2.529
10434SOL     OW32200   4.000   6.565   4.974
10434SOL    HW132201   3.942   6.602   4.901
10434SOL    HW232202   4.083   6.620   4.980
10435SOL     OW32203   1.550   2.087   6.711
10435SOL    HW132204   1.625   2.021   6.710
10435SOL    HW232205   1.513   2.097   6.618
10436SOL     OW32206   6.910   4.216   4.729
10436SOL    HW132207   6.984   4.266   4.684
10436SOL    HW232208   6.856   4.279   4.785
10437SOL     OW32209   4.895   5.814   5.085
10437SOL    HW132210   4.851   5.890   5.133
10437SOL    HW232211   4.898   5.833   4.987
10438SOL     OW32212   6.257   5.813   6.561
10438SOL    HW132213   6.293   5.838   6.651
10438SOL    HW232214   6.331   5.776   6.505
10439SOL     OW32215   6.581   6.670   4.565
10439SOL    HW132216   6.663   6.618   4.541
10439SOL    HW232217   6.517   6.669   4.488
10440SOL     OW32218   0.145   2.273   6.773
10440SOL    HW132219   0.081   2.302   6.844
10440SOL    HW232220   0.203   2.350   6.746
10441SOL     OW32221   3.565   2.051   1.321
10441SOL    HW132222   3.627   2.111   1.271
10441SOL    HW232223   3.618   1.979   1.367
10442SOL     OW32224   1.926   1.542   5.910
10442SOL    HW132225   1.943   1.471   5.978
10442SOL    HW232226   1.962   1.629   5.943
10443SOL     OW32227   0.375   2.133   2.971
10443SOL    HW132228   0.314   2.169   2.900
10443SOL    HW232229   0.386   2.034   2.958
10444SOL     OW32230   3.609   5.737   4.438
10444SOL    HW132231   3.543   5.687   4.383
10444SOL    HW232232   3.659   5.673   4.498
10445SOL     OW32233   1.542   4.121   2.699
10445SOL    HW132234   1.446   4.097   2.684
10445SOL    HW232235   1.592   4.040   2.732
10446SOL     OW32236   1.636   4.190   5.975
10446SOL    HW132237   1.715   4.176   6.035
10446SOL    HW232238   1.594   4.102   5.955
10447SOL     OW32239   0.214   2.196   2.717
10447SOL    HW132240   0.186   2.261   2.646
10447SOL    HW232241   0.159   2.113   2.710
10448SOL     OW32242   2.500   6.161   3.042
10448SOL    HW132243   2.469   6.191   3.132
10448SOL    HW232244   2.584   6.107   3.052
10449SOL     OW32245   4.237   5.438   5.508
10449SOL    HW132246   4.295   5.474   5.435
10449SOL    HW232247   4.229   5.506   5.581
10450SOL     OW32248   0.074   0.702   6.068
10450SOL    HW132249   0.171   0.702   6.045
10450SOL    HW232250   0.022   0.661   5.993
10451SOL     OW32251   2.306   0.907   3.286
10451SOL    HW132252   2.275   0.869   3.373
10451SOL    HW232253   2.339   1.000   3.301
10452SOL     OW32254   0.380   3.574   4.525
10452SOL    HW132255   0.309   3.535   4.466
10452SOL    HW232256   0.382   3.524   4.611
10453SOL     OW32257   3.937   5.639   3.291
10453SOL    HW132258   3.862   5.633   3.357
10453SOL    HW232259   3.944   5.553   3.240
10454SOL     OW32260   6.787   0.221   5.628
10454SOL    HW132261   6.734   0.288   5.576
10454SOL    HW232262   6.882   0.220   5.595
10455SOL     OW32263   6.171   6.356   3.899
10455SOL    HW132264   6.188   6.454   3.908
10455SOL    HW232265   6.075   6.341   3.875
10456SOL     OW32266   1.070   5.298   6.985
10456SOL    HW132267   0.983   5.332   6.950
10456SOL    HW232268   1.076   5.315   0.067
10457SOL     OW32269   3.355   2.272   6.958
10457SOL    HW132270   3.430   2.334   6.936
10457SOL    HW232271   3.326   2.223   6.876
10458SOL     OW32272   6.938   5.536   6.365
10458SOL    HW132273   6.904   5.626   6.393
10458SOL    HW232274   6.914   5.468   6.434
10459SOL     OW32275   0.360   5.231   0.378
10459SOL    HW132276   0.317   5.290   0.447
10459SOL    HW232277   0.288   5.190   0.322
10460SOL     OW32278   0.818   2.738   0.912
10460SOL    HW132279   0.802   2.701   0.820
10460SOL    HW232280   0.842   2.663   0.974
10461SOL     OW32281   0.287   5.165   5.094
10461SOL    HW132282   0.233   5.105   5.153
10461SOL    HW232283   0.374   5.186   5.138
10462SOL     OW32284   4.023   1.846   0.847
10462SOL    HW132285   4.039   1.888   0.758
10462SOL    HW232286   4.015   1.747   0.836
10463SOL     OW32287   4.845   2.992   6.191
10463SOL    HW132288   4.788   2.911   6.178
10463SOL    HW232289   4.936   2.975   6.155
10464SOL     OW32290   6.550   5.196   2.912
10464SOL    HW132291   6.509   5.283   2.885
10464SOL    HW232292   6.603   5.160   2.835
10465SOL     OW32293   5.214   4.449   2.157
10465SOL    HW132294   5.137   4.498   2.197
10465SOL    HW232295   5.291   4.450   2.221
10466SOL     OW32296   6.174   4.758   6.281
10466SOL    HW132297   6.210   4.694   6.213
10466SOL    HW232298   6.165   4.849   6.240
10467SOL     OW32299   1.604   2.923   0.143
10467SOL    HW132300   1.560   2.886   0.062
10467SOL    HW232301   1.558   3.007   0.171
10468SOL     OW32302   2.975   5.126   3.885
10468SOL    HW132303   3.017   5.037   3.901
10468SOL    HW232304   2.905   5.118   3.813
10469SOL     OW32305   6.297   1.618   4.676
10469SOL    HW132306   6.370   1.680   4.646
10469SOL    HW232307   6.273   1.638   4.771
10470SOL     OW32308   2.634   2.475   3.952
10470SOL    HW132309   2.570   2.504   4.024
10470SOL    HW232310   2.592   2.490   3.863
10471SOL     OW32311   3.020   6.776   0.432
10471SOL    HW132312   2.990   6.687   0.399
10471SOL    HW232313   3.037   6.837   0.355
10472SOL     OW32314   2.747   4.993   0.019
10472SOL    HW132315   2.730   5.049   0.099
10472SOL    HW232316   2.723   5.045   6.953
10473SOL     OW32317   5.004   4.611   6.994
10473SOL    HW132318   5.042   4.583   0.066
10473SOL    HW232319   4.957   4.698   7.004
10474SOL     OW32320   5.239   0.998   3.636
10474SOL    HW132321   5.324   1.029   3.678
10474SOL    HW232322   5.216   0.907   3.670
10475SOL     OW32323   0.874   6.565   1.599
10475SOL    HW132324   0.958   6.537   1.645
10475SOL    HW232325   0.895   6.595   1.505
10476SOL     OW32326   3.749   6.076   6.964
10476SOL    HW132327   3.702   6.031   0.023
10476SOL    HW232328   3.783   6.165   6.994
10477SOL     OW32329   6.146   6.198   3.244
10477SOL    HW132330   6.089   6.251   3.307
10477SOL    HW232331   6.100   6.192   3.155
10478SOL     OW32332   6.167   0.575   0.118
10478SOL    HW132333   6.097   0.569   0.047
10478SOL    HW232334   6.213   0.487   0.128
10479SOL     OW32335   0.200   2.449   2.199
10479SOL    HW132336   0.218   2.400   2.113
10479SOL    HW232337   0.114   2.417   2.238
10480SOL     OW32338   1.988   0.107   2.545
10480SOL    HW132339   1.964   0.024   2.495
10480SOL    HW232340   1.923   0.120   2.620
10481SOL     OW32341   0.212   0.712   2.693
10481SOL    HW132342   0.301   0.702   2.650
10481SOL    HW232343   0.174   0.802   2.671
10482SOL     OW32344   5.423   3.495   4.170
10482SOL    HW132345   5.377   3.415   4.132
10482SOL    HW232346   5.510   3.510   4.123
10483SOL     OW32347   5.939   5.679   0.734
10483SOL    HW132348   5.922   5.776   0.745
10483SOL    HW232349   5.911   5.650   0.642
10484SOL     OW32350   6.399   1.238   1.543
10484SOL    HW132351   6.410   1.139   1.545
10484SOL    HW232352   6.301   1.260   1.539
10485SOL     OW32353   5.443   3.375   5.474
10485SOL    HW132354   5.364   3.399   5.417
10485SOL    HW232355   5.525   3.418   5.437
10486SOL     OW32356   5.653   2.781   1.582
10486SOL    HW132357   5.722   2.722   1.541
10486SOL    HW232358   5.581   2.725   1.623
10487SOL     OW32359   6.150   6.589   1.202
10487SOL    HW132360   6.134   6.552   1.293
10487SOL    HW232361   6.073   6.647   1.176
10488SOL     OW32362   2.613   2.515   6.192
10488SOL    HW132363   2.607   2.593   6.253
10488SOL    HW232364   2.707   2.480   6.190
10489SOL     OW32365   6.911   5.451   6.084
10489SOL    HW132366   6.926   5.533   6.029
10489SOL    HW232367   6.920   5.473   6.181
10490SOL     OW32368   7.006   0.979   3.628
10490SOL    HW132369   6.986   0.881   3.617
10490SOL    HW232370   6.933   1.033   3.586
10491SOL     OW32371   2.383   4.521   6.105
10491SOL    HW132372   2.334   4.575   6.037
10491SOL    HW232373   2.347   4.428   6.106
10492SOL     OW32374   4.828   3.328   5.187
10492SOL    HW132375   4.814   3.284   5.275
10492SOL    HW232376   4.758   3.398   5.174
10493SOL     OW32377   3.838   0.858   1.461
10493SOL    HW132378   3.821   0.956   1.461
10493SOL    HW232379   3.755   0.810   1.492
10494SOL     OW32380   6.101   1.998   4.536
10494SOL    HW132381   6.019   2.017   4.589
10494SOL    HW232382   6.116   1.899   4.533
10495SOL     OW32383   1.575   6.663   0.731
10495SOL    HW132384   1.567   6.563   0.726
10495SOL    HW232385   1.651   6.693   0.673
10496SOL     OW32386   0.233   6.599   6.387
10496SOL    HW132387   0.154   6.559   6.434
10496SOL    HW232388   0.308   6.533   6.387
10497SOL     OW32389   1.372   0.464   1.097
10497SOL    HW132390   1.279   0.431   1.118
10497SOL    HW232391   1.367   0.559   1.067
10498SOL     OW32392   1.622   6.521   5.878
10498SOL    HW132393   1.652   6.427   5.861
10498SOL    HW232394   1.523   6.522   5.889
10499SOL     OW32395   3.091   5.635   3.353
10499SOL    HW132396   3.027   5.562   3.330
10499SOL    HW232397   3.077   5.713   3.293
10500SOL     OW32398   1.149   2.300   6.031
10500SOL    HW132399   1.202   2.244   5.968
10500SOL    HW232400   1.071   2.341   5.982
10501SOL     OW32401   1.993   3.689   2.739
10501SOL    HW132402   1.978   3.693   2.640
10501SOL    HW232403   2.034   3.775   2.770
10502SOL     OW32404   3.323   6.303   0.062
10502SOL    HW132405   3.337   6.324   0.159
10502SOL    HW232406   3.405   6.259   0.025
10503SOL     OW32407   2.981   2.865   0.237
10503SOL    HW132408   2.945   2.957   0.224
10503SOL    HW232409   2.949   2.806   0.163
10504SOL     OW32410   2.613   3.110   0.483
10504SOL    HW132411   2.698   3.113   0.535
10504SOL    HW232412   2.566   3.198   0.490
10505SOL     OW32413   6.599   5.955   1.539
10505SOL    HW132414   6.529   6.006   1.590
10505SOL    HW232415   6.623   5.873   1.590
10506SOL     OW32416   0.685   3.725   6.311
10506SOL    HW132417   0.733   3.641   6.283
10506SOL    HW232418   0.626   3.704   6.389
10507SOL     OW32419   1.143   0.507   6.483
10507SOL    HW132420   1.136   0.413   6.450
10507SOL    HW232421   1.144   0.570   6.405
10508SOL     OW32422   5.536   4.628   3.588
10508SOL    HW132423   5.546   4.623   3.687
10508SOL    HW232424   5.550   4.537   3.548
10509SOL     OW32425   1.136   6.427   6.230
10509SOL    HW132426   1.172   6.485   6.303
10509SOL    HW232427   1.107   6.339   6.269
10510SOL     OW32428   5.971   5.551   0.000
10510SOL    HW132429   6.046   5.606   6.979
10510SOL    HW232430   5.993   5.525   0.095
10511SOL     OW32431   4.054   2.804   0.548
10511SOL    HW132432   3.977   2.743   0.567
10511SOL    HW232433   4.020   2.890   0.511
10512SOL     OW32434   4.340   0.292   5.926
10512SOL    HW132435   4.341   0.207   5.873
10512SOL    HW232436   4.305   0.367   5.869
10513SOL     OW32437   0.459   2.506   5.988
10513SOL    HW132438   0.510   2.537   6.068
10513SOL    HW232439   0.456   2.581   5.921
10514SOL     OW32440   6.696   4.473   0.736
10514SOL    HW132441   6.680   4.409   0.661
10514SOL    HW232442   6.771   4.440   0.793
10515SOL     OW32443   6.653   1.904   3.725
10515SOL    HW132444   6.725   1.892   3.658
10515SOL    HW232445   6.579   1.839   3.707
10516SOL     OW32446   4.385   0.774   6.085
10516SOL    HW132447   4.309   0.743   6.142
10516SOL    HW232448   4.471   0.754   6.131
10517SOL     OW32449   6.423   1.642   2.469
10517SOL    HW132450   6.349   1.605   2.525
10517SOL    HW232451   6.409   1.615   2.374
10518SOL     OW32452   0.901   6.416   0.838
10518SOL    HW132453   0.871   6.503   0.879
10518SOL    HW232454   0.821   6.358   0.822
10519SOL     OW32455   3.531   3.177   6.086
10519SOL    HW132456   3.444   3.226   6.080
10519SOL    HW232457   3.525   3.092   6.035
10520SOL     OW32458   3.251   2.530   6.713
10520SOL    HW132459   3.305   2.605   6.752
10520SOL    HW232460   3.189   2.566   6.644
10521SOL     OW32461   6.609   6.176   1.366
10521SOL    HW132462   6.633   6.095   1.419
10521SOL    HW232463   6.527   6.158   1.312
10522SOL     OW32464   6.632   0.791   0.549
10522SOL    HW132465   6.589   0.705   0.521
10522SOL    HW232466   6.720   0.771   0.592
10523SOL     OW32467   6.737   5.422   5.833
10523SOL    HW132468   6.821   5.423   5.887
10523SOL    HW232469   6.759   5.403   5.737
10524SOL     OW32470   1.919   0.260   4.657
10524SOL    HW132471   1.990   0.193   4.676
10524SOL    HW232472   1.935   0.302   4.567
10525SOL     OW32473   1.896   6.726   5.071
10525SOL    HW132474   1.984   6.772   5.066
10525SOL    HW232475   1.866   6.703   4.978
10526SOL     OW32476   0.185   0.961   2.041
10526SOL    HW132477   0.269   0.985   1.993
10526SOL    HW232478   0.158   1.036   2.101
10527SOL     OW32479   0.890   2.508   4.439
10527SOL    HW132480   0.863   2.603   4.424
10527SOL    HW232481   0.891   2.459   4.352
10528SOL     OW32482   6.971   5.375   5.046
10528SOL    HW132483   6.989   5.403   4.951
10528SOL    HW232484   0.017   5.423   5.107
10529SOL     OW32485   0.094   0.053   3.505
10529SOL    HW132486   0.008   0.054   3.455
10529SOL    HW232487   0.160   7.011   3.458
10530SOL     OW32488   2.732   2.279   5.852
10530SOL    HW132489   2.705   2.343   5.780
10530SOL    HW232490   2.832   2.275   5.857
10531SOL     OW32491   1.468   3.491   4.694
10531SOL    HW132492   1.556   3.535   4.711
10531SOL    HW232493   1.407   3.556   4.649
10532SOL     OW32494   4.004   2.465   6.269
10532SOL    HW132495   4.008   2.528   6.347
10532SOL    HW232496   4.019   2.516   6.184
10533SOL     OW32497   2.923   1.367   5.339
10533SOL    HW132498   2.978   1.445   5.370
10533SOL    HW232499   2.829   1.398   5.322
10534SOL     OW32500   0.112   5.537   0.753
10534SOL    HW132501   0.140   5.482   0.832
10534SOL    HW232502   0.012   5.539   0.749
10535SOL     OW32503   0.395   1.107   2.241
10535SOL    HW132504   0.431   1.050   2.315
10535SOL    HW232505   0.440   1.197   2.244
10536SOL     OW32506   4.759   0.636   2.923
10536SOL    HW132507   4.807   0.719   2.894
10536SOL    HW232508   4.754   0.633   3.022
10537SOL     OW32509   3.192   5.466   2.504
10537SOL    HW132510   3.171   5.553   2.547
10537SOL    HW232511   3.110   5.409   2.501
10538SOL     OW32512   4.432   4.294   0.049
10538SOL    HW132513   4.474   4.204   0.036
10538SOL    HW232514   4.337   4.282   0.078
10539SOL     OW32515   0.562   3.305   6.042
10539SOL    HW132516   0.482   3.255   6.011
10539SOL    HW232517   0.602   3.260   6.121
10540SOL     OW32518   1.981   0.738   5.675
10540SOL    HW132519   1.898   0.700   5.635
10540SOL    HW232520   2.019   0.674   5.742
10541SOL     OW32521   3.859   3.559   0.250
10541SOL    HW132522   3.865   3.517   0.341
10541SOL    HW232523   3.903   3.649   0.252
10542SOL     OW32524   0.142   2.476   0.711
10542SOL    HW132525   0.103   2.519   0.630
10542SOL    HW232526   0.218   2.532   0.745
10543SOL     OW32527   0.445   1.838   5.765
10543SOL    HW132528   0.458   1.778   5.686
10543SOL    HW232529   0.478   1.929   5.743
10544SOL     OW32530   1.862   2.156   2.343
10544SOL    HW132531   1.955   2.192   2.343
10544SOL    HW232532   1.864   2.058   2.359
10545SOL     OW32533   6.821   0.036   2.396
10545SOL    HW132534   6.818   0.016   2.494
10545SOL    HW232535   6.777   6.979   2.346
10546SOL     OW32536   2.351   0.026   4.525
10546SOL    HW132537   2.406   0.062   4.601
10546SOL    HW232538   2.386   6.952   4.499
10547SOL     OW32539   4.428   1.621   1.400
10547SOL    HW132540   4.413   1.624   1.498
10547SOL    HW232541   4.494   1.692   1.374
10548SOL     OW32542   5.140   3.573   4.653
10548SOL    HW132543   5.064   3.638   4.647
10548SOL    HW232544   5.107   3.488   4.694
10549SOL     OW32545   0.935   0.139   2.232
10549SOL    HW132546   0.933   0.210   2.303
10549SOL    HW232547   0.925   0.050   2.275
10550SOL     OW32548   5.439   0.288   3.689
10550SOL    HW132549   5.478   0.351   3.756
10550SOL    HW232550   5.381   0.338   3.625
10551SOL     OW32551   1.370   2.189   5.372
10551SOL    HW132552   1.446   2.125   5.381
10551SOL    HW232553   1.379   2.240   5.286
10552SOL     OW32554   3.672   2.353   6.145
10552SOL    HW132555   3.666   2.435   6.088
10552SOL    HW232556   3.768   2.334   6.166
10553SOL     OW32557   0.787   5.786   0.070
10553SOL    HW132558   0.861   5.722   0.089
10553SOL    HW232559   0.728   5.748   7.015
10554SOL     OW32560   0.081   4.858   6.970
10554SOL    HW132561   0.067   4.781   6.908
10554SOL    HW232562   0.107   4.824   0.044
10555SOL     OW32563   3.360   1.456   2.351
10555SOL    HW132564   3.277   1.428   2.399
10555SOL    HW232565   3.346   1.449   2.252
10556SOL     OW32566   2.076   3.306   5.109
10556SOL    HW132567   2.140   3.348   5.174
10556SOL    HW232568   2.120   3.228   5.065
10557SOL     OW32569   6.794   2.552   3.185
10557SOL    HW132570   6.890   2.563   3.211
10557SOL    HW232571   6.788   2.529   3.088
10558SOL     OW32572   4.304   6.942   5.370
10558SOL    HW132573   4.352   6.970   5.453
10558SOL    HW232574   4.319   6.844   5.355
10559SOL     OW32575   4.338   1.734   0.959
10559SOL    HW132576   4.283   1.699   1.035
10559SOL    HW232577   4.293   1.813   0.918
10560SOL     OW32578   1.176   4.306   4.900
10560SOL    HW132579   1.111   4.235   4.872
10560SOL    HW232580   1.261   4.262   4.931
10561SOL     OW32581   1.944   5.080   6.359
10561SOL    HW132582   1.972   5.089   6.263
10561SOL    HW232583   1.901   4.990   6.372
10562SOL     OW32584   4.487   1.076   0.840
10562SOL    HW132585   4.579   1.047   0.814
10562SOL    HW232586   4.474   1.172   0.813
10563SOL     OW32587   2.180   1.741   5.419
10563SOL    HW132588   2.094   1.702   5.449
10563SOL    HW232589   2.175   1.841   5.424
10564SOL     OW32590   5.918   0.990   1.507
10564SOL    HW132591   5.896   0.932   1.428
10564SOL    HW232592   5.854   1.067   1.510
10565SOL     OW32593   6.729   0.932   5.350
10565SOL    HW132594   6.762   0.971   5.436
10565SOL    HW232595   6.646   0.979   5.322
10566SOL     OW32596   3.481   3.959   6.204
10566SOL    HW132597   3.383   3.971   6.193
10566SOL    HW232598   3.525   4.049   6.213
10567SOL     OW32599   2.154   3.557   4.151
10567SOL    HW132600   2.113   3.647   4.168
10567SOL    HW232601   2.159   3.505   4.236
10568SOL     OW32602   5.703   1.125   2.344
10568SOL    HW132603   5.619   1.137   2.291
10568SOL    HW232604   5.697   1.177   2.429
10569SOL     OW32605   5.967   3.170   2.988
10569SOL    HW132606   5.992   3.154   2.893
10569SOL    HW232607   5.950   3.083   3.034
10570SOL     OW32608   2.065   4.721   2.379
10570SOL    HW132609   2.133   4.685   2.316
10570SOL    HW232610   2.111   4.766   2.456
10571SOL     OW32611   6.413   5.970   2.780
10571SOL    HW132612   6.479   5.922   2.723
10571SOL    HW232613   6.343   6.012   2.722
10572SOL     OW32614   5.614   3.683   2.558
10572SOL    HW132615   5.696   3.714   2.510
10572SOL    HW232616   5.620   3.711   2.654
10573SOL     OW32617   6.319   5.605   3.971
10573SOL    HW132618   6.387   5.677   3.975
10573SOL    HW232619   6.361   5.518   3.998
10574SOL     OW32620   1.273   2.211   3.291
10574SOL    HW132621   1.292   2.121   3.251
10574SOL    HW232622   1.334   2.226   3.369
10575SOL     OW32623   1.135   1.159   5.075
10575SOL    HW132624   1.100   1.093   5.008
10575SOL    HW232625   1.099   1.250   5.054
10576SOL     OW32626   1.619   5.685   5.042
10576SOL    HW132627   1.702   5.724   5.003
10576SOL    HW232628   1.613   5.588   5.020
10577SOL     OW32629   1.781   3.081   6.096
10577SOL    HW132630   1.740   3.170   6.116
10577SOL    HW232631   1.807   3.077   5.999
10578SOL     OW32632   5.762   0.095   5.113
10578SOL    HW132633   5.714   0.012   5.084
10578SOL    HW232634   5.817   0.075   5.193
10579SOL     OW32635   4.279   1.998   0.794
10579SOL    HW132636   4.223   2.033   0.869
10579SOL    HW232637   4.224   1.996   0.710
10580SOL     OW32638   6.531   5.725   6.467
10580SOL    HW132639   6.582   5.647   6.503
10580SOL    HW232640   6.579   5.762   6.387
10581SOL     OW32641   5.603   0.797   3.871
10581SOL    HW132642   5.556   0.830   3.952
10581SOL    HW232643   5.673   0.862   3.843
10582SOL     OW32644   3.700   5.339   6.789
10582SOL    HW132645   3.782   5.296   6.828
10582SOL    HW232646   3.717   5.361   6.693
10583SOL     OW32647   3.709   1.011   0.142
10583SOL    HW132648   3.798   0.986   0.105
10583SOL    HW232649   3.683   1.101   0.108
10584SOL     OW32650   5.292   6.320   1.605
10584SOL    HW132651   5.383   6.346   1.638
10584SOL    HW232652   5.281   6.221   1.614
10585SOL     OW32653   1.082   2.659   5.722
10585SOL    HW132654   1.049   2.685   5.632
10585SOL    HW232655   1.151   2.725   5.753
10586SOL     OW32656   2.901   6.073   5.938
10586SOL    HW132657   2.896   6.054   6.036
10586SOL    HW232658   2.906   5.986   5.888
10587SOL     OW32659   5.785   3.647   0.667
10587SOL    HW132660   5.765   3.739   0.634
10587SOL    HW232661   5.731   3.628   0.749
10588SOL     OW32662   0.926   4.765   2.418
10588SOL    HW132663   0.867   4.824   2.362
10588SOL    HW232664   0.869   4.700   2.468
10589SOL     OW32665   5.819   2.923   4.351
10589SOL    HW132666   5.732   2.967   4.329
10589SOL    HW232667   5.892   2.991   4.349
10590SOL     OW32668   1.246   0.249   3.350
10590SOL    HW132669   1.246   0.323   3.416
10590SOL    HW232670   1.332   0.198   3.358
10591SOL     OW32671   1.334   1.534   6.011
10591SOL    HW132672   1.367   1.453   6.059
10591SOL    HW232673   1.320   1.512   5.914
10592SOL     OW32674   0.116   1.488   0.385
10592SOL    HW132675   0.062   1.504   0.302
10592SOL    HW232676   0.109   1.391   0.411
10593SOL     OW32677   1.810   5.450   1.824
10593SOL    HW132678   1.906   5.478   1.826
10593SOL    HW232679   1.804   5.354   1.798
10594SOL     OW32680   6.321   1.538   4.166
10594SOL    HW132681   6.227   1.506   4.174
10594SOL    HW232682   6.322   1.636   4.144
10595SOL     OW32683   4.118   6.724   6.380
10595SOL    HW132684   4.099   6.820   6.358
10595SOL    HW232685   4.166   6.719   6.468
10596SOL     OW32686   4.409   0.066   2.024
10596SOL    HW132687   4.458   0.128   2.085
10596SOL    HW232688   4.310   0.077   2.038
10597SOL     OW32689   2.335   1.003   4.756
10597SOL    HW132690   2.421   0.959   4.729
10597SOL    HW232691   2.290   0.948   4.826
10598SOL     OW32692   1.952   2.120   6.759
10598SOL    HW132693   1.934   2.214   6.730
10598SOL    HW232694   2.038   2.089   6.719
10599SOL     OW32695   6.302   1.105   0.011
10599SOL    HW132696   6.375   1.152   6.977
10599SOL    HW232697   6.230   1.170   0.034
10600SOL     OW32698   3.038   2.666   5.832
10600SOL    HW132699   2.968   2.726   5.792
10600SOL    HW232700   3.056   2.694   5.926
10601SOL     OW32701   2.775   6.453   6.154
10601SOL    HW132702   2.771   6.552   6.148
10601SOL    HW232703   2.691   6.413   6.117
10602SOL     OW32704   5.166   1.289   1.341
10602SOL    HW132705   5.155   1.241   1.428
10602SOL    HW232706   5.077   1.304   1.299
10603SOL     OW32707   1.934   5.303   3.851
10603SOL    HW132708   2.021   5.307   3.900
10603SOL    HW232709   1.897   5.396   3.842
10604SOL     OW32710   6.719   4.513   4.448
10604SOL    HW132711   6.707   4.505   4.547
10604SOL    HW232712   6.772   4.596   4.428
10605SOL     OW32713   1.023   5.092   0.444
10605SOL    HW132714   1.076   5.045   0.515
10605SOL    HW232715   0.926   5.081   0.462
10606SOL     OW32716   0.262   0.438   1.575
10606SOL    HW132717   0.180   0.388   1.550
10606SOL    HW232718   0.248   0.484   1.662
10607SOL     OW32719   4.546   4.479   6.317
10607SOL    HW132720   4.596   4.411   6.264
10607SOL    HW232721   4.587   4.569   6.303
10608SOL     OW32722   5.669   1.379   4.404
10608SOL    HW132723   5.650   1.365   4.501
10608SOL    HW232724   5.625   1.463   4.373
10609SOL     OW32725   4.197   6.555   0.722
10609SOL    HW132726   4.187   6.461   0.757
10609SOL    HW232727   4.247   6.610   0.788
10610SOL     OW32728   1.343   3.293   6.044
10610SOL    HW132729   1.270   3.311   5.979
10610SOL    HW232730   1.391   3.208   6.019
10611SOL     OW32731   5.147   2.621   6.361
10611SOL    HW132732   5.164   2.713   6.396
10611SOL    HW232733   5.231   2.567   6.367
10612SOL     OW32734   2.276   6.721   6.308
10612SOL    HW132735   2.295   6.818   6.301
10612SOL    HW232736   2.353   6.668   6.271
10613SOL     OW32737   0.532   6.617   5.745
10613SOL    HW132738   0.483   6.591   5.829
10613SOL    HW232739   0.538   6.716   5.739
10614SOL     OW32740   6.269   1.256   4.363
10614SOL    HW132741   6.308   1.201   4.288
10614SOL    HW232742   6.197   1.314   4.326
10615SOL     OW32743   4.721   5.615   4.968
10615SOL    HW132744   4.710   5.524   5.008
10615SOL    HW232745   4.779   5.671   5.028
10616SOL     OW32746   3.490   6.405   0.772
10616SOL    HW132747   3.502   6.381   0.675
10616SOL    HW232748   3.412   6.466   0.781
10617SOL     OW32749   2.217   2.783   0.417
10617SOL    HW132750   2.261   2.779   0.327
10617SOL    HW232751   2.287   2.784   0.488
10618SOL     OW32752   6.053   2.643   0.276
10618SOL    HW132753   6.077   2.716   0.341
10618SOL    HW232754   6.135   2.612   0.230
10619SOL     OW32755   0.842   4.031   3.254
10619SOL    HW132756   0.781   3.958   3.223
10619SOL    HW232757   0.917   3.991   3.307
10620SOL     OW32758   2.054   6.227   4.661
10620SOL    HW132759   2.140   6.178   4.675
10620SOL    HW232760   2.061   6.281   4.578
10621SOL     OW32761   1.933   5.953   6.780
10621SOL    HW132762   1.880   5.978   6.699
10621SOL    HW232763   1.877   5.896   6.841
10622SOL     OW32764   3.861   0.025   1.737
10622SOL    HW132765   3.878   0.119   1.766
10622SOL    HW232766   3.775   7.010   1.778
10623SOL     OW32767   5.799   2.508   3.977
10623SOL    HW132768   5.811   2.495   3.878
10623SOL    HW232769   5.820   2.603   4.000
10624SOL     OW32770   1.510   1.375   4.786
10624SOL    HW132771   1.456   1.459   4.772
10624SOL    HW232772   1.465   1.317   4.853
10625SOL     OW32773   0.477   2.807   6.979
10625SOL    HW132774   0.514   2.878   0.022
10625SOL    HW232775   0.533   2.724   6.987
10626SOL     OW32776   0.755   1.729   1.588
10626SOL    HW132777   0.855   1.739   1.584
10626SOL    HW232778   0.727   1.650   1.534
10627SOL     OW32779   6.500   6.732   2.740
10627SOL    HW132780   6.565   6.771   2.675
10627SOL    HW232781   6.510   6.777   2.829
10628SOL     OW32782   6.528   5.748   5.767
10628SOL    HW132783   6.597   5.753   5.694
10628SOL    HW232784   6.497   5.654   5.777
10629SOL     OW32785   2.558   5.374   5.807
10629SOL    HW132786   2.506   5.350   5.889
10629SOL    HW232787   2.622   5.448   5.829
10630SOL     OW32788   5.885   1.300   3.303
10630SOL    HW132789   5.806   1.240   3.286
10630SOL    HW232790   5.853   1.391   3.330
10631SOL     OW32791   0.339   6.651   3.709
10631SOL    HW132792   0.265   6.615   3.652
10631SOL    HW232793   0.415   6.587   3.710
10632SOL     OW32794   6.436   2.504   4.744
10632SOL    HW132795   6.462   2.599   4.729
10632SOL    HW232796   6.395   2.495   4.835
10633SOL     OW32797   2.578   5.478   1.246
10633SOL    HW132798   2.486   5.503   1.275
10633SOL    HW232799   2.585   5.379   1.238
10634SOL     OW32800   3.599   6.107   1.077
10634SOL    HW132801   3.543   6.028   1.052
10634SOL    HW232802   3.687   6.076   1.114
10635SOL     OW32803   2.314   0.588   1.116
10635SOL    HW132804   2.306   0.520   1.189
10635SOL    HW232805   2.234   0.582   1.056
10636SOL     OW32806   0.901   2.110   1.123
10636SOL    HW132807   0.810   2.110   1.165
10636SOL    HW232808   0.925   2.016   1.097
10637SOL     OW32809   3.496   4.099   4.939
10637SOL    HW132810   3.426   4.057   4.881
10637SOL    HW232811   3.568   4.138   4.881
10638SOL     OW32812   6.473   6.296   4.492
10638SOL    HW132813   6.468   6.297   4.592
10638SOL    HW232814   6.567   6.278   4.463
10639SOL     OW32815   1.509   0.970   5.027
10639SOL    HW132816   1.559   0.976   4.941
10639SOL    HW232817   1.554   0.904   5.088
10640SOL     OW32818   5.011   1.305   6.758
10640SOL    HW132819   4.945   1.317   6.684
10640SOL    HW232820   4.968   1.255   6.833
10641SOL     OW32821   5.678   1.478   6.933
10641SOL    HW132822   5.588   1.456   6.970
10641SOL    HW232823   5.673   1.563   6.881
10642SOL     OW32824   0.179   2.084   1.749
10642SOL    HW132825   0.245   2.118   1.683
10642SOL    HW232826   0.198   1.987   1.768
10643SOL     OW32827   2.435   3.617   5.381
10643SOL    HW132828   2.462   3.584   5.472
10643SOL    HW232829   2.470   3.710   5.368
10644SOL     OW32830   4.462   1.591   4.114
10644SOL    HW132831   4.410   1.659   4.060
10644SOL    HW232832   4.404   1.556   4.188
10645SOL     OW32833   2.095   0.061   4.658
10645SOL    HW132834   2.020   0.004   4.626
10645SOL    HW232835   2.177   0.042   4.605
10646SOL     OW32836   1.303   2.809   5.818
10646SOL    HW132837   1.370   2.796   5.745
10646SOL    HW232838   1.258   2.898   5.806
10647SOL     OW32839   6.600   5.006   0.529
10647SOL    HW132840   6.638   5.090   0.490
10647SOL    HW232841   6.668   4.963   0.588
10648SOL     OW32842   4.887   2.878   6.843
10648SOL    HW132843   4.898   2.923   6.754
10648SOL    HW232844   4.802   2.826   6.843
10649SOL     OW32845   6.564   4.733   5.470
10649SOL    HW132846   6.606   4.643   5.471
10649SOL    HW232847   6.477   4.729   5.420
10650SOL     OW32848   2.752   6.616   3.958
10650SOL    HW132849   2.716   6.694   3.907
10650SOL    HW232850   2.706   6.532   3.926
10651SOL     OW32851   4.979   6.943   5.586
10651SOL    HW132852   4.925   6.962   5.504
10651SOL    HW232853   5.007   6.847   5.586
10652SOL     OW32854   3.634   0.341   5.975
10652SOL    HW132855   3.634   0.419   6.038
10652SOL    HW232856   3.578   0.267   6.014
10653SOL     OW32857   5.246   4.230   4.349
10653SOL    HW132858   5.176   4.169   4.311
10653SOL    HW232859   5.205   4.319   4.368
10654SOL     OW32860   3.647   0.985   0.970
10654SOL    HW132861   3.547   0.990   0.970
10654SOL    HW232862   3.682   1.011   1.060
10655SOL     OW32863   3.018   6.273   0.944
10655SOL    HW132864   3.113   6.288   0.972
10655SOL    HW232865   3.002   6.315   0.855
10656SOL     OW32866   6.566   2.411   0.213
10656SOL    HW132867   6.527   2.496   0.248
10656SOL    HW232868   6.638   2.379   0.274
10657SOL     OW32869   5.522   0.545   0.985
10657SOL    HW132870   5.531   0.501   0.895
10657SOL    HW232871   5.495   0.476   1.053
10658SOL     OW32872   0.728   5.053   4.044
10658SOL    HW132873   0.812   5.000   4.057
10658SOL    HW232874   0.664   5.000   3.989
10659SOL     OW32875   5.954   0.093   0.320
10659SOL    HW132876   6.026   0.159   0.343
10659SOL    HW232877   5.989   0.028   0.252
10660SOL     OW32878   4.578   4.707   5.546
10660SOL    HW132879   4.531   4.756   5.619
10660SOL    HW232880   4.677   4.715   5.559
10661SOL     OW32881   0.441   6.513   2.900
10661SOL    HW132882   0.399   6.593   2.944
10661SOL    HW232883   0.430   6.520   2.801
10662SOL     OW32884   6.897   1.363   0.676
10662SOL    HW132885   6.963   1.435   0.655
10662SOL    HW232886   6.820   1.402   0.726
10663SOL     OW32887   7.015   0.172   0.104
10663SOL    HW132888   0.080   0.191   0.158
10663SOL    HW232889   6.937   0.220   0.145
10664SOL     OW32890   2.264   5.257   0.058
10664SOL    HW132891   2.311   5.176   0.093
10664SOL    HW232892   2.327   5.308   7.016
10665SOL     OW32893   6.234   1.756   1.109
10665SOL    HW132894   6.330   1.783   1.103
10665SOL    HW232895   6.226   1.675   1.167
10666SOL     OW32896   2.371   5.968   0.112
10666SOL    HW132897   2.415   5.931   0.030
10666SOL    HW232898   2.274   5.983   0.093
10667SOL     OW32899   3.417   1.909   6.134
10667SOL    HW132900   3.516   1.914   6.123
10667SOL    HW232901   3.391   1.817   6.163
10668SOL     OW32902   1.578   1.500   6.456
10668SOL    HW132903   1.581   1.417   6.511
10668SOL    HW232904   1.534   1.573   6.508
10669SOL     OW32905   1.722   7.009   6.729
10669SOL    HW132906   1.704   0.090   6.726
10669SOL    HW232907   1.678   6.969   6.810
10670SOL     OW32908   5.608   4.376   5.987
10670SOL    HW132909   5.670   4.441   6.033
10670SOL    HW232910   5.519   4.419   5.973
10671SOL     OW32911   2.141   1.959   2.932
10671SOL    HW132912   2.072   1.934   3.000
10671SOL    HW232913   2.197   1.879   2.910
10672SOL     OW32914   0.086   2.894   1.424
10672SOL    HW132915   7.014   2.877   1.380
10672SOL    HW232916   0.072   2.952   1.505
10673SOL     OW32917   2.655   3.126   5.377
10673SOL    HW132918   2.630   3.075   5.294
10673SOL    HW232919   2.749   3.103   5.404
10674SOL     OW32920   4.032   3.340   1.585
10674SOL    HW132921   4.035   3.324   1.684
10674SOL    HW232922   4.048   3.437   1.567
10675SOL     OW32923   0.534   0.311   5.679
10675SOL    HW132924   0.526   0.358   5.591
10675SOL    HW232925   0.457   0.248   5.690
10676SOL     OW32926   6.248   6.882   6.439
10676SOL    HW132927   6.313   6.843   6.504
10676SOL    HW232928   6.296   6.945   6.378
10677SOL     OW32929   0.391   0.288   0.543
10677SOL    HW132930   0.381   0.376   0.498
10677SOL    HW232931   0.406   0.302   0.641
10678SOL     OW32932   2.192   5.909   2.370
10678SOL    HW132933   2.124   5.905   2.296
10678SOL    HW232934   2.274   5.955   2.337
10679SOL     OW32935   5.167   5.332   4.111
10679SOL    HW132936   5.187   5.252   4.056
10679SOL    HW232937   5.202   5.414   4.065
10680SOL     OW32938   1.532   3.416   2.608
10680SOL    HW132939   1.514   3.377   2.698
10680SOL    HW232940   1.545   3.343   2.542
10681SOL     OW32941   6.687   2.143   5.949
10681SOL    HW132942   6.628   2.125   6.027
10681SOL    HW232943   6.695   2.061   5.893
10682SOL     OW32944   0.061   1.492   2.826
10682SOL    HW132945   0.031   1.397   2.830
10682SOL    HW232946   0.043   1.528   2.734
10683SOL     OW32947   1.532   1.427   5.162
10683SOL    HW132948   1.602   1.449   5.094
10683SOL    HW232949   1.490   1.512   5.195
10684SOL     OW32950   6.386   4.733   0.261
10684SOL    HW132951   6.464   4.706   0.205
10684SOL    HW232952   6.363   4.658   0.324
10685SOL     OW32953   0.309   3.104   2.840
10685SOL    HW132954   0.363   3.024   2.865
10685SOL    HW232955   0.363   3.163   2.778
10686SOL     OW32956   3.169   5.332   6.964
10686SOL    HW132957   3.187   5.326   6.865
10686SOL    HW232958   3.251   5.364   7.011
10687SOL     OW32959   0.285   4.759   3.045
10687SOL    HW132960   0.206   4.792   3.097
10687SOL    HW232961   0.298   4.817   2.964
10688SOL     OW32962   6.641   4.919   1.826
10688SOL    HW132963   6.598   4.920   1.916
10688SOL    HW232964   6.573   4.943   1.757
10689SOL     OW32965   0.762   0.619   2.380
10689SOL    HW132966   0.685   0.599   2.320
10689SOL    HW232967   0.737   0.599   2.475
10690SOL     OW32968   4.244   4.928   1.773
10690SOL    HW132969   4.179   4.932   1.848
10690SOL    HW232970   4.229   4.845   1.719
10691SOL     OW32971   0.168   1.084   1.720
10691SOL    HW132972   0.162   1.161   1.658
10691SOL    HW232973   0.081   1.070   1.766
10692SOL     OW32974   3.707   6.183   3.631
10692SOL    HW132975   3.663   6.217   3.548
10692SOL    HW232976   3.723   6.085   3.623
10693SOL     OW32977   6.665   1.837   2.051
10693SOL    HW132978   6.598   1.891   2.002
10693SOL    HW232979   6.697   1.762   1.993
10694SOL     OW32980   3.928   6.274   0.028
10694SOL    HW132981   4.015   6.271   0.077
10694SOL    HW232982   3.939   6.327   6.961
10695SOL     OW32983   0.326   2.907   4.007
10695SOL    HW132984   0.411   2.855   4.009
10695SOL    HW232985   0.337   2.990   4.061
10696SOL     OW32986   6.987   5.907   1.718
10696SOL    HW132987   6.951   5.815   1.734
10696SOL    HW232988   0.002   5.946   1.804
10697SOL     OW32989   1.944   5.725   3.372
10697SOL    HW132990   1.944   5.707   3.273
10697SOL    HW232991   2.017   5.790   3.394
10698SOL     OW32992   2.979   6.674   3.657
10698SOL    HW132993   3.028   6.734   3.720
10698SOL    HW232994   2.992   6.707   3.563
10699SOL     OW32995   2.717   2.368   2.774
10699SOL    HW132996   2.812   2.366   2.805
10699SOL    HW232997   2.703   2.301   2.702
10700SOL     OW32998   6.745   6.850   0.882
10700SOL    HW132999   6.755   6.796   0.966
10700SOL    HW233000   6.820   6.916   0.875
10701SOL     OW33001   2.627   6.447   1.195
10701SOL    HW133002   2.565   6.494   1.132
10701SOL    HW233003   2.577   6.425   1.279
10702SOL     OW33004   6.385   2.658   1.089
10702SOL    HW133005   6.369   2.560   1.077
10702SOL    HW233006   6.379   2.704   1.000
10703SOL     OW33007   3.669   4.077   4.037
10703SOL    HW133008   3.661   3.979   4.055
10703SOL    HW233009   3.648   4.128   4.120
10704SOL     OW33010   4.922   0.182   2.073
10704SOL    HW133011   4.880   0.155   2.159
10704SOL    HW233012   5.006   0.234   2.092
10705SOL     OW33013   0.380   2.988   6.023
10705SOL    HW133014   0.422   2.932   5.951
10705SOL    HW233015   0.332   3.065   5.981
10706SOL     OW33016   3.512   1.022   2.290
10706SOL    HW133017   3.464   1.015   2.377
10706SOL    HW233018   3.587   1.089   2.298
10707SOL     OW33019   6.139   0.083   6.034
10707SOL    HW133020   6.144   0.092   5.934
10707SOL    HW233021   6.231   0.092   6.073
10708SOL     OW33022   4.628   1.382   0.801
10708SOL    HW133023   4.629   1.368   0.702
10708SOL    HW233024   4.697   1.324   0.844
10709SOL     OW33025   6.465   6.162   5.825
10709SOL    HW133026   6.377   6.183   5.867
10709SOL    HW233027   6.485   6.230   5.754
10710SOL     OW33028   5.902   5.366   3.219
10710SOL    HW133029   5.915   5.267   3.222
10710SOL    HW233030   5.892   5.401   3.312
10711SOL     OW33031   1.561   6.650   3.844
10711SOL    HW133032   1.470   6.655   3.803
10711SOL    HW233033   1.579   6.734   3.895
10712SOL     OW33034   3.606   1.684   5.075
10712SOL    HW133035   3.517   1.643   5.095
10712SOL    HW233036   3.620   1.687   4.977
10713SOL     OW33037   0.957   5.962   1.344
10713SOL    HW133038   0.921   5.900   1.413
10713SOL    HW233039   0.948   5.920   1.253
10714SOL     OW33040   6.904   5.017   5.786
10714SOL    HW133041   6.940   5.094   5.839
10714SOL    HW233042   6.978   4.952   5.769
10715SOL     OW33043   5.789   1.208   4.253
10715SOL    HW133044   5.772   1.249   4.164
10715SOL    HW233045   5.745   1.262   4.324
10716SOL     OW33046   6.073   0.270   3.605
10716SOL    HW133047   6.152   0.261   3.666
10716SOL    HW233048   6.104   0.290   3.512
10717SOL     OW33049   6.841   0.444   1.106
10717SOL    HW133050   6.821   0.497   1.188
10717SOL    HW233051   6.906   0.372   1.128
10718SOL     OW33052   0.037   4.836   0.242
10718SOL    HW133053   0.121   4.783   0.255
10718SOL    HW233054   6.977   4.788   0.285
10719SOL     OW33055   5.526   0.791   1.698
10719SOL    HW133056   5.597   0.751   1.757
10719SOL    HW233057   5.472   0.855   1.752
10720SOL     OW33058   0.238   3.302   6.665
10720SOL    HW133059   0.229   3.202   6.664
10720SOL    HW233060   0.315   3.329   6.608
10721SOL     OW33061   4.826   2.378   4.197
10721SOL    HW133062   4.807   2.346   4.290
10721SOL    HW233063   4.924   2.372   4.178
10722SOL     OW33064   0.272   3.865   0.123
10722SOL    HW133065   0.180   3.900   0.142
10722SOL    HW233066   0.275   3.830   0.029
10723SOL     OW33067   6.526   4.148   6.818
10723SOL    HW133068   6.558   4.105   6.903
10723SOL    HW233069   6.484   4.078   6.760
10724SOL     OW33070   3.940   6.532   5.522
10724SOL    HW133071   3.877   6.598   5.484
10724SOL    HW233072   3.895   6.481   5.596
10725SOL     OW33073   6.674   6.102   4.972
10725SOL    HW133074   6.594   6.128   4.918
10725SOL    HW233075   6.661   6.130   5.067
10726SOL     OW33076   4.927   0.515   4.386
10726SOL    HW133077   4.918   0.575   4.466
10726SOL    HW233078   4.904   0.567   4.303
10727SOL     OW33079   2.215   6.023   6.180
10727SOL    HW133080   2.180   5.937   6.144
10727SOL    HW233081   2.206   6.094   6.110
10728SOL     OW33082   5.067   5.689   2.936
10728SOL    HW133083   5.164   5.668   2.936
10728SOL    HW233084   5.033   5.691   2.842
10729SOL     OW33085   5.647   3.047   3.307
10729SOL    HW133086   5.698   2.969   3.270
10729SOL    HW233087   5.550   3.022   3.315
10730SOL     OW33088   2.074   6.174   2.740
10730SOL    HW133089   2.058   6.090   2.689
10730SOL    HW233090   2.159   6.166   2.791
10731SOL     OW33091   4.758   6.921   6.155
10731SOL    HW133092   4.688   6.888   6.092
10731SOL    HW233093   4.734   7.014   6.184
10732SOL     OW33094   6.183   6.487   2.864
10732SOL    HW133095   6.137   6.570   2.896
10732SOL    HW233096   6.130   6.407   2.892
10733SOL     OW33097   0.551   0.975   6.389
10733SOL    HW133098   0.645   0.981   6.424
10733SOL    HW233099   0.495   1.046   6.432
10734SOL     OW33100   0.952   1.626   5.144
10734SOL    HW133101   1.004   1.610   5.228
10734SOL    HW233102   0.969   1.720   5.113
10735SOL     OW33103   1.212   5.556   2.313
10735SOL    HW133104   1.212   5.566   2.413
10735SOL    HW233105   1.299   5.517   2.284
10736SOL     OW33106   5.783   6.707   3.363
10736SOL    HW133107   5.867   6.656   3.384
10736SOL    HW233108   5.773   6.783   3.427
10737SOL     OW33109   6.466   1.118   2.039
10737SOL    HW133110   6.500   1.173   2.115
10737SOL    HW233111   6.384   1.068   2.068
10738SOL     OW33112   3.594   0.909   1.747
10738SOL    HW133113   3.554   0.924   1.837
10738SOL    HW233114   3.639   0.993   1.716
10739SOL     OW33115   5.435   2.403   3.196
10739SOL    HW133116   5.387   2.331   3.146
10739SOL    HW233117   5.444   2.483   3.138
10740SOL     OW33118   1.897   6.729   6.152
10740SOL    HW133119   1.978   6.751   6.097
10740SOL    HW233120   1.876   6.806   6.212
10741SOL     OW33121   2.531   2.517   3.708
10741SOL    HW133122   2.528   2.543   3.612
10741SOL    HW233123   2.469   2.439   3.723
10742SOL     OW33124   6.277   6.611   2.619
10742SOL    HW133125   6.359   6.655   2.655
10742SOL    HW233126   6.226   6.567   2.693
10743SOL     OW33127   3.366   1.059   5.593
10743SOL    HW133128   3.282   1.060   5.648
10743SOL    HW233129   3.412   0.971   5.604
10744SOL     OW33130   1.506   0.317   0.583
10744SOL    HW133131   1.477   0.312   0.678
10744SOL    HW233132   1.507   0.226   0.543
10745SOL     OW33133   1.535   4.844   1.687
10745SOL    HW133134   1.460   4.863   1.751
10745SOL    HW233135   1.500   4.848   1.593
10746SOL     OW33136   1.974   6.051   6.389
10746SOL    HW133137   2.028   5.995   6.452
10746SOL    HW233138   2.028   6.068   6.306
10747SOL     OW33139   5.830   1.167   4.958
10747SOL    HW133140   5.782   1.083   4.983
10747SOL    HW233141   5.897   1.189   5.029
10748SOL     OW33142   4.211   6.103   0.612
10748SOL    HW133143   4.138   6.167   0.589
10748SOL    HW233144   4.196   6.017   0.564
10749SOL     OW33145   5.357   5.757   2.112
10749SOL    HW133146   5.294   5.734   2.187
10749SOL    HW233147   5.371   5.676   2.055
10750SOL     OW33148   4.875   2.235   4.440
10750SOL    HW133149   4.838   2.201   4.526
10750SOL    HW233150   4.967   2.272   4.456
10751SOL     OW33151   0.110   5.003   5.301
10751SOL    HW133152   0.181   4.969   5.363
10751SOL    HW233153   0.032   5.034   5.354
10752SOL     OW33154   5.951   6.243   0.551
10752SOL    HW133155   5.920   6.336   0.573
10752SOL    HW233156   5.999   6.205   0.630
10753SOL     OW33157   4.642   6.487   3.952
10753SOL    HW133158   4.712   6.416   3.959
10753SOL    HW233159   4.554   6.445   3.930
10754SOL     OW33160   0.881   4.082   1.514
10754SOL    HW133161   0.864   4.001   1.458
10754SOL    HW233162   0.970   4.120   1.490
10755SOL     OW33163   6.143   2.993   1.384
10755SOL    HW133164   6.060   3.016   1.333
10755SOL    HW233165   6.194   2.922   1.336
10756SOL     OW33166   0.762   1.559   0.767
10756SOL    HW133167   0.687   1.549   0.701
10756SOL    HW233168   0.725   1.549   0.860
10757SOL     OW33169   0.555   3.984   1.542
10757SOL    HW133170   0.607   3.982   1.628
10757SOL    HW233171   0.591   3.916   1.479
10758SOL     OW33172   0.769   0.351   6.615
10758SOL    HW133173   0.760   0.438   6.567
10758SOL    HW233174   0.732   0.360   6.708
10759SOL     OW33175   2.594   2.220   6.339
10759SOL    HW133176   2.594   2.123   6.361
10759SOL    HW233177   2.590   2.232   6.239
10760SOL     OW33178   1.052   5.299   0.256
10760SOL    HW133179   0.959   5.335   0.267
10760SOL    HW233180   1.070   5.231   0.327
10761SOL     OW33181   0.660   1.211   6.219
10761SOL    HW133182   0.587   1.233   6.154
10761SOL    HW233183   0.691   1.117   6.203
10762SOL     OW33184   3.016   6.357   6.232
10762SOL    HW133185   2.926   6.360   6.188
10762SOL    HW233186   3.082   6.405   6.175
10763SOL     OW33187   5.215   7.007   3.395
10763SOL    HW133188   5.184   7.011   3.300
10763SOL    HW233189   5.266   0.074   3.417
10764SOL     OW33190   4.351   0.734   4.377
10764SOL    HW133191   4.425   0.671   4.356
10764SOL    HW233192   4.265   0.684   4.381
10765SOL     OW33193   6.616   2.079   2.680
10765SOL    HW133194   6.709   2.116   2.686
10765SOL    HW233195   6.575   2.077   2.771
10766SOL     OW33196   1.543   5.300   6.536
10766SOL    HW133197   1.573   5.333   6.446
10766SOL    HW233198   1.529   5.201   6.532
10767SOL     OW33199   2.129   5.374   0.566
10767SOL    HW133200   2.150   5.394   0.471
10767SOL    HW233201   2.133   5.275   0.581
10768SOL     OW33202   5.576   5.744   0.986
10768SOL    HW133203   5.652   5.714   0.928
10768SOL    HW233204   5.489   5.725   0.941
10769SOL     OW33205   3.562   2.823   4.717
10769SOL    HW133206   3.574   2.842   4.619
10769SOL    HW233207   3.640   2.772   4.751
10770SOL     OW33208   5.339   0.047   3.791
10770SOL    HW133209   5.369   0.138   3.763
10770SOL    HW233210   5.409   0.005   3.849
10771SOL     OW33211   4.552   6.010   5.477
10771SOL    HW133212   4.530   5.913   5.482
10771SOL    HW233213   4.476   6.063   5.516
10772SOL     OW33214   5.914   4.762   2.677
10772SOL    HW133215   5.842   4.832   2.678
10772SOL    HW233216   5.880   4.678   2.719
10773SOL     OW33217   6.915   3.834   1.688
10773SOL    HW133218   6.888   3.752   1.638
10773SOL    HW233219   6.979   3.887   1.633
10774SOL     OW33220   1.229   3.187   0.766
10774SOL    HW133221   1.215   3.102   0.818
10774SOL    HW233222   1.285   3.250   0.820
10775SOL     OW33223   1.702   4.377   0.537
10775SOL    HW133224   1.778   4.370   0.602
10775SOL    HW233225   1.617   4.390   0.588
10776SOL     OW33226   1.144   2.131   3.676
10776SOL    HW133227   1.086   2.212   3.664
10776SOL    HW233228   1.089   2.049   3.663
10777SOL     OW33229   3.413   1.475   2.066
10777SOL    HW133230   3.391   1.571   2.083
10777SOL    HW233231   3.506   1.468   2.028
10778SOL     OW33232   6.174   6.640   3.114
10778SOL    HW133233   6.250   6.618   3.175
10778SOL    HW233234   6.090   6.598   3.148
10779SOL     OW33235   5.057   4.008   4.658
10779SOL    HW133236   5.148   3.970   4.648
10779SOL    HW233237   5.053   4.065   4.740
10780SOL     OW33238   1.874   6.053   5.049
10780SOL    HW133239   1.785   6.048   5.004
10780SOL    HW233240   1.907   5.961   5.068
10781SOL     OW33241   6.121   2.214   5.392
10781SOL    HW133242   6.163   2.153   5.459
10781SOL    HW233243   6.104   2.164   5.307
10782SOL     OW33244   1.592   2.615   4.937
10782SOL    HW133245   1.521   2.631   4.868
10782SOL    HW233246   1.556   2.638   5.027
10783SOL     OW33247   1.304   2.759   2.750
10783SOL    HW133248   1.370   2.835   2.747
10783SOL    HW233249   1.221   2.790   2.796
10784SOL     OW33250   3.655   6.102   2.380
10784SOL    HW133251   3.590   6.113   2.455
10784SOL    HW233252   3.708   6.186   2.369
10785SOL     OW33253   2.138   5.624   2.400
10785SOL    HW133254   2.051   5.622   2.352
10785SOL    HW233255   2.180   5.714   2.390
10786SOL     OW33256   3.905   1.254   1.927
10786SOL    HW133257   3.885   1.276   2.022
10786SOL    HW233258   3.975   1.316   1.892
10787SOL     OW33259   3.637   1.147   3.404
10787SOL    HW133260   3.684   1.138   3.316
10787SOL    HW233261   3.667   1.231   3.449
10788SOL     OW33262   1.121   4.515   0.429
10788SOL    HW133263   1.109   4.610   0.455
10788SOL    HW233264   1.032   4.475   0.406
10789SOL     OW33265   6.404   1.499   0.990
10789SOL    HW133266   6.345   1.502   1.071
10789SOL    HW233267   6.478   1.565   1.000
10790SOL     OW33268   0.588   1.775   4.922
10790SOL    HW133269   0.492   1.800   4.907
10790SOL    HW233270   0.596   1.727   5.009
10791SOL     OW33271   1.426   1.891   3.497
10791SOL    HW133272   1.383   1.825   3.559
10791SOL    HW233273   1.504   1.848   3.451
10792SOL     OW33274   4.099   1.728   1.544
10792SOL    HW133275   4.072   1.824   1.546
10792SOL    HW233276   4.050   1.682   1.470
10793SOL     OW33277   4.255   1.635   4.842
10793SOL    HW133278   4.193   1.655   4.917
10793SOL    HW233279   4.250   1.537   4.820
10794SOL     OW33280   4.500   2.348   0.658
10794SOL    HW133281   4.520   2.254   0.683
10794SOL    HW233282   4.541   2.368   0.568
10795SOL     OW33283   0.252   3.593   3.644
10795SOL    HW133284   0.162   3.624   3.615
10795SOL    HW233285   0.290   3.530   3.576
10796SOL     OW33286   0.299   6.836   6.240
10796SOL    HW133287   0.286   6.904   6.311
10796SOL    HW233288   0.250   6.752   6.263
10797SOL     OW33289   4.073   4.015   0.080
10797SOL    HW133290   4.150   3.952   0.096
10797SOL    HW233291   4.039   4.049   0.168
10798SOL     OW33292   2.331   6.869   6.988
10798SOL    HW133293   2.375   6.863   6.898
10798SOL    HW233294   2.400   6.888   0.041
10799SOL     OW33295   2.590   1.073   2.743
10799SOL    HW133296   2.550   1.106   2.828
10799SOL    HW233297   2.634   0.985   2.759
10800SOL     OW33298   1.946   0.060   5.706
10800SOL    HW133299   1.900   0.141   5.742
10800SOL    HW233300   1.927   6.998   5.765
10801SOL     OW33301   2.475   6.605   6.171
10801SOL    HW133302   2.450   6.565   6.082
10801SOL    HW233303   2.561   6.655   6.162
10802SOL     OW33304   0.598   4.501   4.243
10802SOL    HW133305   0.586   4.600   4.231
10802SOL    HW233306   0.671   4.469   4.183
10803SOL     OW33307   0.277   4.278   4.596
10803SOL    HW133308   0.242   4.242   4.509
10803SOL    HW233309   0.201   4.301   4.656
10804SOL     OW33310   5.009   4.694   1.200
10804SOL    HW133311   5.080   4.660   1.263
10804SOL    HW233312   4.938   4.625   1.190
10805SOL     OW33313   4.128   6.840   0.237
10805SOL    HW133314   4.085   6.868   0.323
10805SOL    HW233315   4.105   6.745   0.217
10806SOL     OW33316   5.406   3.510   6.913
10806SOL    HW133317   5.466   3.587   6.889
10806SOL    HW233318   5.313   3.544   6.930
10807SOL     OW33319   4.559   6.750   3.158
10807SOL    HW133320   4.643   6.726   3.109
10807SOL    HW233321   4.561   6.847   3.181
10808SOL     OW33322   0.013   2.496   6.534
10808SOL    HW133323   6.945   2.514   6.485
10808SOL    HW233324   0.058   2.583   6.556
10809SOL     OW33325   2.435   1.138   3.435
10809SOL    HW133326   2.368   1.077   3.478
10809SOL    HW233327   2.509   1.157   3.500
10810SOL     OW33328   0.281   1.696   5.920
10810SOL    HW133329   0.326   1.730   5.838
10810SOL    HW233330   0.330   1.615   5.953
10811SOL     OW33331   4.610   4.442   5.388
10811SOL    HW133332   4.556   4.524   5.406
10811SOL    HW233333   4.693   4.467   5.338
10812SOL     OW33334   6.712   2.114   3.084
10812SOL    HW133335   6.790   2.060   3.117
10812SOL    HW233336   6.687   2.182   3.152
10813SOL     OW33337   2.981   6.154   1.672
10813SOL    HW133338   2.934   6.146   1.584
10813SOL    HW233339   3.075   6.186   1.656
10814SOL     OW33340   1.946   6.684   4.715
10814SOL    HW133341   1.891   6.609   4.680
10814SOL    HW233342   2.027   6.648   4.762
10815SOL     OW33343   5.142   2.328   2.832
10815SOL    HW133344   5.084   2.247   2.819
10815SOL    HW233345   5.085   2.410   2.828
10816SOL     OW33346   2.227   1.928   2.214
10816SOL    HW133347   2.320   1.892   2.216
10816SOL    HW233348   2.230   2.025   2.188
10817SOL     OW33349   4.791   0.034   2.273
10817SOL    HW133350   4.817   6.962   2.234
10817SOL    HW233351   4.695   0.032   2.300
10818SOL     OW33352   5.133   3.490   6.912
10818SOL    HW133353   5.050   3.518   6.960
10818SOL    HW233354   5.114   3.408   6.858
10819SOL     OW33355   0.355   4.004   6.193
10819SOL    HW133356   0.373   4.064   6.115
10819SOL    HW233357   0.442   3.972   6.232
10820SOL     OW33358   0.399   0.111   4.507
10820SOL    HW133359   0.356   0.177   4.445
10820SOL    HW233360   0.424   0.158   4.592
10821SOL     OW33361   6.751   0.246   0.242
10821SOL    HW133362   6.776   0.304   0.320
10821SOL    HW233363   6.774   0.151   0.263
10822SOL     OW33364   1.684   4.400   1.059
10822SOL    HW133365   1.715   4.443   0.974
10822SOL    HW233366   1.611   4.335   1.039
10823SOL     OW33367   1.424   0.693   1.342
10823SOL    HW133368   1.417   0.690   1.242
10823SOL    HW233369   1.508   0.647   1.371
10824SOL     OW33370   5.445   0.396   2.592
10824SOL    HW133371   5.362   0.428   2.547
10824SOL    HW233372   5.521   0.456   2.568
10825SOL     OW33373   3.442   1.117   1.319
10825SOL    HW133374   3.478   1.208   1.299
10825SOL    HW233375   3.449   1.099   1.418
10826SOL     OW33376   6.586   3.133   1.729
10826SOL    HW133377   6.616   3.197   1.800
10826SOL    HW233378   6.650   3.057   1.723
10827SOL     OW33379   0.086   2.742   4.054
10827SOL    HW133380   0.006   2.789   4.091
10827SOL    HW233381   0.161   2.807   4.044
10828SOL     OW33382   1.041   5.930   0.442
10828SOL    HW133383   1.088   5.993   0.504
10828SOL    HW233384   0.954   5.903   0.483
10829SOL     OW33385   2.734   3.478   1.247
10829SOL    HW133386   2.728   3.499   1.149
10829SOL    HW233387   2.813   3.526   1.286
10830SOL     OW33388   4.764   2.220   3.716
10830SOL    HW133389   4.823   2.148   3.753
10830SOL    HW233390   4.669   2.190   3.719
10831SOL     OW33391   5.541   2.154   3.204
10831SOL    HW133392   5.600   2.131   3.281
10831SOL    HW233393   5.524   2.252   3.202
10832SOL     OW33394   0.105   1.925   1.397
10832SOL    HW133395   0.087   2.023   1.391
10832SOL    HW233396   0.187   1.903   1.343
10833SOL     OW33397   3.173   6.579   4.739
10833SOL    HW133398   3.084   6.611   4.771
10833SOL    HW233399   3.160   6.514   4.664
10834SOL     OW33400   0.388   0.778   5.599
10834SOL    HW133401   0.381   0.840   5.520
10834SOL    HW233402   0.361   0.686   5.571
10835SOL     OW33403   6.627   1.908   2.483
10835SOL    HW133404   6.631   1.815   2.519
10835SOL    HW233405   6.658   1.972   2.553
10836SOL     OW33406   1.942   2.365   6.423
10836SOL    HW133407   1.843   2.365   6.438
10836SOL    HW233408   1.960   2.347   6.326
10837SOL     OW33409   0.738   5.338   0.997
10837SOL    HW133410   0.794   5.381   0.926
10837SOL    HW233411   0.779   5.355   1.087
10838SOL     OW33412   5.866   6.825   0.352
10838SOL    HW133413   5.858   6.908   0.297
10838SOL    HW233414   5.856   6.847   0.449
10839SOL     OW33415   2.041   2.365   0.810
10839SOL    HW133416   2.102   2.290   0.833
10839SOL    HW233417   1.950   2.329   0.790
10840SOL     OW33418   3.676   5.477   2.474
10840SOL    HW133419   3.657   5.558   2.418
10840SOL    HW233420   3.612   5.474   2.550
10841SOL     OW33421   4.414   3.768   5.895
10841SOL    HW133422   4.344   3.755   5.965
10841SOL    HW233423   4.495   3.714   5.918
10842SOL     OW33424   6.244   2.691   1.760
10842SOL    HW133425   6.153   2.731   1.749
10842SOL    HW233426   6.268   2.688   1.857
10843SOL     OW33427   0.657   1.044   1.537
10843SOL    HW133428   0.671   1.086   1.627
10843SOL    HW233429   0.667   0.944   1.545
10844SOL     OW33430   3.806   6.596   3.472
10844SOL    HW133431   3.714   6.574   3.440
10844SOL    HW233432   3.840   6.523   3.531
10845SOL     OW33433   2.397   2.559   0.617
10845SOL    HW133434   2.359   2.627   0.680
10845SOL    HW233435   2.479   2.517   0.659
10846SOL     OW33436   3.298   2.150   2.048
10846SOL    HW133437   3.378   2.092   2.063
10846SOL    HW233438   3.303   2.192   1.957
10847SOL     OW33439   4.442   2.897   6.160
10847SOL    HW133440   4.405   2.914   6.068
10847SOL    HW233441   4.383   2.940   6.228
10848SOL     OW33442   1.577   1.121   6.949
10848SOL    HW133443   1.613   1.207   6.913
10848SOL    HW233444   1.480   1.132   6.972
10849SOL     OW33445   2.853   4.816   4.042
10849SOL    HW133446   2.868   4.771   3.955
10849SOL    HW233447   2.818   4.909   4.026
10850SOL     OW33448   5.076   6.990   1.062
10850SOL    HW133449   5.072   0.071   1.081
10850SOL    HW233450   5.101   6.941   1.146
10851SOL     OW33451   4.242   2.070   6.457
10851SOL    HW133452   4.304   2.030   6.390
10851SOL    HW233453   4.170   2.005   6.480
10852SOL     OW33454   0.913   0.043   6.339
10852SOL    HW133455   0.890   6.977   6.288
10852SOL    HW233456   0.829   0.083   6.378
10853SOL     OW33457   2.342   1.764   4.629
10853SOL    HW133458   2.315   1.807   4.714
10853SOL    HW233459   2.263   1.718   4.588
10854SOL     OW33460   6.898   6.267   0.189
10854SOL    HW133461   6.934   6.361   0.187
10854SOL    HW233462   6.900   6.229   0.097
10855SOL     OW33463   1.308   6.438   1.122
10855SOL    HW133464   1.377   6.443   1.193
10855SOL    HW233465   1.248   6.360   1.140
10856SOL     OW33466   6.039   0.100   6.584
10856SOL    HW133467   6.085   0.056   6.507
10856SOL    HW233468   6.106   0.146   6.642
10857SOL     OW33469   6.280   0.482   4.362
10857SOL    HW133470   6.342   0.417   4.317
10857SOL    HW233471   6.186   0.452   4.351
10858SOL     OW33472   1.937   1.714   1.062
10858SOL    HW133473   2.033   1.724   1.084
10858SOL    HW233474   1.883   1.777   1.118
10859SOL     OW33475   0.713   4.865   2.291
10859SOL    HW133476   0.697   4.876   2.193
10859SOL    HW233477   0.626   4.853   2.338
10860SOL     OW33478   6.057   2.197   0.662
10860SOL    HW133479   6.099   2.224   0.749
10860SOL    HW233480   6.125   2.150   0.606
10861SOL     OW33481   3.387   2.869   2.206
10861SOL    HW133482   3.481   2.896   2.222
10861SOL    HW233483   3.381   2.770   2.197
10862SOL     OW33484   3.893   3.113   5.582
10862SOL    HW133485   3.867   3.200   5.623
10862SOL    HW233486   3.824   3.085   5.516
10863SOL     OW33487   2.241   1.719   2.872
10863SOL    HW133488   2.308   1.659   2.828
10863SOL    HW233489   2.203   1.674   2.952
10864SOL     OW33490   3.124   4.828   2.106
10864SOL    HW133491   3.100   4.790   2.195
10864SOL    HW233492   3.042   4.833   2.049
10865SOL     OW33493   3.306   1.133   3.088
10865SOL    HW133494   3.221   1.080   3.099
10865SOL    HW233495   3.353   1.105   3.005
10866SOL     OW33496   0.042   3.750   3.436
10866SOL    HW133497   0.050   3.669   3.378
10866SOL    HW233498   0.069   3.831   3.384
10867SOL     OW33499   4.602   3.441   0.739
10867SOL    HW133500   4.533   3.389   0.789
10867SOL    HW233501   4.681   3.382   0.720
10868SOL     OW33502   1.032   1.398   4.992
10868SOL    HW133503   0.990   1.472   5.044
10868SOL    HW233504   0.987   1.390   4.903
10869NA      NA33505   6.820   2.327   5.932
10870NA      NA33506   4.473   4.658   5.119
10871NA      NA33507   1.208   4.876   2.795
10872NA      NA33508   5.617   3.870   3.515
10873NA      NA33509   3.874   2.291   5.505
10874NA      NA33510   2.238   4.863   0.176
10875NA      NA33511   1.443   5.531   6.839
10876NA      NA33512   3.427   4.307   0.883
10877NA      NA33513   4.434   5.237   0.731
10878NA      NA33514   3.333   0.883   6.335
10879NA      NA33515   5.381   6.746   2.020
10880NA      NA33516   1.846   6.667   5.313
10881NA      NA33517   4.129   5.146   1.761
10882NA      NA33518   3.591   3.101   6.895
   7.01654   7.01654   7.01654
