Generated by trjconv : CNT in water t=  67.00000
33518
    1C        C    1   2.843   2.771   4.746
    1C        C    2   2.899   2.719   4.865
    1C        C    3   2.843   2.771   4.983
    1C        C    4   2.845   2.770   4.256
    1C        C    5   2.901   2.733   4.381
    1C        C    6   2.845   2.773   4.504
    1C        C    7   3.015   2.645   4.621
    1C        C    8   2.901   2.727   4.625
    1C        C    9   3.076   2.603   4.742
    1C        C   10   3.006   2.627   4.863
    1C        C   11   3.179   2.489   4.971
    1C        C   12   3.059   2.562   4.975
    1C        C   13   2.850   2.772   3.767
    1C        C   14   2.898   2.721   3.889
    1C        C   15   2.849   2.771   4.012
    1C        C   16   3.019   2.647   4.135
    1C        C   17   2.901   2.725   4.135
    1C        C   18   3.077   2.615   4.260
    1C        C   19   3.015   2.649   4.382
    1C        C   20   3.209   2.553   4.500
    1C        C   21   3.077   2.604   4.501
    1C        C   22   3.275   2.527   4.622
    1C        C   23   3.207   2.549   4.744
    1C        C   24   3.412   2.479   4.859
    1C        C   25   3.270   2.498   4.861
    1C        C   26   3.487   2.481   4.977
    1C        C   27   2.849   2.766   3.280
    1C        C   28   2.904   2.721   3.402
    1C        C   29   2.854   2.771   3.524
    1C        C   30   3.019   2.638   3.648
    1C        C   31   2.908   2.725   3.646
    1C        C   32   3.077   2.599   3.771
    1C        C   33   3.010   2.634   3.891
    1C        C   34   3.206   2.551   4.012
    1C        C   35   3.075   2.604   4.013
    1C        C   36   3.274   2.535   4.135
    1C        C   37   3.207   2.558   4.257
    1C        C   38   3.414   2.502   4.379
    1C        C   39   3.277   2.538   4.378
    1C        C   40   3.485   2.496   4.501
    1C        C   41   3.413   2.496   4.622
    1C        C   42   3.632   2.473   4.741
    1C        C   43   3.489   2.477   4.739
    1C        C   44   3.704   2.481   4.862
    1C        C   45   3.626   2.479   4.978
    1C        C   46   2.837   2.750   2.792
    1C        C   47   2.894   2.709   2.914
    1C        C   48   2.845   2.762   3.036
    1C        C   49   3.014   2.634   3.160
    1C        C   50   2.897   2.713   3.158
    1C        C   51   3.080   2.606   3.282
    1C        C   52   3.019   2.639   3.405
    1C        C   53   3.209   2.542   3.526
    1C        C   54   3.079   2.599   3.527
    1C        C   55   3.278   2.523   3.648
    1C        C   56   3.209   2.548   3.769
    1C        C   57   3.414   2.501   3.892
    1C        C   58   3.274   2.525   3.892
    1C        C   59   3.484   2.499   4.015
    1C        C   60   3.412   2.503   4.136
    1C        C   61   3.625   2.492   4.258
    1C        C   62   3.484   2.490   4.257
    1C        C   63   3.700   2.503   4.377
    1C        C   64   3.626   2.494   4.497
    1C        C   65   3.833   2.535   4.620
    1C        C   66   3.699   2.489   4.618
    1C        C   67   3.901   2.561   4.741
    1C        C   68   3.841   2.517   4.861
    1C        C   69   4.048   2.585   4.976
    1C        C   70   3.923   2.524   4.975
    1C        C   71   2.821   2.731   2.308
    1C        C   72   2.882   2.687   2.428
    1C        C   73   2.833   2.743   2.548
    1C        C   74   3.009   2.626   2.671
    1C        C   75   2.887   2.698   2.670
    1C        C   76   3.069   2.587   2.793
    1C        C   77   3.008   2.626   2.914
    1C        C   78   3.205   2.549   3.033
    1C        C   79   3.073   2.599   3.037
    1C        C   80   3.273   2.531   3.155
    1C        C   81   3.208   2.547   3.280
    1C        C   82   3.413   2.497   3.398
    1C        C   83   3.274   2.522   3.402
    1C        C   84   3.482   2.491   3.520
    1C        C   85   3.416   2.495   3.645
    1C        C   86   3.624   2.490   3.771
    1C        C   87   3.483   2.488   3.770
    1C        C   88   3.698   2.499   3.891
    1C        C   89   3.626   2.494   4.012
    1C        C   90   3.829   2.546   4.135
    1C        C   91   3.695   2.503   4.135
    1C        C   92   3.901   2.568   4.255
    1C        C   93   3.836   2.541   4.378
    1C        C   94   4.021   2.638   4.496
    1C        C   95   3.902   2.564   4.501
    1C        C   96   4.082   2.674   4.618
    1C        C   97   4.027   2.626   4.739
    1C        C   98   4.188   2.764   4.860
    1C        C   99   4.095   2.655   4.861
    1C        C  100   4.208   2.842   4.975
    1C        C  101   2.823   2.726   2.069
    1C        C  102   2.986   2.584   2.190
    1C        C  103   2.875   2.674   2.189
    1C        C  104   3.062   2.568   2.309
    1C        C  105   3.000   2.610   2.429
    1C        C  106   3.200   2.532   2.548
    1C        C  107   3.067   2.581   2.550
    1C        C  108   3.268   2.513   2.670
    1C        C  109   3.200   2.534   2.791
    1C        C  110   3.411   2.493   2.913
    1C        C  111   3.273   2.522   2.912
    1C        C  112   3.482   2.493   3.035
    1C        C  113   3.411   2.500   3.156
    1C        C  114   3.624   2.494   3.281
    1C        C  115   3.484   2.483   3.276
    1C        C  116   3.694   2.507   3.403
    1C        C  117   3.624   2.498   3.525
    1C        C  118   3.828   2.546   3.644
    1C        C  119   3.693   2.504   3.648
    1C        C  120   3.894   2.572   3.766
    1C        C  121   3.832   2.544   3.890
    1C        C  122   4.018   2.642   4.013
    1C        C  123   3.894   2.575   4.013
    1C        C  124   4.086   2.673   4.133
    1C        C  125   4.028   2.630   4.254
    1C        C  126   4.200   2.756   4.373
    1C        C  127   4.089   2.668   4.376
    1C        C  128   4.245   2.812   4.495
    1C        C  129   4.189   2.766   4.616
    1C        C  130   4.319   2.935   4.739
    1C        C  131   4.237   2.818   4.738
    1C        C  132   4.349   3.003   4.859
    1C        C  133   4.286   2.958   4.975
    1C        C  134   3.170   2.468   2.077
    1C        C  135   3.035   2.503   2.083
    1C        C  136   3.257   2.476   2.187
    1C        C  137   3.193   2.513   2.307
    1C        C  138   3.404   2.469   2.426
    1C        C  139   3.267   2.503   2.427
    1C        C  140   3.478   2.466   2.546
    1C        C  141   3.406   2.483   2.667
    1C        C  142   3.618   2.491   2.790
    1C        C  143   3.477   2.480   2.789
    1C        C  144   3.690   2.503   2.911
    1C        C  145   3.624   2.494   3.035
    1C        C  146   3.831   2.533   3.150
    1C        C  147   3.693   2.500   3.158
    1C        C  148   3.894   2.561   3.273
    1C        C  149   3.832   2.538   3.398
    1C        C  150   4.022   2.626   3.522
    1C        C  151   3.896   2.563   3.521
    1C        C  152   4.080   2.671   3.643
    1C        C  153   4.020   2.637   3.766
    1C        C  154   4.188   2.763   3.885
    1C        C  155   4.075   2.678   3.889
    1C        C  156   4.242   2.811   4.006
    1C        C  157   4.197   2.761   4.130
    1C        C  158   4.335   2.922   4.251
    1C        C  159   4.249   2.810   4.252
    1C        C  160   4.373   2.983   4.373
    1C        C  161   4.327   2.927   4.495
    1C        C  162   4.434   3.110   4.613
    1C        C  163   4.368   2.985   4.617
    1C        C  164   4.465   3.180   4.732
    1C        C  165   4.425   3.122   4.855
    1C        C  166   4.511   3.319   4.972
    1C        C  167   4.471   3.185   4.971
    1C        C  168   3.475   2.435   2.072
    1C        C  169   3.397   2.455   2.187
    1C        C  170   3.617   2.467   2.305
    1C        C  171   3.475   2.462   2.304
    1C        C  172   3.691   2.481   2.425
    1C        C  173   3.619   2.479   2.547
    1C        C  174   3.826   2.536   2.664
    1C        C  175   3.689   2.502   2.668
    1C        C  176   3.894   2.557   2.786
    1C        C  177   3.828   2.532   2.909
    1C        C  178   4.025   2.622   3.029
    1C        C  179   3.899   2.556   3.029
    1C        C  180   4.081   2.661   3.153
    1C        C  181   4.019   2.627   3.275
    1C        C  182   4.193   2.746   3.395
    1C        C  183   4.079   2.663   3.398
    1C        C  184   4.243   2.801   3.515
    1C        C  185   4.192   2.758   3.639
    1C        C  186   4.334   2.915   3.760
    1C        C  187   4.243   2.807   3.762
    1C        C  188   4.373   2.974   3.882
    1C        C  189   4.334   2.918   4.006
    1C        C  190   4.440   3.103   4.124
    1C        C  191   4.376   2.977   4.128
    1C        C  192   4.464   3.171   4.245
    1C        C  193   4.436   3.109   4.369
    1C        C  194   4.500   3.312   4.491
    1C        C  195   4.460   3.176   4.491
    1C        C  196   4.515   3.385   4.611
    1C        C  197   4.497   3.318   4.735
    1C        C  198   4.551   3.532   4.849
    1C        C  199   4.528   3.391   4.853
    1C        C  200   4.575   3.613   4.964
    1C        C  201   3.614   2.415   2.072
    1C        C  202   3.824   2.511   2.179
    1C        C  203   3.691   2.458   2.184
    1C        C  204   3.897   2.533   2.299
    1C        C  205   3.828   2.511   2.421
    1C        C  206   4.017   2.615   2.539
    1C        C  207   3.895   2.544   2.541
    1C        C  208   4.078   2.652   2.660
    1C        C  209   4.019   2.622   2.785
    1C        C  210   4.194   2.746   2.904
    1C        C  211   4.082   2.660   2.906
    1C        C  212   4.244   2.794   3.027
    1C        C  213   4.195   2.745   3.150
    1C        C  214   4.329   2.906   3.268
    1C        C  215   4.249   2.789   3.272
    1C        C  216   4.365   2.970   3.389
    1C        C  217   4.329   2.913   3.513
    1C        C  218   4.433   3.098   3.636
    1C        C  219   4.369   2.972   3.635
    1C        C  220   4.462   3.164   3.757
    1C        C  221   4.435   3.101   3.881
    1C        C  222   4.494   3.306   4.001
    1C        C  223   4.464   3.168   4.002
    1C        C  224   4.510   3.376   4.122
    1C        C  225   4.501   3.308   4.246
    1C        C  226   4.516   3.521   4.365
    1C        C  227   4.507   3.380   4.367
    1C        C  228   4.514   3.595   4.485
    1C        C  229   4.525   3.525   4.607
    1C        C  230   4.503   3.740   4.726
    1C        C  231   4.536   3.602   4.726
    1C        C  232   4.500   3.819   4.843
    1C        C  233   4.543   3.750   4.957
    1C        C  234   4.015   2.609   2.062
    1C        C  235   3.893   2.542   2.062
    1C        C  236   4.088   2.636   2.178
    1C        C  237   4.023   2.599   2.298
    1C        C  238   4.198   2.730   2.415
    1C        C  239   4.082   2.647   2.417
    1C        C  240   4.243   2.783   2.537
    1C        C  241   4.186   2.743   2.660
    1C        C  242   4.330   2.904   2.780
    1C        C  243   4.241   2.794   2.780
    1C        C  244   4.374   2.961   2.902
    1C        C  245   4.333   2.904   3.025
    1C        C  246   4.435   3.090   3.146
    1C        C  247   4.373   2.963   3.147
    1C        C  248   4.453   3.160   3.267
    1C        C  249   4.429   3.096   3.391
    1C        C  250   4.493   3.298   3.514
    1C        C  251   4.456   3.162   3.513
    1C        C  252   4.499   3.371   3.636
    1C        C  253   4.492   3.302   3.759
    1C        C  254   4.524   3.517   3.877
    1C        C  255   4.506   3.376   3.879
    1C        C  256   4.525   3.588   3.999
    1C        C  257   4.525   3.517   4.121
    1C        C  258   4.492   3.728   4.238
    1C        C  259   4.517   3.589   4.242
    1C        C  260   4.472   3.800   4.359
    1C        C  261   4.489   3.734   4.483
    1C        C  262   4.421   3.936   4.600
    1C        C  263   4.474   3.805   4.604
    1C        C  264   4.397   4.006   4.721
    1C        C  265   4.437   3.946   4.842
    1C        C  266   4.313   4.124   4.955
    1C        C  267   4.390   4.009   4.958
    1C        C  268   4.261   2.773   2.061
    1C        C  269   4.196   2.727   2.176
    1C        C  270   4.343   2.889   2.295
    1C        C  271   4.251   2.780   2.294
    1C        C  272   4.380   2.949   2.417
    1C        C  273   4.336   2.890   2.537
    1C        C  274   4.444   3.078   2.655
    1C        C  275   4.375   2.955   2.657
    1C        C  276   4.470   3.148   2.776
    1C        C  277   4.442   3.085   2.899
    1C        C  278   4.496   3.289   3.022
    1C        C  279   4.464   3.151   3.022
    1C        C  280   4.509   3.362   3.142
    1C        C  281   4.489   3.297   3.266
    1C        C  282   4.512   3.505   3.387
    1C        C  283   4.505   3.364   3.390
    1C        C  284   4.511   3.579   3.507
    1C        C  285   4.509   3.512   3.631
    1C        C  286   4.491   3.723   3.751
    1C        C  287   4.514   3.584   3.753
    1C        C  288   4.478   3.793   3.873
    1C        C  289   4.495   3.726   3.997
    1C        C  290   4.425   3.929   4.113
    1C        C  291   4.478   3.798   4.116
    1C        C  292   4.393   3.994   4.235
    1C        C  293   4.430   3.934   4.357
    1C        C  294   4.324   4.123   4.477
    1C        C  295   4.391   3.998   4.477
    1C        C  296   4.279   4.183   4.597
    1C        C  297   4.322   4.127   4.719
    1C        C  298   4.200   4.310   4.834
    1C        C  299   4.286   4.195   4.838
    1C        C  300   4.167   4.395   4.944
    1C        C  301   4.348   2.881   2.057
    1C        C  302   4.471   3.064   2.176
    1C        C  303   4.392   2.945   2.174
    1C        C  304   4.478   3.141   2.296
    1C        C  305   4.445   3.074   2.416
    1C        C  306   4.509   3.282   2.533
    1C        C  307   4.475   3.145   2.535
    1C        C  308   4.517   3.352   2.655
    1C        C  309   4.501   3.286   2.779
    1C        C  310   4.518   3.499   2.898
    1C        C  311   4.509   3.358   2.900
    1C        C  312   4.515   3.572   3.019
    1C        C  313   4.517   3.503   3.143
    1C        C  314   4.485   3.714   3.260
    1C        C  315   4.508   3.575   3.264
    1C        C  316   4.477   3.786   3.381
    1C        C  317   4.492   3.719   3.504
    1C        C  318   4.424   3.920   3.626
    1C        C  319   4.473   3.787   3.626
    1C        C  320   4.396   3.986   3.747
    1C        C  321   4.428   3.925   3.871
    1C        C  322   4.320   4.112   3.987
    1C        C  323   4.394   3.992   3.990
    1C        C  324   4.280   4.170   4.109
    1C        C  325   4.323   4.117   4.233
    1C        C  326   4.184   4.278   4.353
    1C        C  327   4.285   4.180   4.354
    1C        C  328   4.130   4.331   4.472
    1C        C  329   4.182   4.286   4.595
    1C        C  330   4.018   4.429   4.711
    1C        C  331   4.133   4.346   4.713
    1C        C  332   3.966   4.489   4.827
    1C        C  333   4.048   4.468   4.939
    1C        C  334   4.540   3.267   2.056
    1C        C  335   4.530   3.128   2.062
    1C        C  336   4.533   3.348   2.170
    1C        C  337   4.513   3.278   2.291
    1C        C  338   4.521   3.494   2.409
    1C        C  339   4.521   3.352   2.411
    1C        C  340   4.523   3.564   2.532
    1C        C  341   4.525   3.493   2.654
    1C        C  342   4.495   3.706   2.768
    1C        C  343   4.521   3.567   2.774
    1C        C  344   4.473   3.775   2.889
    1C        C  345   4.493   3.711   3.013
    1C        C  346   4.421   3.911   3.133
    1C        C  347   4.471   3.779   3.135
    1C        C  348   4.390   3.975   3.255
    1C        C  349   4.423   3.917   3.380
    1C        C  350   4.318   4.100   3.498
    1C        C  351   4.393   3.981   3.502
    1C        C  352   4.277   4.161   3.619
    1C        C  353   4.322   4.106   3.741
    1C        C  354   4.175   4.260   3.862
    1C        C  355   4.279   4.165   3.863
    1C        C  356   4.118   4.306   3.983
    1C        C  357   4.173   4.263   4.105
    1C        C  358   4.010   4.393   4.228
    1C        C  359   4.127   4.314   4.229
    1C        C  360   3.948   4.439   4.346
    1C        C  361   4.014   4.412   4.468
    1C        C  362   3.824   4.511   4.592
    1C        C  363   3.954   4.457   4.588
    1C        C  364   3.758   4.545   4.712
    1C        C  365   3.834   4.540   4.831
    1C        C  366   3.624   4.591   4.946
    1C        C  367   3.761   4.566   4.947
    1C        C  368   4.501   3.562   2.048
    1C        C  369   4.514   3.488   2.166
    1C        C  370   4.503   3.704   2.286
    1C        C  371   4.514   3.563   2.286
    1C        C  372   4.493   3.777   2.406
    1C        C  373   4.505   3.704   2.526
    1C        C  374   4.428   3.906   2.646
    1C        C  375   4.482   3.775   2.646
    1C        C  376   4.395   3.972   2.766
    1C        C  377   4.426   3.909   2.889
    1C        C  378   4.311   4.089   3.009
    1C        C  379   4.390   3.973   3.009
    1C        C  380   4.269   4.147   3.131
    1C        C  381   4.311   4.092   3.254
    1C        C  382   4.169   4.251   3.374
    1C        C  383   4.267   4.149   3.376
    1C        C  384   4.118   4.302   3.496
    1C        C  385   4.174   4.258   3.618
    1C        C  386   4.002   4.382   3.738
    1C        C  387   4.119   4.303   3.740
    1C        C  388   3.941   4.422   3.859
    1C        C  389   4.002   4.387   3.982
    1C        C  390   3.815   4.478   4.106
    1C        C  391   3.944   4.422   4.106
    1C        C  392   3.747   4.508   4.227
    1C        C  393   3.820   4.499   4.347
    1C        C  394   3.616   4.551   4.471
    1C        C  395   3.755   4.527   4.469
    1C        C  396   3.543   4.562   4.592
    1C        C  397   3.617   4.559   4.712
    1C        C  398   3.405   4.547   4.836
    1C        C  399   3.545   4.567   4.833
    1C        C  400   3.337   4.514   4.954
    1C        C  401   4.505   3.701   2.048
    1C        C  402   4.456   3.913   2.164
    1C        C  403   4.492   3.777   2.166
    1C        C  404   4.412   3.975   2.283
    1C        C  405   4.440   3.908   2.404
    1C        C  406   4.327   4.092   2.521
    1C        C  407   4.400   3.971   2.524
    1C        C  408   4.274   4.145   2.641
    1C        C  409   4.317   4.090   2.765
    1C        C  410   4.175   4.249   2.886
    1C        C  411   4.275   4.149   2.886
    1C        C  412   4.120   4.295   3.008
    1C        C  413   4.172   4.248   3.131
    1C        C  414   3.995   4.371   3.249
    1C        C  415   4.115   4.296   3.252
    1C        C  416   3.936   4.407   3.372
    1C        C  417   3.997   4.375   3.495
    1C        C  418   3.808   4.472   3.618
    1C        C  419   3.937   4.414   3.617
    1C        C  420   3.744   4.498   3.741
    1C        C  421   3.808   4.471   3.863
    1C        C  422   3.606   4.530   3.986
    1C        C  423   3.744   4.501   3.986
    1C        C  424   3.537   4.538   4.109
    1C        C  425   3.608   4.532   4.231
    1C        C  426   3.398   4.548   4.356
    1C        C  427   3.539   4.549   4.353
    1C        C  428   3.326   4.549   4.478
    1C        C  429   3.402   4.560   4.597
    1C        C  430   3.189   4.523   4.719
    1C        C  431   3.330   4.543   4.717
    1C        C  432   3.119   4.497   4.840
    1C        C  433   3.200   4.491   4.954
    1C        C  434   4.380   4.118   2.047
    1C        C  435   4.449   3.996   2.051
    1C        C  436   4.299   4.157   2.158
    1C        C  437   4.336   4.095   2.281
    1C        C  438   4.176   4.242   2.398
    1C        C  439   4.282   4.149   2.400
    1C        C  440   4.121   4.287   2.520
    1C        C  441   4.173   4.243   2.644
    1C        C  442   4.003   4.375   2.763
    1C        C  443   4.116   4.290   2.764
    1C        C  444   3.941   4.413   2.884
    1C        C  445   4.002   4.372   3.005
    1C        C  446   3.807   4.462   3.128
    1C        C  447   3.936   4.405   3.125
    1C        C  448   3.741   4.487   3.250
    1C        C  449   3.807   4.465   3.373
    1C        C  450   3.603   4.521   3.497
    1C        C  451   3.741   4.491   3.495
    1C        C  452   3.536   4.536   3.621
    1C        C  453   3.606   4.530   3.743
    1C        C  454   3.393   4.541   3.861
    1C        C  455   3.535   4.541   3.865
    1C        C  456   3.328   4.532   3.986
    1C        C  457   3.396   4.543   4.110
    1C        C  458   3.190   4.506   4.234
    1C        C  459   3.328   4.538   4.234
    1C        C  460   3.121   4.488   4.356
    1C        C  461   3.190   4.512   4.478
    1C        C  462   2.995   4.429   4.602
    1C        C  463   3.121   4.493   4.599
    1C        C  464   2.930   4.398   4.723
    1C        C  465   2.985   4.446   4.845
    1C        C  466   2.792   4.342   4.958
    1C        C  467   2.901   4.431   4.960
    1C        C  468   4.122   4.286   2.037
    1C        C  469   4.184   4.242   2.154
    1C        C  470   4.005   4.364   2.276
    1C        C  471   4.125   4.288   2.275
    1C        C  472   3.936   4.392   2.397
    1C        C  473   4.000   4.360   2.519
    1C        C  474   3.809   4.455   2.642
    1C        C  475   3.939   4.401   2.639
    1C        C  476   3.739   4.480   2.762
    1C        C  477   3.809   4.462   2.884
    1C        C  478   3.604   4.523   3.008
    1C        C  479   3.740   4.485   3.005
    1C        C  480   3.534   4.529   3.130
    1C        C  481   3.605   4.524   3.253
    1C        C  482   3.392   4.531   3.377
    1C        C  483   3.534   4.533   3.374
    1C        C  484   3.323   4.524   3.500
    1C        C  485   3.395   4.537   3.620
    1C        C  486   3.183   4.501   3.742
    1C        C  487   3.320   4.536   3.740
    1C        C  488   3.122   4.482   3.868
    1C        C  489   3.190   4.503   3.991
    1C        C  490   2.995   4.422   4.114
    1C        C  491   3.122   4.484   4.113
    1C        C  492   2.936   4.385   4.237
    1C        C  493   2.994   4.428   4.359
    1C        C  494   2.825   4.300   4.481
    1C        C  495   2.932   4.393   4.481
    1C        C  496   2.765   4.259   4.602
    1C        C  497   2.816   4.312   4.722
    1C        C  498   2.668   4.160   4.842
    1C        C  499   2.753   4.272   4.842
    1C        C  500   2.593   4.113   4.951
    1C        C  501   3.999   4.351   2.039
    1C        C  502   3.812   4.461   2.157
    1C        C  503   3.938   4.397   2.157
    1C        C  504   3.741   4.480   2.277
    1C        C  505   3.809   4.453   2.398
    1C        C  506   3.604   4.508   2.519
    1C        C  507   3.741   4.476   2.520
    1C        C  508   3.531   4.515   2.640
    1C        C  509   3.601   4.509   2.763
    1C        C  510   3.391   4.524   2.886
    1C        C  511   3.533   4.525   2.886
    1C        C  512   3.321   4.522   3.008
    1C        C  513   3.393   4.529   3.129
    1C        C  514   3.189   4.488   3.250
    1C        C  515   3.325   4.524   3.253
    1C        C  516   3.121   4.470   3.373
    1C        C  517   3.185   4.493   3.497
    1C        C  518   2.992   4.412   3.623
    1C        C  519   3.117   4.478   3.620
    1C        C  520   2.935   4.374   3.747
    1C        C  521   2.999   4.413   3.867
    1C        C  522   2.832   4.289   3.993
    1C        C  523   2.942   4.378   3.991
    1C        C  524   2.783   4.237   4.115
    1C        C  525   2.832   4.289   4.237
    1C        C  526   2.694   4.129   4.363
    1C        C  527   2.783   4.239   4.360
    1C        C  528   2.650   4.074   4.485
    1C        C  529   2.685   4.142   4.604
    1C        C  530   2.588   3.953   4.728
    1C        C  531   2.645   4.083   4.725
    1C        C  532   2.540   3.896   4.849
    1C        C  533   2.525   3.991   4.954
    1C        C  534   3.614   4.542   2.037
    1C        C  535   3.749   4.505   2.040
    1C        C  536   3.534   4.530   2.155
    1C        C  537   3.600   4.501   2.277
    1C        C  538   3.388   4.515   2.398
    1C        C  539   3.530   4.512   2.399
    1C        C  540   3.318   4.507   2.520
    1C        C  541   3.390   4.514   2.641
    1C        C  542   3.182   4.483   2.764
    1C        C  543   3.320   4.513   2.764
    1C        C  544   3.116   4.463   2.887
    1C        C  545   3.183   4.491   3.008
    1C        C  546   2.989   4.403   3.130
    1C        C  547   3.117   4.464   3.130
    1C        C  548   2.933   4.367   3.255
    1C        C  549   2.995   4.407   3.376
    1C        C  550   2.829   4.280   3.503
    1C        C  551   2.938   4.370   3.500
    1C        C  552   2.780   4.231   3.627
    1C        C  553   2.829   4.282   3.749
    1C        C  554   2.701   4.116   3.873
    1C        C  555   2.787   4.228   3.873
    1C        C  556   2.655   4.064   3.996
    1C        C  557   2.699   4.124   4.117
    1C        C  558   2.603   3.939   4.242
    1C        C  559   2.660   4.068   4.240
    1C        C  560   2.571   3.876   4.364
    1C        C  561   2.588   3.947   4.485
    1C        C  562   2.534   3.744   4.613
    1C        C  563   2.562   3.882   4.608
    1C        C  564   2.514   3.677   4.736
    1C        C  565   2.519   3.754   4.855
    1C        C  566   2.526   3.541   4.977
    1C        C  567   2.522   3.680   4.974
    1C        C  568   3.319   4.476   2.041
    1C        C  569   3.393   4.509   2.155
    1C        C  570   3.180   4.473   2.279
    1C        C  571   3.318   4.509   2.276
    1C        C  572   3.113   4.448   2.401
    1C        C  573   3.180   4.477   2.521
    1C        C  574   2.984   4.399   2.645
    1C        C  575   3.112   4.460   2.644
    1C        C  576   2.923   4.362   2.766
    1C        C  577   2.989   4.400   2.885
    1C        C  578   2.823   4.271   3.015
    1C        C  579   2.932   4.361   3.008
    1C        C  580   2.772   4.225   3.138
    1C        C  581   2.827   4.273   3.258
    1C        C  582   2.691   4.115   3.381
    1C        C  583   2.781   4.225   3.383
    1C        C  584   2.655   4.058   3.505
    1C        C  585   2.698   4.116   3.627
    1C        C  586   2.600   3.931   3.752
    1C        C  587   2.667   4.055   3.750
    1C        C  588   2.570   3.868   3.875
    1C        C  589   2.598   3.935   3.996
    1C        C  590   2.529   3.738   4.122
    1C        C  591   2.575   3.871   4.120
    1C        C  592   2.518   3.669   4.245
    1C        C  593   2.533   3.740   4.367
    1C        C  594   2.513   3.533   4.493
    1C        C  595   2.524   3.674   4.491
    1C        C  596   2.509   3.462   4.616
    1C        C  597   2.510   3.535   4.737
    1C        C  598   2.526   3.324   4.859
    1C        C  599   2.524   3.466   4.859
    1C        C  600   2.526   3.251   4.978
    1C        C  601   3.188   4.433   2.040
    1C        C  602   2.978   4.391   2.158
    1C        C  603   3.113   4.440   2.158
    1C        C  604   2.919   4.356   2.283
    1C        C  605   2.982   4.395   2.403
    1C        C  606   2.812   4.270   2.525
    1C        C  607   2.919   4.363   2.525
    1C        C  608   2.766   4.219   2.648
    1C        C  609   2.815   4.271   2.770
    1C        C  610   2.679   4.112   2.892
    1C        C  611   2.770   4.221   2.894
    1C        C  612   2.643   4.054   3.015
    1C        C  613   2.689   4.110   3.137
    1C        C  614   2.592   3.925   3.264
    1C        C  615   2.652   4.053   3.261
    1C        C  616   2.570   3.861   3.388
    1C        C  617   2.595   3.930   3.509
    1C        C  618   2.526   3.731   3.634
    1C        C  619   2.564   3.867   3.631
    1C        C  620   2.522   3.662   3.757
    1C        C  621   2.530   3.732   3.879
    1C        C  622   2.510   3.524   4.008
    1C        C  623   2.514   3.665   4.002
    1C        C  624   2.514   3.454   4.131
    1C        C  625   2.512   3.528   4.251
    1C        C  626   2.533   3.319   4.377
    1C        C  627   2.511   3.458   4.373
    1C        C  628   2.547   3.249   4.499
    1C        C  629   2.529   3.322   4.618
    1C        C  630   2.590   3.117   4.741
    1C        C  631   2.545   3.253   4.739
    1C        C  632   2.615   3.052   4.864
    1C        C  633   2.557   3.114   4.979
    1C        C  634   2.781   4.302   2.052
    1C        C  635   2.889   4.391   2.047
    1C        C  636   2.745   4.225   2.163
    1C        C  637   2.803   4.274   2.282
    1C        C  638   2.672   4.108   2.407
    1C        C  639   2.755   4.222   2.405
    1C        C  640   2.633   4.048   2.529
    1C        C  641   2.676   4.110   2.648
    1C        C  642   2.582   3.922   2.774
    1C        C  643   2.639   4.051   2.771
    1C        C  644   2.561   3.857   2.898
    1C        C  645   2.586   3.925   3.019
    1C        C  646   2.532   3.722   3.147
    1C        C  647   2.568   3.858   3.142
    1C        C  648   2.516   3.653   3.269
    1C        C  649   2.530   3.725   3.390
    1C        C  650   2.509   3.518   3.516
    1C        C  651   2.514   3.659   3.514
    1C        C  652   2.517   3.451   3.640
    1C        C  653   2.521   3.520   3.763
    1C        C  654   2.533   3.312   3.884
    1C        C  655   2.516   3.452   3.887
    1C        C  656   2.551   3.248   4.008
    1C        C  657   2.533   3.314   4.132
    1C        C  658   2.600   3.116   4.256
    1C        C  659   2.545   3.247   4.256
    1C        C  660   2.635   3.052   4.377
    1C        C  661   2.597   3.116   4.497
    1C        C  662   2.710   2.940   4.624
    1C        C  663   2.624   3.052   4.620
    1C        C  664   2.749   2.877   4.745
    1C        C  665   2.696   2.934   4.864
    1C        C  666   2.745   2.869   4.979
    1C        C  667   2.675   4.023   2.046
    1C        C  668   2.679   4.100   2.163
    1C        C  669   2.586   3.911   2.288
    1C        C  670   2.640   4.042   2.286
    1C        C  671   2.553   3.847   2.410
    1C        C  672   2.577   3.918   2.530
    1C        C  673   2.525   3.715   2.657
    1C        C  674   2.553   3.853   2.653
    1C        C  675   2.512   3.648   2.780
    1C        C  676   2.525   3.720   2.901
    1C        C  677   2.508   3.512   3.028
    1C        C  678   2.512   3.653   3.025
    1C        C  679   2.508   3.442   3.150
    1C        C  680   2.503   3.513   3.272
    1C        C  681   2.532   3.304   3.398
    1C        C  682   2.512   3.444   3.395
    1C        C  683   2.551   3.238   3.521
    1C        C  684   2.535   3.311   3.641
    1C        C  685   2.597   3.109   3.769
    1C        C  686   2.545   3.240   3.763
    1C        C  687   2.631   3.049   3.892
    1C        C  688   2.600   3.116   4.012
    1C        C  689   2.708   2.934   4.136
    1C        C  690   2.630   3.051   4.134
    1C        C  691   2.749   2.874   4.258
    1C        C  692   2.709   2.932   4.380
    1C        C  693   2.753   2.880   4.504
    1C        C  694   2.627   3.891   2.051
    1C        C  695   2.525   3.704   2.173
    1C        C  696   2.575   3.837   2.169
    1C        C  697   2.504   3.636   2.295
    1C        C  698   2.517   3.711   2.414
    1C        C  699   2.493   3.501   2.540
    1C        C  700   2.506   3.642   2.537
    1C        C  701   2.503   3.432   2.663
    1C        C  702   2.501   3.507   2.783
    1C        C  703   2.526   3.299   2.909
    1C        C  704   2.510   3.439   2.907
    1C        C  705   2.548   3.232   3.031
    1C        C  706   2.534   3.303   3.152
    1C        C  707   2.600   3.103   3.277
    1C        C  708   2.551   3.236   3.276
    1C        C  709   2.632   3.044   3.401
    1C        C  710   2.602   3.106   3.525
    1C        C  711   2.711   2.926   3.647
    1C        C  712   2.632   3.043   3.648
    1C        C  713   2.755   2.876   3.772
    1C        C  714   2.711   2.932   3.894
    1C        C  715   2.758   2.879   4.016
    1C        C  716   2.450   3.493   2.058
    1C        C  717   2.489   3.628   2.061
    1C        C  718   2.465   3.419   2.179
    1C        C  719   2.480   3.496   2.297
    1C        C  720   2.506   3.288   2.421
    1C        C  721   2.481   3.427   2.420
    1C        C  722   2.530   3.221   2.543
    1C        C  723   2.522   3.293   2.664
    1C        C  724   2.595   3.096   2.787
    1C        C  725   2.542   3.227   2.788
    1C        C  726   2.627   3.035   2.910
    1C        C  727   2.595   3.099   3.032
    1C        C  728   2.714   2.926   3.157
    1C        C  729   2.626   3.036   3.155
    1C        C  730   2.753   2.869   3.280
    1C        C  731   2.710   2.927   3.402
    1C        C  732   2.756   2.873   3.524
    1C        C  733   2.496   3.197   2.067
    1C        C  734   2.487   3.277   2.182
    1C        C  735   2.579   3.081   2.302
    1C        C  736   2.522   3.212   2.303
    1C        C  737   2.607   3.017   2.425
    1C        C  738   2.588   3.092   2.543
    1C        C  739   2.702   2.914   2.665
    1C        C  740   2.621   3.029   2.666
    1C        C  741   2.747   2.859   2.787
    1C        C  742   2.706   2.918   2.909
    1C        C  743   2.753   2.869   3.033
    1C        C  744   2.541   3.065   2.073
    1C        C  745   2.688   2.895   2.181
    1C        C  746   2.608   3.011   2.184
    1C        C  747   2.730   2.840   2.304
    1C        C  748   2.689   2.902   2.424
    1C        C  749   2.738   2.848   2.545
    1C        C  750   2.730   2.828   2.065
    1C        C  751   3.653   2.310   1.975
    1C        O  752   3.721   2.210   2.009
    1C        O  753   3.665   2.350   1.841
    1C        C  754   4.598   3.056   1.951
    1C        O  755   4.546   3.032   1.839
    1C        O  756   4.706   2.972   1.980
    1C        C  757   4.460   4.214   1.968
    1C        O  758   4.533   4.304   2.017
    1C        O  759   4.426   4.241   1.835
    1C        C  760   3.594   4.650   1.939
    1C        O  761   3.519   4.750   1.955
    1C        O  762   3.616   4.625   1.803
    1C        C  763   2.896   4.484   1.931
    1C        O  764   2.941   4.441   1.822
    1C        O  765   2.823   4.604   1.932
    1C        C  766   2.337   3.473   1.964
    1C        O  767   2.348   3.496   1.841
    1C        O  768   2.211   3.432   2.010
    1C        C  769   4.679   3.583   5.065
    1C        O  770   4.661   3.617   5.185
    1C        O  771   4.814   3.599   5.031
    1C        C  772   4.269   4.448   5.038
    1C        O  773   4.268   4.407   5.157
    1C        O  774   4.355   4.556   5.017
    1C        C  775   4.138   2.528   5.079
    1C        O  776   4.187   2.413   5.057
    1C        O  777   4.112   2.557   5.213
    1C        C  778   2.881   4.548   5.048
    1C        O  779   2.836   4.649   4.988
    1C        O  780   2.835   4.530   5.179
    1C        C  781   2.458   3.036   5.056
    1C        O  782   2.341   3.023   5.009
    1C        O  783   2.479   3.022   5.192
    1C        C  784   2.401   3.987   5.036
    1C        O  785   2.294   4.043   5.001
    1C        O  786   2.408   3.957   5.172
    1C        C  787   2.943   2.402   2.026
    1C        O  788   2.885   2.419   1.915
    1C        O  789   2.957   2.272   2.072
    1C        C  790   3.176   2.380   5.071
    1C        O  791   3.155   2.262   5.033
    1C        O  792   3.210   2.400   5.205
    1C        H  793   4.311   3.002   5.070
    1C        H  794   4.177   2.798   5.067
    1C        H  795   4.497   3.125   5.055
    1C        H  796   4.519   3.366   5.067
    1C        H  797   4.557   3.807   5.046
    1C        H  798   4.349   3.940   5.029
    1C        H  799   4.235   4.123   5.029
    1C        H  800   4.005   4.504   5.030
    1C        H  801   3.821   4.600   5.029
    1C        H  802   3.584   4.657   5.019
    1C        H  803   3.391   4.493   5.043
    1C        H  804   3.162   4.459   5.049
    1C        H  805   3.897   2.466   5.061
    1C        H  806   3.675   2.440   5.065
    1C        H  807   2.981   2.510   5.027
    1C        H  808   3.438   2.443   5.064
    1C        H  809   2.896   2.759   5.075
    1C        H  810   2.717   2.913   5.072
    1C        H  811   2.494   3.294   5.071
    1C        H  812   2.556   3.492   5.067
    1C        H  813   2.554   3.735   5.060
    1C        H  814   2.573   4.176   5.036
    1C        H  815   2.738   4.325   5.048
    1C        H  816   2.659   2.803   1.988
    1C        H  817   2.899   2.738   1.994
    1C        H  818   3.208   2.463   1.977
    1C        H  819   3.427   2.454   1.979
    1C        H  820   3.863   2.489   1.974
    1C        H  821   4.044   2.660   1.972
    1C        H  822   4.268   2.707   1.976
    1C        H  823   4.400   2.894   1.964
    1C        H  824   4.532   3.315   1.960
    1C        H  825   4.496   3.515   1.952
    1C        H  826   4.518   3.752   1.955
    1C        H  827   3.814   4.566   1.980
    1C        H  828   3.984   4.413   1.953
    1C        H  829   4.185   4.305   1.952
    1C        H  830   4.502   3.965   1.964
    1C        H  831   2.674   3.826   1.980
    1C        H  832   2.697   4.061   1.948
    1C        H  833   2.704   4.320   1.980
    1C        H  834   3.359   4.491   1.943
    1C        H  835   3.161   4.377   1.953
    1C        H  836   2.507   2.994   2.001
    1C        H  837   2.446   3.232   1.980
    1C        H  838   2.522   3.670   1.968
    2V3OU   H29  839   2.802   3.552   1.116
    2V3OU   C27  840   2.773   3.494   1.207
    2V3OU   H27  841   2.715   3.556   1.279
    2V3OU   H28  842   2.731   3.395   1.176
    2V3OU   O11  843   2.903   3.468   1.260
    2V3OU   C15  844   2.918   3.388   1.372
    2V3OU   C13  845   3.046   3.368   1.427
    2V3OU   C14  846   3.071   3.265   1.518
    2V3OU   C16  847   2.966   3.189   1.568
    2V3OU    H6  848   2.989   3.101   1.629
    2V3OU   C12  849   3.211   3.227   1.550
    2V3OU    O2  850   3.236   3.131   1.625
    2V3OU   C10  851   3.325   3.305   1.499
    2V3OU    C8  852   3.456   3.269   1.527
    2V3OU   O10  853   3.484   3.146   1.579
    2V3OU   H26  854   3.403   3.112   1.618
    2V3OU    C6  855   3.565   3.350   1.481
    2V3OU    C5  856   3.538   3.468   1.413
    2V3OU    C4  857   3.700   3.289   1.469
    2V3OU    H4  858   3.723   3.227   1.560
    2V3OU    H5  859   3.709   3.221   1.379
    2V3OU    C2  860   3.812   3.393   1.465
    2V3OU    O6  861   3.806   3.475   1.582
    2V3OU   H21  862   3.752   3.552   1.557
    2V3OU    C3  863   3.783   3.491   1.352
    2V3OU    H2  864   3.865   3.567   1.347
    2V3OU    H3  865   3.777   3.437   1.254
    2V3OU   C25  866   3.950   3.326   1.458
    2V3OU    O7  867   3.996   3.300   1.347
    2V3OU   C26  868   4.026   3.288   1.584
    2V3OU   H22  869   4.064   3.382   1.630
    2V3OU   H23  870   4.113   3.223   1.557
    2V3OU    O8  871   3.964   3.208   1.682
    2V3OU   H24  872   3.920   3.253   1.756
    2V3OU    C1  873   3.651   3.561   1.377
    2V3OU    H1  874   3.621   3.618   1.284
    2V3OU    O3  875   3.655   3.652   1.487
    2V3OU   C19  876   3.614   3.789   1.481
    2V3OU    H9  877   3.522   3.802   1.418
    2V3OU    O4  878   3.711   3.851   1.400
    2V3OU   C20  879   3.842   3.870   1.453
    2V3OU   H10  880   3.896   3.773   1.472
    2V3OU   C24  881   3.607   3.852   1.621
    2V3OU   H16  882   3.539   3.788   1.682
    2V3OU   H17  883   3.559   3.953   1.621
    2V3OU   C23  884   3.746   3.873   1.681
    2V3OU   H15  885   3.790   3.769   1.692
    2V3OU    N1  886   3.734   3.951   1.802
    2V3OU   H19  887   3.802   3.928   1.872
    2V3OU   H20  888   3.650   3.933   1.853
    2V3OU   C21  889   3.847   3.946   1.586
    2V3OU   H11  890   3.951   3.929   1.626
    2V3OU    O5  891   3.826   4.086   1.582
    2V3OU   H18  892   3.780   4.104   1.666
    2V3OU   C22  893   3.910   3.949   1.342
    2V3OU   H12  894   3.857   4.046   1.325
    2V3OU   H13  895   3.901   3.894   1.245
    2V3OU   H14  896   4.019   3.956   1.368
    2V3OU   C11  897   3.154   3.465   1.404
    2V3OU    O1  898   3.136   3.576   1.349
    2V3OU    C9  899   3.294   3.426   1.432
    2V3OU    C7  900   3.402   3.504   1.391
    2V3OU    O9  901   3.385   3.616   1.312
    2V3OU   H25  902   3.289   3.625   1.323
    2V3OU   C17  903   2.813   3.309   1.422
    2V3OU    H7  904   2.710   3.342   1.406
    2V3OU   C18  905   2.839   3.209   1.515
    2V3OU    H8  906   2.751   3.149   1.541
    3SOL     OW  907   1.143   3.150   0.481
    3SOL    HW1  908   1.103   3.226   0.429
    3SOL    HW2  909   1.210   3.187   0.546
    4SOL     OW  910   5.497   0.582   1.975
    4SOL    HW1  911   5.522   0.660   2.032
    4SOL    HW2  912   5.515   0.603   1.879
    5SOL     OW  913   3.653   2.520   1.127
    5SOL    HW1  914   3.752   2.506   1.124
    5SOL    HW2  915   3.623   2.525   1.222
    6SOL     OW  916   2.897   2.072   1.198
    6SOL    HW1  917   2.952   2.015   1.259
    6SOL    HW2  918   2.941   2.161   1.187
    7SOL     OW  919   5.891   1.165   1.729
    7SOL    HW1  920   5.804   1.167   1.681
    7SOL    HW2  921   5.940   1.081   1.706
    8SOL     OW  922   2.369   1.399   4.439
    8SOL    HW1  923   2.361   1.481   4.495
    8SOL    HW2  924   2.278   1.365   4.416
    9SOL     OW  925   1.238   3.667   5.866
    9SOL    HW1  926   1.142   3.685   5.889
    9SOL    HW2  927   1.251   3.676   5.768
   10SOL     OW  928   0.292   3.791   0.118
   10SOL    HW1  929   0.293   3.789   0.018
   10SOL    HW2  930   0.209   3.836   0.150
   11SOL     OW  931   4.117   6.410   0.070
   11SOL    HW1  932   4.123   6.443   6.993
   11SOL    HW2  933   4.179   6.333   0.082
   12SOL     OW  934   5.857   6.229   2.214
   12SOL    HW1  935   5.901   6.247   2.302
   12SOL    HW2  936   5.815   6.139   2.216
   13SOL     OW  937   2.518   6.394   3.425
   13SOL    HW1  938   2.497   6.296   3.427
   13SOL    HW2  939   2.432   6.445   3.418
   14SOL     OW  940   3.162   6.437   1.362
   14SOL    HW1  941   3.118   6.516   1.318
   14SOL    HW2  942   3.254   6.426   1.325
   15SOL     OW  943   1.523   6.188   6.487
   15SOL    HW1  944   1.582   6.170   6.408
   15SOL    HW2  945   1.450   6.251   6.461
   16SOL     OW  946   6.326   1.837   6.042
   16SOL    HW1  947   6.252   1.874   6.098
   16SOL    HW2  948   6.325   1.880   5.952
   17SOL     OW  949   5.357   6.552   4.275
   17SOL    HW1  950   5.396   6.526   4.363
   17SOL    HW2  951   5.287   6.622   4.289
   18SOL     OW  952   1.653   1.290   6.662
   18SOL    HW1  953   1.595   1.355   6.710
   18SOL    HW2  954   1.658   1.313   6.565
   19SOL     OW  955   0.504   0.065   1.791
   19SOL    HW1  956   0.585   0.043   1.737
   19SOL    HW2  957   0.528   0.066   1.888
   20SOL     OW  958   3.382   1.658   4.622
   20SOL    HW1  959   3.311   1.715   4.581
   20SOL    HW2  960   3.433   1.612   4.550
   21SOL     OW  961   2.886   2.470   1.008
   21SOL    HW1  962   2.860   2.558   1.047
   21SOL    HW2  963   2.897   2.479   0.909
   22SOL     OW  964   0.871   0.445   5.929
   22SOL    HW1  965   0.960   0.412   5.960
   22SOL    HW2  966   0.883   0.516   5.860
   23SOL     OW  967   3.812   6.526   4.435
   23SOL    HW1  968   3.910   6.525   4.413
   23SOL    HW2  969   3.760   6.492   4.356
   24SOL     OW  970   4.277   1.512   4.505
   24SOL    HW1  971   4.369   1.508   4.544
   24SOL    HW2  972   4.252   1.422   4.469
   25SOL     OW  973   3.327   5.640   0.784
   25SOL    HW1  974   3.251   5.689   0.829
   25SOL    HW2  975   3.409   5.646   0.841
   26SOL     OW  976   6.496   1.482   2.334
   26SOL    HW1  977   6.465   1.539   2.258
   26SOL    HW2  978   6.440   1.501   2.415
   27SOL     OW  979   6.108   6.461   2.185
   27SOL    HW1  980   6.183   6.526   2.177
   27SOL    HW2  981   6.072   6.440   2.093
   28SOL     OW  982   3.458   0.303   0.122
   28SOL    HW1  983   3.461   0.312   0.221
   28SOL    HW2  984   3.500   0.383   0.080
   29SOL     OW  985   4.106   2.335   1.717
   29SOL    HW1  986   4.146   2.394   1.646
   29SOL    HW2  987   4.007   2.330   1.704
   30SOL     OW  988   3.982   0.640   4.600
   30SOL    HW1  989   4.003   0.582   4.678
   30SOL    HW2  990   3.883   0.648   4.590
   31SOL     OW  991   0.098   0.864   5.716
   31SOL    HW1  992   0.084   0.785   5.656
   31SOL    HW2  993   0.171   0.921   5.679
   32SOL     OW  994   0.176   1.712   1.802
   32SOL    HW1  995   0.207   1.695   1.708
   32SOL    HW2  996   0.240   1.772   1.849
   33SOL     OW  997   1.479   2.027   5.459
   33SOL    HW1  998   1.469   1.932   5.488
   33SOL    HW2  999   1.536   2.031   5.377
   34SOL     OW 1000   0.983   0.559   4.867
   34SOL    HW1 1001   0.925   0.584   4.790
   34SOL    HW2 1002   1.078   0.552   4.836
   35SOL     OW 1003   4.042   1.606   6.401
   35SOL    HW1 1004   4.028   1.626   6.304
   35SOL    HW2 1005   4.132   1.564   6.413
   36SOL     OW 1006   1.505   1.792   5.830
   36SOL    HW1 1007   1.574   1.763   5.764
   36SOL    HW2 1008   1.522   1.887   5.856
   37SOL     OW 1009   2.587   6.647   1.588
   37SOL    HW1 1010   2.686   6.634   1.600
   37SOL    HW2 1011   2.559   6.733   1.630
   38SOL     OW 1012   7.001   5.944   3.035
   38SOL    HW1 1013   0.049   5.872   3.012
   38SOL    HW2 1014   6.926   5.943   2.969
   39SOL     OW 1015   7.003   3.230   5.119
   39SOL    HW1 1016   7.000   3.132   5.099
   39SOL    HW2 1017   0.080   3.259   5.131
   40SOL     OW 1018   6.830   0.814   1.676
   40SOL    HW1 1019   6.882   0.894   1.644
   40SOL    HW2 1020   6.875   0.776   1.758
   41SOL     OW 1021   1.145   6.713   5.852
   41SOL    HW1 1022   1.238   6.739   5.879
   41SOL    HW2 1023   1.095   6.794   5.822
   42SOL     OW 1024   3.582   0.576   6.994
   42SOL    HW1 1025   3.649   0.571   0.050
   42SOL    HW2 1026   3.536   0.665   6.997
   43SOL     OW 1027   5.366   5.405   5.329
   43SOL    HW1 1028   5.380   5.379   5.234
   43SOL    HW2 1029   5.270   5.429   5.344
   44SOL     OW 1030   0.722   3.466   6.432
   44SOL    HW1 1031   0.647   3.430   6.377
   44SOL    HW2 1032   0.755   3.552   6.393
   45SOL     OW 1033   3.116   0.312   2.211
   45SOL    HW1 1034   3.101   0.301   2.113
   45SOL    HW2 1035   3.064   0.243   2.261
   46SOL     OW 1036   1.782   4.089   4.057
   46SOL    HW1 1037   1.714   4.017   4.044
   46SOL    HW2 1038   1.736   4.176   4.074
   47SOL     OW 1039   6.395   4.774   3.238
   47SOL    HW1 1040   6.387   4.711   3.161
   47SOL    HW2 1041   6.396   4.868   3.204
   48SOL     OW 1042   0.912   2.748   5.405
   48SOL    HW1 1043   0.910   2.809   5.485
   48SOL    HW2 1044   0.836   2.684   5.411
   49SOL     OW 1045   4.837   2.211   0.649
   49SOL    HW1 1046   4.911   2.181   0.709
   49SOL    HW2 1047   4.806   2.301   0.678
   50SOL     OW 1048   6.650   4.002   4.398
   50SOL    HW1 1049   6.655   3.915   4.348
   50SOL    HW2 1050   6.669   4.078   4.336
   51SOL     OW 1051   3.772   5.587   2.786
   51SOL    HW1 1052   3.717   5.627   2.713
   51SOL    HW2 1053   3.838   5.655   2.819
   52SOL     OW 1054   1.492   2.443   1.574
   52SOL    HW1 1055   1.546   2.526   1.584
   52SOL    HW2 1056   1.506   2.384   1.653
   53SOL     OW 1057   5.014   0.257   3.947
   53SOL    HW1 1058   4.979   0.348   3.969
   53SOL    HW2 1059   5.112   0.264   3.926
   54SOL     OW 1060   4.001   5.377   5.530
   54SOL    HW1 1061   4.060   5.458   5.524
   54SOL    HW2 1062   3.908   5.400   5.502
   55SOL     OW 1063   4.191   2.235   0.644
   55SOL    HW1 1064   4.166   2.170   0.572
   55SOL    HW2 1065   4.181   2.328   0.609
   56SOL     OW 1066   0.993   0.203   2.154
   56SOL    HW1 1067   0.901   0.177   2.185
   56SOL    HW2 1068   0.987   0.276   2.087
   57SOL     OW 1069   6.061   0.539   0.518
   57SOL    HW1 1070   6.086   0.634   0.498
   57SOL    HW2 1071   6.143   0.488   0.545
   58SOL     OW 1072   6.936   6.517   0.129
   58SOL    HW1 1073   7.006   6.588   0.125
   58SOL    HW2 1074   6.881   6.520   0.045
   59SOL     OW 1075   1.252   0.158   5.098
   59SOL    HW1 1076   1.184   0.186   5.165
   59SOL    HW2 1077   1.207   0.127   5.014
   60SOL     OW 1078   4.774   7.006   4.695
   60SOL    HW1 1079   4.754   0.040   4.611
   60SOL    HW2 1080   4.689   6.980   4.740
   61SOL     OW 1081   4.033   0.546   4.328
   61SOL    HW1 1082   4.009   0.595   4.412
   61SOL    HW2 1083   4.013   0.448   4.339
   62SOL     OW 1084   1.854   1.207   4.531
   62SOL    HW1 1085   1.841   1.143   4.455
   62SOL    HW2 1086   1.765   1.244   4.559
   63SOL     OW 1087   0.154   3.346   3.019
   63SOL    HW1 1088   0.160   3.268   3.082
   63SOL    HW2 1089   0.064   3.347   2.975
   64SOL     OW 1090   0.039   3.453   5.792
   64SOL    HW1 1091   6.988   3.402   5.741
   64SOL    HW2 1092   0.079   3.524   5.734
   65SOL     OW 1093   6.720   4.521   6.054
   65SOL    HW1 1094   6.775   4.438   6.065
   65SOL    HW2 1095   6.779   4.601   6.062
   66SOL     OW 1096   2.811   1.214   0.832
   66SOL    HW1 1097   2.782   1.134   0.781
   66SOL    HW2 1098   2.769   1.296   0.793
   67SOL     OW 1099   5.428   5.886   4.030
   67SOL    HW1 1100   5.427   5.976   4.075
   67SOL    HW2 1101   5.335   5.853   4.019
   68SOL     OW 1102   5.373   1.916   5.783
   68SOL    HW1 1103   5.281   1.878   5.777
   68SOL    HW2 1104   5.375   1.986   5.855
   69SOL     OW 1105   2.754   3.337   6.525
   69SOL    HW1 1106   2.839   3.286   6.539
   69SOL    HW2 1107   2.691   3.319   6.600
   70SOL     OW 1108   0.407   4.999   2.108
   70SOL    HW1 1109   0.364   4.911   2.090
   70SOL    HW2 1110   0.442   5.038   2.023
   71SOL     OW 1111   1.420   2.133   2.941
   71SOL    HW1 1112   1.405   2.152   2.844
   71SOL    HW2 1113   1.340   2.162   2.994
   72SOL     OW 1114   3.585   5.655   4.028
   72SOL    HW1 1115   3.544   5.713   3.958
   72SOL    HW2 1116   3.684   5.650   4.014
   73SOL     OW 1117   4.425   2.447   0.104
   73SOL    HW1 1118   4.333   2.460   0.140
   73SOL    HW2 1119   4.468   2.536   0.088
   74SOL     OW 1120   5.308   5.619   5.808
   74SOL    HW1 1121   5.324   5.691   5.740
   74SOL    HW2 1122   5.210   5.610   5.825
   75SOL     OW 1123   3.823   5.749   5.652
   75SOL    HW1 1124   3.735   5.704   5.660
   75SOL    HW2 1125   3.817   5.823   5.585
   76SOL     OW 1126   2.618   2.969   1.139
   76SOL    HW1 1127   2.586   3.054   1.180
   76SOL    HW2 1128   2.684   2.925   1.200
   77SOL     OW 1129   5.760   5.462   6.766
   77SOL    HW1 1130   5.674   5.509   6.783
   77SOL    HW2 1131   5.809   5.507   6.692
   78SOL     OW 1132   6.768   6.491   6.043
   78SOL    HW1 1133   6.721   6.577   6.022
   78SOL    HW2 1134   6.725   6.417   5.992
   79SOL     OW 1135   2.977   6.990   6.789
   79SOL    HW1 1136   2.978   6.917   6.858
   79SOL    HW2 1137   3.058   6.982   6.731
   80SOL     OW 1138   6.994   1.718   3.969
   80SOL    HW1 1139   0.029   1.703   3.886
   80SOL    HW2 1140   0.001   1.649   4.037
   81SOL     OW 1141   1.304   0.482   3.358
   81SOL    HW1 1142   1.320   0.566   3.410
   81SOL    HW2 1143   1.391   0.448   3.322
   82SOL     OW 1144   0.072   4.690   5.298
   82SOL    HW1 1145   0.021   4.607   5.276
   82SOL    HW2 1146   0.082   4.697   5.398
   83SOL     OW 1147   0.218   6.940   0.514
   83SOL    HW1 1148   0.205   0.020   0.531
   83SOL    HW2 1149   0.313   6.916   0.533
   84SOL     OW 1150   6.019   4.116   1.562
   84SOL    HW1 1151   5.993   4.106   1.466
   84SOL    HW2 1152   5.972   4.046   1.616
   85SOL     OW 1153   0.313   3.062   5.317
   85SOL    HW1 1154   0.225   3.014   5.310
   85SOL    HW2 1155   0.345   3.060   5.412
   86SOL     OW 1156   0.793   0.989   5.703
   86SOL    HW1 1157   0.873   0.953   5.751
   86SOL    HW2 1158   0.823   1.032   5.618
   87SOL     OW 1159   4.038   0.760   0.941
   87SOL    HW1 1160   4.126   0.784   0.981
   87SOL    HW2 1161   4.028   0.807   0.853
   88SOL     OW 1162   5.344   0.586   0.609
   88SOL    HW1 1163   5.249   0.585   0.576
   88SOL    HW2 1164   5.345   0.605   0.707
   89SOL     OW 1165   1.779   2.235   5.972
   89SOL    HW1 1166   1.703   2.208   6.032
   89SOL    HW2 1167   1.750   2.312   5.915
   90SOL     OW 1168   5.897   6.644   3.809
   90SOL    HW1 1169   5.949   6.572   3.855
   90SOL    HW2 1170   5.852   6.606   3.728
   91SOL     OW 1171   4.591   4.832   4.840
   91SOL    HW1 1172   4.499   4.794   4.849
   91SOL    HW2 1173   4.658   4.757   4.845
   92SOL     OW 1174   3.053   5.069   1.590
   92SOL    HW1 1175   3.034   5.134   1.663
   92SOL    HW2 1176   3.129   5.101   1.535
   93SOL     OW 1177   3.511   5.329   5.607
   93SOL    HW1 1178   3.443   5.280   5.662
   93SOL    HW2 1179   3.489   5.321   5.510
   94SOL     OW 1180   2.397   5.895   0.156
   94SOL    HW1 1181   2.429   5.801   0.167
   94SOL    HW2 1182   2.320   5.912   0.217
   95SOL     OW 1183   6.588   0.565   4.991
   95SOL    HW1 1184   6.575   0.658   4.957
   95SOL    HW2 1185   6.504   0.513   4.977
   96SOL     OW 1186   1.693   0.343   5.316
   96SOL    HW1 1187   1.594   0.352   5.324
   96SOL    HW2 1188   1.721   0.361   5.222
   97SOL     OW 1189   6.591   3.442   5.406
   97SOL    HW1 1190   6.655   3.446   5.329
   97SOL    HW2 1191   6.583   3.348   5.438
   98SOL     OW 1192   5.996   2.432   5.979
   98SOL    HW1 1193   6.092   2.458   5.966
   98SOL    HW2 1194   5.945   2.447   5.894
   99SOL     OW 1195   4.340   2.273   0.904
   99SOL    HW1 1196   4.404   2.197   0.903
   99SOL    HW2 1197   4.297   2.283   0.815
  100SOL     OW 1198   6.638   5.185   6.229
  100SOL    HW1 1199   6.605   5.279   6.219
  100SOL    HW2 1200   6.655   5.165   6.325
  101SOL     OW 1201   1.050   6.409   3.893
  101SOL    HW1 1202   1.015   6.455   3.974
  101SOL    HW2 1203   1.082   6.476   3.827
  102SOL     OW 1204   4.918   0.138   3.697
  102SOL    HW1 1205   4.934   0.186   3.783
  102SOL    HW2 1206   5.001   0.090   3.669
  103SOL     OW 1207   3.898   1.786   1.172
  103SOL    HW1 1208   3.851   1.873   1.161
  103SOL    HW2 1209   3.916   1.769   1.269
  104SOL     OW 1210   0.205   5.670   2.226
  104SOL    HW1 1211   0.216   5.768   2.239
  104SOL    HW2 1212   0.247   5.642   2.140
  105SOL     OW 1213   5.005   1.017   5.712
  105SOL    HW1 1214   4.921   0.963   5.711
  105SOL    HW2 1215   5.020   1.052   5.805
  106SOL     OW 1216   2.835   6.418   6.414
  106SOL    HW1 1217   2.811   6.329   6.453
  106SOL    HW2 1218   2.764   6.446   6.350
  107SOL     OW 1219   2.491   3.539   0.877
  107SOL    HW1 1220   2.543   3.460   0.909
  107SOL    HW2 1221   2.552   3.619   0.872
  108SOL     OW 1222   4.923   4.488   5.577
  108SOL    HW1 1223   4.968   4.438   5.504
  108SOL    HW2 1224   4.975   4.571   5.598
  109SOL     OW 1225   6.665   1.036   0.946
  109SOL    HW1 1226   6.660   0.936   0.941
  109SOL    HW2 1227   6.757   1.066   0.920
  110SOL     OW 1228   3.833   5.910   5.065
  110SOL    HW1 1229   3.834   5.831   5.126
  110SOL    HW2 1230   3.924   5.952   5.063
  111SOL     OW 1231   3.783   1.174   3.367
  111SOL    HW1 1232   3.777   1.114   3.446
  111SOL    HW2 1233   3.713   1.246   3.373
  112SOL     OW 1234   0.444   0.398   6.429
  112SOL    HW1 1235   0.400   0.486   6.410
  112SOL    HW2 1236   0.402   0.327   6.373
  113SOL     OW 1237   0.236   5.390   3.336
  113SOL    HW1 1238   0.167   5.452   3.373
  113SOL    HW2 1239   0.244   5.405   3.237
  114SOL     OW 1240   0.620   6.827   0.209
  114SOL    HW1 1241   0.673   6.862   0.286
  114SOL    HW2 1242   0.596   6.902   0.148
  115SOL     OW 1243   5.185   1.200   4.744
  115SOL    HW1 1244   5.225   1.112   4.769
  115SOL    HW2 1245   5.226   1.233   4.659
  116SOL     OW 1246   6.247   4.585   2.189
  116SOL    HW1 1247   6.299   4.535   2.120
  116SOL    HW2 1248   6.298   4.667   2.216
  117SOL     OW 1249   1.725   6.853   6.614
  117SOL    HW1 1250   1.798   6.786   6.628
  117SOL    HW2 1251   1.754   6.942   6.649
  118SOL     OW 1252   1.331   0.733   2.404
  118SOL    HW1 1253   1.317   0.774   2.314
  118SOL    HW2 1254   1.337   0.805   2.473
  119SOL     OW 1255   6.836   3.381   6.582
  119SOL    HW1 1256   6.901   3.319   6.538
  119SOL    HW2 1257   6.820   3.351   6.677
  120SOL     OW 1258   5.780   6.423   0.829
  120SOL    HW1 1259   5.731   6.507   0.805
  120SOL    HW2 1260   5.849   6.444   0.899
  121SOL     OW 1261   2.420   3.042   5.956
  121SOL    HW1 1262   2.498   3.105   5.946
  121SOL    HW2 1263   2.444   2.971   6.022
  122SOL     OW 1264   0.719   3.202   4.442
  122SOL    HW1 1265   0.807   3.246   4.460
  122SOL    HW2 1266   0.652   3.232   4.510
  123SOL     OW 1267   0.870   1.675   1.444
  123SOL    HW1 1268   0.834   1.753   1.494
  123SOL    HW2 1269   0.795   1.628   1.397
  124SOL     OW 1270   4.750   3.070   0.903
  124SOL    HW1 1271   4.743   3.064   1.003
  124SOL    HW2 1272   4.829   3.126   0.879
  125SOL     OW 1273   2.095   3.451   1.749
  125SOL    HW1 1274   2.064   3.365   1.787
  125SOL    HW2 1275   2.189   3.469   1.780
  126SOL     OW 1276   3.160   4.858   1.418
  126SOL    HW1 1277   3.120   4.843   1.509
  126SOL    HW2 1278   3.241   4.917   1.427
  127SOL     OW 1279   0.411   6.178   6.429
  127SOL    HW1 1280   0.488   6.226   6.387
  127SOL    HW2 1281   0.360   6.130   6.359
  128SOL     OW 1282   4.524   2.676   1.470
  128SOL    HW1 1283   4.490   2.607   1.533
  128SOL    HW2 1284   4.529   2.765   1.516
  129SOL     OW 1285   2.656   4.079   6.477
  129SOL    HW1 1286   2.710   4.006   6.517
  129SOL    HW2 1287   2.714   4.158   6.459
  130SOL     OW 1288   1.360   1.962   4.304
  130SOL    HW1 1289   1.444   1.995   4.348
  130SOL    HW2 1290   1.281   2.010   4.342
  131SOL     OW 1291   5.299   1.731   2.901
  131SOL    HW1 1292   5.235   1.772   2.967
  131SOL    HW2 1293   5.260   1.736   2.809
  132SOL     OW 1294   0.805   2.431   0.555
  132SOL    HW1 1295   0.854   2.484   0.623
  132SOL    HW2 1296   0.709   2.459   0.552
  133SOL     OW 1297   6.688   5.442   2.425
  133SOL    HW1 1298   6.629   5.361   2.423
  133SOL    HW2 1299   6.767   5.424   2.485
  134SOL     OW 1300   0.379   3.402   2.876
  134SOL    HW1 1301   0.393   3.338   2.801
  134SOL    HW2 1302   0.292   3.381   2.921
  135SOL     OW 1303   5.042   1.077   4.271
  135SOL    HW1 1304   4.982   1.139   4.322
  135SOL    HW2 1305   5.137   1.099   4.291
  136SOL     OW 1306   5.720   4.897   5.016
  136SOL    HW1 1307   5.783   4.883   4.940
  136SOL    HW2 1308   5.747   4.840   5.093
  137SOL     OW 1309   4.150   0.211   5.890
  137SOL    HW1 1310   4.154   0.197   5.791
  137SOL    HW2 1311   4.112   0.302   5.909
  138SOL     OW 1312   6.919   4.927   4.792
  138SOL    HW1 1313   6.952   4.992   4.861
  138SOL    HW2 1314   6.860   4.975   4.727
  139SOL     OW 1315   3.785   5.172   5.630
  139SOL    HW1 1316   3.796   5.239   5.703
  139SOL    HW2 1317   3.702   5.193   5.578
  140SOL     OW 1318   6.061   4.387   4.611
  140SOL    HW1 1319   6.132   4.319   4.600
  140SOL    HW2 1320   6.033   4.391   4.707
  141SOL     OW 1321   1.572   2.100   4.041
  141SOL    HW1 1322   1.638   2.163   4.082
  141SOL    HW2 1323   1.613   2.053   3.964
  142SOL     OW 1324   1.859   5.284   1.443
  142SOL    HW1 1325   1.930   5.216   1.428
  142SOL    HW2 1326   1.890   5.349   1.513
  143SOL     OW 1327   5.729   4.125   1.912
  143SOL    HW1 1328   5.638   4.088   1.928
  143SOL    HW2 1329   5.778   4.132   1.999
  144SOL     OW 1330   2.417   0.005   6.921
  144SOL    HW1 1331   2.327   0.024   6.962
  144SOL    HW2 1332   2.487   0.015   6.991
  145SOL     OW 1333   0.392   5.519   0.770
  145SOL    HW1 1334   0.326   5.592   0.751
  145SOL    HW2 1335   0.358   5.433   0.732
  146SOL     OW 1336   5.961   5.218   0.781
  146SOL    HW1 1337   5.984   5.140   0.722
  146SOL    HW2 1338   5.951   5.187   0.875
  147SOL     OW 1339   6.136   2.172   1.232
  147SOL    HW1 1340   6.230   2.156   1.263
  147SOL    HW2 1341   6.072   2.138   1.301
  148SOL     OW 1342   1.056   5.370   5.495
  148SOL    HW1 1343   1.041   5.309   5.572
  148SOL    HW2 1344   0.986   5.354   5.425
  149SOL     OW 1345   3.161   0.912   5.274
  149SOL    HW1 1346   3.185   0.875   5.363
  149SOL    HW2 1347   3.063   0.932   5.271
  150SOL     OW 1348   0.245   5.264   6.752
  150SOL    HW1 1349   0.290   5.311   6.676
  150SOL    HW2 1350   0.199   5.332   6.810
  151SOL     OW 1351   3.980   1.705   1.412
  151SOL    HW1 1352   3.968   1.748   1.501
  151SOL    HW2 1353   4.000   1.608   1.424
  152SOL     OW 1354   3.392   0.975   4.507
  152SOL    HW1 1355   3.346   1.047   4.457
  152SOL    HW2 1356   3.328   0.933   4.572
  153SOL     OW 1357   2.227   1.539   3.293
  153SOL    HW1 1358   2.231   1.633   3.259
  153SOL    HW2 1359   2.301   1.524   3.359
  154SOL     OW 1360   6.918   2.230   2.394
  154SOL    HW1 1361   6.903   2.183   2.307
  154SOL    HW2 1362   7.014   2.220   2.422
  155SOL     OW 1363   0.121   1.115   3.321
  155SOL    HW1 1364   0.215   1.104   3.289
  155SOL    HW2 1365   0.081   1.197   3.280
  156SOL     OW 1366   6.556   2.362   0.857
  156SOL    HW1 1367   6.574   2.289   0.923
  156SOL    HW2 1368   6.461   2.391   0.865
  157SOL     OW 1369   5.826   3.572   2.471
  157SOL    HW1 1370   5.845   3.525   2.557
  157SOL    HW2 1371   5.727   3.573   2.455
  158SOL     OW 1372   2.030   0.965   3.245
  158SOL    HW1 1373   1.957   1.028   3.218
  158SOL    HW2 1374   2.014   0.934   3.339
  159SOL     OW 1375   4.923   3.892   2.122
  159SOL    HW1 1376   4.878   3.951   2.056
  159SOL    HW2 1377   5.022   3.904   2.116
  160SOL     OW 1378   6.683   3.955   5.801
  160SOL    HW1 1379   6.782   3.966   5.795
  160SOL    HW2 1380   6.638   4.041   5.772
  161SOL     OW 1381   2.880   5.164   4.920
  161SOL    HW1 1382   2.883   5.064   4.925
  161SOL    HW2 1383   2.913   5.203   5.006
  162SOL     OW 1384   4.339   5.637   1.382
  162SOL    HW1 1385   4.422   5.692   1.392
  162SOL    HW2 1386   4.312   5.634   1.286
  163SOL     OW 1387   4.328   0.707   2.139
  163SOL    HW1 1388   4.289   0.798   2.123
  163SOL    HW2 1389   4.395   0.713   2.213
  164SOL     OW 1390   5.538   3.460   0.737
  164SOL    HW1 1391   5.491   3.483   0.652
  164SOL    HW2 1392   5.492   3.504   0.814
  165SOL     OW 1393   5.046   3.484   6.514
  165SOL    HW1 1394   5.135   3.492   6.470
  165SOL    HW2 1395   5.051   3.519   6.607
  166SOL     OW 1396   1.222   0.341   2.241
  166SOL    HW1 1397   1.155   0.268   2.227
  166SOL    HW2 1398   1.301   0.304   2.289
  167SOL     OW 1399   6.366   2.888   0.174
  167SOL    HW1 1400   6.376   2.819   0.102
  167SOL    HW2 1401   6.456   2.915   0.207
  168SOL     OW 1402   2.107   5.291   0.755
  168SOL    HW1 1403   2.079   5.375   0.801
  168SOL    HW2 1404   2.121   5.309   0.658
  169SOL     OW 1405   1.797   6.077   1.854
  169SOL    HW1 1406   1.699   6.070   1.870
  169SOL    HW2 1407   1.846   6.024   1.923
  170SOL     OW 1408   0.227   1.469   3.072
  170SOL    HW1 1409   0.272   1.527   3.140
  170SOL    HW2 1410   0.184   1.526   3.003
  171SOL     OW 1411   3.564   3.694   0.015
  171SOL    HW1 1412   3.633   3.659   6.970
  171SOL    HW2 1413   3.479   3.710   6.983
  172SOL     OW 1414   0.254   3.048   6.187
  172SOL    HW1 1415   0.227   2.951   6.194
  172SOL    HW2 1416   0.304   3.062   6.101
  173SOL     OW 1417   0.386   6.220   5.661
  173SOL    HW1 1418   0.364   6.317   5.649
  173SOL    HW2 1419   0.396   6.200   5.758
  174SOL     OW 1420   2.818   5.308   3.925
  174SOL    HW1 1421   2.736   5.323   3.870
  174SOL    HW2 1422   2.897   5.347   3.879
  175SOL     OW 1423   0.968   5.718   3.003
  175SOL    HW1 1424   1.038   5.665   2.954
  175SOL    HW2 1425   1.013   5.786   3.061
  176SOL     OW 1426   2.311   4.874   0.897
  176SOL    HW1 1427   2.212   4.868   0.882
  176SOL    HW2 1428   2.328   4.908   0.989
  177SOL     OW 1429   4.590   2.071   2.512
  177SOL    HW1 1430   4.687   2.048   2.504
  177SOL    HW2 1431   4.564   2.072   2.609
  178SOL     OW 1432   5.290   5.261   6.438
  178SOL    HW1 1433   5.373   5.239   6.386
  178SOL    HW2 1434   5.279   5.194   6.512
  179SOL     OW 1435   3.172   0.375   0.529
  179SOL    HW1 1436   3.096   0.438   0.514
  179SOL    HW2 1437   3.181   0.358   0.627
  180SOL     OW 1438   0.648   2.270   6.874
  180SOL    HW1 1439   0.716   2.344   6.869
  180SOL    HW2 1440   0.575   2.297   6.936
  181SOL     OW 1441   3.321   3.066   5.544
  181SOL    HW1 1442   3.314   3.062   5.643
  181SOL    HW2 1443   3.246   3.121   5.507
  182SOL     OW 1444   4.312   2.313   4.843
  182SOL    HW1 1445   4.260   2.230   4.822
  182SOL    HW2 1446   4.262   2.369   4.908
  183SOL     OW 1447   5.133   1.512   1.947
  183SOL    HW1 1448   5.098   1.448   2.015
  183SOL    HW2 1449   5.217   1.476   1.907
  184SOL     OW 1450   0.457   4.662   3.128
  184SOL    HW1 1451   0.484   4.568   3.111
  184SOL    HW2 1452   0.382   4.687   3.067
  185SOL     OW 1453   1.924   4.084   6.465
  185SOL    HW1 1454   1.959   3.998   6.428
  185SOL    HW2 1455   1.829   4.073   6.493
  186SOL     OW 1456   5.608   6.927   3.048
  186SOL    HW1 1457   5.639   6.903   2.956
  186SOL    HW2 1458   5.640   6.858   3.113
  187SOL     OW 1459   5.571   1.156   4.017
  187SOL    HW1 1460   5.605   1.173   3.924
  187SOL    HW2 1461   5.645   1.117   4.072
  188SOL     OW 1462   6.428   2.106   3.706
  188SOL    HW1 1463   6.392   2.086   3.614
  188SOL    HW2 1464   6.526   2.122   3.700
  189SOL     OW 1465   2.402   4.341   2.848
  189SOL    HW1 1466   2.431   4.308   2.758
  189SOL    HW2 1467   2.350   4.269   2.895
  190SOL     OW 1468   3.497   1.076   5.751
  190SOL    HW1 1469   3.431   1.126   5.695
  190SOL    HW2 1470   3.590   1.109   5.732
  191SOL     OW 1471   4.900   5.980   6.325
  191SOL    HW1 1472   4.978   5.995   6.265
  191SOL    HW2 1473   4.816   5.981   6.271
  192SOL     OW 1474   6.818   0.819   1.391
  192SOL    HW1 1475   6.815   0.793   1.488
  192SOL    HW2 1476   6.883   0.761   1.343
  193SOL     OW 1477   5.519   4.114   6.846
  193SOL    HW1 1478   5.614   4.130   6.875
  193SOL    HW2 1479   5.514   4.027   6.796
  194SOL     OW 1480   3.648   0.525   3.707
  194SOL    HW1 1481   3.586   0.567   3.642
  194SOL    HW2 1482   3.698   0.451   3.661
  195SOL     OW 1483   0.373   5.675   3.431
  195SOL    HW1 1484   0.402   5.765   3.396
  195SOL    HW2 1485   0.413   5.603   3.374
  196SOL     OW 1486   0.632   1.889   0.238
  196SOL    HW1 1487   0.706   1.951   0.262
  196SOL    HW2 1488   0.667   1.816   0.179
  197SOL     OW 1489   1.540   0.924   0.857
  197SOL    HW1 1490   1.535   0.829   0.886
  197SOL    HW2 1491   1.611   0.971   0.910
  198SOL     OW 1492   3.449   2.128   3.877
  198SOL    HW1 1493   3.510   2.163   3.807
  198SOL    HW2 1494   3.428   2.031   3.858
  199SOL     OW 1495   1.212   2.556   4.000
  199SOL    HW1 1496   1.173   2.573   3.909
  199SOL    HW2 1497   1.298   2.605   4.009
  200SOL     OW 1498   6.807   2.576   0.086
  200SOL    HW1 1499   6.855   2.502   0.133
  200SOL    HW2 1500   6.774   2.543   7.016
  201SOL     OW 1501   0.966   0.865   6.711
  201SOL    HW1 1502   0.925   0.942   6.761
  201SOL    HW2 1503   1.028   0.816   6.772
  202SOL     OW 1504   4.672   6.754   0.213
  202SOL    HW1 1505   4.756   6.782   0.259
  202SOL    HW2 1506   4.639   6.668   0.252
  203SOL     OW 1507   5.954   2.850   5.927
  203SOL    HW1 1508   6.040   2.820   5.885
  203SOL    HW2 1509   5.962   2.946   5.953
  204SOL     OW 1510   6.212   1.574   5.953
  204SOL    HW1 1511   6.193   1.593   5.857
  204SOL    HW2 1512   6.249   1.656   5.997
  205SOL     OW 1513   1.257   2.930   2.784
  205SOL    HW1 1514   1.186   2.984   2.739
  205SOL    HW2 1515   1.333   2.916   2.721
  206SOL     OW 1516   0.539   3.796   0.257
  206SOL    HW1 1517   0.440   3.804   0.246
  206SOL    HW2 1518   0.584   3.875   0.216
  207SOL     OW 1519   5.679   2.509   4.357
  207SOL    HW1 1520   5.700   2.536   4.451
  207SOL    HW2 1521   5.632   2.583   4.310
  208SOL     OW 1522   1.737   4.204   4.385
  208SOL    HW1 1523   1.686   4.238   4.464
  208SOL    HW2 1524   1.720   4.106   4.374
  209SOL     OW 1525   6.535   4.435   2.470
  209SOL    HW1 1526   6.462   4.503   2.476
  209SOL    HW2 1527   6.544   4.404   2.376
  210SOL     OW 1528   4.736   2.687   0.011
  210SOL    HW1 1529   4.752   2.747   6.951
  210SOL    HW2 1530   4.785   2.722   0.091
  211SOL     OW 1531   6.907   1.959   2.680
  211SOL    HW1 1532   6.830   1.897   2.663
  211SOL    HW2 1533   6.944   1.941   2.771
  212SOL     OW 1534   1.902   3.344   2.539
  212SOL    HW1 1535   1.927   3.261   2.489
  212SOL    HW2 1536   1.965   3.356   2.616
  213SOL     OW 1537   1.538   5.559   1.421
  213SOL    HW1 1538   1.559   5.470   1.380
  213SOL    HW2 1539   1.467   5.605   1.367
  214SOL     OW 1540   5.063   6.300   1.759
  214SOL    HW1 1541   5.108   6.379   1.802
  214SOL    HW2 1542   5.110   6.278   1.674
  215SOL     OW 1543   2.492   5.164   3.237
  215SOL    HW1 1544   2.481   5.079   3.289
  215SOL    HW2 1545   2.433   5.162   3.157
  216SOL     OW 1546   0.719   6.921   2.377
  216SOL    HW1 1547   0.819   6.915   2.377
  216SOL    HW2 1548   0.681   6.845   2.324
  217SOL     OW 1549   1.722   4.508   6.068
  217SOL    HW1 1550   1.761   4.533   6.157
  217SOL    HW2 1551   1.715   4.409   6.062
  218SOL     OW 1552   1.764   1.916   4.933
  218SOL    HW1 1553   1.817   1.831   4.935
  218SOL    HW2 1554   1.776   1.964   5.019
  219SOL     OW 1555   4.555   1.795   0.753
  219SOL    HW1 1556   4.642   1.787   0.802
  219SOL    HW2 1557   4.481   1.811   0.819
  220SOL     OW 1558   2.957   0.043   0.521
  220SOL    HW1 1559   2.871   7.013   0.541
  220SOL    HW2 1560   2.972   0.044   0.422
  221SOL     OW 1561   4.714   5.550   2.228
  221SOL    HW1 1562   4.722   5.477   2.160
  221SOL    HW2 1563   4.661   5.626   2.189
  222SOL     OW 1564   2.431   5.075   6.632
  222SOL    HW1 1565   2.417   5.049   6.727
  222SOL    HW2 1566   2.363   5.028   6.575
  223SOL     OW 1567   6.024   2.795   5.157
  223SOL    HW1 1568   5.987   2.716   5.108
  223SOL    HW2 1569   6.110   2.823   5.114
  224SOL     OW 1570   2.448   1.296   6.445
  224SOL    HW1 1571   2.419   1.219   6.503
  224SOL    HW2 1572   2.544   1.315   6.462
  225SOL     OW 1573   4.203   6.115   5.395
  225SOL    HW1 1574   4.302   6.128   5.399
  225SOL    HW2 1575   4.159   6.200   5.368
  226SOL     OW 1576   0.799   2.521   6.841
  226SOL    HW1 1577   0.825   2.511   6.937
  226SOL    HW2 1578   0.882   2.529   6.785
  227SOL     OW 1579   1.445   3.829   1.430
  227SOL    HW1 1580   1.438   3.765   1.507
  227SOL    HW2 1581   1.500   3.908   1.458
  228SOL     OW 1582   1.577   0.034   2.544
  228SOL    HW1 1583   1.630   6.967   2.549
  228SOL    HW2 1584   1.556   0.066   2.636
  229SOL     OW 1585   4.341   6.117   5.698
  229SOL    HW1 1586   4.365   6.125   5.601
  229SOL    HW2 1587   4.313   6.207   5.733
  230SOL     OW 1588   5.005   5.871   4.951
  230SOL    HW1 1589   4.941   5.894   4.878
  230SOL    HW2 1590   4.992   5.775   4.978
  231SOL     OW 1591   5.408   1.655   6.669
  231SOL    HW1 1592   5.401   1.750   6.640
  231SOL    HW2 1593   5.501   1.622   6.653
  232SOL     OW 1594   1.561   2.073   5.804
  232SOL    HW1 1595   1.648   2.050   5.760
  232SOL    HW2 1596   1.503   2.123   5.740
  233SOL     OW 1597   3.181   1.661   2.964
  233SOL    HW1 1598   3.280   1.677   2.970
  233SOL    HW2 1599   3.162   1.565   2.980
  234SOL     OW 1600   4.593   1.080   0.245
  234SOL    HW1 1601   4.570   0.983   0.239
  234SOL    HW2 1602   4.692   1.091   0.253
  235SOL     OW 1603   4.757   2.944   3.369
  235SOL    HW1 1604   4.857   2.945   3.376
  235SOL    HW2 1605   4.728   2.871   3.307
  236SOL     OW 1606   4.569   5.035   5.991
  236SOL    HW1 1607   4.649   5.095   5.991
  236SOL    HW2 1608   4.504   5.065   5.921
  237SOL     OW 1609   6.461   3.388   2.988
  237SOL    HW1 1610   6.406   3.438   2.922
  237SOL    HW2 1611   6.421   3.297   3.003
  238SOL     OW 1612   6.437   1.650   0.908
  238SOL    HW1 1613   6.423   1.727   0.969
  238SOL    HW2 1614   6.431   1.681   0.813
  239SOL     OW 1615   1.609   3.566   0.399
  239SOL    HW1 1616   1.531   3.504   0.391
  239SOL    HW2 1617   1.694   3.516   0.383
  240SOL     OW 1618   5.159   3.166   3.287
  240SOL    HW1 1619   5.177   3.233   3.215
  240SOL    HW2 1620   5.064   3.173   3.316
  241SOL     OW 1621   3.384   1.859   3.878
  241SOL    HW1 1622   3.400   1.818   3.968
  241SOL    HW2 1623   3.307   1.813   3.834
  242SOL     OW 1624   3.389   3.716   2.930
  242SOL    HW1 1625   3.399   3.747   2.835
  242SOL    HW2 1626   3.475   3.732   2.979
  243SOL     OW 1627   4.300   2.467   6.108
  243SOL    HW1 1628   4.221   2.467   6.047
  243SOL    HW2 1629   4.383   2.491   6.057
  244SOL     OW 1630   4.939   3.642   5.236
  244SOL    HW1 1631   4.918   3.579   5.312
  244SOL    HW2 1632   4.879   3.622   5.159
  245SOL     OW 1633   3.420   1.552   2.746
  245SOL    HW1 1634   3.485   1.490   2.701
  245SOL    HW2 1635   3.465   1.639   2.765
  246SOL     OW 1636   6.623   1.243   2.111
  246SOL    HW1 1637   6.577   1.219   2.026
  246SOL    HW2 1638   6.568   1.310   2.161
  247SOL     OW 1639   1.849   1.034   1.356
  247SOL    HW1 1640   1.752   1.025   1.379
  247SOL    HW2 1641   1.885   1.119   1.395
  248SOL     OW 1642   1.908   2.271   2.205
  248SOL    HW1 1643   1.854   2.309   2.130
  248SOL    HW2 1644   1.945   2.345   2.261
  249SOL     OW 1645   5.452   6.221   4.700
  249SOL    HW1 1646   5.407   6.279   4.767
  249SOL    HW2 1647   5.485   6.137   4.744
  250SOL     OW 1648   4.378   2.687   0.915
  250SOL    HW1 1649   4.371   2.659   1.011
  250SOL    HW2 1650   4.405   2.783   0.910
  251SOL     OW 1651   3.969   4.037   5.665
  251SOL    HW1 1652   4.037   4.080   5.606
  251SOL    HW2 1653   3.898   3.994   5.609
  252SOL     OW 1654   6.048   6.289   5.610
  252SOL    HW1 1655   5.975   6.260   5.548
  252SOL    HW2 1656   6.129   6.233   5.594
  253SOL     OW 1657   3.780   6.306   6.134
  253SOL    HW1 1658   3.733   6.394   6.129
  253SOL    HW2 1659   3.714   6.236   6.162
  254SOL     OW 1660   5.710   2.658   5.108
  254SOL    HW1 1661   5.666   2.746   5.094
  254SOL    HW2 1662   5.683   2.622   5.198
  255SOL     OW 1663   1.722   4.096   6.233
  255SOL    HW1 1664   1.776   4.017   6.204
  255SOL    HW2 1665   1.680   4.076   6.322
  256SOL     OW 1666   4.860   2.266   5.069
  256SOL    HW1 1667   4.881   2.173   5.040
  256SOL    HW2 1668   4.848   2.324   4.988
  257SOL     OW 1669   4.830   6.805   2.736
  257SOL    HW1 1670   4.750   6.864   2.733
  257SOL    HW2 1671   4.801   6.710   2.745
  258SOL     OW 1672   1.703   3.183   5.793
  258SOL    HW1 1673   1.723   3.279   5.774
  258SOL    HW2 1674   1.776   3.125   5.757
  259SOL     OW 1675   3.637   6.905   4.026
  259SOL    HW1 1676   3.718   6.963   4.015
  259SOL    HW2 1677   3.652   6.818   3.979
  260SOL     OW 1678   3.574   5.743   3.603
  260SOL    HW1 1679   3.544   5.649   3.618
  260SOL    HW2 1680   3.655   5.743   3.545
  261SOL     OW 1681   4.208   5.085   7.001
  261SOL    HW1 1682   4.226   5.133   6.915
  261SOL    HW2 1683   4.180   5.152   0.053
  262SOL     OW 1684   1.897   3.713   6.581
  262SOL    HW1 1685   1.797   3.712   6.586
  262SOL    HW2 1686   1.935   3.744   6.668
  263SOL     OW 1687   1.143   5.994   4.095
  263SOL    HW1 1688   1.068   6.040   4.047
  263SOL    HW2 1689   1.139   5.896   4.078
  264SOL     OW 1690   6.993   4.011   6.656
  264SOL    HW1 1691   0.020   3.969   6.735
  264SOL    HW2 1692   0.004   3.965   6.572
  265SOL     OW 1693   6.711   0.132   4.525
  265SOL    HW1 1694   6.804   0.155   4.553
  265SOL    HW2 1695   6.714   0.061   4.454
  266SOL     OW 1696   3.452   0.575   5.900
  266SOL    HW1 1697   3.422   0.580   5.995
  266SOL    HW2 1698   3.446   0.667   5.859
  267SOL     OW 1699   1.342   0.821   4.109
  267SOL    HW1 1700   1.326   0.825   4.011
  267SOL    HW2 1701   1.394   0.739   4.131
  268SOL     OW 1702   3.479   1.133   1.358
  268SOL    HW1 1703   3.462   1.106   1.263
  268SOL    HW2 1704   3.509   1.053   1.410
  269SOL     OW 1705   4.134   1.859   0.201
  269SOL    HW1 1706   4.078   1.942   0.210
  269SOL    HW2 1707   4.223   1.883   0.162
  270SOL     OW 1708   6.342   6.796   0.681
  270SOL    HW1 1709   6.320   6.733   0.606
  270SOL    HW2 1710   6.372   6.883   0.642
  271SOL     OW 1711   1.215   2.986   6.322
  271SOL    HW1 1712   1.223   2.935   6.237
  271SOL    HW2 1713   1.291   3.050   6.330
  272SOL     OW 1714   2.655   6.473   4.123
  272SOL    HW1 1715   2.589   6.431   4.061
  272SOL    HW2 1716   2.659   6.572   4.106
  273SOL     OW 1717   1.678   4.794   6.325
  273SOL    HW1 1718   1.755   4.730   6.319
  273SOL    HW2 1719   1.595   4.749   6.289
  274SOL     OW 1720   4.463   1.819   3.897
  274SOL    HW1 1721   4.524   1.758   3.847
  274SOL    HW2 1722   4.422   1.885   3.834
  275SOL     OW 1723   7.002   6.317   2.134
  275SOL    HW1 1724   0.009   6.414   2.143
  275SOL    HW2 1725   7.012   6.272   2.223
  276SOL     OW 1726   0.549   1.109   4.829
  276SOL    HW1 1727   0.627   1.062   4.870
  276SOL    HW2 1728   0.467   1.090   4.884
  277SOL     OW 1729   2.082   3.885   0.855
  277SOL    HW1 1730   2.069   3.948   0.931
  277SOL    HW2 1731   2.143   3.810   0.884
  278SOL     OW 1732   0.231   2.698   1.699
  278SOL    HW1 1733   0.192   2.623   1.753
  278SOL    HW2 1734   0.208   2.785   1.741
  279SOL     OW 1735   6.135   2.121   4.286
  279SOL    HW1 1736   6.097   2.213   4.298
  279SOL    HW2 1737   6.133   2.097   4.189
  280SOL     OW 1738   1.774   4.597   2.178
  280SOL    HW1 1739   1.748   4.538   2.101
  280SOL    HW2 1740   1.744   4.690   2.159
  281SOL     OW 1741   2.372   4.405   1.068
  281SOL    HW1 1742   2.338   4.461   1.143
  281SOL    HW2 1743   2.449   4.350   1.099
  282SOL     OW 1744   3.112   2.425   5.821
  282SOL    HW1 1745   3.020   2.398   5.794
  282SOL    HW2 1746   3.107   2.498   5.889
  283SOL     OW 1747   4.505   2.549   5.968
  283SOL    HW1 1748   4.596   2.506   5.962
  283SOL    HW2 1749   4.495   2.617   5.896
  284SOL     OW 1750   1.241   3.427   4.217
  284SOL    HW1 1751   1.226   3.521   4.249
  284SOL    HW2 1752   1.302   3.380   4.280
  285SOL     OW 1753   5.483   4.576   4.233
  285SOL    HW1 1754   5.522   4.492   4.270
  285SOL    HW2 1755   5.542   4.653   4.257
  286SOL     OW 1756   2.728   3.711   6.618
  286SOL    HW1 1757   2.753   3.619   6.649
  286SOL    HW2 1758   2.797   3.745   6.555
  287SOL     OW 1759   1.911   3.275   0.043
  287SOL    HW1 1760   1.987   3.210   0.044
  287SOL    HW2 1761   1.900   3.312   6.969
  288SOL     OW 1762   4.967   3.132   0.164
  288SOL    HW1 1763   5.013   3.128   0.075
  288SOL    HW2 1764   4.868   3.127   0.149
  289SOL     OW 1765   3.077   4.624   6.254
  289SOL    HW1 1766   3.132   4.650   6.174
  289SOL    HW2 1767   3.130   4.564   6.313
  290SOL     OW 1768   0.746   1.715   5.115
  290SOL    HW1 1769   0.652   1.682   5.132
  290SOL    HW2 1770   0.746   1.776   5.036
  291SOL     OW 1771   0.258   2.484   2.474
  291SOL    HW1 1772   0.328   2.527   2.417
  291SOL    HW2 1773   0.293   2.397   2.511
  292SOL     OW 1774   1.990   6.922   3.984
  292SOL    HW1 1775   2.087   6.941   3.971
  292SOL    HW2 1776   1.958   6.966   4.068
  293SOL     OW 1777   3.648   5.105   3.412
  293SOL    HW1 1778   3.606   5.126   3.324
  293SOL    HW2 1779   3.724   5.169   3.429
  294SOL     OW 1780   4.466   6.725   6.613
  294SOL    HW1 1781   4.393   6.713   6.681
  294SOL    HW2 1782   4.426   6.725   6.522
  295SOL     OW 1783   5.218   0.045   3.695
  295SOL    HW1 1784   5.300   0.064   3.749
  295SOL    HW2 1785   5.214   6.965   3.673
  296SOL     OW 1786   2.733   1.799   3.552
  296SOL    HW1 1787   2.663   1.859   3.590
  296SOL    HW2 1788   2.699   1.757   3.468
  297SOL     OW 1789   2.049   4.357   3.036
  297SOL    HW1 1790   2.108   4.289   2.992
  297SOL    HW2 1791   2.092   4.447   3.030
  298SOL     OW 1792   6.028   5.008   0.637
  298SOL    HW1 1793   5.986   4.971   0.554
  298SOL    HW2 1794   6.059   4.933   0.696
  299SOL     OW 1795   6.722   2.544   4.733
  299SOL    HW1 1796   6.671   2.483   4.672
  299SOL    HW2 1797   6.689   2.532   4.827
  300SOL     OW 1798   6.067   0.105   2.436
  300SOL    HW1 1799   6.086   0.203   2.426
  300SOL    HW2 1800   6.153   0.054   2.432
  301SOL     OW 1801   5.194   3.905   5.969
  301SOL    HW1 1802   5.184   3.993   6.016
  301SOL    HW2 1803   5.103   3.863   5.958
  302SOL     OW 1804   1.353   0.163   3.598
  302SOL    HW1 1805   1.301   0.135   3.517
  302SOL    HW2 1806   1.414   0.239   3.575
  303SOL     OW 1807   5.911   6.707   3.464
  303SOL    HW1 1808   5.851   6.634   3.496
  303SOL    HW2 1809   5.865   6.795   3.474
  304SOL     OW 1810   3.096   0.122   3.241
  304SOL    HW1 1811   3.153   0.203   3.239
  304SOL    HW2 1812   3.031   0.124   3.164
  305SOL     OW 1813   1.113   3.817   1.739
  305SOL    HW1 1814   1.054   3.738   1.726
  305SOL    HW2 1815   1.188   3.793   1.801
  306SOL     OW 1816   2.357   0.521   3.420
  306SOL    HW1 1817   2.297   0.441   3.420
  306SOL    HW2 1818   2.326   0.585   3.350
  307SOL     OW 1819   3.584   0.397   1.076
  307SOL    HW1 1820   3.510   0.463   1.062
  307SOL    HW2 1821   3.629   0.414   1.163
  308SOL     OW 1822   0.643   4.984   4.625
  308SOL    HW1 1823   0.601   4.971   4.535
  308SOL    HW2 1824   0.587   5.046   4.680
  309SOL     OW 1825   3.970   5.407   5.143
  309SOL    HW1 1826   3.974   5.391   5.044
  309SOL    HW2 1827   4.030   5.483   5.167
  310SOL     OW 1828   0.802   6.747   6.138
  310SOL    HW1 1829   0.847   6.836   6.128
  310SOL    HW2 1830   0.828   6.706   6.226
  311SOL     OW 1831   0.359   0.256   1.638
  311SOL    HW1 1832   0.431   0.203   1.682
  311SOL    HW2 1833   0.309   0.198   1.573
  312SOL     OW 1834   3.796   1.753   4.780
  312SOL    HW1 1835   3.760   1.845   4.769
  312SOL    HW2 1836   3.894   1.757   4.799
  313SOL     OW 1837   0.571   4.848   1.609
  313SOL    HW1 1838   0.604   4.828   1.517
  313SOL    HW2 1839   0.627   4.921   1.649
  314SOL     OW 1840   3.120   6.264   1.584
  314SOL    HW1 1841   3.154   6.318   1.507
  314SOL    HW2 1842   3.139   6.167   1.568
  315SOL     OW 1843   1.003   2.924   3.352
  315SOL    HW1 1844   0.987   3.021   3.373
  315SOL    HW2 1845   1.012   2.912   3.253
  316SOL     OW 1846   2.127   2.629   4.178
  316SOL    HW1 1847   2.105   2.531   4.172
  316SOL    HW2 1848   2.116   2.660   4.273
  317SOL     OW 1849   6.502   1.537   0.111
  317SOL    HW1 1850   6.582   1.595   0.099
  317SOL    HW2 1851   6.505   1.494   0.202
  318SOL     OW 1852   2.323   5.174   1.135
  318SOL    HW1 1853   2.345   5.218   1.222
  318SOL    HW2 1854   2.273   5.239   1.077
  319SOL     OW 1855   1.334   0.171   0.276
  319SOL    HW1 1856   1.376   0.204   0.192
  319SOL    HW2 1857   1.258   0.110   0.254
  320SOL     OW 1858   4.965   3.954   0.711
  320SOL    HW1 1859   5.023   3.898   0.653
  320SOL    HW2 1860   4.897   3.896   0.756
  321SOL     OW 1861   1.952   1.401   1.036
  321SOL    HW1 1862   2.001   1.402   0.948
  321SOL    HW2 1863   1.940   1.307   1.067
  322SOL     OW 1864   3.429   2.871   4.838
  322SOL    HW1 1865   3.367   2.910   4.907
  322SOL    HW2 1866   3.442   2.774   4.856
  323SOL     OW 1867   0.504   4.139   1.965
  323SOL    HW1 1868   0.481   4.108   2.057
  323SOL    HW2 1869   0.433   4.110   1.901
  324SOL     OW 1870   0.728   3.053   4.221
  324SOL    HW1 1871   0.738   3.127   4.287
  324SOL    HW2 1872   0.663   3.080   4.150
  325SOL     OW 1873   2.468   2.518   3.222
  325SOL    HW1 1874   2.398   2.446   3.229
  325SOL    HW2 1875   2.558   2.478   3.236
  326SOL     OW 1876   2.591   4.402   5.965
  326SOL    HW1 1877   2.663   4.437   5.906
  326SOL    HW2 1878   2.622   4.400   6.060
  327SOL     OW 1879   6.541   5.298   5.832
  327SOL    HW1 1880   6.442   5.285   5.825
  327SOL    HW2 1881   6.588   5.222   5.788
  328SOL     OW 1882   2.846   5.752   1.748
  328SOL    HW1 1883   2.782   5.780   1.820
  328SOL    HW2 1884   2.823   5.800   1.663
  329SOL     OW 1885   3.549   3.339   2.252
  329SOL    HW1 1886   3.566   3.429   2.293
  329SOL    HW2 1887   3.521   3.275   2.324
  330SOL     OW 1888   3.672   1.157   2.061
  330SOL    HW1 1889   3.652   1.196   1.971
  330SOL    HW2 1890   3.769   1.136   2.067
  331SOL     OW 1891   5.542   5.058   6.426
  331SOL    HW1 1892   5.511   5.005   6.346
  331SOL    HW2 1893   5.626   5.106   6.404
  332SOL     OW 1894   4.111   1.889   3.476
  332SOL    HW1 1895   4.056   1.922   3.552
  332SOL    HW2 1896   4.078   1.799   3.448
  333SOL     OW 1897   3.845   6.139   0.247
  333SOL    HW1 1898   3.881   6.101   0.162
  333SOL    HW2 1899   3.880   6.232   0.260
  334SOL     OW 1900   4.280   6.582   2.517
  334SOL    HW1 1901   4.362   6.532   2.544
  334SOL    HW2 1902   4.301   6.642   2.440
  335SOL     OW 1903   3.264   6.909   3.199
  335SOL    HW1 1904   3.202   6.980   3.232
  335SOL    HW2 1905   3.221   6.819   3.210
  336SOL     OW 1906   3.006   0.642   5.083
  336SOL    HW1 1907   2.945   0.667   5.007
  336SOL    HW2 1908   3.101   0.644   5.050
  337SOL     OW 1909   0.493   4.092   1.272
  337SOL    HW1 1910   0.446   4.162   1.219
  337SOL    HW2 1911   0.520   4.017   1.212
  338SOL     OW 1912   3.293   2.579   1.765
  338SOL    HW1 1913   3.198   2.591   1.738
  338SOL    HW2 1914   3.315   2.641   1.840
  339SOL     OW 1915   4.069   0.306   2.861
  339SOL    HW1 1916   4.019   0.342   2.783
  339SOL    HW2 1917   4.159   0.274   2.832
  340SOL     OW 1918   4.853   3.755   4.439
  340SOL    HW1 1919   4.897   3.685   4.496
  340SOL    HW2 1920   4.785   3.712   4.380
  341SOL     OW 1921   5.456   5.145   5.349
  341SOL    HW1 1922   5.412   5.234   5.348
  341SOL    HW2 1923   5.536   5.146   5.289
  342SOL     OW 1924   5.532   3.461   0.052
  342SOL    HW1 1925   5.602   3.518   0.009
  342SOL    HW2 1926   5.553   3.449   0.149
  343SOL     OW 1927   2.586   0.673   3.312
  343SOL    HW1 1928   2.583   0.690   3.214
  343SOL    HW2 1929   2.514   0.607   3.337
  344SOL     OW 1930   3.585   5.250   0.236
  344SOL    HW1 1931   3.571   5.340   0.277
  344SOL    HW2 1932   3.514   5.234   0.167
  345SOL     OW 1933   0.773   6.410   5.787
  345SOL    HW1 1934   0.804   6.315   5.794
  345SOL    HW2 1935   0.815   6.464   5.860
  346SOL     OW 1936   2.564   6.989   3.913
  346SOL    HW1 1937   2.474   0.014   3.910
  346SOL    HW2 1938   2.635   0.041   3.908
  347SOL     OW 1939   4.960   6.175   6.025
  347SOL    HW1 1940   5.015   6.103   6.067
  347SOL    HW2 1941   5.015   6.225   5.958
  348SOL     OW 1942   2.997   5.816   2.433
  348SOL    HW1 1943   2.924   5.811   2.501
  348SOL    HW2 1944   3.038   5.725   2.422
  349SOL     OW 1945   2.063   4.751   1.682
  349SOL    HW1 1946   2.100   4.689   1.751
  349SOL    HW2 1947   1.980   4.712   1.643
  350SOL     OW 1948   4.487   2.923   1.157
  350SOL    HW1 1949   4.403   2.934   1.210
  350SOL    HW2 1950   4.499   2.826   1.134
  351SOL     OW 1951   3.447   1.736   0.440
  351SOL    HW1 1952   3.406   1.695   0.359
  351SOL    HW2 1953   3.380   1.796   0.484
  352SOL     OW 1954   3.963   1.309   6.410
  352SOL    HW1 1955   3.981   1.400   6.446
  352SOL    HW2 1956   3.886   1.268   6.460
  353SOL     OW 1957   1.809   0.217   1.065
  353SOL    HW1 1958   1.856   0.160   0.998
  353SOL    HW2 1959   1.843   0.195   1.157
  354SOL     OW 1960   4.649   1.505   1.971
  354SOL    HW1 1961   4.560   1.523   1.930
  354SOL    HW2 1962   4.699   1.592   1.982
  355SOL     OW 1963   2.027   1.396   2.290
  355SOL    HW1 1964   2.021   1.368   2.386
  355SOL    HW2 1965   2.068   1.322   2.236
  356SOL     OW 1966   3.850   5.788   3.010
  356SOL    HW1 1967   3.775   5.722   3.010
  356SOL    HW2 1968   3.846   5.843   2.926
  357SOL     OW 1969   1.624   4.417   5.488
  357SOL    HW1 1970   1.604   4.364   5.405
  357SOL    HW2 1971   1.706   4.379   5.532
  358SOL     OW 1972   5.005   1.724   2.095
  358SOL    HW1 1973   5.083   1.787   2.101
  358SOL    HW2 1974   5.029   1.648   2.035
  359SOL     OW 1975   1.268   1.760   1.441
  359SOL    HW1 1976   1.329   1.767   1.363
  359SOL    HW2 1977   1.320   1.734   1.523
  360SOL     OW 1978   4.373   6.225   1.279
  360SOL    HW1 1979   4.302   6.210   1.348
  360SOL    HW2 1980   4.342   6.296   1.216
  361SOL     OW 1981   3.802   0.589   3.172
  361SOL    HW1 1982   3.778   0.663   3.109
  361SOL    HW2 1983   3.889   0.549   3.143
  362SOL     OW 1984   3.004   3.881   0.939
  362SOL    HW1 1985   3.080   3.932   0.900
  362SOL    HW2 1986   2.988   3.798   0.886
  363SOL     OW 1987   4.384   4.851   4.055
  363SOL    HW1 1988   4.340   4.801   4.130
  363SOL    HW2 1989   4.483   4.853   4.070
  364SOL     OW 1990   1.842   6.125   5.604
  364SOL    HW1 1991   1.755   6.161   5.572
  364SOL    HW2 1992   1.849   6.138   5.703
  365SOL     OW 1993   4.698   6.519   2.718
  365SOL    HW1 1994   4.649   6.474   2.644
  365SOL    HW2 1995   4.637   6.526   2.798
  366SOL     OW 1996   5.027   6.519   0.376
  366SOL    HW1 1997   5.052   6.493   0.469
  366SOL    HW2 1998   5.108   6.550   0.327
  367SOL     OW 1999   4.943   2.045   1.527
  367SOL    HW1 2000   4.975   2.131   1.487
  367SOL    HW2 2001   4.843   2.046   1.531
  368SOL     OW 2002   1.284   4.909   5.773
  368SOL    HW1 2003   1.291   4.912   5.674
  368SOL    HW2 2004   1.284   5.002   5.809
  369SOL     OW 2005   0.806   3.525   1.200
  369SOL    HW1 2006   0.804   3.624   1.214
  369SOL    HW2 2007   0.794   3.479   1.287
  370SOL     OW 2008   3.548   1.104   6.299
  370SOL    HW1 2009   3.537   1.107   6.200
  370SOL    HW2 2010   3.610   1.177   6.328
  371SOL     OW 2011   4.096   2.972   6.487
  371SOL    HW1 2012   4.117   2.877   6.510
  371SOL    HW2 2013   4.168   3.008   6.428
  372SOL     OW 2014   1.576   5.265   6.733
  372SOL    HW1 2015   1.508   5.232   6.799
  372SOL    HW2 2016   1.651   5.199   6.727
  373SOL     OW 2017   6.650   6.578   1.199
  373SOL    HW1 2018   6.570   6.554   1.144
  373SOL    HW2 2019   6.732   6.542   1.156
  374SOL     OW 2020   3.971   1.103   0.944
  374SOL    HW1 2021   4.008   1.187   0.904
  374SOL    HW2 2022   4.015   1.085   1.031
  375SOL     OW 2023   6.593   4.228   1.639
  375SOL    HW1 2024   6.565   4.134   1.659
  375SOL    HW2 2025   6.512   4.286   1.630
  376SOL     OW 2026   2.205   3.077   4.384
  376SOL    HW1 2027   2.226   3.114   4.294
  376SOL    HW2 2028   2.181   3.151   4.447
  377SOL     OW 2029   5.057   1.440   4.502
  377SOL    HW1 2030   5.025   1.400   4.588
  377SOL    HW2 2031   4.979   1.479   4.452
  378SOL     OW 2032   4.668   2.540   4.209
  378SOL    HW1 2033   4.648   2.592   4.292
  378SOL    HW2 2034   4.587   2.489   4.181
  379SOL     OW 2035   6.968   3.012   1.534
  379SOL    HW1 2036   6.993   2.917   1.515
  379SOL    HW2 2037   6.979   3.029   1.632
  380SOL     OW 2038   1.445   2.092   0.142
  380SOL    HW1 2039   1.398   2.160   0.086
  380SOL    HW2 2040   1.500   2.033   0.083
  381SOL     OW 2041   3.334   4.112   0.197
  381SOL    HW1 2042   3.313   4.207   0.176
  381SOL    HW2 2043   3.409   4.109   0.264
  382SOL     OW 2044   1.998   5.197   0.988
  382SOL    HW1 2045   2.040   5.224   0.902
  382SOL    HW2 2046   2.053   5.125   1.031
  383SOL     OW 2047   6.526   2.351   0.042
  383SOL    HW1 2048   6.573   2.439   0.035
  383SOL    HW2 2049   6.497   2.336   0.136
  384SOL     OW 2050   1.973   5.293   5.328
  384SOL    HW1 2051   1.877   5.270   5.314
  384SOL    HW2 2052   1.980   5.388   5.360
  385SOL     OW 2053   4.859   5.167   1.407
  385SOL    HW1 2054   4.783   5.111   1.376
  385SOL    HW2 2055   4.847   5.261   1.373
  386SOL     OW 2056   2.747   0.029   4.766
  386SOL    HW1 2057   2.773   6.951   4.776
  386SOL    HW2 2058   2.686   0.039   4.687
  387SOL     OW 2059   0.078   0.378   6.063
  387SOL    HW1 2060   0.033   0.377   5.973
  387SOL    HW2 2061   0.009   0.364   6.134
  388SOL     OW 2062   0.358   2.673   4.938
  388SOL    HW1 2063   0.430   2.643   5.000
  388SOL    HW2 2064   0.370   2.631   4.848
  389SOL     OW 2065   4.899   4.455   1.732
  389SOL    HW1 2066   4.946   4.541   1.751
  389SOL    HW2 2067   4.805   4.461   1.765
  390SOL     OW 2068   3.433   2.600   0.280
  390SOL    HW1 2069   3.409   2.532   0.211
  390SOL    HW2 2070   3.474   2.555   0.359
  391SOL     OW 2071   3.654   4.095   4.093
  391SOL    HW1 2072   3.655   4.013   4.150
  391SOL    HW2 2073   3.738   4.098   4.037
  392SOL     OW 2074   1.527   4.228   1.331
  392SOL    HW1 2075   1.427   4.226   1.329
  392SOL    HW2 2076   1.562   4.135   1.335
  393SOL     OW 2077   1.325   5.667   1.264
  393SOL    HW1 2078   1.320   5.758   1.222
  393SOL    HW2 2079   1.234   5.627   1.266
  394SOL     OW 2080   6.157   1.053   6.715
  394SOL    HW1 2081   6.066   1.016   6.735
  394SOL    HW2 2082   6.185   1.113   6.789
  395SOL     OW 2083   6.041   4.717   0.715
  395SOL    HW1 2084   6.022   4.731   0.812
  395SOL    HW2 2085   5.970   4.658   0.676
  396SOL     OW 2086   1.379   0.121   1.193
  396SOL    HW1 2087   1.378   0.073   1.281
  396SOL    HW2 2088   1.292   0.170   1.181
  397SOL     OW 2089   4.048   1.750   4.891
  397SOL    HW1 2090   4.065   1.688   4.968
  397SOL    HW2 2091   4.107   1.830   4.899
  398SOL     OW 2092   0.544   0.571   3.337
  398SOL    HW1 2093   0.514   0.587   3.431
  398SOL    HW2 2094   0.602   0.646   3.308
  399SOL     OW 2095   5.774   5.767   3.744
  399SOL    HW1 2096   5.742   5.854   3.705
  399SOL    HW2 2097   5.705   5.732   3.808
  400SOL     OW 2098   6.077   6.946   3.464
  400SOL    HW1 2099   6.040   6.856   3.444
  400SOL    HW2 2100   6.150   6.939   3.531
  401SOL     OW 2101   0.591   5.625   5.157
  401SOL    HW1 2102   0.586   5.526   5.167
  401SOL    HW2 2103   0.509   5.666   5.197
  402SOL     OW 2104   5.428   1.850   4.131
  402SOL    HW1 2105   5.404   1.942   4.162
  402SOL    HW2 2106   5.475   1.801   4.203
  403SOL     OW 2107   2.682   1.925   5.346
  403SOL    HW1 2108   2.693   1.999   5.279
  403SOL    HW2 2109   2.595   1.879   5.330
  404SOL     OW 2110   3.154   5.751   3.730
  404SOL    HW1 2111   3.174   5.737   3.633
  404SOL    HW2 2112   3.171   5.667   3.781
  405SOL     OW 2113   2.730   5.094   4.430
  405SOL    HW1 2114   2.664   5.167   4.410
  405SOL    HW2 2115   2.822   5.133   4.430
  406SOL     OW 2116   0.493   0.208   6.054
  406SOL    HW1 2117   0.437   0.288   6.076
  406SOL    HW2 2118   0.480   0.184   5.957
  407SOL     OW 2119   2.238   2.873   4.002
  407SOL    HW1 2120   2.154   2.820   4.010
  407SOL    HW2 2121   2.316   2.812   4.004
  408SOL     OW 2122   2.168   2.304   2.965
  408SOL    HW1 2123   2.085   2.256   2.993
  408SOL    HW2 2124   2.147   2.400   2.949
  409SOL     OW 2125   0.551   3.047   2.528
  409SOL    HW1 2126   0.562   3.116   2.600
  409SOL    HW2 2127   0.478   3.075   2.466
  410SOL     OW 2128   1.826   2.364   1.628
  410SOL    HW1 2129   1.732   2.361   1.594
  410SOL    HW2 2130   1.868   2.451   1.601
  411SOL     OW 2131   6.656   2.079   0.698
  411SOL    HW1 2132   6.560   2.056   0.711
  411SOL    HW2 2133   6.675   2.169   0.737
  412SOL     OW 2134   1.613   5.006   2.876
  412SOL    HW1 2135   1.661   5.073   2.932
  412SOL    HW2 2136   1.661   4.918   2.881
  413SOL     OW 2137   6.352   5.260   1.806
  413SOL    HW1 2138   6.371   5.162   1.812
  413SOL    HW2 2139   6.314   5.292   1.892
  414SOL     OW 2140   2.138   0.229   3.165
  414SOL    HW1 2141   2.066   0.224   3.096
  414SOL    HW2 2142   2.198   0.149   3.156
  415SOL     OW 2143   5.674   1.355   6.824
  415SOL    HW1 2144   5.696   1.260   6.804
  415SOL    HW2 2145   5.731   1.416   6.769
  416SOL     OW 2146   5.959   3.229   5.822
  416SOL    HW1 2147   6.017   3.298   5.865
  416SOL    HW2 2148   5.873   3.222   5.873
  417SOL     OW 2149   1.875   2.069   6.380
  417SOL    HW1 2150   1.825   2.151   6.353
  417SOL    HW2 2151   1.821   2.017   6.446
  418SOL     OW 2152   3.380   6.917   5.126
  418SOL    HW1 2153   3.357   6.861   5.206
  418SOL    HW2 2154   3.318   6.895   5.051
  419SOL     OW 2155   6.429   0.373   0.515
  419SOL    HW1 2156   6.398   0.461   0.479
  419SOL    HW2 2157   6.473   0.320   0.442
  420SOL     OW 2158   3.637   6.894   0.702
  420SOL    HW1 2159   3.670   6.972   0.754
  420SOL    HW2 2160   3.685   6.890   0.614
  421SOL     OW 2161   4.712   4.320   2.794
  421SOL    HW1 2162   4.620   4.355   2.809
  421SOL    HW2 2163   4.766   4.389   2.745
  422SOL     OW 2164   4.871   2.405   1.659
  422SOL    HW1 2165   4.956   2.370   1.698
  422SOL    HW2 2166   4.867   2.504   1.673
  423SOL     OW 2167   2.822   1.055   5.884
  423SOL    HW1 2168   2.761   1.132   5.899
  423SOL    HW2 2169   2.916   1.082   5.906
  424SOL     OW 2170   1.848   3.778   4.055
  424SOL    HW1 2171   1.830   3.758   4.152
  424SOL    HW2 2172   1.771   3.828   4.017
  425SOL     OW 2173   3.855   0.908   0.157
  425SOL    HW1 2174   3.934   0.859   0.194
  425SOL    HW2 2175   3.851   0.896   0.058
  426SOL     OW 2176   2.988   2.221   4.396
  426SOL    HW1 2177   2.981   2.266   4.485
  426SOL    HW2 2178   3.082   2.228   4.363
  427SOL     OW 2179   4.999   1.953   3.425
  427SOL    HW1 2180   4.990   1.892   3.503
  427SOL    HW2 2181   5.093   1.988   3.420
  428SOL     OW 2182   2.741   2.549   6.550
  428SOL    HW1 2183   2.788   2.612   6.488
  428SOL    HW2 2184   2.648   2.580   6.565
  429SOL     OW 2185   0.092   5.924   4.032
  429SOL    HW1 2186   0.127   5.903   3.941
  429SOL    HW2 2187   0.131   5.860   4.099
  430SOL     OW 2188   1.917   6.794   4.344
  430SOL    HW1 2189   1.840   6.841   4.388
  430SOL    HW2 2190   1.884   6.744   4.264
  431SOL     OW 2191   3.010   1.756   1.089
  431SOL    HW1 2192   2.991   1.812   1.009
  431SOL    HW2 2193   3.109   1.746   1.100
  432SOL     OW 2194   4.741   1.664   1.152
  432SOL    HW1 2195   4.733   1.738   1.219
  432SOL    HW2 2196   4.650   1.631   1.127
  433SOL     OW 2197   1.745   4.595   0.775
  433SOL    HW1 2198   1.839   4.561   0.779
  433SOL    HW2 2199   1.683   4.524   0.809
  434SOL     OW 2200   4.569   5.435   3.125
  434SOL    HW1 2201   4.596   5.392   3.211
  434SOL    HW2 2202   4.625   5.516   3.109
  435SOL     OW 2203   3.628   2.769   6.136
  435SOL    HW1 2204   3.728   2.769   6.142
  435SOL    HW2 2205   3.601   2.736   6.045
  436SOL     OW 2206   5.296   5.982   1.693
  436SOL    HW1 2207   5.353   6.044   1.748
  436SOL    HW2 2208   5.279   5.898   1.744
  437SOL     OW 2209   6.423   1.590   5.316
  437SOL    HW1 2210   6.455   1.504   5.278
  437SOL    HW2 2211   6.329   1.579   5.349
  438SOL     OW 2212   0.567   4.684   2.795
  438SOL    HW1 2213   0.648   4.705   2.850
  438SOL    HW2 2214   0.547   4.760   2.733
  439SOL     OW 2215   0.023   0.755   5.451
  439SOL    HW1 2216   6.999   0.731   5.363
  439SOL    HW2 2217   0.066   0.674   5.491
  440SOL     OW 2218   4.274   1.928   0.436
  440SOL    HW1 2219   4.283   1.869   0.356
  440SOL    HW2 2220   4.363   1.935   0.482
  441SOL     OW 2221   0.580   4.485   2.202
  441SOL    HW1 2222   0.556   4.568   2.151
  441SOL    HW2 2223   0.568   4.501   2.300
  442SOL     OW 2224   4.301   3.518   5.198
  442SOL    HW1 2225   4.364   3.511   5.120
  442SOL    HW2 2226   4.290   3.429   5.240
  443SOL     OW 2227   4.693   2.681   3.246
  443SOL    HW1 2228   4.791   2.671   3.233
  443SOL    HW2 2229   4.650   2.704   3.158
  444SOL     OW 2230   4.044   2.051   1.517
  444SOL    HW1 2231   3.982   1.982   1.555
  444SOL    HW2 2232   3.994   2.107   1.451
  445SOL     OW 2233   2.009   5.279   2.890
  445SOL    HW1 2234   2.057   5.269   2.977
  445SOL    HW2 2235   2.062   5.235   2.817
  446SOL     OW 2236   6.420   0.147   1.646
  446SOL    HW1 2237   6.517   0.125   1.630
  446SOL    HW2 2238   6.396   0.124   1.740
  447SOL     OW 2239   5.644   3.988   0.718
  447SOL    HW1 2240   5.618   4.044   0.797
  447SOL    HW2 2241   5.741   3.965   0.725
  448SOL     OW 2242   3.455   6.449   3.907
  448SOL    HW1 2243   3.496   6.535   3.940
  448SOL    HW2 2244   3.417   6.463   3.816
  449SOL     OW 2245   1.389   4.163   4.812
  449SOL    HW1 2246   1.303   4.113   4.818
  449SOL    HW2 2247   1.429   4.173   4.903
  450SOL     OW 2248   6.864   4.236   3.023
  450SOL    HW1 2249   6.904   4.323   2.996
  450SOL    HW2 2250   6.883   4.218   3.120
  451SOL     OW 2251   1.351   1.880   0.546
  451SOL    HW1 2252   1.274   1.941   0.529
  451SOL    HW2 2253   1.432   1.914   0.497
  452SOL     OW 2254   4.341   5.250   2.557
  452SOL    HW1 2255   4.393   5.165   2.566
  452SOL    HW2 2256   4.396   5.319   2.511
  453SOL     OW 2257   3.881   1.250   0.025
  453SOL    HW1 2258   3.972   1.212   0.041
  453SOL    HW2 2259   3.882   1.348   0.043
  454SOL     OW 2260   0.281   3.574   4.517
  454SOL    HW1 2261   0.321   3.485   4.495
  454SOL    HW2 2262   0.349   3.646   4.500
  455SOL     OW 2263   5.293   5.609   6.285
  455SOL    HW1 2264   5.365   5.556   6.329
  455SOL    HW2 2265   5.243   5.661   6.354
  456SOL     OW 2266   2.437   0.691   2.593
  456SOL    HW1 2267   2.468   0.625   2.661
  456SOL    HW2 2268   2.503   0.695   2.518
  457SOL     OW 2269   2.453   6.530   0.093
  457SOL    HW1 2270   2.544   6.490   0.097
  457SOL    HW2 2271   2.387   6.460   0.065
  458SOL     OW 2272   3.693   1.309   3.054
  458SOL    HW1 2273   3.604   1.290   3.014
  458SOL    HW2 2274   3.709   1.408   3.055
  459SOL     OW 2275   3.224   0.756   3.181
  459SOL    HW1 2276   3.295   0.812   3.225
  459SOL    HW2 2277   3.134   0.789   3.210
  460SOL     OW 2278   0.699   1.433   6.276
  460SOL    HW1 2279   0.734   1.527   6.279
  460SOL    HW2 2280   0.773   1.371   6.248
  461SOL     OW 2281   0.908   6.011   5.500
  461SOL    HW1 2282   0.911   6.067   5.417
  461SOL    HW2 2283   0.830   6.039   5.556
  462SOL     OW 2284   2.926   3.961   5.024
  462SOL    HW1 2285   2.899   3.876   5.069
  462SOL    HW2 2286   2.845   4.012   4.995
  463SOL     OW 2287   6.034   6.214   3.545
  463SOL    HW1 2288   5.959   6.195   3.609
  463SOL    HW2 2289   6.001   6.275   3.473
  464SOL     OW 2290   4.181   5.628   5.152
  464SOL    HW1 2291   4.170   5.707   5.091
  464SOL    HW2 2292   4.214   5.550   5.099
  465SOL     OW 2293   0.435   4.501   0.247
  465SOL    HW1 2294   0.512   4.438   0.259
  465SOL    HW2 2295   0.438   4.540   0.155
  466SOL     OW 2296   4.228   5.211   3.834
  466SOL    HW1 2297   4.155   5.153   3.797
  466SOL    HW2 2298   4.190   5.300   3.859
  467SOL     OW 2299   6.359   0.478   1.906
  467SOL    HW1 2300   6.317   0.538   1.838
  467SOL    HW2 2301   6.393   0.532   1.983
  468SOL     OW 2302   2.603   5.986   6.185
  468SOL    HW1 2303   2.684   6.046   6.183
  468SOL    HW2 2304   2.521   6.041   6.169
  469SOL     OW 2305   2.975   4.905   4.978
  469SOL    HW1 2306   3.020   4.921   5.066
  469SOL    HW2 2307   2.937   4.813   4.976
  470SOL     OW 2308   1.870   4.845   3.379
  470SOL    HW1 2309   1.947   4.882   3.431
  470SOL    HW2 2310   1.888   4.749   3.358
  471SOL     OW 2311   1.973   2.144   4.083
  471SOL    HW1 2312   1.897   2.139   4.148
  471SOL    HW2 2313   1.973   2.233   4.039
  472SOL     OW 2314   5.611   3.836   6.353
  472SOL    HW1 2315   5.691   3.777   6.344
  472SOL    HW2 2316   5.548   3.819   6.278
  473SOL     OW 2317   5.271   3.360   2.701
  473SOL    HW1 2318   5.229   3.269   2.700
  473SOL    HW2 2319   5.271   3.395   2.795
  474SOL     OW 2320   5.030   5.390   4.073
  474SOL    HW1 2321   4.961   5.445   4.120
  474SOL    HW2 2322   5.119   5.404   4.116
  475SOL     OW 2323   5.903   1.350   1.061
  475SOL    HW1 2324   5.812   1.391   1.067
  475SOL    HW2 2325   5.921   1.297   1.144
  476SOL     OW 2326   1.501   4.188   6.444
  476SOL    HW1 2327   1.439   4.173   6.367
  476SOL    HW2 2328   1.449   4.217   6.524
  477SOL     OW 2329   0.979   5.275   3.181
  477SOL    HW1 2330   1.030   5.360   3.190
  477SOL    HW2 2331   1.040   5.197   3.192
  478SOL     OW 2332   6.220   6.335   3.240
  478SOL    HW1 2333   6.294   6.340   3.308
  478SOL    HW2 2334   6.251   6.376   3.154
  479SOL     OW 2335   3.035   3.375   2.614
  479SOL    HW1 2336   3.085   3.447   2.662
  479SOL    HW2 2337   2.967   3.417   2.554
  480SOL     OW 2338   0.827   0.862   2.626
  480SOL    HW1 2339   0.790   0.938   2.571
  480SOL    HW2 2340   0.761   0.787   2.626
  481SOL     OW 2341   5.829   6.895   1.219
  481SOL    HW1 2342   5.878   6.956   1.281
  481SOL    HW2 2343   5.895   6.843   1.164
  482SOL     OW 2344   4.186   5.000   2.868
  482SOL    HW1 2345   4.143   5.048   2.791
  482SOL    HW2 2346   4.146   4.908   2.876
  483SOL     OW 2347   5.779   1.069   4.218
  483SOL    HW1 2348   5.847   1.056   4.146
  483SOL    HW2 2349   5.766   0.983   4.267
  484SOL     OW 2350   1.894   5.052   3.653
  484SOL    HW1 2351   1.918   5.143   3.687
  484SOL    HW2 2352   1.850   5.060   3.564
  485SOL     OW 2353   5.417   2.114   1.182
  485SOL    HW1 2354   5.318   2.097   1.182
  485SOL    HW2 2355   5.465   2.027   1.189
  486SOL     OW 2356   5.982   6.786   5.777
  486SOL    HW1 2357   5.945   6.875   5.806
  486SOL    HW2 2358   6.080   6.795   5.761
  487SOL     OW 2359   0.526   0.591   6.785
  487SOL    HW1 2360   0.552   0.494   6.784
  487SOL    HW2 2361   0.598   0.645   6.743
  488SOL     OW 2362   1.684   5.857   3.535
  488SOL    HW1 2363   1.774   5.879   3.497
  488SOL    HW2 2364   1.694   5.828   3.630
  489SOL     OW 2365   2.468   5.488   5.222
  489SOL    HW1 2366   2.552   5.455   5.178
  489SOL    HW2 2367   2.390   5.470   5.162
  490SOL     OW 2368   1.394   3.391   4.626
  490SOL    HW1 2369   1.442   3.368   4.710
  490SOL    HW2 2370   1.415   3.485   4.599
  491SOL     OW 2371   6.264   3.043   0.841
  491SOL    HW1 2372   6.251   3.094   0.926
  491SOL    HW2 2373   6.175   3.024   0.800
  492SOL     OW 2374   1.340   2.458   5.831
  492SOL    HW1 2375   1.379   2.540   5.789
  492SOL    HW2 2376   1.360   2.458   5.929
  493SOL     OW 2377   1.580   5.676   4.326
  493SOL    HW1 2378   1.597   5.617   4.247
  493SOL    HW2 2379   1.665   5.721   4.352
  494SOL     OW 2380   2.906   0.738   4.611
  494SOL    HW1 2381   2.944   0.667   4.552
  494SOL    HW2 2382   2.923   0.828   4.570
  495SOL     OW 2383   3.448   4.262   6.792
  495SOL    HW1 2384   3.389   4.209   6.852
  495SOL    HW2 2385   3.540   4.222   6.792
  496SOL     OW 2386   5.006   0.954   3.294
  496SOL    HW1 2387   4.938   1.027   3.287
  496SOL    HW2 2388   5.076   0.967   3.223
  497SOL     OW 2389   4.536   1.944   0.552
  497SOL    HW1 2390   4.532   1.883   0.631
  497SOL    HW2 2391   4.630   1.947   0.517
  498SOL     OW 2392   0.401   0.602   0.966
  498SOL    HW1 2393   0.425   0.643   1.055
  498SOL    HW2 2394   0.457   0.643   0.895
  499SOL     OW 2395   2.801   6.035   0.354
  499SOL    HW1 2396   2.869   6.091   0.307
  499SOL    HW2 2397   2.760   6.088   0.428
  500SOL     OW 2398   5.628   1.893   6.578
  500SOL    HW1 2399   5.552   1.911   6.516
  500SOL    HW2 2400   5.698   1.963   6.567
  501SOL     OW 2401   1.587   1.419   5.093
  501SOL    HW1 2402   1.643   1.501   5.103
  501SOL    HW2 2403   1.490   1.442   5.106
  502SOL     OW 2404   2.320   4.182   6.909
  502SOL    HW1 2405   2.260   4.115   6.952
  502SOL    HW2 2406   2.379   4.135   6.843
  503SOL     OW 2407   3.449   5.480   1.312
  503SOL    HW1 2408   3.391   5.551   1.353
  503SOL    HW2 2409   3.392   5.417   1.259
  504SOL     OW 2410   6.328   6.359   0.837
  504SOL    HW1 2411   6.373   6.291   0.778
  504SOL    HW2 2412   6.257   6.314   0.891
  505SOL     OW 2413   5.932   5.092   5.327
  505SOL    HW1 2414   5.972   5.015   5.376
  505SOL    HW2 2415   5.858   5.132   5.382
  506SOL     OW 2416   2.991   4.998   2.749
  506SOL    HW1 2417   3.005   4.948   2.835
  506SOL    HW2 2418   2.982   5.095   2.768
  507SOL     OW 2419   3.498   0.438   2.062
  507SOL    HW1 2420   3.456   0.465   2.149
  507SOL    HW2 2421   3.443   0.470   1.986
  508SOL     OW 2422   0.113   4.694   3.509
  508SOL    HW1 2423   0.205   4.686   3.472
  508SOL    HW2 2424   0.078   4.787   3.492
  509SOL     OW 2425   4.470   7.002   6.355
  509SOL    HW1 2426   4.380   6.977   6.391
  509SOL    HW2 2427   4.489   6.949   6.273
  510SOL     OW 2428   6.458   4.186   0.271
  510SOL    HW1 2429   6.417   4.206   0.360
  510SOL    HW2 2430   6.454   4.087   0.255
  511SOL     OW 2431   0.794   1.423   6.869
  511SOL    HW1 2432   0.850   1.419   6.786
  511SOL    HW2 2433   0.851   1.452   6.946
  512SOL     OW 2434   0.358   2.540   3.940
  512SOL    HW1 2435   0.446   2.511   3.901
  512SOL    HW2 2436   0.292   2.466   3.929
  513SOL     OW 2437   5.352   6.833   2.895
  513SOL    HW1 2438   5.404   6.913   2.924
  513SOL    HW2 2439   5.255   6.857   2.891
  514SOL     OW 2440   4.930   1.210   5.089
  514SOL    HW1 2441   4.835   1.212   5.059
  514SOL    HW2 2442   4.935   1.174   5.183
  515SOL     OW 2443   3.425   0.577   0.292
  515SOL    HW1 2444   3.498   0.644   0.275
  515SOL    HW2 2445   3.345   0.600   0.236
  516SOL     OW 2446   1.898   5.908   2.052
  516SOL    HW1 2447   1.976   5.860   2.092
  516SOL    HW2 2448   1.819   5.846   2.051
  517SOL     OW 2449   3.767   5.299   1.929
  517SOL    HW1 2450   3.792   5.388   1.965
  517SOL    HW2 2451   3.774   5.230   2.001
  518SOL     OW 2452   1.794   5.171   4.082
  518SOL    HW1 2453   1.774   5.182   3.985
  518SOL    HW2 2454   1.743   5.092   4.119
  519SOL     OW 2455   6.706   6.933   2.143
  519SOL    HW1 2456   6.647   6.922   2.063
  519SOL    HW2 2457   6.790   6.880   2.131
  520SOL     OW 2458   2.233   4.570   0.597
  520SOL    HW1 2459   2.171   4.647   0.609
  520SOL    HW2 2460   2.230   4.512   0.679
  521SOL     OW 2461   6.209   5.580   5.749
  521SOL    HW1 2462   6.238   5.500   5.697
  521SOL    HW2 2463   6.132   5.624   5.702
  522SOL     OW 2464   3.716   4.237   0.178
  522SOL    HW1 2465   3.795   4.265   0.233
  522SOL    HW2 2466   3.738   4.245   0.081
  523SOL     OW 2467   1.483   6.746   6.174
  523SOL    HW1 2468   1.473   6.738   6.273
  523SOL    HW2 2469   1.574   6.715   6.147
  524SOL     OW 2470   0.168   1.293   0.780
  524SOL    HW1 2471   0.139   1.332   0.693
  524SOL    HW2 2472   0.237   1.223   0.765
  525SOL     OW 2473   0.771   3.282   3.848
  525SOL    HW1 2474   0.810   3.364   3.806
  525SOL    HW2 2475   0.754   3.213   3.778
  526SOL     OW 2476   4.555   0.141   4.020
  526SOL    HW1 2477   4.557   0.172   4.115
  526SOL    HW2 2478   4.460   0.124   3.993
  527SOL     OW 2479   0.598   1.144   1.270
  527SOL    HW1 2480   0.697   1.139   1.267
  527SOL    HW2 2481   0.569   1.196   1.351
  528SOL     OW 2482   0.078   2.636   4.069
  528SOL    HW1 2483   0.158   2.664   4.123
  528SOL    HW2 2484   0.094   2.545   4.031
  529SOL     OW 2485   1.379   0.492   6.087
  529SOL    HW1 2486   1.448   0.455   6.026
  529SOL    HW2 2487   1.418   0.504   6.179
  530SOL     OW 2488   3.380   4.607   1.412
  530SOL    HW1 2489   3.472   4.634   1.384
  530SOL    HW2 2490   3.315   4.677   1.384
  531SOL     OW 2491   1.564   0.145   6.691
  531SOL    HW1 2492   1.509   0.096   6.759
  531SOL    HW2 2493   1.523   0.135   6.601
  532SOL     OW 2494   2.379   0.988   5.824
  532SOL    HW1 2495   2.458   1.023   5.875
  532SOL    HW2 2496   2.343   1.060   5.765
  533SOL     OW 2497   3.964   0.457   3.891
  533SOL    HW1 2498   4.016   0.393   3.948
  533SOL    HW2 2499   3.912   0.519   3.949
  534SOL     OW 2500   1.775   3.945   1.792
  534SOL    HW1 2501   1.792   3.848   1.809
  534SOL    HW2 2502   1.723   3.984   1.868
  535SOL     OW 2503   5.191   3.789   4.417
  535SOL    HW1 2504   5.099   3.752   4.405
  535SOL    HW2 2505   5.228   3.815   4.328
  536SOL     OW 2506   6.366   6.449   1.659
  536SOL    HW1 2507   6.390   6.367   1.711
  536SOL    HW2 2508   6.266   6.461   1.660
  537SOL     OW 2509   2.887   1.572   2.210
  537SOL    HW1 2510   2.940   1.582   2.294
  537SOL    HW2 2511   2.789   1.570   2.233
  538SOL     OW 2512   3.758   5.023   4.930
  538SOL    HW1 2513   3.756   4.935   4.977
  538SOL    HW2 2514   3.817   5.016   4.849
  539SOL     OW 2515   1.869   0.118   6.631
  539SOL    HW1 2516   1.838   0.208   6.600
  539SOL    HW2 2517   1.965   0.122   6.658
  540SOL     OW 2518   1.553   0.862   5.220
  540SOL    HW1 2519   1.638   0.810   5.217
  540SOL    HW2 2520   1.573   0.958   5.199
  541SOL     OW 2521   5.451   6.188   3.721
  541SOL    HW1 2522   5.413   6.266   3.771
  541SOL    HW2 2523   5.514   6.138   3.781
  542SOL     OW 2524   3.968   6.812   5.820
  542SOL    HW1 2525   4.004   6.864   5.743
  542SOL    HW2 2526   3.879   6.773   5.796
  543SOL     OW 2527   5.960   2.492   3.609
  543SOL    HW1 2528   5.953   2.569   3.672
  543SOL    HW2 2529   5.969   2.407   3.661
  544SOL     OW 2530   1.320   3.227   1.084
  544SOL    HW1 2531   1.357   3.155   1.025
  544SOL    HW2 2532   1.225   3.207   1.105
  545SOL     OW 2533   6.806   5.568   0.808
  545SOL    HW1 2534   6.750   5.558   0.726
  545SOL    HW2 2535   6.762   5.521   0.885
  546SOL     OW 2536   0.298   4.033   1.599
  546SOL    HW1 2537   0.396   4.029   1.579
  546SOL    HW2 2538   0.284   4.031   1.698
  547SOL     OW 2539   4.686   0.189   6.642
  547SOL    HW1 2540   4.686   0.251   6.720
  547SOL    HW2 2541   4.611   0.213   6.580
  548SOL     OW 2542   4.171   3.401   0.531
  548SOL    HW1 2543   4.089   3.396   0.473
  548SOL    HW2 2544   4.216   3.489   0.519
  549SOL     OW 2545   5.443   1.684   2.188
  549SOL    HW1 2546   5.542   1.685   2.201
  549SOL    HW2 2547   5.421   1.710   2.094
  550SOL     OW 2548   6.693   5.812   3.270
  550SOL    HW1 2549   6.695   5.785   3.174
  550SOL    HW2 2550   6.716   5.734   3.328
  551SOL     OW 2551   6.089   0.442   0.018
  551SOL    HW1 2552   6.037   0.490   0.089
  551SOL    HW2 2553   6.033   0.367   7.000
  552SOL     OW 2554   0.887   0.098   5.035
  552SOL    HW1 2555   0.851   0.102   5.128
  552SOL    HW2 2556   0.953   0.023   5.028
  553SOL     OW 2557   3.633   2.761   6.541
  553SOL    HW1 2558   3.704   2.691   6.537
  553SOL    HW2 2559   3.561   2.741   6.474
  554SOL     OW 2560   6.396   5.577   0.639
  554SOL    HW1 2561   6.329   5.516   0.597
  554SOL    HW2 2562   6.430   5.535   0.724
  555SOL     OW 2563   2.562   3.599   5.405
  555SOL    HW1 2564   2.598   3.547   5.328
  555SOL    HW2 2565   2.574   3.697   5.387
  556SOL     OW 2566   6.054   6.709   3.227
  556SOL    HW1 2567   5.987   6.703   3.301
  556SOL    HW2 2568   6.143   6.677   3.260
  557SOL     OW 2569   5.389   4.389   6.333
  557SOL    HW1 2570   5.461   4.335   6.377
  557SOL    HW2 2571   5.408   4.397   6.236
  558SOL     OW 2572   3.587   3.891   2.456
  558SOL    HW1 2573   3.560   3.934   2.370
  558SOL    HW2 2574   3.685   3.872   2.455
  559SOL     OW 2575   6.838   0.593   6.873
  559SOL    HW1 2576   6.862   0.497   6.861
  559SOL    HW2 2577   6.888   0.630   6.952
  560SOL     OW 2578   6.598   2.870   4.261
  560SOL    HW1 2579   6.547   2.827   4.187
  560SOL    HW2 2580   6.547   2.949   4.296
  561SOL     OW 2581   0.391   3.654   0.457
  561SOL    HW1 2582   0.460   3.682   0.391
  561SOL    HW2 2583   0.408   3.559   0.485
  562SOL     OW 2584   4.225   6.642   4.057
  562SOL    HW1 2585   4.168   6.668   3.980
  562SOL    HW2 2586   4.269   6.554   4.038
  563SOL     OW 2587   1.291   0.868   3.838
  563SOL    HW1 2588   1.280   0.964   3.867
  563SOL    HW2 2589   1.350   0.863   3.758
  564SOL     OW 2590   6.288   2.098   6.379
  564SOL    HW1 2591   6.276   2.030   6.451
  564SOL    HW2 2592   6.366   2.073   6.322
  565SOL     OW 2593   3.566   3.270   3.315
  565SOL    HW1 2594   3.467   3.273   3.322
  565SOL    HW2 2595   3.598   3.177   3.335
  566SOL     OW 2596   2.855   1.543   3.705
  566SOL    HW1 2597   2.771   1.494   3.727
  566SOL    HW2 2598   2.832   1.632   3.665
  567SOL     OW 2599   2.622   2.686   5.453
  567SOL    HW1 2600   2.557   2.745   5.501
  567SOL    HW2 2601   2.690   2.651   5.517
  568SOL     OW 2602   0.743   6.242   6.867
  568SOL    HW1 2603   0.761   6.277   6.775
  568SOL    HW2 2604   0.693   6.155   6.860
  569SOL     OW 2605   5.773   3.251   6.882
  569SOL    HW1 2606   5.759   3.236   6.785
  569SOL    HW2 2607   5.726   3.335   6.910
  570SOL     OW 2608   3.180   0.408   5.867
  570SOL    HW1 2609   3.184   0.494   5.917
  570SOL    HW2 2610   3.189   0.332   5.931
  571SOL     OW 2611   2.438   4.647   1.546
  571SOL    HW1 2612   2.390   4.735   1.545
  571SOL    HW2 2613   2.439   4.611   1.639
  572SOL     OW 2614   2.858   0.786   4.888
  572SOL    HW1 2615   2.870   0.776   4.789
  572SOL    HW2 2616   2.891   0.876   4.916
  573SOL     OW 2617   0.439   0.996   5.511
  573SOL    HW1 2618   0.459   0.990   5.609
  573SOL    HW2 2619   0.521   0.976   5.459
  574SOL     OW 2620   2.181   1.179   5.696
  574SOL    HW1 2621   2.174   1.278   5.707
  574SOL    HW2 2622   2.168   1.135   5.784
  575SOL     OW 2623   3.856   4.195   6.917
  575SOL    HW1 2624   3.803   4.116   6.947
  575SOL    HW2 2625   3.953   4.179   6.933
  576SOL     OW 2626   1.654   1.281   3.020
  576SOL    HW1 2627   1.686   1.309   2.930
  576SOL    HW2 2628   1.644   1.182   3.023
  577SOL     OW 2629   0.304   1.019   1.750
  577SOL    HW1 2630   0.371   0.944   1.746
  577SOL    HW2 2631   0.302   1.056   1.843
  578SOL     OW 2632   3.699   6.578   6.866
  578SOL    HW1 2633   3.610   6.611   6.898
  578SOL    HW2 2634   3.702   6.478   6.875
  579SOL     OW 2635   1.298   3.710   1.921
  579SOL    HW1 2636   1.377   3.711   1.860
  579SOL    HW2 2637   1.330   3.699   2.016
  580SOL     OW 2638   4.599   5.094   4.784
  580SOL    HW1 2639   4.561   5.156   4.852
  580SOL    HW2 2640   4.593   5.000   4.818
  581SOL     OW 2641   2.119   2.681   4.433
  581SOL    HW1 2642   2.180   2.756   4.458
  581SOL    HW2 2643   2.048   2.672   4.503
  582SOL     OW 2644   5.833   4.886   4.566
  582SOL    HW1 2645   5.904   4.821   4.541
  582SOL    HW2 2646   5.746   4.838   4.581
  583SOL     OW 2647   3.774   6.150   5.683
  583SOL    HW1 2648   3.754   6.079   5.750
  583SOL    HW2 2649   3.857   6.198   5.710
  584SOL     OW 2650   3.934   0.217   5.172
  584SOL    HW1 2651   3.844   0.235   5.211
  584SOL    HW2 2652   3.962   0.123   5.191
  585SOL     OW 2653   3.556   6.748   1.422
  585SOL    HW1 2654   3.516   6.786   1.339
  585SOL    HW2 2655   3.641   6.701   1.400
  586SOL     OW 2656   3.805   0.056   0.838
  586SOL    HW1 2657   3.883   0.042   0.778
  586SOL    HW2 2658   3.794   0.153   0.858
  587SOL     OW 2659   4.478   1.478   2.427
  587SOL    HW1 2660   4.493   1.410   2.356
  587SOL    HW2 2661   4.531   1.560   2.406
  588SOL     OW 2662   1.807   4.602   2.781
  588SOL    HW1 2663   1.904   4.597   2.756
  588SOL    HW2 2664   1.781   4.517   2.827
  589SOL     OW 2665   3.289   5.591   0.512
  589SOL    HW1 2666   3.310   5.614   0.607
  589SOL    HW2 2667   3.269   5.494   0.505
  590SOL     OW 2668   3.095   1.939   0.207
  590SOL    HW1 2669   3.154   2.002   0.257
  590SOL    HW2 2670   3.138   1.916   0.119
  591SOL     OW 2671   2.637   6.355   3.810
  591SOL    HW1 2672   2.546   6.393   3.825
  591SOL    HW2 2673   2.674   6.389   3.723
  592SOL     OW 2674   4.050   2.122   4.740
  592SOL    HW1 2675   4.064   2.165   4.651
  592SOL    HW2 2676   3.953   2.119   4.761
  593SOL     OW 2677   2.190   1.622   6.704
  593SOL    HW1 2678   2.180   1.714   6.740
  593SOL    HW2 2679   2.184   1.556   6.779
  594SOL     OW 2680   4.388   1.093   2.921
  594SOL    HW1 2681   4.426   1.029   2.987
  594SOL    HW2 2682   4.454   1.166   2.903
  595SOL     OW 2683   6.216   4.964   2.874
  595SOL    HW1 2684   6.194   4.947   2.970
  595SOL    HW2 2685   6.313   4.986   2.865
  596SOL     OW 2686   6.521   4.784   4.334
  596SOL    HW1 2687   6.587   4.858   4.345
  596SOL    HW2 2688   6.569   4.696   4.338
  597SOL     OW 2689   3.422   1.352   6.646
  597SOL    HW1 2690   3.467   1.400   6.721
  597SOL    HW2 2691   3.482   1.353   6.565
  598SOL     OW 2692   3.316   4.139   3.592
  598SOL    HW1 2693   3.403   4.107   3.631
  598SOL    HW2 2694   3.331   4.229   3.549
  599SOL     OW 2695   1.650   5.316   1.688
  599SOL    HW1 2696   1.628   5.389   1.752
  599SOL    HW2 2697   1.693   5.355   1.606
  600SOL     OW 2698   7.011   3.429   5.386
  600SOL    HW1 2699   6.952   3.396   5.459
  600SOL    HW2 2700   7.017   3.359   5.314
  601SOL     OW 2701   0.419   6.207   5.937
  601SOL    HW1 2702   0.469   6.291   5.960
  601SOL    HW2 2703   0.444   6.135   6.002
  602SOL     OW 2704   1.563   0.351   3.577
  602SOL    HW1 2705   1.543   0.373   3.673
  602SOL    HW2 2706   1.653   0.309   3.570
  603SOL     OW 2707   1.979   1.722   4.275
  603SOL    HW1 2708   1.950   1.772   4.357
  603SOL    HW2 2709   2.035   1.643   4.302
  604SOL     OW 2710   5.961   3.147   1.017
  604SOL    HW1 2711   6.057   3.154   1.043
  604SOL    HW2 2712   5.950   3.076   0.948
  605SOL     OW 2713   6.421   6.445   1.353
  605SOL    HW1 2714   6.488   6.515   1.330
  605SOL    HW2 2715   6.400   6.449   1.451
  606SOL     OW 2716   3.867   6.795   4.975
  606SOL    HW1 2717   3.835   6.700   4.979
  606SOL    HW2 2718   3.788   6.857   4.982
  607SOL     OW 2719   1.749   2.968   6.026
  607SOL    HW1 2720   1.795   2.926   5.947
  607SOL    HW2 2721   1.719   2.897   6.089
  608SOL     OW 2722   3.190   1.283   5.900
  608SOL    HW1 2723   3.155   1.285   5.807
  608SOL    HW2 2724   3.196   1.188   5.932
  609SOL     OW 2725   3.907   2.950   2.262
  609SOL    HW1 2726   3.837   2.887   2.229
  609SOL    HW2 2727   3.960   2.985   2.184
  610SOL     OW 2728   4.568   3.521   1.691
  610SOL    HW1 2729   4.661   3.546   1.719
  610SOL    HW2 2730   4.572   3.447   1.623
  611SOL     OW 2731   4.070   1.369   2.999
  611SOL    HW1 2732   4.083   1.335   2.906
  611SOL    HW2 2733   4.010   1.307   3.049
  612SOL     OW 2734   4.925   5.007   3.587
  612SOL    HW1 2735   4.973   5.009   3.674
  612SOL    HW2 2736   4.904   4.912   3.563
  613SOL     OW 2737   3.809   4.810   6.019
  613SOL    HW1 2738   3.813   4.764   5.930
  613SOL    HW2 2739   3.760   4.896   6.009
  614SOL     OW 2740   2.620   6.237   5.981
  614SOL    HW1 2741   2.661   6.237   6.072
  614SOL    HW2 2742   2.534   6.185   5.983
  615SOL     OW 2743   0.304   4.633   2.845
  615SOL    HW1 2744   0.401   4.651   2.830
  615SOL    HW2 2745   0.258   4.623   2.756
  616SOL     OW 2746   6.132   2.853   3.652
  616SOL    HW1 2747   6.133   2.943   3.695
  616SOL    HW2 2748   6.064   2.795   3.698
  617SOL     OW 2749   3.261   6.631   5.909
  617SOL    HW1 2750   3.327   6.563   5.940
  617SOL    HW2 2751   3.170   6.608   5.944
  618SOL     OW 2752   1.591   0.986   3.409
  618SOL    HW1 2753   1.640   0.936   3.480
  618SOL    HW2 2754   1.635   0.971   3.321
  619SOL     OW 2755   1.003   1.998   6.720
  619SOL    HW1 2756   1.033   2.092   6.702
  619SOL    HW2 2757   1.027   1.973   6.814
  620SOL     OW 2758   4.228   3.338   1.202
  620SOL    HW1 2759   4.238   3.436   1.183
  620SOL    HW2 2760   4.132   3.317   1.220
  621SOL     OW 2761   0.205   5.722   0.785
  621SOL    HW1 2762   0.257   5.797   0.745
  621SOL    HW2 2763   0.115   5.754   0.814
  622SOL     OW 2764   0.715   0.743   6.655
  622SOL    HW1 2765   0.685   0.788   6.571
  622SOL    HW2 2766   0.808   0.774   6.677
  623SOL     OW 2767   0.339   5.060   5.301
  623SOL    HW1 2768   0.340   5.122   5.379
  623SOL    HW2 2769   0.430   5.020   5.289
  624SOL     OW 2770   1.052   1.474   1.064
  624SOL    HW1 2771   1.034   1.508   0.972
  624SOL    HW2 2772   1.079   1.550   1.123
  625SOL     OW 2773   1.625   1.509   2.749
  625SOL    HW1 2774   1.697   1.568   2.713
  625SOL    HW2 2775   1.584   1.552   2.829
  626SOL     OW 2776   3.376   6.607   4.534
  626SOL    HW1 2777   3.388   6.589   4.437
  626SOL    HW2 2778   3.361   6.705   4.549
  627SOL     OW 2779   5.295   0.151   0.375
  627SOL    HW1 2780   5.348   0.225   0.414
  627SOL    HW2 2781   5.296   0.072   0.437
  628SOL     OW 2782   5.696   4.003   3.464
  628SOL    HW1 2783   5.776   3.949   3.438
  628SOL    HW2 2784   5.631   3.945   3.512
  629SOL     OW 2785   1.485   6.865   1.278
  629SOL    HW1 2786   1.387   6.874   1.297
  629SOL    HW2 2787   1.508   6.921   1.198
  630SOL     OW 2788   3.228   2.028   1.355
  630SOL    HW1 2789   3.231   2.113   1.408
  630SOL    HW2 2790   3.238   2.050   1.258
  631SOL     OW 2791   2.410   0.217   4.877
  631SOL    HW1 2792   2.480   0.224   4.948
  631SOL    HW2 2793   2.412   0.125   4.837
  632SOL     OW 2794   2.787   0.474   1.098
  632SOL    HW1 2795   2.738   0.559   1.079
  632SOL    HW2 2796   2.859   0.491   1.165
  633SOL     OW 2797   2.384   6.615   5.347
  633SOL    HW1 2798   2.344   6.523   5.350
  633SOL    HW2 2799   2.449   6.620   5.272
  634SOL     OW 2800   2.796   5.551   1.944
  634SOL    HW1 2801   2.822   5.615   1.872
  634SOL    HW2 2802   2.864   5.555   2.018
  635SOL     OW 2803   2.771   0.473   2.763
  635SOL    HW1 2804   2.801   0.561   2.726
  635SOL    HW2 2805   2.848   0.410   2.766
  636SOL     OW 2806   5.022   5.671   0.005
  636SOL    HW1 2807   5.079   5.598   0.043
  636SOL    HW2 2808   5.017   5.660   6.923
  637SOL     OW 2809   5.987   4.351   6.925
  637SOL    HW1 2810   6.058   4.411   6.961
  637SOL    HW2 2811   5.933   4.400   6.857
  638SOL     OW 2812   5.361   1.355   2.764
  638SOL    HW1 2813   5.424   1.314   2.831
  638SOL    HW2 2814   5.317   1.283   2.711
  639SOL     OW 2815   4.783   4.109   2.466
  639SOL    HW1 2816   4.747   4.147   2.380
  639SOL    HW2 2817   4.751   4.165   2.542
  640SOL     OW 2818   2.114   3.316   5.697
  640SOL    HW1 2819   2.094   3.338   5.602
  640SOL    HW2 2820   2.122   3.217   5.707
  641SOL     OW 2821   0.533   5.777   5.985
  641SOL    HW1 2822   0.554   5.691   6.032
  641SOL    HW2 2823   0.445   5.813   6.019
  642SOL     OW 2824   1.257   4.875   6.231
  642SOL    HW1 2825   1.296   4.958   6.193
  642SOL    HW2 2826   1.159   4.870   6.208
  643SOL     OW 2827   6.021   6.120   5.207
  643SOL    HW1 2828   6.096   6.068   5.250
  643SOL    HW2 2829   5.989   6.070   5.126
  644SOL     OW 2830   2.506   5.695   2.155
  644SOL    HW1 2831   2.535   5.605   2.122
  644SOL    HW2 2832   2.441   5.683   2.230
  645SOL     OW 2833   6.663   2.743   3.118
  645SOL    HW1 2834   6.667   2.825   3.061
  645SOL    HW2 2835   6.752   2.698   3.118
  646SOL     OW 2836   1.265   2.320   4.418
  646SOL    HW1 2837   1.230   2.370   4.339
  646SOL    HW2 2838   1.229   2.226   4.416
  647SOL     OW 2839   5.422   2.985   0.151
  647SOL    HW1 2840   5.405   2.953   0.245
  647SOL    HW2 2841   5.376   2.924   0.087
  648SOL     OW 2842   4.965   2.102   3.812
  648SOL    HW1 2843   5.026   2.027   3.838
  648SOL    HW2 2844   4.907   2.125   3.890
  649SOL     OW 2845   4.624   4.524   2.138
  649SOL    HW1 2846   4.596   4.435   2.102
  649SOL    HW2 2847   4.710   4.552   2.095
  650SOL     OW 2848   5.171   3.810   0.631
  650SOL    HW1 2849   5.141   3.715   0.644
  650SOL    HW2 2850   5.271   3.814   0.632
  651SOL     OW 2851   1.058   6.237   6.309
  651SOL    HW1 2852   1.084   6.234   6.406
  651SOL    HW2 2853   0.980   6.176   6.293
  652SOL     OW 2854   4.995   1.596   2.591
  652SOL    HW1 2855   5.075   1.656   2.591
  652SOL    HW2 2856   4.927   1.630   2.527
  653SOL     OW 2857   3.139   5.138   2.993
  653SOL    HW1 2858   3.123   5.204   2.920
  653SOL    HW2 2859   3.058   5.079   3.003
  654SOL     OW 2860   6.460   5.801   6.418
  654SOL    HW1 2861   6.366   5.775   6.398
  654SOL    HW2 2862   6.516   5.719   6.430
  655SOL     OW 2863   0.156   1.057   0.060
  655SOL    HW1 2864   0.217   1.089   0.133
  655SOL    HW2 2865   0.198   1.073   6.989
  656SOL     OW 2866   2.207   5.887   1.338
  656SOL    HW1 2867   2.255   5.833   1.268
  656SOL    HW2 2868   2.190   5.979   1.302
  657SOL     OW 2869   3.791   1.577   6.988
  657SOL    HW1 2870   3.822   1.673   6.982
  657SOL    HW2 2871   3.815   1.541   0.060
  658SOL     OW 2872   3.870   5.409   5.756
  658SOL    HW1 2873   3.792   5.464   5.727
  658SOL    HW2 2874   3.950   5.435   5.703
  659SOL     OW 2875   3.525   0.122   5.530
  659SOL    HW1 2876   3.570   0.209   5.511
  659SOL    HW2 2877   3.484   0.125   5.621
  660SOL     OW 2878   3.563   5.632   3.110
  660SOL    HW1 2879   3.495   5.602   3.042
  660SOL    HW2 2880   3.630   5.560   3.123
  661SOL     OW 2881   6.262   5.717   2.781
  661SOL    HW1 2882   6.287   5.799   2.730
  661SOL    HW2 2883   6.178   5.733   2.832
  662SOL     OW 2884   3.827   1.336   0.616
  662SOL    HW1 2885   3.784   1.369   0.532
  662SOL    HW2 2886   3.770   1.265   0.657
  663SOL     OW 2887   1.808   4.733   4.638
  663SOL    HW1 2888   1.855   4.756   4.553
  663SOL    HW2 2889   1.868   4.752   4.716
  664SOL     OW 2890   5.461   0.638   6.775
  664SOL    HW1 2891   5.555   0.605   6.777
  664SOL    HW2 2892   5.454   0.722   6.829
  665SOL     OW 2893   1.477   4.506   2.218
  665SOL    HW1 2894   1.467   4.602   2.193
  665SOL    HW2 2895   1.390   4.471   2.253
  666SOL     OW 2896   4.443   1.225   1.037
  666SOL    HW1 2897   4.537   1.259   1.029
  666SOL    HW2 2898   4.389   1.288   1.093
  667SOL     OW 2899   1.014   0.078   2.469
  667SOL    HW1 2900   1.010   0.158   2.528
  667SOL    HW2 2901   0.969   0.098   2.382
  668SOL     OW 2902   5.429   3.829   0.715
  668SOL    HW1 2903   5.395   3.871   0.799
  668SOL    HW2 2904   5.513   3.875   0.686
  669SOL     OW 2905   4.881   1.725   2.360
  669SOL    HW1 2906   4.786   1.747   2.339
  669SOL    HW2 2907   4.928   1.696   2.276
  670SOL     OW 2908   3.111   2.118   3.345
  670SOL    HW1 2909   3.042   2.145   3.411
  670SOL    HW2 2910   3.202   2.128   3.385
  671SOL     OW 2911   2.499   6.388   1.648
  671SOL    HW1 2912   2.519   6.484   1.629
  671SOL    HW2 2913   2.408   6.380   1.688
  672SOL     OW 2914   0.968   6.813   2.491
  672SOL    HW1 2915   1.039   6.746   2.471
  672SOL    HW2 2916   1.007   6.905   2.485
  673SOL     OW 2917   6.094   0.061   6.772
  673SOL    HW1 2918   6.147   0.088   6.692
  673SOL    HW2 2919   6.153   0.013   6.837
  674SOL     OW 2920   5.168   0.478   3.738
  674SOL    HW1 2921   5.071   0.470   3.717
  674SOL    HW2 2922   5.193   0.574   3.745
  675SOL     OW 2923   0.493   3.959   3.321
  675SOL    HW1 2924   0.416   4.021   3.308
  675SOL    HW2 2925   0.543   3.985   3.404
  676SOL     OW 2926   2.500   6.484   5.917
  676SOL    HW1 2927   2.505   6.385   5.930
  676SOL    HW2 2928   2.406   6.510   5.893
  677SOL     OW 2929   5.512   1.873   1.133
  677SOL    HW1 2930   5.465   1.847   1.049
  677SOL    HW2 2931   5.482   1.815   1.208
  678SOL     OW 2932   1.065   4.994   3.734
  678SOL    HW1 2933   1.014   4.921   3.780
  678SOL    HW2 2934   1.097   5.060   3.803
  679SOL     OW 2935   4.394   1.851   5.544
  679SOL    HW1 2936   4.378   1.897   5.457
  679SOL    HW2 2937   4.324   1.878   5.610
  680SOL     OW 2938   6.454   5.955   4.082
  680SOL    HW1 2939   6.453   5.856   4.093
  680SOL    HW2 2940   6.430   5.999   4.169
  681SOL     OW 2941   4.769   4.348   3.063
  681SOL    HW1 2942   4.763   4.321   2.966
  681SOL    HW2 2943   4.756   4.268   3.121
  682SOL     OW 2944   0.198   1.462   2.718
  682SOL    HW1 2945   0.167   1.462   2.813
  682SOL    HW2 2946   0.165   1.544   2.672
  683SOL     OW 2947   3.480   4.327   1.238
  683SOL    HW1 2948   3.391   4.325   1.283
  683SOL    HW2 2949   3.550   4.293   1.302
  684SOL     OW 2950   6.385   1.323   5.545
  684SOL    HW1 2951   6.454   1.282   5.605
  684SOL    HW2 2952   6.407   1.301   5.450
  685SOL     OW 2953   2.824   6.784   3.087
  685SOL    HW1 2954   2.867   6.744   3.006
  685SOL    HW2 2955   2.893   6.802   3.157
  686SOL     OW 2956   3.896   0.424   4.848
  686SOL    HW1 2957   3.813   0.433   4.903
  686SOL    HW2 2958   3.972   0.469   4.894
  687SOL     OW 2959   6.948   1.512   3.387
  687SOL    HW1 2960   6.854   1.507   3.420
  687SOL    HW2 2961   7.012   1.493   3.462
  688SOL     OW 2962   5.800   1.499   0.125
  688SOL    HW1 2963   5.807   1.599   0.125
  688SOL    HW2 2964   5.838   1.463   0.210
  689SOL     OW 2965   1.514   5.624   6.619
  689SOL    HW1 2966   1.483   5.706   6.571
  689SOL    HW2 2967   1.441   5.555   6.618
  690SOL     OW 2968   5.651   3.713   3.339
  690SOL    HW1 2969   5.582   3.675   3.277
  690SOL    HW2 2970   5.655   3.657   3.422
  691SOL     OW 2971   6.065   1.439   1.431
  691SOL    HW1 2972   6.015   1.382   1.366
  691SOL    HW2 2973   6.153   1.396   1.453
  692SOL     OW 2974   1.804   0.393   5.072
  692SOL    HW1 2975   1.772   0.330   5.002
  692SOL    HW2 2976   1.776   0.486   5.049
  693SOL     OW 2977   5.816   5.430   3.044
  693SOL    HW1 2978   5.845   5.495   3.115
  693SOL    HW2 2979   5.717   5.417   3.049
  694SOL     OW 2980   4.585   6.258   4.735
  694SOL    HW1 2981   4.577   6.162   4.762
  694SOL    HW2 2982   4.659   6.301   4.787
  695SOL     OW 2983   4.736   6.939   3.804
  695SOL    HW1 2984   4.821   6.924   3.854
  695SOL    HW2 2985   4.731   0.016   3.773
  696SOL     OW 2986   5.587   4.117   2.655
  696SOL    HW1 2987   5.501   4.067   2.667
  696SOL    HW2 2988   5.639   4.114   2.740
  697SOL     OW 2989   1.286   6.336   2.095
  697SOL    HW1 2990   1.248   6.251   2.130
  697SOL    HW2 2991   1.221   6.380   2.033
  698SOL     OW 2992   5.634   6.059   6.576
  698SOL    HW1 2993   5.668   6.029   6.487
  698SOL    HW2 2994   5.540   6.026   6.589
  699SOL     OW 2995   3.225   3.192   1.106
  699SOL    HW1 2996   3.151   3.141   1.149
  699SOL    HW2 2997   3.190   3.238   1.023
  700SOL     OW 2998   4.077   6.911   4.827
  700SOL    HW1 2999   4.012   6.841   4.856
  700SOL    HW2 3000   4.053   6.999   4.868
  701SOL     OW 3001   4.573   5.258   1.545
  701SOL    HW1 3002   4.649   5.261   1.480
  701SOL    HW2 3003   4.487   5.248   1.496
  702SOL     OW 3004   4.174   0.826   4.723
  702SOL    HW1 3005   4.120   0.777   4.655
  702SOL    HW2 3006   4.269   0.834   4.691
  703SOL     OW 3007   2.623   2.345   0.001
  703SOL    HW1 3008   2.633   2.252   6.983
  703SOL    HW2 3009   2.712   2.379   0.029
  704SOL     OW 3010   3.372   1.976   5.408
  704SOL    HW1 3011   3.359   2.064   5.361
  704SOL    HW2 3012   3.384   1.993   5.506
  705SOL     OW 3013   0.262   6.718   5.408
  705SOL    HW1 3014   0.333   6.756   5.349
  705SOL    HW2 3015   0.199   6.663   5.353
  706SOL     OW 3016   3.879   1.439   4.385
  706SOL    HW1 3017   3.930   1.395   4.458
  706SOL    HW2 3018   3.814   1.375   4.346
  707SOL     OW 3019   2.932   5.239   4.337
  707SOL    HW1 3020   3.001   5.217   4.268
  707SOL    HW2 3021   2.936   5.337   4.357
  708SOL     OW 3022   5.182   6.000   4.015
  708SOL    HW1 3023   5.221   6.090   4.035
  708SOL    HW2 3024   5.094   5.991   4.062
  709SOL     OW 3025   2.260   0.576   1.156
  709SOL    HW1 3026   2.319   0.496   1.155
  709SOL    HW2 3027   2.166   0.548   1.177
  710SOL     OW 3028   5.112   3.328   2.062
  710SOL    HW1 3029   5.062   3.347   1.978
  710SOL    HW2 3030   5.068   3.251   2.110
  711SOL     OW 3031   0.099   1.614   0.281
  711SOL    HW1 3032   0.158   1.623   0.362
  711SOL    HW2 3033   0.152   1.570   0.207
  712SOL     OW 3034   4.841   4.056   6.918
  712SOL    HW1 3035   4.808   4.128   6.979
  712SOL    HW2 3036   4.829   3.967   6.962
  713SOL     OW 3037   4.552   3.444   5.604
  713SOL    HW1 3038   4.563   3.511   5.677
  713SOL    HW2 3039   4.553   3.491   5.515
  714SOL     OW 3040   5.445   5.832   3.227
  714SOL    HW1 3041   5.540   5.804   3.223
  714SOL    HW2 3042   5.387   5.760   3.190
  715SOL     OW 3043   6.221   4.640   5.244
  715SOL    HW1 3044   6.306   4.648   5.191
  715SOL    HW2 3045   6.218   4.712   5.313
  716SOL     OW 3046   2.705   2.395   3.516
  716SOL    HW1 3047   2.791   2.352   3.543
  716SOL    HW2 3048   2.703   2.408   3.417
  717SOL     OW 3049   5.056   4.881   4.244
  717SOL    HW1 3050   5.045   4.979   4.226
  717SOL    HW2 3051   4.967   4.840   4.261
  718SOL     OW 3052   5.508   2.230   5.139
  718SOL    HW1 3053   5.603   2.259   5.128
  718SOL    HW2 3054   5.491   2.204   5.235
  719SOL     OW 3055   5.106   6.582   3.770
  719SOL    HW1 3056   5.007   6.577   3.781
  719SOL    HW2 3057   5.150   6.532   3.845
  720SOL     OW 3058   2.738   1.143   1.075
  720SOL    HW1 3059   2.759   1.177   0.983
  720SOL    HW2 3060   2.794   1.063   1.095
  721SOL     OW 3061   6.896   2.497   1.787
  721SOL    HW1 3062   6.865   2.524   1.878
  721SOL    HW2 3063   6.846   2.550   1.718
  722SOL     OW 3064   4.951   6.021   0.650
  722SOL    HW1 3065   4.954   6.108   0.601
  722SOL    HW2 3066   4.880   5.963   0.610
  723SOL     OW 3067   2.333   0.471   4.799
  723SOL    HW1 3068   2.411   0.530   4.780
  723SOL    HW2 3069   2.366   0.380   4.827
  724SOL     OW 3070   0.933   2.030   4.200
  724SOL    HW1 3071   0.925   1.964   4.275
  724SOL    HW2 3072   0.887   1.993   4.119
  725SOL     OW 3073   1.774   4.376   2.933
  725SOL    HW1 3074   1.860   4.374   2.985
  725SOL    HW2 3075   1.704   4.326   2.984
  726SOL     OW 3076   1.755   3.656   1.113
  726SOL    HW1 3077   1.754   3.706   1.200
  726SOL    HW2 3078   1.838   3.600   1.107
  727SOL     OW 3079   3.733   5.283   4.641
  727SOL    HW1 3080   3.678   5.247   4.565
  727SOL    HW2 3081   3.783   5.207   4.684
  728SOL     OW 3082   6.665   3.120   3.515
  728SOL    HW1 3083   6.688   3.162   3.428
  728SOL    HW2 3084   6.621   3.032   3.499
  729SOL     OW 3085   0.507   4.228   0.834
  729SOL    HW1 3086   0.541   4.211   0.927
  729SOL    HW2 3087   0.554   4.168   0.770
  730SOL     OW 3088   3.919   1.177   3.123
  730SOL    HW1 3089   3.846   1.205   3.060
  730SOL    HW2 3090   3.886   1.183   3.217
  731SOL     OW 3091   4.452   4.710   4.493
  731SOL    HW1 3092   4.437   4.656   4.576
  731SOL    HW2 3093   4.496   4.797   4.517
  732SOL     OW 3094   3.660   0.955   5.209
  732SOL    HW1 3095   3.737   0.899   5.240
  732SOL    HW2 3096   3.692   1.047   5.189
  733SOL     OW 3097   6.285   5.220   3.371
  733SOL    HW1 3098   6.351   5.275   3.422
  733SOL    HW2 3099   6.221   5.280   3.323
  734SOL     OW 3100   6.202   6.748   2.546
  734SOL    HW1 3101   6.155   6.695   2.475
  734SOL    HW2 3102   6.223   6.688   2.624
  735SOL     OW 3103   4.619   0.169   2.063
  735SOL    HW1 3104   4.656   0.256   2.031
  735SOL    HW2 3105   4.545   0.140   2.002
  736SOL     OW 3106   2.108   1.232   3.952
  736SOL    HW1 3107   2.110   1.321   3.997
  736SOL    HW2 3108   2.095   1.244   3.854
  737SOL     OW 3109   3.600   0.882   6.446
  737SOL    HW1 3110   3.568   0.969   6.408
  737SOL    HW2 3111   3.668   0.842   6.385
  738SOL     OW 3112   2.386   4.874   0.426
  738SOL    HW1 3113   2.442   4.797   0.456
  738SOL    HW2 3114   2.361   4.930   0.505
  739SOL     OW 3115   2.272   6.555   3.409
  739SOL    HW1 3116   2.274   6.655   3.404
  739SOL    HW2 3117   2.263   6.526   3.504
  740SOL     OW 3118   4.919   3.214   3.052
  740SOL    HW1 3119   4.980   3.200   2.974
  740SOL    HW2 3120   4.894   3.311   3.058
  741SOL     OW 3121   2.950   0.853   3.241
  741SOL    HW1 3122   2.937   0.950   3.223
  741SOL    HW2 3123   2.928   0.834   3.337
  742SOL     OW 3124   2.253   5.953   1.604
  742SOL    HW1 3125   2.232   5.930   1.509
  742SOL    HW2 3126   2.324   6.024   1.606
  743SOL     OW 3127   0.510   6.196   2.989
  743SOL    HW1 3128   0.413   6.184   3.013
  743SOL    HW2 3129   0.517   6.235   2.898
  744SOL     OW 3130   5.190   1.832   6.902
  744SOL    HW1 3131   5.120   1.900   6.921
  744SOL    HW2 3132   5.253   1.826   6.980
  745SOL     OW 3133   2.466   6.789   4.469
  745SOL    HW1 3134   2.511   6.746   4.547
  745SOL    HW2 3135   2.439   6.719   4.403
  746SOL     OW 3136   0.493   5.040   5.031
  746SOL    HW1 3137   0.421   5.105   5.055
  746SOL    HW2 3138   0.552   5.024   5.109
  747SOL     OW 3139   4.901   5.770   2.482
  747SOL    HW1 3140   4.979   5.751   2.424
  747SOL    HW2 3141   4.884   5.869   2.483
  748SOL     OW 3142   5.375   5.206   1.628
  748SOL    HW1 3143   5.415   5.171   1.713
  748SOL    HW2 3144   5.276   5.194   1.630
  749SOL     OW 3145   5.038   4.277   4.826
  749SOL    HW1 3146   5.083   4.189   4.842
  749SOL    HW2 3147   4.952   4.262   4.777
  750SOL     OW 3148   2.389   2.123   2.355
  750SOL    HW1 3149   2.337   2.186   2.298
  750SOL    HW2 3150   2.332   2.044   2.379
  751SOL     OW 3151   3.603   0.481   0.729
  751SOL    HW1 3152   3.561   0.526   0.650
  751SOL    HW2 3153   3.539   0.413   0.765
  752SOL     OW 3154   3.546   2.716   5.463
  752SOL    HW1 3155   3.533   2.672   5.374
  752SOL    HW2 3156   3.465   2.703   5.519
  753SOL     OW 3157   3.514   3.708   4.109
  753SOL    HW1 3158   3.434   3.749   4.154
  753SOL    HW2 3159   3.597   3.736   4.157
  754SOL     OW 3160   5.716   0.358   0.413
  754SOL    HW1 3161   5.634   0.326   0.461
  754SOL    HW2 3162   5.798   0.326   0.460
  755SOL     OW 3163   4.416   4.371   5.356
  755SOL    HW1 3164   4.367   4.401   5.273
  755SOL    HW2 3165   4.411   4.272   5.364
  756SOL     OW 3166   2.262   5.034   5.969
  756SOL    HW1 3167   2.240   5.097   6.043
  756SOL    HW2 3168   2.180   5.014   5.916
  757SOL     OW 3169   2.245   5.989   1.911
  757SOL    HW1 3170   2.275   5.927   1.839
  757SOL    HW2 3171   2.158   6.030   1.884
  758SOL     OW 3172   4.981   0.820   4.267
  758SOL    HW1 3173   5.002   0.909   4.309
  758SOL    HW2 3174   5.030   0.748   4.316
  759SOL     OW 3175   0.814   3.504   3.698
  759SOL    HW1 3176   0.728   3.549   3.672
  759SOL    HW2 3177   0.875   3.501   3.619
  760SOL     OW 3178   6.720   5.060   3.310
  760SOL    HW1 3179   6.719   5.093   3.405
  760SOL    HW2 3180   6.806   5.088   3.266
  761SOL     OW 3181   4.650   5.013   6.310
  761SOL    HW1 3182   4.731   5.009   6.251
  761SOL    HW2 3183   4.571   5.043   6.256
  762SOL     OW 3184   3.504   6.064   3.419
  762SOL    HW1 3185   3.453   6.126   3.359
  762SOL    HW2 3186   3.507   5.973   3.378
  763SOL     OW 3187   5.436   0.330   0.539
  763SOL    HW1 3188   5.407   0.420   0.571
  763SOL    HW2 3189   5.471   0.277   0.616
  764SOL     OW 3190   5.379   6.391   5.695
  764SOL    HW1 3191   5.378   6.491   5.693
  764SOL    HW2 3192   5.306   6.359   5.756
  765SOL     OW 3193   6.485   7.013   0.366
  765SOL    HW1 3194   6.479   6.913   0.373
  765SOL    HW2 3195   6.576   0.020   0.331
  766SOL     OW 3196   2.769   2.160   4.266
  766SOL    HW1 3197   2.765   2.063   4.244
  766SOL    HW2 3198   2.848   2.178   4.325
  767SOL     OW 3199   6.633   5.393   4.343
  767SOL    HW1 3200   6.722   5.354   4.365
  767SOL    HW2 3201   6.620   5.478   4.394
  768SOL     OW 3202   1.747   5.168   3.072
  768SOL    HW1 3203   1.682   5.214   3.132
  768SOL    HW2 3204   1.837   5.211   3.081
  769SOL     OW 3205   3.071   2.108   5.649
  769SOL    HW1 3206   3.116   2.180   5.597
  769SOL    HW2 3207   2.980   2.090   5.610
  770SOL     OW 3208   1.330   5.104   6.124
  770SOL    HW1 3209   1.350   5.121   6.027
  770SOL    HW2 3210   1.242   5.144   6.147
  771SOL     OW 3211   1.326   5.040   2.920
  771SOL    HW1 3212   1.424   5.049   2.905
  771SOL    HW2 3213   1.309   4.968   2.988
  772SOL     OW 3214   5.740   4.346   0.375
  772SOL    HW1 3215   5.714   4.423   0.434
  772SOL    HW2 3216   5.694   4.263   0.407
  773SOL     OW 3217   2.028   4.149   4.012
  773SOL    HW1 3218   2.086   4.122   4.089
  773SOL    HW2 3219   1.935   4.115   4.025
  774SOL     OW 3220   2.343   0.941   3.482
  774SOL    HW1 3221   2.377   1.002   3.411
  774SOL    HW2 3222   2.411   0.933   3.555
  775SOL     OW 3223   1.332   4.770   3.076
  775SOL    HW1 3224   1.356   4.790   3.170
  775SOL    HW2 3225   1.384   4.691   3.043
  776SOL     OW 3226   2.669   5.282   5.938
  776SOL    HW1 3227   2.591   5.309   5.995
  776SOL    HW2 3228   2.638   5.267   5.844
  777SOL     OW 3229   2.166   3.600   6.069
  777SOL    HW1 3230   2.093   3.667   6.079
  777SOL    HW2 3231   2.134   3.523   6.013
  778SOL     OW 3232   2.986   5.680   6.875
  778SOL    HW1 3233   2.937   5.593   6.866
  778SOL    HW2 3234   3.052   5.688   6.800
  779SOL     OW 3235   6.070   2.794   2.804
  779SOL    HW1 3236   6.003   2.767   2.735
  779SOL    HW2 3237   6.138   2.721   2.814
  780SOL     OW 3238   6.951   2.281   5.064
  780SOL    HW1 3239   6.941   2.316   4.971
  780SOL    HW2 3240   0.007   2.330   5.110
  781SOL     OW 3241   0.274   4.672   6.744
  781SOL    HW1 3242   0.303   4.712   6.657
  781SOL    HW2 3243   0.175   4.679   6.752
  782SOL     OW 3244   1.783   3.585   4.899
  782SOL    HW1 3245   1.794   3.659   4.965
  782SOL    HW2 3246   1.831   3.609   4.814
  783SOL     OW 3247   6.303   4.866   6.732
  783SOL    HW1 3248   6.304   4.961   6.701
  783SOL    HW2 3249   6.314   4.806   6.653
  784SOL     OW 3250   2.176   5.910   0.615
  784SOL    HW1 3251   2.100   5.952   0.665
  784SOL    HW2 3252   2.214   5.835   0.670
  785SOL     OW 3253   0.565   1.234   4.018
  785SOL    HW1 3254   0.524   1.192   4.098
  785SOL    HW2 3255   0.493   1.267   3.956
  786SOL     OW 3256   5.897   0.483   4.014
  786SOL    HW1 3257   5.953   0.401   4.022
  786SOL    HW2 3258   5.845   0.480   3.929
  787SOL     OW 3259   2.204   0.142   1.235
  787SOL    HW1 3260   2.206   0.044   1.256
  787SOL    HW2 3261   2.146   0.158   1.155
  788SOL     OW 3262   2.029   2.686   1.748
  788SOL    HW1 3263   2.112   2.739   1.764
  788SOL    HW2 3264   2.024   2.610   1.813
  789SOL     OW 3265   4.260   4.714   2.695
  789SOL    HW1 3266   4.350   4.749   2.670
  789SOL    HW2 3267   4.213   4.681   2.613
  790SOL     OW 3268   0.614   3.206   1.955
  790SOL    HW1 3269   0.531   3.187   2.008
  790SOL    HW2 3270   0.687   3.144   1.983
  791SOL     OW 3271   2.690   6.708   3.977
  791SOL    HW1 3272   2.737   6.651   3.910
  791SOL    HW2 3273   2.655   6.790   3.932
  792SOL     OW 3274   2.192   0.331   0.399
  792SOL    HW1 3275   2.106   0.359   0.441
  792SOL    HW2 3276   2.267   0.385   0.437
  793SOL     OW 3277   2.376   6.060   4.616
  793SOL    HW1 3278   2.319   6.087   4.538
  793SOL    HW2 3279   2.464   6.108   4.610
  794SOL     OW 3280   3.115   3.149   2.527
  794SOL    HW1 3281   3.157   3.067   2.565
  794SOL    HW2 3282   3.054   3.191   2.594
  795SOL     OW 3283   4.803   0.848   5.681
  795SOL    HW1 3284   4.791   0.748   5.678
  795SOL    HW2 3285   4.775   0.881   5.771
  796SOL     OW 3286   0.275   2.497   0.389
  796SOL    HW1 3287   0.243   2.590   0.374
  796SOL    HW2 3288   0.219   2.454   0.459
  797SOL     OW 3289   3.457   6.872   1.205
  797SOL    HW1 3290   3.481   6.879   1.108
  797SOL    HW2 3291   3.371   6.919   1.222
  798SOL     OW 3292   5.048   5.537   1.353
  798SOL    HW1 3293   4.964   5.483   1.355
  798SOL    HW2 3294   5.048   5.600   1.431
  799SOL     OW 3295   2.597   2.667   6.136
  799SOL    HW1 3296   2.679   2.687   6.190
  799SOL    HW2 3297   2.614   2.693   6.040
  800SOL     OW 3298   5.349   2.853   3.123
  800SOL    HW1 3299   5.309   2.932   3.077
  800SOL    HW2 3300   5.432   2.881   3.171
  801SOL     OW 3301   1.829   6.007   6.581
  801SOL    HW1 3302   1.913   5.955   6.570
  801SOL    HW2 3303   1.770   5.993   6.501
  802SOL     OW 3304   4.551   2.196   6.785
  802SOL    HW1 3305   4.615   2.272   6.776
  802SOL    HW2 3306   4.515   2.193   6.879
  803SOL     OW 3307   2.370   1.990   4.226
  803SOL    HW1 3308   2.425   2.031   4.154
  803SOL    HW2 3309   2.402   1.897   4.243
  804SOL     OW 3310   4.962   0.433   2.886
  804SOL    HW1 3311   4.936   0.489   2.964
  804SOL    HW2 3312   5.058   0.405   2.895
  805SOL     OW 3313   3.358   0.785   3.844
  805SOL    HW1 3314   3.404   0.825   3.765
  805SOL    HW2 3315   3.260   0.786   3.829
  806SOL     OW 3316   3.068   6.464   5.224
  806SOL    HW1 3317   3.103   6.499   5.311
  806SOL    HW2 3318   3.143   6.424   5.171
  807SOL     OW 3319   1.173   6.244   5.676
  807SOL    HW1 3320   1.220   6.303   5.742
  807SOL    HW2 3321   1.233   6.167   5.653
  808SOL     OW 3322   5.099   2.925   5.940
  808SOL    HW1 3323   5.151   2.901   5.858
  808SOL    HW2 3324   5.065   2.842   5.984
  809SOL     OW 3325   2.762   5.637   0.112
  809SOL    HW1 3326   2.830   5.692   0.161
  809SOL    HW2 3327   2.806   5.557   0.073
  810SOL     OW 3328   3.328   3.835   0.265
  810SOL    HW1 3329   3.246   3.825   0.209
  810SOL    HW2 3330   3.352   3.932   0.273
  811SOL     OW 3331   6.345   5.348   4.440
  811SOL    HW1 3332   6.428   5.316   4.393
  811SOL    HW2 3333   6.354   5.334   4.538
  812SOL     OW 3334   1.048   3.813   1.440
  812SOL    HW1 3335   1.097   3.758   1.373
  812SOL    HW2 3336   1.053   3.770   1.530
  813SOL     OW 3337   1.692   1.368   5.350
  813SOL    HW1 3338   1.634   1.336   5.275
  813SOL    HW2 3339   1.739   1.290   5.392
  814SOL     OW 3340   0.524   4.403   2.746
  814SOL    HW1 3341   0.544   4.500   2.732
  814SOL    HW2 3342   0.465   4.393   2.826
  815SOL     OW 3343   4.251   1.935   4.793
  815SOL    HW1 3344   4.170   1.993   4.789
  815SOL    HW2 3345   4.291   1.940   4.884
  816SOL     OW 3346   5.726   3.835   6.584
  816SOL    HW1 3347   5.670   3.865   6.506
  816SOL    HW2 3348   5.702   3.741   6.608
  817SOL     OW 3349   0.590   4.990   6.645
  817SOL    HW1 3350   0.557   5.031   6.730
  817SOL    HW2 3351   0.605   4.892   6.659
  818SOL     OW 3352   0.170   2.042   4.913
  818SOL    HW1 3353   0.199   2.016   4.821
  818SOL    HW2 3354   0.070   2.035   4.920
  819SOL     OW 3355   4.999   3.361   1.827
  819SOL    HW1 3356   4.912   3.408   1.811
  819SOL    HW2 3357   4.984   3.262   1.827
  820SOL     OW 3358   2.618   2.169   5.201
  820SOL    HW1 3359   2.543   2.192   5.263
  820SOL    HW2 3360   2.587   2.101   5.134
  821SOL     OW 3361   5.220   3.236   6.778
  821SOL    HW1 3362   5.267   3.318   6.811
  821SOL    HW2 3363   5.285   3.161   6.770
  822SOL     OW 3364   0.232   4.945   3.184
  822SOL    HW1 3365   0.153   4.991   3.225
  822SOL    HW2 3366   0.201   4.862   3.138
  823SOL     OW 3367   1.806   3.051   4.657
  823SOL    HW1 3368   1.895   3.010   4.639
  823SOL    HW2 3369   1.775   3.102   4.577
  824SOL     OW 3370   4.900   0.083   6.518
  824SOL    HW1 3371   4.967   0.067   6.590
  824SOL    HW2 3372   4.821   0.132   6.557
  825SOL     OW 3373   6.214   6.196   1.068
  825SOL    HW1 3374   6.195   6.143   0.985
  825SOL    HW2 3375   6.153   6.164   1.142
  826SOL     OW 3376   3.559   2.017   0.240
  826SOL    HW1 3377   3.518   2.081   0.175
  826SOL    HW2 3378   3.505   2.016   0.324
  827SOL     OW 3379   3.452   3.553   5.017
  827SOL    HW1 3380   3.489   3.599   4.936
  827SOL    HW2 3381   3.371   3.602   5.050
  828SOL     OW 3382   0.332   6.616   6.161
  828SOL    HW1 3383   0.328   6.545   6.231
  828SOL    HW2 3384   0.239   6.650   6.144
  829SOL     OW 3385   3.725   3.726   2.171
  829SOL    HW1 3386   3.666   3.803   2.149
  829SOL    HW2 3387   3.698   3.688   2.259
  830SOL     OW 3388   6.494   4.601   0.006
  830SOL    HW1 3389   6.418   4.539   7.002
  830SOL    HW2 3390   6.580   4.559   6.996
  831SOL     OW 3391   5.010   1.302   2.119
  831SOL    HW1 3392   4.987   1.331   2.212
  831SOL    HW2 3393   4.930   1.259   2.077
  832SOL     OW 3394   3.026   1.791   5.050
  832SOL    HW1 3395   3.055   1.773   4.957
  832SOL    HW2 3396   3.059   1.881   5.079
  833SOL     OW 3397   4.170   3.043   0.055
  833SOL    HW1 3398   4.108   2.965   0.059
  833SOL    HW2 3399   4.121   3.125   0.084
  834SOL     OW 3400   5.816   2.463   0.615
  834SOL    HW1 3401   5.906   2.493   0.645
  834SOL    HW2 3402   5.748   2.486   0.685
  835SOL     OW 3403   6.986   0.291   4.606
  835SOL    HW1 3404   7.008   0.211   4.662
  835SOL    HW2 3405   6.910   0.341   4.647
  836SOL     OW 3406   5.118   0.546   4.966
  836SOL    HW1 3407   5.110   0.496   4.880
  836SOL    HW2 3408   5.071   0.495   5.038
  837SOL     OW 3409   1.482   0.231   0.058
  837SOL    HW1 3410   1.525   0.176   7.004
  837SOL    HW2 3411   1.431   0.307   0.016
  838SOL     OW 3412   1.096   5.651   3.714
  838SOL    HW1 3413   1.194   5.635   3.717
  838SOL    HW2 3414   1.052   5.577   3.663
  839SOL     OW 3415   1.264   2.169   0.521
  839SOL    HW1 3416   1.338   2.160   0.454
  839SOL    HW2 3417   1.302   2.196   0.609
  840SOL     OW 3418   4.813   5.068   0.732
  840SOL    HW1 3419   4.846   5.071   0.638
  840SOL    HW2 3420   4.731   5.011   0.737
  841SOL     OW 3421   2.640   5.326   6.850
  841SOL    HW1 3422   2.610   5.328   6.754
  841SOL    HW2 3423   2.568   5.288   6.907
  842SOL     OW 3424   3.784   5.464   1.016
  842SOL    HW1 3425   3.770   5.451   1.114
  842SOL    HW2 3426   3.848   5.395   0.982
  843SOL     OW 3427   1.568   0.402   2.184
  843SOL    HW1 3428   1.531   0.390   2.276
  843SOL    HW2 3429   1.660   0.363   2.181
  844SOL     OW 3430   6.782   0.494   1.703
  844SOL    HW1 3431   6.747   0.474   1.794
  844SOL    HW2 3432   6.876   0.528   1.710
  845SOL     OW 3433   3.199   1.647   2.610
  845SOL    HW1 3434   3.280   1.629   2.666
  845SOL    HW2 3435   3.118   1.649   2.669
  846SOL     OW 3436   2.623   2.293   0.770
  846SOL    HW1 3437   2.716   2.325   0.787
  846SOL    HW2 3438   2.558   2.361   0.805
  847SOL     OW 3439   2.729   3.624   1.510
  847SOL    HW1 3440   2.660   3.563   1.547
  847SOL    HW2 3441   2.688   3.684   1.441
  848SOL     OW 3442   6.240   6.379   0.009
  848SOL    HW1 3443   6.210   6.468   0.043
  848SOL    HW2 3444   6.171   6.310   0.029
  849SOL     OW 3445   5.744   3.228   6.621
  849SOL    HW1 3446   5.834   3.235   6.579
  849SOL    HW2 3447   5.676   3.272   6.562
  850SOL     OW 3448   1.149   1.062   4.957
  850SOL    HW1 3449   1.184   1.150   4.926
  850SOL    HW2 3450   1.073   1.076   5.020
  851SOL     OW 3451   5.667   3.231   5.922
  851SOL    HW1 3452   5.707   3.199   6.008
  851SOL    HW2 3453   5.606   3.161   5.886
  852SOL     OW 3454   0.231   4.014   1.847
  852SOL    HW1 3455   0.269   3.924   1.869
  852SOL    HW2 3456   0.199   4.058   1.931
  853SOL     OW 3457   3.086   3.214   0.793
  853SOL    HW1 3458   2.999   3.260   0.777
  853SOL    HW2 3459   3.158   3.282   0.803
  854SOL     OW 3460   5.966   6.393   5.842
  854SOL    HW1 3461   6.004   6.365   5.753
  854SOL    HW2 3462   5.901   6.325   5.874
  855SOL     OW 3463   5.923   1.390   0.359
  855SOL    HW1 3464   5.862   1.443   0.418
  855SOL    HW2 3465   5.922   1.294   0.388
  856SOL     OW 3466   2.088   5.207   2.157
  856SOL    HW1 3467   2.135   5.269   2.094
  856SOL    HW2 3468   2.130   5.216   2.248
  857SOL     OW 3469   0.097   5.728   4.870
  857SOL    HW1 3470   0.115   5.658   4.800
  857SOL    HW2 3471   0.001   5.723   4.897
  858SOL     OW 3472   4.374   4.084   0.044
  858SOL    HW1 3473   4.430   4.064   0.125
  858SOL    HW2 3474   4.416   4.159   7.010
  859SOL     OW 3475   5.216   5.901   5.394
  859SOL    HW1 3476   5.140   5.936   5.339
  859SOL    HW2 3477   5.284   5.973   5.406
  860SOL     OW 3478   4.515   2.749   6.149
  860SOL    HW1 3479   4.530   2.733   6.247
  860SOL    HW2 3480   4.517   2.662   6.100
  861SOL     OW 3481   1.676   5.130   2.190
  861SOL    HW1 3482   1.595   5.189   2.179
  861SOL    HW2 3483   1.751   5.184   2.229
  862SOL     OW 3484   0.567   4.118   3.689
  862SOL    HW1 3485   0.624   4.035   3.686
  862SOL    HW2 3486   0.594   4.173   3.767
  863SOL     OW 3487   6.075   0.690   1.575
  863SOL    HW1 3488   6.025   0.614   1.615
  863SOL    HW2 3489   6.092   0.671   1.478
  864SOL     OW 3490   5.781   6.488   3.566
  864SOL    HW1 3491   5.688   6.513   3.593
  864SOL    HW2 3492   5.778   6.415   3.498
  865SOL     OW 3493   1.532   6.001   4.912
  865SOL    HW1 3494   1.435   6.028   4.910
  865SOL    HW2 3495   1.550   5.934   4.841
  866SOL     OW 3496   3.569   0.131   1.663
  866SOL    HW1 3497   3.521   0.081   1.591
  866SOL    HW2 3498   3.584   0.070   1.741
  867SOL     OW 3499   5.900   2.446   5.731
  867SOL    HW1 3500   5.871   2.368   5.675
  867SOL    HW2 3501   5.993   2.471   5.707
  868SOL     OW 3502   0.397   2.555   1.518
  868SOL    HW1 3503   0.321   2.591   1.572
  868SOL    HW2 3504   0.435   2.475   1.564
  869SOL     OW 3505   0.111   3.917   3.498
  869SOL    HW1 3506   0.052   3.968   3.560
  869SOL    HW2 3507   0.103   3.955   3.406
  870SOL     OW 3508   3.837   5.124   2.142
  870SOL    HW1 3509   3.774   5.139   2.218
  870SOL    HW2 3510   3.792   5.071   2.070
  871SOL     OW 3511   5.072   1.732   3.269
  871SOL    HW1 3512   5.074   1.799   3.343
  871SOL    HW2 3513   5.096   1.777   3.183
  872SOL     OW 3514   1.131   2.309   4.774
  872SOL    HW1 3515   1.062   2.355   4.717
  872SOL    HW2 3516   1.163   2.372   4.845
  873SOL     OW 3517   4.326   7.001   5.948
  873SOL    HW1 3518   4.279   0.062   5.908
  873SOL    HW2 3519   4.417   0.011   5.978
  874SOL     OW 3520   5.184   3.295   1.656
  874SOL    HW1 3521   5.121   3.270   1.582
  874SOL    HW2 3522   5.132   3.340   1.729
  875SOL     OW 3523   4.687   5.420   1.731
  875SOL    HW1 3524   4.645   5.347   1.678
  875SOL    HW2 3525   4.701   5.390   1.825
  876SOL     OW 3526   6.871   0.303   0.735
  876SOL    HW1 3527   6.835   0.299   0.642
  876SOL    HW2 3528   6.821   0.239   0.793
  877SOL     OW 3529   2.052   3.655   6.817
  877SOL    HW1 3530   2.138   3.697   6.845
  877SOL    HW2 3531   2.003   3.620   6.897
  878SOL     OW 3532   3.701   6.447   4.180
  878SOL    HW1 3533   3.623   6.389   4.205
  878SOL    HW2 3534   3.667   6.538   4.153
  879SOL     OW 3535   5.855   0.262   6.942
  879SOL    HW1 3536   5.821   0.183   6.891
  879SOL    HW2 3537   5.822   0.346   6.900
  880SOL     OW 3538   2.954   3.259   2.307
  880SOL    HW1 3539   2.962   3.194   2.382
  880SOL    HW2 3540   2.890   3.332   2.333
  881SOL     OW 3541   4.702   1.876   0.234
  881SOL    HW1 3542   4.758   1.818   0.175
  881SOL    HW2 3543   4.692   1.967   0.192
  882SOL     OW 3544   1.739   2.739   4.375
  882SOL    HW1 3545   1.805   2.815   4.377
  882SOL    HW2 3546   1.686   2.743   4.290
  883SOL     OW 3547   2.647   0.144   3.366
  883SOL    HW1 3548   2.711   0.186   3.430
  883SOL    HW2 3549   2.677   0.051   3.345
  884SOL     OW 3550   4.035   3.595   5.523
  884SOL    HW1 3551   4.130   3.627   5.527
  884SOL    HW2 3552   4.025   3.512   5.577
  885SOL     OW 3553   4.165   2.711   6.513
  885SOL    HW1 3554   4.122   2.685   6.426
  885SOL    HW2 3555   4.215   2.632   6.549
  886SOL     OW 3556   3.355   1.154   6.830
  886SOL    HW1 3557   3.407   1.070   6.815
  886SOL    HW2 3558   3.377   1.220   6.759
  887SOL     OW 3559   5.180   1.290   5.125
  887SOL    HW1 3560   5.210   1.338   5.043
  887SOL    HW2 3561   5.089   1.250   5.109
  888SOL     OW 3562   6.690   6.416   2.709
  888SOL    HW1 3563   6.617   6.388   2.647
  888SOL    HW2 3564   6.659   6.405   2.804
  889SOL     OW 3565   0.848   3.801   6.844
  889SOL    HW1 3566   0.936   3.754   6.849
  889SOL    HW2 3567   0.842   3.868   6.918
  890SOL     OW 3568   2.444   5.322   3.995
  890SOL    HW1 3569   2.501   5.325   3.913
  890SOL    HW2 3570   2.419   5.415   4.021
  891SOL     OW 3571   4.595   5.805   2.163
  891SOL    HW1 3572   4.577   5.886   2.218
  891SOL    HW2 3573   4.659   5.829   2.089
  892SOL     OW 3574   2.920   4.789   0.909
  892SOL    HW1 3575   2.973   4.712   0.875
  892SOL    HW2 3576   2.869   4.761   0.991
  893SOL     OW 3577   1.790   6.093   2.507
  893SOL    HW1 3578   1.837   6.006   2.494
  893SOL    HW2 3579   1.752   6.096   2.599
  894SOL     OW 3580   0.884   4.399   1.340
  894SOL    HW1 3581   0.858   4.436   1.429
  894SOL    HW2 3582   0.918   4.472   1.281
  895SOL     OW 3583   0.291   5.827   4.205
  895SOL    HW1 3584   0.367   5.853   4.145
  895SOL    HW2 3585   0.319   5.748   4.260
  896SOL     OW 3586   0.600   0.619   6.376
  896SOL    HW1 3587   0.583   0.522   6.393
  896SOL    HW2 3588   0.565   0.644   6.286
  897SOL     OW 3589   4.970   0.612   0.134
  897SOL    HW1 3590   4.886   0.666   0.126
  897SOL    HW2 3591   5.002   0.586   0.043
  898SOL     OW 3592   4.439   6.597   3.336
  898SOL    HW1 3593   4.436   6.498   3.325
  898SOL    HW2 3594   4.401   6.622   3.425
  899SOL     OW 3595   0.024   5.013   0.459
  899SOL    HW1 3596   0.041   5.008   0.558
  899SOL    HW2 3597   0.092   4.957   0.411
  900SOL     OW 3598   5.287   5.445   0.904
  900SOL    HW1 3599   5.282   5.475   0.809
  900SOL    HW2 3600   5.228   5.365   0.917
  901SOL     OW 3601   1.493   0.695   2.741
  901SOL    HW1 3602   1.413   0.751   2.763
  901SOL    HW2 3603   1.468   0.629   2.670
  902SOL     OW 3604   6.186   3.425   1.774
  902SOL    HW1 3605   6.170   3.348   1.713
  902SOL    HW2 3606   6.152   3.403   1.865
  903SOL     OW 3607   0.247   1.885   1.276
  903SOL    HW1 3608   0.237   1.816   1.205
  903SOL    HW2 3609   0.163   1.938   1.285
  904SOL     OW 3610   3.121   0.952   1.930
  904SOL    HW1 3611   3.112   1.031   1.868
  904SOL    HW2 3612   3.059   0.963   2.007
  905SOL     OW 3613   5.859   2.693   6.439
  905SOL    HW1 3614   5.939   2.753   6.438
  905SOL    HW2 3615   5.851   2.647   6.350
  906SOL     OW 3616   5.689   3.109   6.171
  906SOL    HW1 3617   5.675   3.014   6.199
  906SOL    HW2 3618   5.769   3.147   6.217
  907SOL     OW 3619   5.188   3.931   6.573
  907SOL    HW1 3620   5.216   3.872   6.649
  907SOL    HW2 3621   5.221   3.892   6.487
  908SOL     OW 3622   1.341   4.531   2.956
  908SOL    HW1 3623   1.252   4.486   2.961
  908SOL    HW2 3624   1.363   4.549   2.860
  909SOL     OW 3625   5.217   5.476   6.686
  909SOL    HW1 3626   5.276   5.440   6.613
  909SOL    HW2 3627   5.251   5.444   6.774
  910SOL     OW 3628   2.524   4.807   1.079
  910SOL    HW1 3629   2.556   4.895   1.042
  910SOL    HW2 3630   2.537   4.736   1.010
  911SOL     OW 3631   1.045   5.040   6.107
  911SOL    HW1 3632   0.967   5.033   6.168
  911SOL    HW2 3633   1.040   5.126   6.056
  912SOL     OW 3634   5.235   1.494   4.006
  912SOL    HW1 3635   5.161   1.432   3.980
  912SOL    HW2 3636   5.210   1.545   4.088
  913SOL     OW 3637   5.663   6.779   2.795
  913SOL    HW1 3638   5.718   6.733   2.725
  913SOL    HW2 3639   5.567   6.782   2.766
  914SOL     OW 3640   3.180   6.907   6.613
  914SOL    HW1 3641   3.169   6.808   6.603
  914SOL    HW2 3642   3.267   6.936   6.573
  915SOL     OW 3643   5.410   5.764   0.754
  915SOL    HW1 3644   5.480   5.699   0.786
  915SOL    HW2 3645   5.326   5.714   0.731
  916SOL     OW 3646   1.818   2.598   2.515
  916SOL    HW1 3647   1.876   2.569   2.590
  916SOL    HW2 3648   1.837   2.543   2.434
  917SOL     OW 3649   7.007   6.648   0.841
  917SOL    HW1 3650   6.990   6.732   0.893
  917SOL    HW2 3651   0.075   6.657   0.791
  918SOL     OW 3652   2.414   5.444   0.389
  918SOL    HW1 3653   2.436   5.500   0.309
  918SOL    HW2 3654   2.464   5.357   0.384
  919SOL     OW 3655   5.865   1.793   5.230
  919SOL    HW1 3656   5.896   1.809   5.136
  919SOL    HW2 3657   5.839   1.697   5.240
  920SOL     OW 3658   3.039   5.150   2.390
  920SOL    HW1 3659   3.072   5.070   2.439
  920SOL    HW2 3660   2.964   5.124   2.329
  921SOL     OW 3661   4.619   5.432   5.191
  921SOL    HW1 3662   4.566   5.476   5.265
  921SOL    HW2 3663   4.588   5.468   5.103
  922SOL     OW 3664   3.824   3.022   3.691
  922SOL    HW1 3665   3.912   2.976   3.702
  922SOL    HW2 3666   3.751   2.959   3.717
  923SOL     OW 3667   2.272   3.581   5.445
  923SOL    HW1 3668   2.234   3.635   5.370
  923SOL    HW2 3669   2.360   3.620   5.473
  924SOL     OW 3670   6.819   3.252   2.051
  924SOL    HW1 3671   6.777   3.265   1.961
  924SOL    HW2 3672   6.789   3.164   2.089
  925SOL     OW 3673   0.357   1.873   0.369
  925SOL    HW1 3674   0.398   1.827   0.448
  925SOL    HW2 3675   0.394   1.835   0.285
  926SOL     OW 3676   2.041   2.000   1.949
  926SOL    HW1 3677   2.008   2.068   1.884
  926SOL    HW2 3678   2.128   2.031   1.989
  927SOL     OW 3679   6.575   3.391   4.413
  927SOL    HW1 3680   6.561   3.417   4.508
  927SOL    HW2 3681   6.622   3.465   4.365
  928SOL     OW 3682   3.995   4.897   6.233
  928SOL    HW1 3683   4.003   4.894   6.133
  928SOL    HW2 3684   4.087   4.899   6.273
  929SOL     OW 3685   7.015   1.744   4.929
  929SOL    HW1 3686   6.998   1.837   4.894
  929SOL    HW2 3687   0.064   1.699   4.870
  930SOL     OW 3688   5.093   5.265   5.242
  930SOL    HW1 3689   5.007   5.275   5.292
  930SOL    HW2 3690   5.076   5.281   5.145
  931SOL     OW 3691   6.336   1.317   2.823
  931SOL    HW1 3692   6.242   1.285   2.812
  931SOL    HW2 3693   6.374   1.281   2.909
  932SOL     OW 3694   3.783   0.995   3.599
  932SOL    HW1 3695   3.770   0.904   3.638
  932SOL    HW2 3696   3.799   1.061   3.672
  933SOL     OW 3697   1.247   5.789   2.234
  933SOL    HW1 3698   1.342   5.783   2.265
  933SOL    HW2 3699   1.243   5.847   2.152
  934SOL     OW 3700   2.039   3.478   0.302
  934SOL    HW1 3701   2.114   3.415   0.319
  934SOL    HW2 3702   2.053   3.562   0.355
  935SOL     OW 3703   5.975   2.677   4.543
  935SOL    HW1 3704   5.954   2.754   4.604
  935SOL    HW2 3705   5.901   2.611   4.548
  936SOL     OW 3706   1.737   6.750   6.053
  936SOL    HW1 3707   1.693   6.818   5.993
  936SOL    HW2 3708   1.819   6.715   6.008
  937SOL     OW 3709   3.653   2.178   6.302
  937SOL    HW1 3710   3.574   2.165   6.242
  937SOL    HW2 3711   3.723   2.111   6.279
  938SOL     OW 3712   6.167   5.818   4.330
  938SOL    HW1 3713   6.147   5.877   4.408
  938SOL    HW2 3714   6.229   5.745   4.358
  939SOL     OW 3715   0.572   6.603   5.727
  939SOL    HW1 3716   0.608   6.666   5.658
  939SOL    HW2 3717   0.645   6.541   5.756
  940SOL     OW 3718   1.895   4.906   0.182
  940SOL    HW1 3719   1.993   4.899   0.201
  940SOL    HW2 3720   1.862   4.821   0.142
  941SOL     OW 3721   3.543   6.917   0.358
  941SOL    HW1 3722   3.553   6.997   0.417
  941SOL    HW2 3723   3.630   6.899   0.313
  942SOL     OW 3724   6.926   5.309   0.894
  942SOL    HW1 3725   6.845   5.366   0.911
  942SOL    HW2 3726   7.009   5.361   0.915
  943SOL     OW 3727   3.357   5.935   1.637
  943SOL    HW1 3728   3.414   5.963   1.559
  943SOL    HW2 3729   3.264   5.915   1.606
  944SOL     OW 3730   6.330   6.585   3.979
  944SOL    HW1 3731   6.238   6.545   3.968
  944SOL    HW2 3732   6.322   6.679   4.010
  945SOL     OW 3733   0.715   4.887   6.914
  945SOL    HW1 3734   0.631   4.924   6.955
  945SOL    HW2 3735   0.793   4.942   6.943
  946SOL     OW 3736   5.466   1.830   4.657
  946SOL    HW1 3737   5.379   1.789   4.629
  946SOL    HW2 3738   5.478   1.918   4.612
  947SOL     OW 3739   3.566   4.068   4.391
  947SOL    HW1 3740   3.531   4.140   4.332
  947SOL    HW2 3741   3.506   4.059   4.472
  948SOL     OW 3742   4.036   0.459   3.115
  948SOL    HW1 3743   4.039   0.390   3.043
  948SOL    HW2 3744   4.098   0.534   3.092
  949SOL     OW 3745   3.655   6.898   5.898
  949SOL    HW1 3746   3.682   6.915   5.993
  949SOL    HW2 3747   3.597   6.973   5.866
  950SOL     OW 3748   6.667   0.218   2.474
  950SOL    HW1 3749   6.667   0.206   2.573
  950SOL    HW2 3750   6.592   0.279   2.448
  951SOL     OW 3751   1.979   6.594   2.776
  951SOL    HW1 3752   1.921   6.674   2.789
  951SOL    HW2 3753   1.965   6.558   2.684
  952SOL     OW 3754   3.649   0.957   3.046
  952SOL    HW1 3755   3.691   1.033   2.996
  952SOL    HW2 3756   3.684   0.955   3.139
  953SOL     OW 3757   6.978   4.655   5.794
  953SOL    HW1 3758   0.006   4.641   5.882
  953SOL    HW2 3759   0.022   4.629   5.719
  954SOL     OW 3760   4.784   6.053   2.303
  954SOL    HW1 3761   4.772   6.084   2.209
  954SOL    HW2 3762   4.725   6.106   2.364
  955SOL     OW 3763   2.016   4.743   0.619
  955SOL    HW1 3764   1.938   4.787   0.574
  955SOL    HW2 3765   2.041   4.793   0.701
  956SOL     OW 3766   4.699   0.613   0.756
  956SOL    HW1 3767   4.625   0.564   0.802
  956SOL    HW2 3768   4.787   0.572   0.779
  957SOL     OW 3769   6.201   0.846   3.045
  957SOL    HW1 3770   6.117   0.798   3.018
  957SOL    HW2 3771   6.186   0.896   3.130
  958SOL     OW 3772   5.201   0.022   1.447
  958SOL    HW1 3773   5.228   0.118   1.442
  958SOL    HW2 3774   5.101   0.015   1.448
  959SOL     OW 3775   5.157   6.570   3.410
  959SOL    HW1 3776   5.163   6.620   3.496
  959SOL    HW2 3777   5.108   6.484   3.424
  960SOL     OW 3778   1.646   6.368   6.295
  960SOL    HW1 3779   1.649   6.418   6.382
  960SOL    HW2 3780   1.738   6.365   6.255
  961SOL     OW 3781   3.574   0.436   3.209
  961SOL    HW1 3782   3.503   0.468   3.147
  961SOL    HW2 3783   3.664   0.461   3.174
  962SOL     OW 3784   6.898   0.895   4.825
  962SOL    HW1 3785   6.892   0.950   4.908
  962SOL    HW2 3786   6.808   0.890   4.782
  963SOL     OW 3787   5.610   2.547   0.766
  963SOL    HW1 3788   5.584   2.532   0.862
  963SOL    HW2 3789   5.529   2.545   0.709
  964SOL     OW 3790   3.982   5.503   4.867
  964SOL    HW1 3791   3.887   5.515   4.894
  964SOL    HW2 3792   3.998   5.408   4.841
  965SOL     OW 3793   5.744   2.050   3.363
  965SOL    HW1 3794   5.696   2.001   3.290
  965SOL    HW2 3795   5.768   2.142   3.332
  966SOL     OW 3796   4.746   0.802   4.141
  966SOL    HW1 3797   4.833   0.811   4.189
  966SOL    HW2 3798   4.761   0.760   4.051
  967SOL     OW 3799   4.382   4.292   6.480
  967SOL    HW1 3800   4.435   4.253   6.405
  967SOL    HW2 3801   4.434   4.282   6.566
  968SOL     OW 3802   3.883   0.592   1.475
  968SOL    HW1 3803   3.852   0.660   1.408
  968SOL    HW2 3804   3.814   0.520   1.483
  969SOL     OW 3805   3.138   4.468   5.949
  969SOL    HW1 3806   3.204   4.400   5.919
  969SOL    HW2 3807   3.180   4.559   5.948
  970SOL     OW 3808   5.087   7.004   5.965
  970SOL    HW1 3809   5.012   0.022   6.020
  970SOL    HW2 3810   5.142   6.942   6.021
  971SOL     OW 3811   5.823   3.461   3.717
  971SOL    HW1 3812   5.769   3.543   3.696
  971SOL    HW2 3813   5.891   3.483   3.786
  972SOL     OW 3814   0.134   2.731   0.361
  972SOL    HW1 3815   0.110   2.764   0.270
  972SOL    HW2 3816   0.071   2.769   0.429
  973SOL     OW 3817   0.229   3.628   5.682
  973SOL    HW1 3818   0.241   3.717   5.638
  973SOL    HW2 3819   0.251   3.555   5.617
  974SOL     OW 3820   0.503   4.561   2.448
  974SOL    HW1 3821   0.416   4.549   2.497
  974SOL    HW2 3822   0.519   4.659   2.432
  975SOL     OW 3823   3.066   0.329   2.676
  975SOL    HW1 3824   3.159   0.350   2.646
  975SOL    HW2 3825   3.008   0.309   2.597
  976SOL     OW 3826   0.077   3.320   3.502
  976SOL    HW1 3827   0.161   3.302   3.554
  976SOL    HW2 3828   0.001   3.269   3.543
  977SOL     OW 3829   6.368   1.040   2.193
  977SOL    HW1 3830   6.364   1.138   2.170
  977SOL    HW2 3831   6.367   0.987   2.108
  978SOL     OW 3832   5.334   3.101   1.422
  978SOL    HW1 3833   5.394   3.035   1.376
  978SOL    HW2 3834   5.351   3.097   1.520
  979SOL     OW 3835   0.189   4.231   6.933
  979SOL    HW1 3836   0.239   4.206   7.015
  979SOL    HW2 3837   0.175   4.330   6.931
  980SOL     OW 3838   3.962   0.963   4.799
  980SOL    HW1 3839   3.935   1.004   4.712
  980SOL    HW2 3840   4.041   0.904   4.785
  981SOL     OW 3841   0.330   6.487   5.578
  981SOL    HW1 3842   0.367   6.540   5.654
  981SOL    HW2 3843   0.280   6.548   5.517
  982SOL     OW 3844   6.564   1.261   6.321
  982SOL    HW1 3845   6.603   1.169   6.333
  982SOL    HW2 3846   6.527   1.269   6.228
  983SOL     OW 3847   0.681   4.199   3.207
  983SOL    HW1 3848   0.727   4.154   3.130
  983SOL    HW2 3849   0.700   4.149   3.291
  984SOL     OW 3850   0.563   3.676   3.528
  984SOL    HW1 3851   0.595   3.757   3.577
  984SOL    HW2 3852   0.610   3.669   3.440
  985SOL     OW 3853   6.557   5.475   5.131
  985SOL    HW1 3854   6.633   5.431   5.179
  985SOL    HW2 3855   6.477   5.479   5.192
  986SOL     OW 3856   4.319   5.262   1.424
  986SOL    HW1 3857   4.259   5.316   1.364
  986SOL    HW2 3858   4.263   5.204   1.483
  987SOL     OW 3859   4.756   4.218   4.759
  987SOL    HW1 3860   4.727   4.221   4.855
  987SOL    HW2 3861   4.775   4.124   4.733
  988SOL     OW 3862   2.661   4.731   2.105
  988SOL    HW1 3863   2.679   4.828   2.121
  988SOL    HW2 3864   2.717   4.699   2.028
  989SOL     OW 3865   1.352   2.003   1.134
  989SOL    HW1 3866   1.376   2.055   1.216
  989SOL    HW2 3867   1.411   1.923   1.127
  990SOL     OW 3868   3.744   6.800   4.472
  990SOL    HW1 3869   3.747   6.826   4.569
  990SOL    HW2 3870   3.748   6.700   4.464
  991SOL     OW 3871   0.426   5.354   3.988
  991SOL    HW1 3872   0.418   5.442   4.034
  991SOL    HW2 3873   0.368   5.287   4.034
  992SOL     OW 3874   6.979   2.354   0.153
  992SOL    HW1 3875   0.052   2.387   0.128
  992SOL    HW2 3876   6.953   2.279   0.093
  993SOL     OW 3877   1.048   5.151   0.769
  993SOL    HW1 3878   0.979   5.105   0.824
  993SOL    HW2 3879   1.010   5.237   0.733
  994SOL     OW 3880   3.207   6.665   0.159
  994SOL    HW1 3881   3.305   6.652   0.147
  994SOL    HW2 3882   3.189   6.707   0.247
  995SOL     OW 3883   6.429   4.086   6.002
  995SOL    HW1 3884   6.460   4.031   5.925
  995SOL    HW2 3885   6.351   4.142   5.973
  996SOL     OW 3886   4.288   6.190   4.272
  996SOL    HW1 3887   4.209   6.134   4.248
  996SOL    HW2 3888   4.368   6.132   4.282
  997SOL     OW 3889   1.193   6.713   3.254
  997SOL    HW1 3890   1.179   6.648   3.330
  997SOL    HW2 3891   1.289   6.740   3.251
  998SOL     OW 3892   4.551   0.143   6.058
  998SOL    HW1 3893   4.567   0.132   6.156
  998SOL    HW2 3894   4.629   0.189   6.016
  999SOL     OW 3895   5.042   3.145   2.702
  999SOL    HW1 3896   4.946   3.126   2.720
  999SOL    HW2 3897   5.079   3.074   2.642
 1000SOL     OW 3898   5.374   2.467   1.687
 1000SOL    HW1 3899   5.359   2.542   1.623
 1000SOL    HW2 3900   5.456   2.484   1.741
 1001SOL     OW 3901   2.732   6.547   2.399
 1001SOL    HW1 3902   2.732   6.471   2.465
 1001SOL    HW2 3903   2.826   6.575   2.381
 1002SOL     OW 3904   4.456   2.605   1.214
 1002SOL    HW1 3905   4.415   2.515   1.225
 1002SOL    HW2 3906   4.490   2.637   1.303
 1003SOL     OW 3907   0.710   0.169   3.238
 1003SOL    HW1 3908   0.701   0.219   3.324
 1003SOL    HW2 3909   0.662   0.081   3.246
 1004SOL     OW 3910   5.312   1.308   4.501
 1004SOL    HW1 3911   5.229   1.364   4.494
 1004SOL    HW2 3912   5.363   1.313   4.415
 1005SOL     OW 3913   1.121   5.001   2.226
 1005SOL    HW1 3914   1.138   4.916   2.175
 1005SOL    HW2 3915   1.103   5.075   2.161
 1006SOL     OW 3916   2.411   4.004   1.794
 1006SOL    HW1 3917   2.402   3.904   1.784
 1006SOL    HW2 3918   2.321   4.045   1.805
 1007SOL     OW 3919   4.598   0.953   6.177
 1007SOL    HW1 3920   4.520   1.015   6.171
 1007SOL    HW2 3921   4.637   0.958   6.269
 1008SOL     OW 3922   0.798   4.957   4.972
 1008SOL    HW1 3923   0.864   4.886   4.951
 1008SOL    HW2 3924   0.713   4.939   4.922
 1009SOL     OW 3925   6.873   5.871   6.294
 1009SOL    HW1 3926   6.844   5.782   6.259
 1009SOL    HW2 3927   6.805   5.906   6.359
 1010SOL     OW 3928   3.044   4.000   0.558
 1010SOL    HW1 3929   3.070   4.067   0.488
 1010SOL    HW2 3930   3.123   3.980   0.616
 1011SOL     OW 3931   6.633   5.755   2.938
 1011SOL    HW1 3932   6.601   5.671   2.895
 1011SOL    HW2 3933   6.727   5.774   2.909
 1012SOL     OW 3934   5.339   6.576   2.777
 1012SOL    HW1 3935   5.299   6.532   2.857
 1012SOL    HW2 3936   5.361   6.671   2.798
 1013SOL     OW 3937   0.077   0.240   6.466
 1013SOL    HW1 3938   0.131   0.162   6.435
 1013SOL    HW2 3939   0.029   0.217   6.551
 1014SOL     OW 3940   1.041   4.504   5.381
 1014SOL    HW1 3941   0.980   4.578   5.410
 1014SOL    HW2 3942   0.988   4.436   5.330
 1015SOL     OW 3943   2.151   6.370   0.338
 1015SOL    HW1 3944   2.173   6.284   0.293
 1015SOL    HW2 3945   2.114   6.435   0.270
 1016SOL     OW 3946   6.528   3.862   1.033
 1016SOL    HW1 3947   6.451   3.926   1.030
 1016SOL    HW2 3948   6.609   3.910   1.069
 1017SOL     OW 3949   2.395   1.546   2.021
 1017SOL    HW1 3950   2.405   1.451   2.052
 1017SOL    HW2 3951   2.334   1.595   2.084
 1018SOL     OW 3952   6.258   6.466   4.444
 1018SOL    HW1 3953   6.163   6.445   4.465
 1018SOL    HW2 3954   6.269   6.476   4.345
 1019SOL     OW 3955   6.760   4.053   0.910
 1019SOL    HW1 3956   6.800   3.962   0.898
 1019SOL    HW2 3957   6.713   4.058   0.999
 1020SOL     OW 3958   5.120   1.270   0.598
 1020SOL    HW1 3959   5.088   1.297   0.688
 1020SOL    HW2 3960   5.160   1.179   0.602
 1021SOL     OW 3961   1.218   6.671   0.723
 1021SOL    HW1 3962   1.276   6.596   0.753
 1021SOL    HW2 3963   1.157   6.698   0.798
 1022SOL     OW 3964   2.350   5.556   6.568
 1022SOL    HW1 3965   2.396   5.468   6.555
 1022SOL    HW2 3966   2.419   5.627   6.582
 1023SOL     OW 3967   0.635   1.418   3.143
 1023SOL    HW1 3968   0.573   1.356   3.095
 1023SOL    HW2 3969   0.628   1.509   3.102
 1024SOL     OW 3970   1.382   1.913   4.016
 1024SOL    HW1 3971   1.374   1.880   4.110
 1024SOL    HW2 3972   1.445   1.991   4.013
 1025SOL     OW 3973   5.163   4.335   0.300
 1025SOL    HW1 3974   5.206   4.251   0.267
 1025SOL    HW2 3975   5.184   4.347   0.397
 1026SOL     OW 3976   2.885   2.803   1.664
 1026SOL    HW1 3977   2.851   2.896   1.672
 1026SOL    HW2 3978   2.977   2.804   1.624
 1027SOL     OW 3979   0.453   6.661   0.322
 1027SOL    HW1 3980   0.513   6.727   0.276
 1027SOL    HW2 3981   0.495   6.632   0.408
 1028SOL     OW 3982   1.433   6.264   2.808
 1028SOL    HW1 3983   1.370   6.244   2.733
 1028SOL    HW2 3984   1.479   6.180   2.837
 1029SOL     OW 3985   0.904   1.101   5.454
 1029SOL    HW1 3986   0.816   1.148   5.450
 1029SOL    HW2 3987   0.903   1.022   5.394
 1030SOL     OW 3988   3.770   3.453   0.987
 1030SOL    HW1 3989   3.761   3.408   0.898
 1030SOL    HW2 3990   3.683   3.496   1.012
 1031SOL     OW 3991   3.941   3.222   1.058
 1031SOL    HW1 3992   3.861   3.163   1.052
 1031SOL    HW2 3993   3.913   3.316   1.073
 1032SOL     OW 3994   1.974   1.479   0.230
 1032SOL    HW1 3995   2.000   1.385   0.211
 1032SOL    HW2 3996   1.879   1.494   0.204
 1033SOL     OW 3997   0.391   6.813   2.702
 1033SOL    HW1 3998   0.355   6.847   2.615
 1033SOL    HW2 3999   0.491   6.815   2.700
 1034SOL     OW 4000   3.226   0.689   4.927
 1034SOL    HW1 4001   3.288   0.618   4.960
 1034SOL    HW2 4002   3.253   0.778   4.966
 1035SOL     OW 4003   1.732   1.342   0.063
 1035SOL    HW1 4004   1.724   1.390   6.993
 1035SOL    HW2 4005   1.646   1.348   0.113
 1036SOL     OW 4006   4.804   1.239   1.194
 1036SOL    HW1 4007   4.871   1.313   1.202
 1036SOL    HW2 4008   4.750   1.251   1.110
 1037SOL     OW 4009   1.757   3.271   1.887
 1037SOL    HW1 4010   1.663   3.300   1.867
 1037SOL    HW2 4011   1.792   3.323   1.965
 1038SOL     OW 4012   2.310   6.010   6.941
 1038SOL    HW1 4013   2.377   5.975   7.006
 1038SOL    HW2 4014   2.230   6.045   6.990
 1039SOL     OW 4015   3.664   3.761   3.016
 1039SOL    HW1 4016   3.688   3.857   3.028
 1039SOL    HW2 4017   3.690   3.709   3.097
 1040SOL     OW 4018   3.753   2.042   3.495
 1040SOL    HW1 4019   3.790   2.108   3.430
 1040SOL    HW2 4020   3.822   2.021   3.564
 1041SOL     OW 4021   6.123   5.937   6.685
 1041SOL    HW1 4022   6.164   6.014   6.634
 1041SOL    HW2 4023   6.036   5.967   6.725
 1042SOL     OW 4024   5.410   4.506   3.459
 1042SOL    HW1 4025   5.451   4.585   3.506
 1042SOL    HW2 4026   5.380   4.439   3.527
 1043SOL     OW 4027   2.959   1.870   3.662
 1043SOL    HW1 4028   2.872   1.829   3.634
 1043SOL    HW2 4029   2.996   1.818   3.739
 1044SOL     OW 4030   6.033   4.945   1.509
 1044SOL    HW1 4031   6.052   4.941   1.411
 1044SOL    HW2 4032   6.086   4.875   1.556
 1045SOL     OW 4033   2.328   0.998   1.806
 1045SOL    HW1 4034   2.337   0.965   1.712
 1045SOL    HW2 4035   2.417   1.028   1.840
 1046SOL     OW 4036   3.205   2.247   1.509
 1046SOL    HW1 4037   3.139   2.234   1.583
 1046SOL    HW2 4038   3.212   2.344   1.488
 1047SOL     OW 4039   3.427   6.726   3.485
 1047SOL    HW1 4040   3.390   6.728   3.392
 1047SOL    HW2 4041   3.361   6.768   3.548
 1048SOL     OW 4042   1.151   6.580   2.435
 1048SOL    HW1 4043   1.228   6.574   2.371
 1048SOL    HW2 4044   1.185   6.576   2.528
 1049SOL     OW 4045   3.998   6.299   5.320
 1049SOL    HW1 4046   3.923   6.267   5.378
 1049SOL    HW2 4047   3.965   6.372   5.261
 1050SOL     OW 4048   2.429   6.481   3.937
 1050SOL    HW1 4049   2.351   6.444   3.988
 1050SOL    HW2 4050   2.436   6.579   3.953
 1051SOL     OW 4051   1.287   0.864   5.907
 1051SOL    HW1 4052   1.317   0.959   5.914
 1051SOL    HW2 4053   1.356   0.810   5.858
 1052SOL     OW 4054   3.646   1.139   0.155
 1052SOL    HW1 4055   3.732   1.172   0.116
 1052SOL    HW2 4056   3.653   1.137   0.255
 1053SOL     OW 4057   5.218   1.705   4.573
 1053SOL    HW1 4058   5.172   1.617   4.583
 1053SOL    HW2 4059   5.150   1.778   4.574
 1054SOL     OW 4060   4.264   5.319   6.025
 1054SOL    HW1 4061   4.170   5.311   5.993
 1054SOL    HW2 4062   4.310   5.394   5.977
 1055SOL     OW 4063   4.637   5.870   6.540
 1055SOL    HW1 4064   4.634   5.774   6.568
 1055SOL    HW2 4065   4.544   5.902   6.520
 1056SOL     OW 4066   3.092   3.753   0.133
 1056SOL    HW1 4067   3.084   3.706   0.221
 1056SOL    HW2 4068   3.001   3.782   0.102
 1057SOL     OW 4069   2.949   2.959   0.309
 1057SOL    HW1 4070   3.026   2.969   0.373
 1057SOL    HW2 4071   2.921   3.050   0.277
 1058SOL     OW 4072   2.884   2.243   2.344
 1058SOL    HW1 4073   2.784   2.236   2.340
 1058SOL    HW2 4074   2.918   2.278   2.257
 1059SOL     OW 4075   2.028   6.198   1.862
 1059SOL    HW1 4076   1.934   6.166   1.857
 1059SOL    HW2 4077   2.033   6.281   1.919
 1060SOL     OW 4078   6.168   0.648   5.717
 1060SOL    HW1 4079   6.171   0.731   5.772
 1060SOL    HW2 4080   6.104   0.661   5.641
 1061SOL     OW 4081   0.206   3.489   6.226
 1061SOL    HW1 4082   0.117   3.471   6.185
 1061SOL    HW2 4083   0.224   3.587   6.226
 1062SOL     OW 4084   3.444   5.866   4.427
 1062SOL    HW1 4085   3.424   5.964   4.429
 1062SOL    HW2 4086   3.485   5.839   4.515
 1063SOL     OW 4087   3.617   6.802   4.768
 1063SOL    HW1 4088   3.636   6.855   4.851
 1063SOL    HW2 4089   3.602   6.706   4.792
 1064SOL     OW 4090   1.425   3.337   0.072
 1064SOL    HW1 4091   1.404   3.240   0.059
 1064SOL    HW2 4092   1.384   3.369   0.158
 1065SOL     OW 4093   5.938   0.671   4.665
 1065SOL    HW1 4094   6.005   0.597   4.674
 1065SOL    HW2 4095   5.894   0.687   4.754
 1066SOL     OW 4096   5.411   6.757   0.899
 1066SOL    HW1 4097   5.480   6.760   0.971
 1066SOL    HW2 4098   5.379   6.663   0.887
 1067SOL     OW 4099   2.739   1.419   0.414
 1067SOL    HW1 4100   2.680   1.340   0.398
 1067SOL    HW2 4101   2.716   1.460   0.502
 1068SOL     OW 4102   6.795   3.087   1.376
 1068SOL    HW1 4103   6.724   3.143   1.419
 1068SOL    HW2 4104   6.868   3.069   1.442
 1069SOL     OW 4105   5.971   3.475   2.244
 1069SOL    HW1 4106   6.068   3.498   2.243
 1069SOL    HW2 4107   5.926   3.524   2.318
 1070SOL     OW 4108   1.106   0.580   2.325
 1070SOL    HW1 4109   1.194   0.601   2.366
 1070SOL    HW2 4110   1.107   0.487   2.288
 1071SOL     OW 4111   0.432   3.035   5.947
 1071SOL    HW1 4112   0.349   2.985   5.922
 1071SOL    HW2 4113   0.505   3.014   5.882
 1072SOL     OW 4114   1.830   1.575   2.169
 1072SOL    HW1 4115   1.744   1.544   2.210
 1072SOL    HW2 4116   1.907   1.525   2.210
 1073SOL     OW 4117   5.220   2.685   2.910
 1073SOL    HW1 4118   5.251   2.718   3.000
 1073SOL    HW2 4119   5.148   2.617   2.923
 1074SOL     OW 4120   2.750   5.002   1.536
 1074SOL    HW1 4121   2.849   5.010   1.540
 1074SOL    HW2 4122   2.712   5.005   1.629
 1075SOL     OW 4123   6.244   4.292   5.946
 1075SOL    HW1 4124   6.229   4.336   5.858
 1075SOL    HW2 4125   6.159   4.292   5.999
 1076SOL     OW 4126   1.563   4.723   5.056
 1076SOL    HW1 4127   1.613   4.678   5.130
 1076SOL    HW2 4128   1.628   4.757   4.988
 1077SOL     OW 4129   6.786   6.781   0.145
 1077SOL    HW1 4130   6.761   6.744   0.235
 1077SOL    HW2 4131   6.761   6.715   0.074
 1078SOL     OW 4132   6.302   6.773   4.885
 1078SOL    HW1 4133   6.369   6.792   4.813
 1078SOL    HW2 4134   6.243   6.853   4.898
 1079SOL     OW 4135   0.751   6.881   2.006
 1079SOL    HW1 4136   0.735   6.782   2.009
 1079SOL    HW2 4137   0.665   6.929   2.027
 1080SOL     OW 4138   3.886   6.164   6.847
 1080SOL    HW1 4139   3.809   6.227   6.836
 1080SOL    HW2 4140   3.911   6.159   6.943
 1081SOL     OW 4141   6.615   6.591   3.918
 1081SOL    HW1 4142   6.646   6.496   3.914
 1081SOL    HW2 4143   6.516   6.593   3.934
 1082SOL     OW 4144   4.278   6.887   0.059
 1082SOL    HW1 4145   4.361   6.832   0.059
 1082SOL    HW2 4146   4.199   6.828   0.079
 1083SOL     OW 4147   5.552   4.514   2.033
 1083SOL    HW1 4148   5.477   4.479   1.976
 1083SOL    HW2 4149   5.543   4.477   2.125
 1084SOL     OW 4150   5.922   0.777   5.606
 1084SOL    HW1 4151   5.883   0.868   5.615
 1084SOL    HW2 4152   5.953   0.762   5.512
 1085SOL     OW 4153   2.153   3.811   4.660
 1085SOL    HW1 4154   2.190   3.890   4.612
 1085SOL    HW2 4155   2.145   3.832   4.758
 1086SOL     OW 4156   5.935   5.405   0.579
 1086SOL    HW1 4157   5.958   5.330   0.642
 1086SOL    HW2 4158   5.883   5.475   0.628
 1087SOL     OW 4159   4.129   0.188   5.602
 1087SOL    HW1 4160   4.215   0.185   5.551
 1087SOL    HW2 4161   4.057   0.226   5.544
 1088SOL     OW 4162   6.703   5.203   3.541
 1088SOL    HW1 4163   6.794   5.236   3.567
 1088SOL    HW2 4164   6.647   5.281   3.511
 1089SOL     OW 4165   6.188   4.662   4.053
 1089SOL    HW1 4166   6.199   4.670   3.954
 1089SOL    HW2 4167   6.219   4.745   4.098
 1090SOL     OW 4168   5.069   2.387   5.211
 1090SOL    HW1 4169   4.988   2.338   5.178
 1090SOL    HW2 4170   5.071   2.385   5.311
 1091SOL     OW 4171   1.951   2.578   3.136
 1091SOL    HW1 4172   2.008   2.556   3.215
 1091SOL    HW2 4173   1.865   2.619   3.167
 1092SOL     OW 4174   6.997   5.773   0.581
 1092SOL    HW1 4175   0.017   5.680   0.584
 1092SOL    HW2 4176   6.967   5.799   0.673
 1093SOL     OW 4177   1.588   0.393   2.936
 1093SOL    HW1 4178   1.632   0.482   2.925
 1093SOL    HW2 4179   1.581   0.371   3.033
 1094SOL     OW 4180   0.250   0.611   3.174
 1094SOL    HW1 4181   0.280   0.572   3.262
 1094SOL    HW2 4182   0.151   0.624   3.176
 1095SOL     OW 4183   5.356   3.159   0.722
 1095SOL    HW1 4184   5.423   3.111   0.778
 1095SOL    HW2 4185   5.292   3.094   0.683
 1096SOL     OW 4186   2.364   5.716   1.715
 1096SOL    HW1 4187   2.409   5.646   1.660
 1096SOL    HW2 4188   2.317   5.781   1.655
 1097SOL     OW 4189   2.522   5.765   4.547
 1097SOL    HW1 4190   2.619   5.788   4.540
 1097SOL    HW2 4191   2.491   5.780   4.641
 1098SOL     OW 4192   5.996   4.057   0.479
 1098SOL    HW1 4193   6.089   4.035   0.507
 1098SOL    HW2 4194   5.977   4.154   0.498
 1099SOL     OW 4195   4.808   0.287   6.017
 1099SOL    HW1 4196   4.779   0.340   6.097
 1099SOL    HW2 4197   4.908   0.281   6.016
 1100SOL     OW 4198   4.023   1.814   4.407
 1100SOL    HW1 4199   4.022   1.755   4.487
 1100SOL    HW2 4200   3.977   1.767   4.331
 1101SOL     OW 4201   4.732   3.170   6.155
 1101SOL    HW1 4202   4.708   3.163   6.251
 1101SOL    HW2 4203   4.713   3.263   6.123
 1102SOL     OW 4204   2.823   0.545   3.432
 1102SOL    HW1 4205   2.750   0.591   3.382
 1102SOL    HW2 4206   2.894   0.611   3.456
 1103SOL     OW 4207   3.306   6.469   0.477
 1103SOL    HW1 4208   3.377   6.432   0.416
 1103SOL    HW2 4209   3.301   6.568   0.466
 1104SOL     OW 4210   0.529   2.914   3.645
 1104SOL    HW1 4211   0.430   2.929   3.651
 1104SOL    HW2 4212   0.548   2.837   3.584
 1105SOL     OW 4213   5.034   1.230   6.209
 1105SOL    HW1 4214   5.095   1.307   6.189
 1105SOL    HW2 4215   5.071   1.178   6.286
 1106SOL     OW 4216   6.583   1.241   0.767
 1106SOL    HW1 4217   6.594   1.298   0.849
 1106SOL    HW2 4218   6.605   1.146   0.789
 1107SOL     OW 4219   0.828   1.156   6.669
 1107SOL    HW1 4220   0.854   1.130   6.576
 1107SOL    HW2 4221   0.792   1.249   6.669
 1108SOL     OW 4222   2.235   0.547   4.389
 1108SOL    HW1 4223   2.262   0.643   4.390
 1108SOL    HW2 4224   2.313   0.491   4.361
 1109SOL     OW 4225   4.774   2.496   4.867
 1109SOL    HW1 4226   4.870   2.519   4.885
 1109SOL    HW2 4227   4.720   2.513   4.950
 1110SOL     OW 4228   2.278   0.528   2.413
 1110SOL    HW1 4229   2.331   0.577   2.483
 1110SOL    HW2 4230   2.189   0.573   2.402
 1111SOL     OW 4231   5.689   4.132   6.202
 1111SOL    HW1 4232   5.729   4.084   6.280
 1111SOL    HW2 4233   5.732   4.101   6.118
 1112SOL     OW 4234   5.394   1.061   2.397
 1112SOL    HW1 4235   5.470   1.118   2.428
 1112SOL    HW2 4236   5.348   1.105   2.320
 1113SOL     OW 4237   5.872   3.690   2.115
 1113SOL    HW1 4238   5.911   3.770   2.161
 1113SOL    HW2 4239   5.922   3.608   2.143
 1114SOL     OW 4240   3.380   3.902   4.572
 1114SOL    HW1 4241   3.417   3.906   4.664
 1114SOL    HW2 4242   3.289   3.860   4.574
 1115SOL     OW 4243   2.791   4.552   5.529
 1115SOL    HW1 4244   2.849   4.491   5.475
 1115SOL    HW2 4245   2.748   4.620   5.469
 1116SOL     OW 4246   4.681   6.911   6.666
 1116SOL    HW1 4247   4.632   6.992   6.696
 1116SOL    HW2 4248   4.616   6.836   6.650
 1117SOL     OW 4249   2.355   2.557   1.589
 1117SOL    HW1 4250   2.353   2.654   1.612
 1117SOL    HW2 4251   2.349   2.503   1.674
 1118SOL     OW 4252   4.305   6.225   0.025
 1118SOL    HW1 4253   4.340   6.319   0.013
 1118SOL    HW2 4254   4.382   6.162   0.032
 1119SOL     OW 4255   3.418   5.142   3.840
 1119SOL    HW1 4256   3.410   5.101   3.931
 1119SOL    HW2 4257   3.418   5.070   3.770
 1120SOL     OW 4258   6.601   3.460   1.320
 1120SOL    HW1 4259   6.686   3.445   1.371
 1120SOL    HW2 4260   6.536   3.512   1.376
 1121SOL     OW 4261   6.930   4.550   4.946
 1121SOL    HW1 4262   6.848   4.600   4.919
 1121SOL    HW2 4263   6.961   4.492   4.871
 1122SOL     OW 4264   5.674   2.436   1.731
 1122SOL    HW1 4265   5.765   2.468   1.706
 1122SOL    HW2 4266   5.680   2.382   1.816
 1123SOL     OW 4267   4.204   1.390   3.552
 1123SOL    HW1 4268   4.232   1.431   3.464
 1123SOL    HW2 4269   4.243   1.444   3.627
 1124SOL     OW 4270   2.150   2.369   4.455
 1124SOL    HW1 4271   2.235   2.422   4.457
 1124SOL    HW2 4272   2.165   2.285   4.403
 1125SOL     OW 4273   1.655   3.398   3.626
 1125SOL    HW1 4274   1.693   3.479   3.672
 1125SOL    HW2 4275   1.729   3.344   3.586
 1126SOL     OW 4276   4.173   5.038   4.641
 1126SOL    HW1 4277   4.220   4.958   4.677
 1126SOL    HW2 4278   4.230   5.083   4.572
 1127SOL     OW 4279   6.316   6.882   2.148
 1127SOL    HW1 4280   6.327   6.949   2.222
 1127SOL    HW2 4281   6.360   6.796   2.174
 1128SOL     OW 4282   5.336   0.923   4.567
 1128SOL    HW1 4283   5.298   0.927   4.659
 1128SOL    HW2 4284   5.374   0.832   4.551
 1129SOL     OW 4285   1.284   0.904   0.649
 1129SOL    HW1 4286   1.377   0.890   0.614
 1129SOL    HW2 4287   1.234   0.818   0.645
 1130SOL     OW 4288   2.283   4.654   2.341
 1130SOL    HW1 4289   2.373   4.618   2.314
 1130SOL    HW2 4290   2.214   4.623   2.275
 1131SOL     OW 4291   1.547   5.525   4.096
 1131SOL    HW1 4292   1.481   5.599   4.103
 1131SOL    HW2 4293   1.500   5.440   4.071
 1132SOL     OW 4294   2.079   1.536   2.590
 1132SOL    HW1 4295   1.980   1.529   2.581
 1132SOL    HW2 4296   2.122   1.516   2.501
 1133SOL     OW 4297   0.911   7.001   6.157
 1133SOL    HW1 4298   0.876   0.072   6.128
 1133SOL    HW2 4299   0.973   7.013   6.234
 1134SOL     OW 4300   3.607   6.031   1.499
 1134SOL    HW1 4301   3.681   6.059   1.560
 1134SOL    HW2 4302   3.558   6.112   1.466
 1135SOL     OW 4303   1.637   5.828   3.165
 1135SOL    HW1 4304   1.618   5.920   3.201
 1135SOL    HW2 4305   1.676   5.836   3.074
 1136SOL     OW 4306   1.723   5.559   2.338
 1136SOL    HW1 4307   1.671   5.524   2.416
 1136SOL    HW2 4308   1.808   5.507   2.328
 1137SOL     OW 4309   1.001   5.458   4.975
 1137SOL    HW1 4310   0.989   5.363   5.005
 1137SOL    HW2 4311   1.059   5.507   5.040
 1138SOL     OW 4312   2.143   3.283   4.528
 1138SOL    HW1 4313   2.119   3.214   4.596
 1138SOL    HW2 4314   2.146   3.373   4.572
 1139SOL     OW 4315   2.161   5.135   5.010
 1139SOL    HW1 4316   2.207   5.073   4.946
 1139SOL    HW2 4317   2.116   5.209   4.959
 1140SOL     OW 4318   2.134   2.134   1.353
 1140SOL    HW1 4319   2.113   2.091   1.441
 1140SOL    HW2 4320   2.207   2.083   1.308
 1141SOL     OW 4321   6.905   4.744   6.121
 1141SOL    HW1 4322   6.834   4.802   6.083
 1141SOL    HW2 4323   6.923   4.770   6.216
 1142SOL     OW 4324   1.806   6.132   2.158
 1142SOL    HW1 4325   1.716   6.111   2.195
 1142SOL    HW2 4326   1.848   6.049   2.122
 1143SOL     OW 4327   0.639   3.834   1.984
 1143SOL    HW1 4328   0.713   3.803   2.043
 1143SOL    HW2 4329   0.627   3.932   1.993
 1144SOL     OW 4330   5.673   4.610   0.411
 1144SOL    HW1 4331   5.574   4.608   0.405
 1144SOL    HW2 4332   5.705   4.704   0.401
 1145SOL     OW 4333   5.721   6.998   0.836
 1145SOL    HW1 4334   5.690   0.039   0.762
 1145SOL    HW2 4335   5.815   0.004   0.861
 1146SOL     OW 4336   1.218   0.998   1.446
 1146SOL    HW1 4337   1.159   1.041   1.514
 1146SOL    HW2 4338   1.182   1.016   1.354
 1147SOL     OW 4339   1.958   6.277   1.191
 1147SOL    HW1 4340   1.927   6.364   1.229
 1147SOL    HW2 4341   1.917   6.201   1.243
 1148SOL     OW 4342   4.192   5.935   3.224
 1148SOL    HW1 4343   4.201   5.936   3.324
 1148SOL    HW2 4344   4.157   6.024   3.193
 1149SOL     OW 4345   4.599   3.328   1.511
 1149SOL    HW1 4346   4.513   3.294   1.473
 1149SOL    HW2 4347   4.645   3.254   1.560
 1150SOL     OW 4348   1.645   3.439   0.747
 1150SOL    HW1 4349   1.598   3.422   0.833
 1150SOL    HW2 4350   1.707   3.363   0.727
 1151SOL     OW 4351   6.654   5.431   4.058
 1151SOL    HW1 4352   6.718   5.359   4.030
 1151SOL    HW2 4353   6.637   5.423   4.156
 1152SOL     OW 4354   3.365   6.264   6.281
 1152SOL    HW1 4355   3.377   6.331   6.354
 1152SOL    HW2 4356   3.268   6.257   6.257
 1153SOL     OW 4357   5.722   6.904   1.691
 1153SOL    HW1 4358   5.802   6.850   1.664
 1153SOL    HW2 4359   5.726   6.923   1.789
 1154SOL     OW 4360   1.938   2.927   0.852
 1154SOL    HW1 4361   1.869   2.855   0.843
 1154SOL    HW2 4362   1.976   2.925   0.945
 1155SOL     OW 4363   2.901   6.335   4.474
 1155SOL    HW1 4364   2.905   6.257   4.536
 1155SOL    HW2 4365   2.980   6.395   4.490
 1156SOL     OW 4366   2.687   2.000   3.146
 1156SOL    HW1 4367   2.758   2.070   3.145
 1156SOL    HW2 4368   2.727   1.912   3.120
 1157SOL     OW 4369   3.380   1.233   0.066
 1157SOL    HW1 4370   3.367   1.207   6.988
 1157SOL    HW2 4371   3.467   1.195   0.099
 1158SOL     OW 4372   5.810   4.312   2.883
 1158SOL    HW1 4373   5.729   4.371   2.871
 1158SOL    HW2 4374   5.891   4.369   2.891
 1159SOL     OW 4375   6.632   4.978   1.053
 1159SOL    HW1 4376   6.579   5.011   1.131
 1159SOL    HW2 4377   6.637   4.878   1.055
 1160SOL     OW 4378   5.799   1.893   0.349
 1160SOL    HW1 4379   5.761   1.870   0.259
 1160SOL    HW2 4380   5.868   1.826   0.374
 1161SOL     OW 4381   6.996   5.037   1.412
 1161SOL    HW1 4382   0.025   4.966   1.464
 1161SOL    HW2 4383   7.005   5.018   1.314
 1162SOL     OW 4384   3.245   2.125   4.830
 1162SOL    HW1 4385   3.199   2.043   4.863
 1162SOL    HW2 4386   3.239   2.197   4.899
 1163SOL     OW 4387   5.821   2.784   1.432
 1163SOL    HW1 4388   5.914   2.815   1.417
 1163SOL    HW2 4389   5.797   2.715   1.363
 1164SOL     OW 4390   3.979   2.641   5.773
 1164SOL    HW1 4391   3.903   2.607   5.717
 1164SOL    HW2 4392   3.971   2.740   5.783
 1165SOL     OW 4393   3.987   6.364   3.347
 1165SOL    HW1 4394   4.005   6.292   3.280
 1165SOL    HW2 4395   3.960   6.448   3.299
 1166SOL     OW 4396   3.335   4.915   5.875
 1166SOL    HW1 4397   3.338   4.993   5.938
 1166SOL    HW2 4398   3.327   4.948   5.781
 1167SOL     OW 4399   5.198   4.518   2.291
 1167SOL    HW1 4400   5.156   4.589   2.235
 1167SOL    HW2 4401   5.188   4.541   2.388
 1168SOL     OW 4402   6.597   0.267   2.731
 1168SOL    HW1 4403   6.689   0.288   2.763
 1168SOL    HW2 4404   6.530   0.319   2.785
 1169SOL     OW 4405   4.920   1.146   5.347
 1169SOL    HW1 4406   4.891   1.190   5.432
 1169SOL    HW2 4407   4.888   1.051   5.346
 1170SOL     OW 4408   4.767   5.625   3.259
 1170SOL    HW1 4409   4.786   5.704   3.201
 1170SOL    HW2 4410   4.746   5.657   3.352
 1171SOL     OW 4411   0.301   5.866   1.043
 1171SOL    HW1 4412   0.343   5.953   1.017
 1171SOL    HW2 4413   0.305   5.802   0.966
 1172SOL     OW 4414   6.882   3.337   6.869
 1172SOL    HW1 4415   6.917   3.326   6.962
 1172SOL    HW2 4416   6.901   3.430   6.837
 1173SOL     OW 4417   3.880   1.639   0.575
 1173SOL    HW1 4418   3.952   1.707   0.563
 1173SOL    HW2 4419   3.826   1.632   0.491
 1174SOL     OW 4420   2.380   4.319   0.685
 1174SOL    HW1 4421   2.464   4.284   0.726
 1174SOL    HW2 4422   2.378   4.418   0.691
 1175SOL     OW 4423   3.334   2.915   4.133
 1175SOL    HW1 4424   3.362   2.901   4.038
 1175SOL    HW2 4425   3.415   2.928   4.190
 1176SOL     OW 4426   5.441   3.408   5.954
 1176SOL    HW1 4427   5.396   3.444   5.873
 1176SOL    HW2 4428   5.525   3.361   5.927
 1177SOL     OW 4429   0.512   1.904   4.228
 1177SOL    HW1 4430   0.589   1.855   4.187
 1177SOL    HW2 4431   0.427   1.855   4.210
 1178SOL     OW 4432   4.019   5.757   0.566
 1178SOL    HW1 4433   3.978   5.677   0.609
 1178SOL    HW2 4434   4.091   5.728   0.503
 1179SOL     OW 4435   1.647   5.938   0.352
 1179SOL    HW1 4436   1.562   5.983   0.379
 1179SOL    HW2 4437   1.685   5.890   0.431
 1180SOL     OW 4438   3.297   6.105   0.517
 1180SOL    HW1 4439   3.316   6.191   0.564
 1180SOL    HW2 4440   3.343   6.030   0.565
 1181SOL     OW 4441   6.979   6.434   0.569
 1181SOL    HW1 4442   6.983   6.521   0.617
 1181SOL    HW2 4443   0.053   6.396   0.563
 1182SOL     OW 4444   4.548   4.716   2.745
 1182SOL    HW1 4445   4.571   4.744   2.838
 1182SOL    HW2 4446   4.625   4.737   2.684
 1183SOL     OW 4447   2.495   3.131   5.631
 1183SOL    HW1 4448   2.594   3.128   5.627
 1183SOL    HW2 4449   2.465   3.225   5.648
 1184SOL     OW 4450   0.740   6.837   5.615
 1184SOL    HW1 4451   0.673   6.897   5.570
 1184SOL    HW2 4452   0.825   6.887   5.631
 1185SOL     OW 4453   6.794   1.203   6.724
 1185SOL    HW1 4454   6.696   1.185   6.720
 1185SOL    HW2 4455   6.811   1.289   6.771
 1186SOL     OW 4456   5.886   6.025   4.703
 1186SOL    HW1 4457   5.841   6.111   4.680
 1186SOL    HW2 4458   5.855   5.953   4.641
 1187SOL     OW 4459   5.907   0.515   6.282
 1187SOL    HW1 4460   5.959   0.598   6.299
 1187SOL    HW2 4461   5.965   0.435   6.301
 1188SOL     OW 4462   2.600   0.178   6.379
 1188SOL    HW1 4463   2.630   0.272   6.362
 1188SOL    HW2 4464   2.639   0.145   6.465
 1189SOL     OW 4465   5.309   3.785   3.394
 1189SOL    HW1 4466   5.342   3.799   3.301
 1189SOL    HW2 4467   5.339   3.861   3.452
 1190SOL     OW 4468   1.963   5.895   3.422
 1190SOL    HW1 4469   1.941   5.958   3.348
 1190SOL    HW2 4470   2.056   5.862   3.411
 1191SOL     OW 4471   3.839   5.970   2.772
 1191SOL    HW1 4472   3.880   5.890   2.728
 1191SOL    HW2 4473   3.906   6.044   2.778
 1192SOL     OW 4474   5.855   5.929   3.402
 1192SOL    HW1 4475   5.907   6.012   3.381
 1192SOL    HW2 4476   5.903   5.877   3.473
 1193SOL     OW 4477   6.964   5.204   4.068
 1193SOL    HW1 4478   6.890   5.152   4.025
 1193SOL    HW2 4479   6.932   5.244   4.154
 1194SOL     OW 4480   3.844   0.599   1.071
 1194SOL    HW1 4481   3.882   0.513   1.107
 1194SOL    HW2 4482   3.916   0.651   1.026
 1195SOL     OW 4483   5.533   2.308   3.748
 1195SOL    HW1 4484   5.475   2.385   3.777
 1195SOL    HW2 4485   5.621   2.314   3.793
 1196SOL     OW 4486   6.374   6.162   5.217
 1196SOL    HW1 4487   6.447   6.189   5.154
 1196SOL    HW2 4488   6.306   6.235   5.223
 1197SOL     OW 4489   2.204   5.935   0.348
 1197SOL    HW1 4490   2.135   5.995   0.307
 1197SOL    HW2 4491   2.194   5.935   0.448
 1198SOL     OW 4492   1.396   2.810   0.114
 1198SOL    HW1 4493   1.338   2.824   0.194
 1198SOL    HW2 4494   1.489   2.838   0.134
 1199SOL     OW 4495   5.471   3.920   1.548
 1199SOL    HW1 4496   5.426   3.846   1.499
 1199SOL    HW2 4497   5.406   3.995   1.562
 1200SOL     OW 4498   3.140   3.196   2.142
 1200SOL    HW1 4499   3.116   3.261   2.070
 1200SOL    HW2 4500   3.095   3.222   2.227
 1201SOL     OW 4501   2.185   2.099   4.565
 1201SOL    HW1 4502   2.238   2.184   4.564
 1201SOL    HW2 4503   2.088   2.120   4.562
 1202SOL     OW 4504   0.569   5.141   5.515
 1202SOL    HW1 4505   0.533   5.234   5.524
 1202SOL    HW2 4506   0.612   5.114   5.601
 1203SOL     OW 4507   4.858   5.967   5.382
 1203SOL    HW1 4508   4.911   6.025   5.444
 1203SOL    HW2 4509   4.906   5.958   5.295
 1204SOL     OW 4510   2.179   6.626   2.985
 1204SOL    HW1 4511   2.275   6.645   2.967
 1204SOL    HW2 4512   2.139   6.575   2.908
 1205SOL     OW 4513   5.172   4.286   2.169
 1205SOL    HW1 4514   5.235   4.218   2.206
 1205SOL    HW2 4515   5.174   4.368   2.227
 1206SOL     OW 4516   3.017   3.178   4.863
 1206SOL    HW1 4517   2.946   3.202   4.797
 1206SOL    HW2 4518   3.106   3.181   4.818
 1207SOL     OW 4519   1.341   6.563   2.250
 1207SOL    HW1 4520   1.334   6.498   2.174
 1207SOL    HW2 4521   1.404   6.637   2.226
 1208SOL     OW 4522   3.325   4.302   5.850
 1208SOL    HW1 4523   3.421   4.276   5.842
 1208SOL    HW2 4524   3.271   4.254   5.780
 1209SOL     OW 4525   4.072   6.481   5.520
 1209SOL    HW1 4526   4.065   6.434   5.608
 1209SOL    HW2 4527   4.042   6.419   5.447
 1210SOL     OW 4528   3.447   0.831   2.915
 1210SOL    HW1 4529   3.496   0.759   2.865
 1210SOL    HW2 4530   3.512   0.885   2.967
 1211SOL     OW 4531   1.041   3.364   6.965
 1211SOL    HW1 4532   1.087   3.276   6.980
 1211SOL    HW2 4533   0.958   3.350   6.912
 1212SOL     OW 4534   1.531   6.819   0.352
 1212SOL    HW1 4535   1.438   6.803   0.387
 1212SOL    HW2 4536   1.528   6.890   0.281
 1213SOL     OW 4537   5.445   2.859   1.313
 1213SOL    HW1 4538   5.379   2.868   1.238
 1213SOL    HW2 4539   5.538   2.855   1.275
 1214SOL     OW 4540   6.972   2.262   1.479
 1214SOL    HW1 4541   6.873   2.269   1.484
 1214SOL    HW2 4542   7.012   2.353   1.477
 1215SOL     OW 4543   1.334   5.694   4.014
 1215SOL    HW1 4544   1.342   5.789   3.984
 1215SOL    HW2 4545   1.240   5.676   4.042
 1216SOL     OW 4546   4.474   6.044   1.119
 1216SOL    HW1 4547   4.436   6.109   1.186
 1216SOL    HW2 4548   4.431   6.059   1.030
 1217SOL     OW 4549   3.061   4.240   6.827
 1217SOL    HW1 4550   3.091   4.331   6.857
 1217SOL    HW2 4551   3.112   4.170   6.879
 1218SOL     OW 4552   1.848   4.650   3.827
 1218SOL    HW1 4553   1.784   4.617   3.758
 1218SOL    HW2 4554   1.915   4.578   3.847
 1219SOL     OW 4555   4.331   6.274   2.253
 1219SOL    HW1 4556   4.301   6.299   2.345
 1219SOL    HW2 4557   4.416   6.322   2.231
 1220SOL     OW 4558   1.036   4.754   2.776
 1220SOL    HW1 4559   1.102   4.799   2.715
 1220SOL    HW2 4560   1.014   4.663   2.740
 1221SOL     OW 4561   5.240   4.167   6.315
 1221SOL    HW1 4562   5.272   4.257   6.345
 1221SOL    HW2 4563   5.141   4.161   6.330
 1222SOL     OW 4564   6.425   0.101   6.712
 1222SOL    HW1 4565   6.378   0.167   6.654
 1222SOL    HW2 4566   6.472   0.148   6.786
 1223SOL     OW 4567   3.389   6.553   0.844
 1223SOL    HW1 4568   3.312   6.539   0.907
 1223SOL    HW2 4569   3.468   6.586   0.895
 1224SOL     OW 4570   3.220   0.104   2.430
 1224SOL    HW1 4571   3.222   0.197   2.394
 1224SOL    HW2 4572   3.127   0.066   2.421
 1225SOL     OW 4573   2.715   4.097   5.939
 1225SOL    HW1 4574   2.700   4.095   5.841
 1225SOL    HW2 4575   2.757   4.184   5.965
 1226SOL     OW 4576   1.823   4.876   0.876
 1226SOL    HW1 4577   1.793   4.781   0.882
 1226SOL    HW2 4578   1.902   4.890   0.936
 1227SOL     OW 4579   0.493   3.885   6.202
 1227SOL    HW1 4580   0.471   3.923   6.111
 1227SOL    HW2 4581   0.580   3.836   6.197
 1228SOL     OW 4582   3.433   1.561   6.117
 1228SOL    HW1 4583   3.415   1.464   6.100
 1228SOL    HW2 4584   3.510   1.591   6.061
 1229SOL     OW 4585   3.214   4.153   6.271
 1229SOL    HW1 4586   3.119   4.170   6.243
 1229SOL    HW2 4587   3.232   4.198   6.358
 1230SOL     OW 4588   4.655   6.499   3.486
 1230SOL    HW1 4589   4.693   6.574   3.540
 1230SOL    HW2 4590   4.564   6.524   3.454
 1231SOL     OW 4591   1.122   4.858   4.454
 1231SOL    HW1 4592   1.055   4.920   4.495
 1231SOL    HW2 4593   1.194   4.839   4.520
 1232SOL     OW 4594   1.929   2.197   4.663
 1232SOL    HW1 4595   1.927   2.294   4.688
 1232SOL    HW2 4596   1.843   2.154   4.693
 1233SOL     OW 4597   0.691   2.810   4.340
 1233SOL    HW1 4598   0.700   2.818   4.439
 1233SOL    HW2 4599   0.713   2.898   4.297
 1234SOL     OW 4600   6.668   4.200   4.216
 1234SOL    HW1 4601   6.595   4.263   4.189
 1234SOL    HW2 4602   6.754   4.229   4.175
 1235SOL     OW 4603   0.052   5.636   3.953
 1235SOL    HW1 4604   0.042   5.537   3.953
 1235SOL    HW2 4605   0.140   5.661   3.914
 1236SOL     OW 4606   5.062   0.981   6.723
 1236SOL    HW1 4607   5.078   0.887   6.691
 1236SOL    HW2 4608   5.129   1.042   6.683
 1237SOL     OW 4609   3.061   4.558   6.627
 1237SOL    HW1 4610   3.150   4.601   6.644
 1237SOL    HW2 4611   3.074   4.460   6.609
 1238SOL     OW 4612   1.371   1.455   1.584
 1238SOL    HW1 4613   1.319   1.443   1.500
 1238SOL    HW2 4614   1.469   1.451   1.563
 1239SOL     OW 4615   0.215   6.904   5.992
 1239SOL    HW1 4616   0.307   6.935   6.015
 1239SOL    HW2 4617   0.186   6.834   6.056
 1240SOL     OW 4618   4.202   6.037   2.015
 1240SOL    HW1 4619   4.282   6.015   2.071
 1240SOL    HW2 4620   4.200   6.135   1.998
 1241SOL     OW 4621   6.722   2.770   3.716
 1241SOL    HW1 4622   6.797   2.834   3.730
 1241SOL    HW2 4623   6.735   2.722   3.629
 1242SOL     OW 4624   2.291   3.598   6.318
 1242SOL    HW1 4625   2.243   3.585   6.231
 1242SOL    HW2 4626   2.324   3.692   6.325
 1243SOL     OW 4627   3.087   5.330   5.732
 1243SOL    HW1 4628   3.116   5.372   5.818
 1243SOL    HW2 4629   3.101   5.393   5.656
 1244SOL     OW 4630   0.853   1.009   2.904
 1244SOL    HW1 4631   0.871   1.084   2.968
 1244SOL    HW2 4632   0.924   1.007   2.834
 1245SOL     OW 4633   2.952   3.074   6.220
 1245SOL    HW1 4634   2.985   3.092   6.128
 1245SOL    HW2 4635   2.870   3.130   6.238
 1246SOL     OW 4636   1.308   6.975   2.098
 1246SOL    HW1 4637   1.217   6.943   2.074
 1246SOL    HW2 4638   1.306   0.002   2.188
 1247SOL     OW 4639   1.493   6.824   6.773
 1247SOL    HW1 4640   1.569   6.841   6.710
 1247SOL    HW2 4641   1.407   6.821   6.722
 1248SOL     OW 4642   2.002   6.385   3.465
 1248SOL    HW1 4643   1.995   6.463   3.403
 1248SOL    HW2 4644   1.912   6.343   3.478
 1249SOL     OW 4645   6.433   3.149   3.231
 1249SOL    HW1 4646   6.431   3.057   3.268
 1249SOL    HW2 4647   6.430   3.145   3.131
 1250SOL     OW 4648   0.883   3.885   4.359
 1250SOL    HW1 4649   0.931   3.830   4.427
 1250SOL    HW2 4650   0.927   3.975   4.352
 1251SOL     OW 4651   3.256   6.703   5.653
 1251SOL    HW1 4652   3.281   6.797   5.632
 1251SOL    HW2 4653   3.261   6.688   5.751
 1252SOL     OW 4654   3.289   3.169   6.563
 1252SOL    HW1 4655   3.301   3.071   6.580
 1252SOL    HW2 4656   3.331   3.193   6.476
 1253SOL     OW 4657   4.409   6.330   3.229
 1253SOL    HW1 4658   4.418   6.262   3.302
 1253SOL    HW2 4659   4.356   6.290   3.154
 1254SOL     OW 4660   6.185   2.302   2.478
 1254SOL    HW1 4661   6.225   2.347   2.558
 1254SOL    HW2 4662   6.098   2.347   2.455
 1255SOL     OW 4663   6.410   0.038   0.614
 1255SOL    HW1 4664   6.458   0.118   0.651
 1255SOL    HW2 4665   6.421   0.036   0.515
 1256SOL     OW 4666   4.272   1.828   4.075
 1256SOL    HW1 4667   4.346   1.832   4.008
 1256SOL    HW2 4668   4.203   1.897   4.052
 1257SOL     OW 4669   6.351   1.181   4.571
 1257SOL    HW1 4670   6.443   1.196   4.607
 1257SOL    HW2 4671   6.336   1.242   4.493
 1258SOL     OW 4672   0.165   6.205   3.980
 1258SOL    HW1 4673   0.108   6.215   3.898
 1258SOL    HW2 4674   0.163   6.110   4.010
 1259SOL     OW 4675   4.115   2.142   5.547
 1259SOL    HW1 4676   4.031   2.173   5.591
 1259SOL    HW2 4677   4.148   2.213   5.485
 1260SOL     OW 4678   0.439   1.703   5.411
 1260SOL    HW1 4679   0.457   1.701   5.312
 1260SOL    HW2 4680   0.379   1.780   5.432
 1261SOL     OW 4681   6.139   3.786   0.905
 1261SOL    HW1 4682   6.216   3.844   0.878
 1261SOL    HW2 4683   6.173   3.707   0.956
 1262SOL     OW 4684   4.942   6.473   2.641
 1262SOL    HW1 4685   4.848   6.485   2.672
 1262SOL    HW2 4686   4.953   6.382   2.602
 1263SOL     OW 4687   6.723   2.261   3.348
 1263SOL    HW1 4688   6.773   2.347   3.336
 1263SOL    HW2 4689   6.634   2.267   3.304
 1264SOL     OW 4690   0.975   3.099   5.269
 1264SOL    HW1 4691   0.967   3.110   5.368
 1264SOL    HW2 4692   0.964   3.003   5.245
 1265SOL     OW 4693   5.595   6.985   5.739
 1265SOL    HW1 4694   5.647   6.901   5.720
 1265SOL    HW2 4695   5.539   6.972   5.820
 1266SOL     OW 4696   2.155   1.750   5.949
 1266SOL    HW1 4697   2.166   1.845   5.922
 1266SOL    HW2 4698   2.087   1.706   5.891
 1267SOL     OW 4699   3.605   6.997   2.737
 1267SOL    HW1 4700   3.605   6.907   2.694
 1267SOL    HW2 4701   3.529   0.033   2.701
 1268SOL     OW 4702   3.975   2.910   5.786
 1268SOL    HW1 4703   3.924   2.988   5.824
 1268SOL    HW2 4704   4.063   2.902   5.833
 1269SOL     OW 4705   5.759   1.925   4.037
 1269SOL    HW1 4706   5.749   2.025   4.038
 1269SOL    HW2 4707   5.693   1.885   3.975
 1270SOL     OW 4708   6.159   5.279   2.826
 1270SOL    HW1 4709   6.085   5.342   2.804
 1270SOL    HW2 4710   6.131   5.218   2.900
 1271SOL     OW 4711   1.948   1.150   1.139
 1271SOL    HW1 4712   1.962   1.095   1.221
 1271SOL    HW2 4713   1.861   1.125   1.096
 1272SOL     OW 4714   6.459   2.453   6.644
 1272SOL    HW1 4715   6.525   2.451   6.570
 1272SOL    HW2 4716   6.372   2.490   6.610
 1273SOL     OW 4717   1.264   4.576   5.655
 1273SOL    HW1 4718   1.197   4.641   5.622
 1273SOL    HW2 4719   1.349   4.624   5.679
 1274SOL     OW 4720   6.860   4.848   3.186
 1274SOL    HW1 4721   6.818   4.902   3.259
 1274SOL    HW2 4722   6.847   4.894   3.098
 1275SOL     OW 4723   2.293   1.395   3.050
 1275SOL    HW1 4724   2.225   1.372   2.980
 1275SOL    HW2 4725   2.246   1.438   3.128
 1276SOL     OW 4726   5.542   4.718   3.578
 1276SOL    HW1 4727   5.615   4.701   3.513
 1276SOL    HW2 4728   5.576   4.775   3.653
 1277SOL     OW 4729   0.175   5.842   0.387
 1277SOL    HW1 4730   0.101   5.854   0.454
 1277SOL    HW2 4731   0.256   5.890   0.419
 1278SOL     OW 4732   1.181   5.810   3.163
 1278SOL    HW1 4733   1.209   5.828   3.258
 1278SOL    HW2 4734   1.262   5.805   3.105
 1279SOL     OW 4735   2.645   2.637   1.649
 1279SOL    HW1 4736   2.601   2.640   1.560
 1279SOL    HW2 4737   2.738   2.673   1.642
 1280SOL     OW 4738   2.550   2.125   4.066
 1280SOL    HW1 4739   2.557   2.188   3.989
 1280SOL    HW2 4740   2.606   2.158   4.142
 1281SOL     OW 4741   5.454   6.462   5.077
 1281SOL    HW1 4742   5.387   6.426   5.012
 1281SOL    HW2 4743   5.435   6.558   5.095
 1282SOL     OW 4744   0.790   3.087   1.355
 1282SOL    HW1 4745   0.849   3.133   1.289
 1282SOL    HW2 4746   0.844   3.025   1.411
 1283SOL     OW 4747   6.753   2.803   4.702
 1283SOL    HW1 4748   6.739   2.708   4.730
 1283SOL    HW2 4749   6.849   2.818   4.680
 1284SOL     OW 4750   3.943   2.123   1.887
 1284SOL    HW1 4751   3.945   2.136   1.788
 1284SOL    HW2 4752   3.851   2.144   1.922
 1285SOL     OW 4753   4.499   1.377   4.612
 1285SOL    HW1 4754   4.505   1.295   4.554
 1285SOL    HW2 4755   4.580   1.434   4.597
 1286SOL     OW 4756   5.326   1.507   0.866
 1286SOL    HW1 4757   5.323   1.408   0.851
 1286SOL    HW2 4758   5.414   1.543   0.834
 1287SOL     OW 4759   6.722   4.687   4.848
 1287SOL    HW1 4760   6.742   4.729   4.760
 1287SOL    HW2 4761   6.629   4.711   4.876
 1288SOL     OW 4762   5.084   4.863   6.762
 1288SOL    HW1 4763   5.102   4.783   6.819
 1288SOL    HW2 4764   5.155   4.871   6.693
 1289SOL     OW 4765   6.822   0.044   1.339
 1289SOL    HW1 4766   6.775   0.117   1.389
 1289SOL    HW2 4767   6.765   6.980   1.338
 1290SOL     OW 4768   1.291   6.091   5.319
 1290SOL    HW1 4769   1.211   6.135   5.359
 1290SOL    HW2 4770   1.317   6.140   5.235
 1291SOL     OW 4771   6.365   4.876   3.580
 1291SOL    HW1 4772   6.392   4.969   3.606
 1291SOL    HW2 4773   6.277   4.879   3.533
 1292SOL     OW 4774   0.676   6.530   1.785
 1292SOL    HW1 4775   0.748   6.599   1.793
 1292SOL    HW2 4776   0.606   6.547   1.854
 1293SOL     OW 4777   4.856   1.076   0.327
 1293SOL    HW1 4778   4.916   1.032   0.259
 1293SOL    HW2 4779   4.829   1.009   0.396
 1294SOL     OW 4780   2.053   4.600   5.028
 1294SOL    HW1 4781   2.014   4.532   4.966
 1294SOL    HW2 4782   2.114   4.555   5.093
 1295SOL     OW 4783   6.503   4.354   0.558
 1295SOL    HW1 4784   6.560   4.298   0.618
 1295SOL    HW2 4785   6.520   4.451   0.575
 1296SOL     OW 4786   5.082   0.326   5.995
 1296SOL    HW1 4787   5.157   0.391   5.984
 1296SOL    HW2 4788   5.114   0.247   6.047
 1297SOL     OW 4789   0.137   0.364   1.324
 1297SOL    HW1 4790   0.101   0.323   1.240
 1297SOL    HW2 4791   0.114   0.304   1.402
 1298SOL     OW 4792   5.337   0.778   2.399
 1298SOL    HW1 4793   5.357   0.876   2.410
 1298SOL    HW2 4794   5.290   0.744   2.481
 1299SOL     OW 4795   0.995   3.146   3.937
 1299SOL    HW1 4796   1.006   3.049   3.914
 1299SOL    HW2 4797   0.901   3.174   3.918
 1300SOL     OW 4798   0.404   5.704   1.512
 1300SOL    HW1 4799   0.336   5.636   1.484
 1300SOL    HW2 4800   0.394   5.786   1.456
 1301SOL     OW 4801   6.881   0.273   0.166
 1301SOL    HW1 4802   6.955   0.325   0.208
 1301SOL    HW2 4803   6.839   0.213   0.234
 1302SOL     OW 4804   6.470   6.565   5.341
 1302SOL    HW1 4805   6.386   6.527   5.379
 1302SOL    HW2 4806   6.449   6.650   5.293
 1303SOL     OW 4807   3.090   5.952   1.576
 1303SOL    HW1 4808   3.032   5.976   1.654
 1303SOL    HW2 4809   3.087   5.853   1.561
 1304SOL     OW 4810   0.416   0.541   0.592
 1304SOL    HW1 4811   0.335   0.600   0.590
 1304SOL    HW2 4812   0.459   0.547   0.682
 1305SOL     OW 4813   4.528   4.026   6.029
 1305SOL    HW1 4814   4.434   4.033   5.995
 1305SOL    HW2 4815   4.557   3.931   6.026
 1306SOL     OW 4816   3.315   6.066   4.091
 1306SOL    HW1 4817   3.393   6.047   4.032
 1306SOL    HW2 4818   3.273   6.153   4.064
 1307SOL     OW 4819   2.313   2.900   3.487
 1307SOL    HW1 4820   2.318   2.846   3.403
 1307SOL    HW2 4821   2.332   2.842   3.565
 1308SOL     OW 4822   0.101   3.945   6.420
 1308SOL    HW1 4823   0.193   3.969   6.449
 1308SOL    HW2 4824   0.102   3.858   6.371
 1309SOL     OW 4825   5.983   4.556   6.689
 1309SOL    HW1 4826   5.902   4.508   6.656
 1309SOL    HW2 4827   6.043   4.578   6.612
 1310SOL     OW 4828   1.579   4.437   3.406
 1310SOL    HW1 4829   1.600   4.342   3.426
 1310SOL    HW2 4830   1.520   4.443   3.325
 1311SOL     OW 4831   5.912   4.893   0.408
 1311SOL    HW1 4832   5.958   4.808   0.385
 1311SOL    HW2 4833   5.813   4.880   0.406
 1312SOL     OW 4834   2.652   1.285   5.854
 1312SOL    HW1 4835   2.701   1.350   5.912
 1312SOL    HW2 4836   2.681   1.296   5.759
 1313SOL     OW 4837   6.514   5.520   1.945
 1313SOL    HW1 4838   6.420   5.485   1.948
 1313SOL    HW2 4839   6.577   5.448   1.973
 1314SOL     OW 4840   2.531   1.868   4.786
 1314SOL    HW1 4841   2.615   1.920   4.796
 1314SOL    HW2 4842   2.496   1.879   4.692
 1315SOL     OW 4843   6.327   0.623   2.742
 1315SOL    HW1 4844   6.352   0.534   2.779
 1315SOL    HW2 4845   6.350   0.694   2.809
 1316SOL     OW 4846   5.428   0.391   6.580
 1316SOL    HW1 4847   5.424   0.479   6.627
 1316SOL    HW2 4848   5.409   0.317   6.645
 1317SOL     OW 4849   3.318   3.376   5.883
 1317SOL    HW1 4850   3.219   3.360   5.879
 1317SOL    HW2 4851   3.342   3.451   5.823
 1318SOL     OW 4852   1.946   1.787   6.304
 1318SOL    HW1 4853   2.036   1.795   6.261
 1318SOL    HW2 4854   1.938   1.853   6.379
 1319SOL     OW 4855   6.785   0.016   0.337
 1319SOL    HW1 4856   6.791   0.048   0.431
 1319SOL    HW2 4857   6.836   6.948   0.327
 1320SOL     OW 4858   3.432   3.442   6.146
 1320SOL    HW1 4859   3.364   3.507   6.178
 1320SOL    HW2 4860   3.409   3.412   6.053
 1321SOL     OW 4861   6.912   2.539   0.423
 1321SOL    HW1 4862   6.936   2.636   0.422
 1321SOL    HW2 4863   6.985   2.488   0.470
 1322SOL     OW 4864   3.384   2.373   0.116
 1322SOL    HW1 4865   3.333   2.418   0.042
 1322SOL    HW2 4866   3.414   2.283   0.084
 1323SOL     OW 4867   3.896   6.437   1.220
 1323SOL    HW1 4868   3.847   6.358   1.257
 1323SOL    HW2 4869   3.917   6.422   1.123
 1324SOL     OW 4870   2.416   4.202   6.398
 1324SOL    HW1 4871   2.485   4.143   6.439
 1324SOL    HW2 4872   2.461   4.270   6.340
 1325SOL     OW 4873   3.000   5.733   5.361
 1325SOL    HW1 4874   3.042   5.644   5.377
 1325SOL    HW2 4875   2.994   5.784   5.447
 1326SOL     OW 4876   4.797   1.664   4.855
 1326SOL    HW1 4877   4.699   1.648   4.867
 1326SOL    HW2 4878   4.811   1.739   4.791
 1327SOL     OW 4879   5.221   5.597   2.525
 1327SOL    HW1 4880   5.154   5.542   2.575
 1327SOL    HW2 4881   5.207   5.693   2.545
 1328SOL     OW 4882   1.733   2.505   5.879
 1328SOL    HW1 4883   1.708   2.534   5.787
 1328SOL    HW2 4884   1.821   2.544   5.904
 1329SOL     OW 4885   0.813   2.656   3.703
 1329SOL    HW1 4886   0.828   2.656   3.802
 1329SOL    HW2 4887   0.860   2.734   3.662
 1330SOL     OW 4888   5.544   3.215   2.856
 1330SOL    HW1 4889   5.643   3.205   2.849
 1330SOL    HW2 4890   5.499   3.146   2.799
 1331SOL     OW 4891   4.523   2.143   3.606
 1331SOL    HW1 4892   4.620   2.163   3.617
 1331SOL    HW2 4893   4.469   2.227   3.617
 1332SOL     OW 4894   2.206   5.622   0.317
 1332SOL    HW1 4895   2.123   5.669   0.348
 1332SOL    HW2 4896   2.239   5.561   0.389
 1333SOL     OW 4897   3.055   3.983   3.180
 1333SOL    HW1 4898   3.086   3.920   3.251
 1333SOL    HW2 4899   3.005   4.059   3.223
 1334SOL     OW 4900   6.720   3.734   1.687
 1334SOL    HW1 4901   6.752   3.639   1.683
 1334SOL    HW2 4902   6.762   3.779   1.766
 1335SOL     OW 4903   0.834   3.456   3.095
 1335SOL    HW1 4904   0.773   3.391   3.141
 1335SOL    HW2 4905   0.827   3.545   3.140
 1336SOL     OW 4906   2.080   0.148   5.558
 1336SOL    HW1 4907   1.988   0.155   5.520
 1336SOL    HW2 4908   2.134   0.228   5.531
 1337SOL     OW 4909   7.000   0.197   3.036
 1337SOL    HW1 4910   0.036   0.128   2.988
 1337SOL    HW2 4911   0.030   0.224   3.119
 1338SOL     OW 4912   6.549   4.056   4.877
 1338SOL    HW1 4913   6.603   4.052   4.792
 1338SOL    HW2 4914   6.458   4.017   4.860
 1339SOL     OW 4915   6.578   0.272   0.281
 1339SOL    HW1 4916   6.573   0.349   0.218
 1339SOL    HW2 4917   6.606   0.190   0.231
 1340SOL     OW 4918   4.048   2.723   1.377
 1340SOL    HW1 4919   4.018   2.810   1.416
 1340SOL    HW2 4920   4.089   2.739   1.287
 1341SOL     OW 4921   5.134   5.919   6.989
 1341SOL    HW1 4922   5.118   5.851   0.043
 1341SOL    HW2 4923   5.049   5.969   6.972
 1342SOL     OW 4924   1.937   5.934   1.657
 1342SOL    HW1 4925   2.016   5.995   1.650
 1342SOL    HW2 4926   1.869   5.973   1.720
 1343SOL     OW 4927   6.047   5.841   3.012
 1343SOL    HW1 4928   5.964   5.890   3.041
 1343SOL    HW2 4929   6.093   5.803   3.092
 1344SOL     OW 4930   0.646   0.817   4.696
 1344SOL    HW1 4931   0.663   0.832   4.598
 1344SOL    HW2 4932   0.724   0.851   4.748
 1345SOL     OW 4933   0.572   6.443   6.970
 1345SOL    HW1 4934   0.623   6.360   6.946
 1345SOL    HW2 4935   0.508   6.422   0.026
 1346SOL     OW 4936   3.476   4.966   4.708
 1346SOL    HW1 4937   3.504   4.968   4.804
 1346SOL    HW2 4938   3.380   4.936   4.702
 1347SOL     OW 4939   1.362   7.003   6.526
 1347SOL    HW1 4940   1.326   0.037   6.604
 1347SOL    HW2 4941   1.289   6.991   6.458
 1348SOL     OW 4942   0.427   6.311   5.368
 1348SOL    HW1 4943   0.370   6.365   5.430
 1348SOL    HW2 4944   0.393   6.217   5.366
 1349SOL     OW 4945   4.890   3.161   3.814
 1349SOL    HW1 4946   4.887   3.189   3.718
 1349SOL    HW2 4947   4.855   3.068   3.823
 1350SOL     OW 4948   4.284   4.518   6.697
 1350SOL    HW1 4949   4.373   4.563   6.702
 1350SOL    HW2 4950   4.225   4.550   6.771
 1351SOL     OW 4951   0.729   2.739   5.809
 1351SOL    HW1 4952   0.820   2.716   5.776
 1351SOL    HW2 4953   0.670   2.658   5.804
 1352SOL     OW 4954   0.041   0.629   2.459
 1352SOL    HW1 4955   0.010   0.714   2.502
 1352SOL    HW2 4956   0.133   0.643   2.421
 1353SOL     OW 4957   0.530   0.808   0.518
 1353SOL    HW1 4958   0.563   0.714   0.519
 1353SOL    HW2 4959   0.467   0.820   0.441
 1354SOL     OW 4960   4.796   5.448   2.671
 1354SOL    HW1 4961   4.742   5.523   2.632
 1354SOL    HW2 4962   4.791   5.369   2.610
 1355SOL     OW 4963   5.324   3.028   5.598
 1355SOL    HW1 4964   5.230   3.063   5.593
 1355SOL    HW2 4965   5.323   2.936   5.638
 1356SOL     OW 4966   2.548   3.256   0.492
 1356SOL    HW1 4967   2.485   3.204   0.550
 1356SOL    HW2 4968   2.520   3.352   0.491
 1357SOL     OW 4969   1.879   2.979   5.576
 1357SOL    HW1 4970   1.887   3.070   5.535
 1357SOL    HW2 4971   1.791   2.939   5.552
 1358SOL     OW 4972   2.364   0.097   0.355
 1358SOL    HW1 4973   2.292   0.031   0.333
 1358SOL    HW2 4974   2.323   0.188   0.363
 1359SOL     OW 4975   6.615   4.445   1.212
 1359SOL    HW1 4976   6.672   4.377   1.257
 1359SOL    HW2 4977   6.587   4.515   1.279
 1360SOL     OW 4978   1.982   2.528   0.174
 1360SOL    HW1 4979   1.961   2.607   0.233
 1360SOL    HW2 4980   1.925   2.533   0.092
 1361SOL     OW 4981   6.968   4.288   5.059
 1361SOL    HW1 4982   0.003   4.256   4.980
 1361SOL    HW2 4983   6.917   4.370   5.034
 1362SOL     OW 4984   3.322   3.286   2.916
 1362SOL    HW1 4985   3.326   3.345   2.997
 1362SOL    HW2 4986   3.282   3.336   2.840
 1363SOL     OW 4987   0.953   6.149   4.319
 1363SOL    HW1 4988   1.026   6.167   4.254
 1363SOL    HW2 4989   0.988   6.094   4.394
 1364SOL     OW 4990   4.592   4.215   0.637
 1364SOL    HW1 4991   4.533   4.266   0.700
 1364SOL    HW2 4992   4.556   4.122   0.626
 1365SOL     OW 4993   6.362   3.314   6.658
 1365SOL    HW1 4994   6.452   3.300   6.701
 1365SOL    HW2 4995   6.296   3.251   6.699
 1366SOL     OW 4996   2.794   6.910   5.540
 1366SOL    HW1 4997   2.790   7.009   5.556
 1366SOL    HW2 4998   2.829   6.864   5.621
 1367SOL     OW 4999   2.776   1.323   2.044
 1367SOL    HW1 5000   2.833   1.351   2.122
 1367SOL    HW2 5001   2.796   1.381   1.965
 1368SOL     OW 5002   5.571   6.099   3.205
 1368SOL    HW1 5003   5.570   6.152   3.290
 1368SOL    HW2 5004   5.495   6.034   3.205
 1369SOL     OW 5005   1.129   1.076   2.880
 1369SOL    HW1 5006   1.189   1.156   2.884
 1369SOL    HW2 5007   1.140   1.031   2.792
 1370SOL     OW 5008   2.285   0.483   1.601
 1370SOL    HW1 5009   2.287   0.397   1.550
 1370SOL    HW2 5010   2.332   0.554   1.549
 1371SOL     OW 5011   3.604   0.084   6.755
 1371SOL    HW1 5012   3.571   0.083   6.850
 1371SOL    HW2 5013   3.564   0.162   6.707
 1372SOL     OW 5014   3.098   2.054   2.022
 1372SOL    HW1 5015   3.075   2.020   1.931
 1372SOL    HW2 5016   3.064   2.148   2.032
 1373SOL     OW 5017   1.329   6.044   0.009
 1373SOL    HW1 5018   1.413   6.090   6.997
 1373SOL    HW2 5019   1.275   6.107   0.065
 1374SOL     OW 5020   5.330   4.130   0.158
 1374SOL    HW1 5021   5.358   4.218   0.121
 1374SOL    HW2 5022   5.411   4.078   0.186
 1375SOL     OW 5023   0.780   4.443   5.302
 1375SOL    HW1 5024   0.740   4.353   5.285
 1375SOL    HW2 5025   0.737   4.511   5.243
 1376SOL     OW 5026   4.388   1.356   2.660
 1376SOL    HW1 5027   4.414   1.402   2.575
 1376SOL    HW2 5028   4.412   1.259   2.654
 1377SOL     OW 5029   1.050   4.592   4.447
 1377SOL    HW1 5030   1.063   4.691   4.443
 1377SOL    HW2 5031   1.043   4.556   4.354
 1378SOL     OW 5032   1.789   2.813   6.717
 1378SOL    HW1 5033   1.777   2.743   6.647
 1378SOL    HW2 5034   1.817   2.899   6.673
 1379SOL     OW 5035   4.128   6.027   1.196
 1379SOL    HW1 5036   4.035   6.041   1.162
 1379SOL    HW2 5037   4.145   6.091   1.271
 1380SOL     OW 5038   5.855   5.734   2.761
 1380SOL    HW1 5039   5.761   5.766   2.775
 1380SOL    HW2 5040   5.911   5.810   2.726
 1381SOL     OW 5041   5.972   0.030   1.355
 1381SOL    HW1 5042   6.033   6.972   1.379
 1381SOL    HW2 5043   5.998   0.111   1.407
 1382SOL     OW 5044   6.943   5.029   6.574
 1382SOL    HW1 5045   7.005   5.001   6.647
 1382SOL    HW2 5046   6.926   5.127   6.580
 1383SOL     OW 5047   2.667   0.501   0.226
 1383SOL    HW1 5048   2.748   0.541   0.269
 1383SOL    HW2 5049   2.656   0.537   0.134
 1384SOL     OW 5050   2.283   2.347   2.228
 1384SOL    HW1 5051   2.185   2.367   2.224
 1384SOL    HW2 5052   2.335   2.431   2.212
 1385SOL     OW 5053   5.440   2.806   3.854
 1385SOL    HW1 5054   5.356   2.774   3.898
 1385SOL    HW2 5055   5.418   2.858   3.772
 1386SOL     OW 5056   2.053   2.717   3.736
 1386SOL    HW1 5057   2.148   2.713   3.705
 1386SOL    HW2 5058   2.022   2.812   3.739
 1387SOL     OW 5059   2.656   0.611   4.595
 1387SOL    HW1 5060   2.741   0.663   4.594
 1387SOL    HW2 5061   2.676   0.513   4.586
 1388SOL     OW 5062   6.082   1.243   4.185
 1388SOL    HW1 5063   6.180   1.263   4.187
 1388SOL    HW2 5064   6.045   1.252   4.277
 1389SOL     OW 5065   6.632   0.799   3.965
 1389SOL    HW1 5066   6.723   0.786   4.004
 1389SOL    HW2 5067   6.564   0.757   4.025
 1390SOL     OW 5068   4.469   2.397   2.321
 1390SOL    HW1 5069   4.479   2.483   2.371
 1390SOL    HW2 5070   4.407   2.337   2.371
 1391SOL     OW 5071   5.974   1.456   4.851
 1391SOL    HW1 5072   6.067   1.420   4.842
 1391SOL    HW2 5073   5.957   1.523   4.779
 1392SOL     OW 5074   4.466   6.521   5.218
 1392SOL    HW1 5075   4.530   6.444   5.216
 1392SOL    HW2 5076   4.410   6.514   5.301
 1393SOL     OW 5077   4.819   0.121   0.121
 1393SOL    HW1 5078   4.737   0.165   0.083
 1393SOL    HW2 5079   4.881   0.099   0.046
 1394SOL     OW 5080   4.120   0.449   3.661
 1394SOL    HW1 5081   4.047   0.437   3.728
 1394SOL    HW2 5082   4.124   0.368   3.602
 1395SOL     OW 5083   0.646   5.241   2.570
 1395SOL    HW1 5084   0.648   5.175   2.646
 1395SOL    HW2 5085   0.696   5.203   2.492
 1396SOL     OW 5086   1.570   1.718   3.779
 1396SOL    HW1 5087   1.611   1.788   3.839
 1396SOL    HW2 5088   1.511   1.658   3.833
 1397SOL     OW 5089   0.903   5.337   5.270
 1397SOL    HW1 5090   0.879   5.259   5.211
 1397SOL    HW2 5091   0.968   5.396   5.221
 1398SOL     OW 5092   1.892   6.602   6.606
 1398SOL    HW1 5093   1.944   6.591   6.522
 1398SOL    HW2 5094   1.951   6.641   6.677
 1399SOL     OW 5095   4.009   0.215   6.510
 1399SOL    HW1 5096   3.991   0.294   6.569
 1399SOL    HW2 5097   4.090   0.166   6.542
 1400SOL     OW 5098   0.110   1.343   5.026
 1400SOL    HW1 5099   0.027   1.396   5.038
 1400SOL    HW2 5100   0.091   1.264   4.968
 1401SOL     OW 5101   5.399   0.365   2.108
 1401SOL    HW1 5102   5.307   0.391   2.137
 1401SOL    HW2 5103   5.441   0.440   2.059
 1402SOL     OW 5104   6.701   4.610   1.954
 1402SOL    HW1 5105   6.700   4.531   1.893
 1402SOL    HW2 5106   6.757   4.588   2.035
 1403SOL     OW 5107   3.013   3.589   6.197
 1403SOL    HW1 5108   2.962   3.550   6.273
 1403SOL    HW2 5109   3.111   3.583   6.215
 1404SOL     OW 5110   4.082   6.577   0.460
 1404SOL    HW1 5111   4.004   6.563   0.399
 1404SOL    HW2 5112   4.149   6.504   0.447
 1405SOL     OW 5113   0.911   3.434   0.207
 1405SOL    HW1 5114   0.813   3.412   0.203
 1405SOL    HW2 5115   0.949   3.431   0.114
 1406SOL     OW 5116   2.340   2.885   0.138
 1406SOL    HW1 5117   2.283   2.935   0.202
 1406SOL    HW2 5118   2.311   2.789   0.135
 1407SOL     OW 5119   0.441   2.716   1.294
 1407SOL    HW1 5120   0.428   2.668   1.381
 1407SOL    HW2 5121   0.537   2.715   1.269
 1408SOL     OW 5122   5.517   6.633   0.584
 1408SOL    HW1 5123   5.557   6.628   0.492
 1408SOL    HW2 5124   5.425   6.672   0.577
 1409SOL     OW 5125   6.263   1.990   5.828
 1409SOL    HW1 5126   6.239   2.077   5.871
 1409SOL    HW2 5127   6.192   1.964   5.763
 1410SOL     OW 5128   3.217   0.213   0.007
 1410SOL    HW1 5129   3.302   0.257   0.038
 1410SOL    HW2 5130   3.239   0.145   6.955
 1411SOL     OW 5131   3.774   4.995   6.366
 1411SOL    HW1 5132   3.769   4.957   6.459
 1411SOL    HW2 5133   3.853   4.957   6.319
 1412SOL     OW 5134   2.901   2.203   0.067
 1412SOL    HW1 5135   2.871   2.112   0.038
 1412SOL    HW2 5136   2.866   2.221   0.159
 1413SOL     OW 5137   2.177   1.760   5.419
 1413SOL    HW1 5138   2.132   1.821   5.484
 1413SOL    HW2 5139   2.219   1.684   5.468
 1414SOL     OW 5140   1.006   5.224   2.050
 1414SOL    HW1 5141   1.082   5.206   1.987
 1414SOL    HW2 5142   0.919   5.204   2.003
 1415SOL     OW 5143   3.682   1.703   5.031
 1415SOL    HW1 5144   3.658   1.770   5.102
 1415SOL    HW2 5145   3.742   1.747   4.964
 1416SOL     OW 5146   4.158   0.347   5.096
 1416SOL    HW1 5147   4.067   0.309   5.114
 1416SOL    HW2 5148   4.185   0.323   5.002
 1417SOL     OW 5149   3.193   3.335   4.084
 1417SOL    HW1 5150   3.200   3.361   4.181
 1417SOL    HW2 5151   3.149   3.245   4.078
 1418SOL     OW 5152   3.134   3.782   6.025
 1418SOL    HW1 5153   3.106   3.802   5.931
 1418SOL    HW2 5154   3.111   3.688   6.048
 1419SOL     OW 5155   0.812   6.123   2.092
 1419SOL    HW1 5156   0.791   6.091   2.185
 1419SOL    HW2 5157   0.807   6.047   2.029
 1420SOL     OW 5158   3.201   5.809   3.083
 1420SOL    HW1 5159   3.181   5.758   2.999
 1420SOL    HW2 5160   3.274   5.874   3.066
 1421SOL     OW 5161   1.896   5.497   0.017
 1421SOL    HW1 5162   1.964   5.471   0.086
 1421SOL    HW2 5163   1.891   5.427   6.964
 1422SOL     OW 5164   1.623   3.235   6.636
 1422SOL    HW1 5165   1.551   3.182   6.682
 1422SOL    HW2 5166   1.581   3.304   6.578
 1423SOL     OW 5167   3.893   0.768   4.996
 1423SOL    HW1 5168   3.895   0.829   4.917
 1423SOL    HW2 5169   3.968   0.702   4.989
 1424SOL     OW 5170   6.395   2.674   1.168
 1424SOL    HW1 5171   6.461   2.683   1.093
 1424SOL    HW2 5172   6.347   2.586   1.160
 1425SOL     OW 5173   5.224   0.254   3.398
 1425SOL    HW1 5174   5.141   0.256   3.342
 1425SOL    HW2 5175   5.205   0.204   3.482
 1426SOL     OW 5176   4.324   0.632   0.207
 1426SOL    HW1 5177   4.350   0.536   0.215
 1426SOL    HW2 5178   4.341   0.678   0.294
 1427SOL     OW 5179   1.130   0.758   4.333
 1427SOL    HW1 5180   1.209   0.791   4.281
 1427SOL    HW2 5181   1.158   0.679   4.388
 1428SOL     OW 5182   2.116   3.891   3.679
 1428SOL    HW1 5183   2.149   3.980   3.647
 1428SOL    HW2 5184   2.159   3.870   3.767
 1429SOL     OW 5185   5.656   0.265   1.776
 1429SOL    HW1 5186   5.558   0.274   1.797
 1429SOL    HW2 5187   5.708   0.327   1.835
 1430SOL     OW 5188   2.230   4.090   4.513
 1430SOL    HW1 5189   2.297   4.088   4.438
 1430SOL    HW2 5190   2.236   4.178   4.560
 1431SOL     OW 5191   3.451   1.284   0.607
 1431SOL    HW1 5192   3.377   1.290   0.540
 1431SOL    HW2 5193   3.413   1.264   0.698
 1432SOL     OW 5194   4.443   6.725   2.753
 1432SOL    HW1 5195   4.408   6.656   2.690
 1432SOL    HW2 5196   4.449   6.686   2.845
 1433SOL     OW 5197   3.282   1.631   3.708
 1433SOL    HW1 5198   3.219   1.560   3.674
 1433SOL    HW2 5199   3.368   1.588   3.736
 1434SOL     OW 5200   5.266   4.319   0.850
 1434SOL    HW1 5201   5.365   4.330   0.852
 1434SOL    HW2 5202   5.223   4.402   0.886
 1435SOL     OW 5203   0.635   6.702   4.243
 1435SOL    HW1 5204   0.658   6.616   4.200
 1435SOL    HW2 5205   0.689   6.713   4.327
 1436SOL     OW 5206   5.599   0.840   0.628
 1436SOL    HW1 5207   5.667   0.769   0.610
 1436SOL    HW2 5208   5.526   0.833   0.560
 1437SOL     OW 5209   4.455   1.499   0.272
 1437SOL    HW1 5210   4.469   1.597   0.257
 1437SOL    HW2 5211   4.544   1.455   0.283
 1438SOL     OW 5212   2.346   6.889   2.482
 1438SOL    HW1 5213   2.383   6.823   2.547
 1438SOL    HW2 5214   2.251   6.912   2.508
 1439SOL     OW 5215   0.833   5.102   6.311
 1439SOL    HW1 5216   0.751   5.143   6.273
 1439SOL    HW2 5217   0.884   5.170   6.363
 1440SOL     OW 5218   4.059   3.328   2.473
 1440SOL    HW1 5219   4.092   3.344   2.380
 1440SOL    HW2 5220   4.066   3.231   2.495
 1441SOL     OW 5221   6.280   2.239   5.937
 1441SOL    HW1 5222   6.335   2.268   6.015
 1441SOL    HW2 5223   6.199   2.296   5.930
 1442SOL     OW 5224   5.276   6.212   0.357
 1442SOL    HW1 5225   5.350   6.146   0.343
 1442SOL    HW2 5226   5.231   6.230   0.270
 1443SOL     OW 5227   1.126   2.466   3.463
 1443SOL    HW1 5228   1.061   2.507   3.400
 1443SOL    HW2 5229   1.133   2.368   3.445
 1444SOL     OW 5230   5.187   6.113   4.799
 1444SOL    HW1 5231   5.091   6.122   4.774
 1444SOL    HW2 5232   5.240   6.086   4.718
 1445SOL     OW 5233   6.146   1.880   0.213
 1445SOL    HW1 5234   6.127   1.900   0.309
 1445SOL    HW2 5235   6.203   1.952   0.175
 1446SOL     OW 5236   3.906   5.676   1.622
 1446SOL    HW1 5237   3.995   5.721   1.614
 1446SOL    HW2 5238   3.888   5.654   1.718
 1447SOL     OW 5239   6.301   1.038   4.833
 1447SOL    HW1 5240   6.394   1.003   4.821
 1447SOL    HW2 5241   6.291   1.126   4.786
 1448SOL     OW 5242   5.739   0.545   6.878
 1448SOL    HW1 5243   5.763   0.615   6.946
 1448SOL    HW2 5244   5.804   0.550   6.802
 1449SOL     OW 5245   4.318   5.219   0.960
 1449SOL    HW1 5246   4.376   5.294   0.930
 1449SOL    HW2 5247   4.253   5.252   1.029
 1450SOL     OW 5248   6.173   1.810   3.509
 1450SOL    HW1 5249   6.074   1.801   3.509
 1450SOL    HW2 5250   6.215   1.722   3.533
 1451SOL     OW 5251   1.500   6.692   1.652
 1451SOL    HW1 5252   1.558   6.774   1.651
 1451SOL    HW2 5253   1.520   6.639   1.735
 1452SOL     OW 5254   3.500   0.453   5.500
 1452SOL    HW1 5255   3.566   0.507   5.448
 1452SOL    HW2 5256   3.407   0.475   5.470
 1453SOL     OW 5257   4.958   4.593   4.355
 1453SOL    HW1 5258   4.931   4.638   4.440
 1453SOL    HW2 5259   5.049   4.623   4.329
 1454SOL     OW 5260   4.835   4.244   0.804
 1454SOL    HW1 5261   4.760   4.284   0.752
 1454SOL    HW2 5262   4.871   4.164   0.756
 1455SOL     OW 5263   2.026   2.465   1.933
 1455SOL    HW1 5264   2.092   2.408   1.883
 1455SOL    HW2 5265   2.073   2.515   2.005
 1456SOL     OW 5266   6.001   5.105   5.061
 1456SOL    HW1 5267   5.970   5.028   5.005
 1456SOL    HW2 5268   5.978   5.089   5.157
 1457SOL     OW 5269   1.995   0.504   3.876
 1457SOL    HW1 5270   2.052   0.478   3.798
 1457SOL    HW2 5271   2.051   0.549   3.945
 1458SOL     OW 5272   0.026   5.498   0.169
 1458SOL    HW1 5273   0.086   5.426   0.203
 1458SOL    HW2 5274   6.969   5.514   0.234
 1459SOL     OW 5275   2.670   6.994   1.276
 1459SOL    HW1 5276   2.666   0.062   1.224
 1459SOL    HW2 5277   2.709   7.010   1.366
 1460SOL     OW 5278   0.803   6.934   6.906
 1460SOL    HW1 5279   0.757   6.891   6.829
 1460SOL    HW2 5280   0.863   6.867   6.950
 1461SOL     OW 5281   4.647   5.634   2.563
 1461SOL    HW1 5282   4.713   5.674   2.499
 1461SOL    HW2 5283   4.572   5.698   2.577
 1462SOL     OW 5284   5.485   0.132   5.362
 1462SOL    HW1 5285   5.568   0.099   5.407
 1462SOL    HW2 5286   5.493   0.231   5.347
 1463SOL     OW 5287   0.757   2.233   6.141
 1463SOL    HW1 5288   0.770   2.157   6.206
 1463SOL    HW2 5289   0.704   2.305   6.186
 1464SOL     OW 5290   0.859   0.902   1.422
 1464SOL    HW1 5291   0.797   0.876   1.348
 1464SOL    HW2 5292   0.856   0.832   1.494
 1465SOL     OW 5293   0.596   0.865   4.238
 1465SOL    HW1 5294   0.654   0.920   4.177
 1465SOL    HW2 5295   0.546   0.798   4.184
 1466SOL     OW 5296   5.854   5.316   4.855
 1466SOL    HW1 5297   5.775   5.262   4.829
 1466SOL    HW2 5298   5.898   5.274   4.934
 1467SOL     OW 5299   6.173   3.627   3.689
 1467SOL    HW1 5300   6.126   3.647   3.775
 1467SOL    HW2 5301   6.249   3.564   3.708
 1468SOL     OW 5302   4.900   0.203   2.237
 1468SOL    HW1 5303   4.906   0.154   2.324
 1468SOL    HW2 5304   4.805   0.226   2.218
 1469SOL     OW 5305   0.723   0.777   2.001
 1469SOL    HW1 5306   0.686   0.827   1.922
 1469SOL    HW2 5307   0.773   0.840   2.060
 1470SOL     OW 5308   6.843   0.536   3.258
 1470SOL    HW1 5309   6.827   0.443   3.228
 1470SOL    HW2 5310   6.914   0.537   3.329
 1471SOL     OW 5311   5.756   0.587   1.319
 1471SOL    HW1 5312   5.842   0.627   1.351
 1471SOL    HW2 5313   5.698   0.660   1.281
 1472SOL     OW 5314   4.630   5.454   4.697
 1472SOL    HW1 5315   4.592   5.381   4.639
 1472SOL    HW2 5316   4.728   5.439   4.708
 1473SOL     OW 5317   6.298   3.539   3.166
 1473SOL    HW1 5318   6.368   3.469   3.153
 1473SOL    HW2 5319   6.340   3.630   3.156
 1474SOL     OW 5320   4.976   5.221   3.090
 1474SOL    HW1 5321   5.067   5.191   3.119
 1474SOL    HW2 5322   4.908   5.150   3.113
 1475SOL     OW 5323   6.206   0.365   3.591
 1475SOL    HW1 5324   6.266   0.443   3.612
 1475SOL    HW2 5325   6.227   0.330   3.500
 1476SOL     OW 5326   0.245   2.633   1.154
 1476SOL    HW1 5327   0.326   2.658   1.208
 1476SOL    HW2 5328   0.191   2.714   1.134
 1477SOL     OW 5329   2.191   6.370   4.012
 1477SOL    HW1 5330   2.134   6.288   4.007
 1477SOL    HW2 5331   2.137   6.446   4.049
 1478SOL     OW 5332   0.087   3.877   1.568
 1478SOL    HW1 5333   0.006   3.918   1.609
 1478SOL    HW2 5334   0.165   3.939   1.578
 1479SOL     OW 5335   1.099   5.646   0.602
 1479SOL    HW1 5336   1.045   5.709   0.546
 1479SOL    HW2 5337   1.162   5.594   0.543
 1480SOL     OW 5338   2.531   0.719   0.065
 1480SOL    HW1 5339   2.522   0.762   0.155
 1480SOL    HW2 5340   2.495   0.780   7.013
 1481SOL     OW 5341   0.613   3.728   6.652
 1481SOL    HW1 5342   0.600   3.649   6.592
 1481SOL    HW2 5343   0.696   3.777   6.625
 1482SOL     OW 5344   5.310   0.765   6.281
 1482SOL    HW1 5345   5.393   0.733   6.235
 1482SOL    HW2 5346   5.265   0.688   6.326
 1483SOL     OW 5347   6.564   1.955   6.568
 1483SOL    HW1 5348   6.577   1.880   6.504
 1483SOL    HW2 5349   6.466   1.969   6.583
 1484SOL     OW 5350   6.240   6.815   3.032
 1484SOL    HW1 5351   6.165   6.805   3.098
 1484SOL    HW2 5352   6.251   6.912   3.008
 1485SOL     OW 5353   5.721   2.840   3.815
 1485SOL    HW1 5354   5.724   2.878   3.722
 1485SOL    HW2 5355   5.625   2.825   3.841
 1486SOL     OW 5356   5.734   2.224   1.908
 1486SOL    HW1 5357   5.766   2.264   1.994
 1486SOL    HW2 5358   5.674   2.146   1.928
 1487SOL     OW 5359   6.854   0.831   5.755
 1487SOL    HW1 5360   6.952   0.840   5.737
 1487SOL    HW2 5361   6.829   0.891   5.831
 1488SOL     OW 5362   5.328   2.033   4.335
 1488SOL    HW1 5363   5.337   2.058   4.431
 1488SOL    HW2 5364   5.232   2.013   4.314
 1489SOL     OW 5365   4.000   5.698   4.180
 1489SOL    HW1 5366   3.972   5.663   4.090
 1489SOL    HW2 5367   4.086   5.749   4.170
 1490SOL     OW 5368   2.347   2.508   1.287
 1490SOL    HW1 5369   2.355   2.497   1.386
 1490SOL    HW2 5370   2.256   2.477   1.257
 1491SOL     OW 5371   0.319   2.488   5.468
 1491SOL    HW1 5372   0.299   2.574   5.422
 1491SOL    HW2 5373   0.328   2.415   5.400
 1492SOL     OW 5374   5.811   2.607   1.214
 1492SOL    HW1 5375   5.817   2.518   1.260
 1492SOL    HW2 5376   5.900   2.652   1.217
 1493SOL     OW 5377   6.077   2.030   5.368
 1493SOL    HW1 5378   6.029   1.944   5.386
 1493SOL    HW2 5379   6.082   2.045   5.269
 1494SOL     OW 5380   6.128   1.442   4.510
 1494SOL    HW1 5381   6.075   1.359   4.528
 1494SOL    HW2 5382   6.083   1.495   4.438
 1495SOL     OW 5383   1.284   3.631   2.827
 1495SOL    HW1 5384   1.205   3.639   2.887
 1495SOL    HW2 5385   1.314   3.535   2.823
 1496SOL     OW 5386   1.087   1.012   2.601
 1496SOL    HW1 5387   1.116   1.049   2.513
 1496SOL    HW2 5388   1.011   0.949   2.587
 1497SOL     OW 5389   5.182   5.327   5.621
 1497SOL    HW1 5390   5.160   5.380   5.703
 1497SOL    HW2 5391   5.163   5.382   5.539
 1498SOL     OW 5392   2.191   5.288   0.489
 1498SOL    HW1 5393   2.273   5.341   0.465
 1498SOL    HW2 5394   2.137   5.270   0.406
 1499SOL     OW 5395   1.193   4.240   4.503
 1499SOL    HW1 5396   1.202   4.324   4.556
 1499SOL    HW2 5397   1.233   4.164   4.554
 1500SOL     OW 5398   4.095   6.781   5.347
 1500SOL    HW1 5399   4.052   6.706   5.397
 1500SOL    HW2 5400   4.156   6.743   5.277
 1501SOL     OW 5401   4.033   0.448   0.270
 1501SOL    HW1 5402   4.131   0.445   0.253
 1501SOL    HW2 5403   4.006   0.543   0.291
 1502SOL     OW 5404   6.952   6.094   6.684
 1502SOL    HW1 5405   6.997   6.063   6.600
 1502SOL    HW2 5406   6.872   6.149   6.661
 1503SOL     OW 5407   3.722   4.455   5.619
 1503SOL    HW1 5408   3.748   4.415   5.532
 1503SOL    HW2 5409   3.802   4.496   5.663
 1504SOL     OW 5410   2.523   6.468   4.345
 1504SOL    HW1 5411   2.579   6.480   4.263
 1504SOL    HW2 5412   2.579   6.483   4.426
 1505SOL     OW 5413   4.678   6.691   2.351
 1505SOL    HW1 5414   4.739   6.634   2.406
 1505SOL    HW2 5415   4.700   6.787   2.367
 1506SOL     OW 5416   0.969   6.881   3.245
 1506SOL    HW1 5417   1.044   6.816   3.262
 1506SOL    HW2 5418   0.892   6.859   3.306
 1507SOL     OW 5419   2.896   2.378   0.297
 1507SOL    HW1 5420   2.904   2.368   0.397
 1507SOL    HW2 5421   2.893   2.476   0.274
 1508SOL     OW 5422   4.659   6.957   1.034
 1508SOL    HW1 5423   4.626   0.003   1.103
 1508SOL    HW2 5424   4.610   6.972   0.948
 1509SOL     OW 5425   5.652   1.949   6.871
 1509SOL    HW1 5426   5.577   2.015   6.876
 1509SOL    HW2 5427   5.640   1.892   6.789
 1510SOL     OW 5428   6.799   2.112   2.925
 1510SOL    HW1 5429   6.746   2.196   2.938
 1510SOL    HW2 5430   6.736   2.034   2.919
 1511SOL     OW 5431   1.030   3.088   0.038
 1511SOL    HW1 5432   0.942   3.097   0.085
 1511SOL    HW2 5433   1.048   2.992   0.018
 1512SOL     OW 5434   6.434   1.291   1.897
 1512SOL    HW1 5435   6.344   1.252   1.880
 1512SOL    HW2 5436   6.476   1.318   1.810
 1513SOL     OW 5437   3.201   0.744   2.806
 1513SOL    HW1 5438   3.213   0.761   2.708
 1513SOL    HW2 5439   3.289   0.748   2.852
 1514SOL     OW 5440   4.598   0.465   5.906
 1514SOL    HW1 5441   4.664   0.409   5.956
 1514SOL    HW2 5442   4.609   0.560   5.933
 1515SOL     OW 5443   5.624   5.544   5.200
 1515SOL    HW1 5444   5.527   5.555   5.222
 1515SOL    HW2 5445   5.642   5.579   5.109
 1516SOL     OW 5446   0.674   1.283   0.745
 1516SOL    HW1 5447   0.641   1.338   0.821
 1516SOL    HW2 5448   0.610   1.208   0.728
 1517SOL     OW 5449   2.913   5.357   3.192
 1517SOL    HW1 5450   3.007   5.358   3.158
 1517SOL    HW2 5451   2.902   5.429   3.260
 1518SOL     OW 5452   0.769   4.556   0.812
 1518SOL    HW1 5453   0.848   4.499   0.836
 1518SOL    HW2 5454   0.741   4.536   0.718
 1519SOL     OW 5455   0.236   4.254   0.811
 1519SOL    HW1 5456   0.199   4.178   0.865
 1519SOL    HW2 5457   0.335   4.258   0.823
 1520SOL     OW 5458   1.500   2.445   3.051
 1520SOL    HW1 5459   1.415   2.401   3.024
 1520SOL    HW2 5460   1.492   2.544   3.039
 1521SOL     OW 5461   2.419   4.235   5.271
 1521SOL    HW1 5462   2.448   4.146   5.234
 1521SOL    HW2 5463   2.490   4.303   5.253
 1522SOL     OW 5464   1.126   2.117   6.331
 1522SOL    HW1 5465   1.126   2.019   6.310
 1522SOL    HW2 5466   1.065   2.134   6.409
 1523SOL     OW 5467   5.488   1.163   1.035
 1523SOL    HW1 5468   5.523   1.112   0.956
 1523SOL    HW2 5469   5.396   1.197   1.014
 1524SOL     OW 5470   6.638   1.020   1.918
 1524SOL    HW1 5471   6.685   1.093   1.868
 1524SOL    HW2 5472   6.696   0.939   1.921
 1525SOL     OW 5473   4.731   0.970   5.924
 1525SOL    HW1 5474   4.739   1.068   5.940
 1525SOL    HW2 5475   4.681   0.927   5.999
 1526SOL     OW 5476   6.359   0.982   6.974
 1526SOL    HW1 5477   6.389   1.019   0.045
 1526SOL    HW2 5478   6.329   1.058   6.916
 1527SOL     OW 5479   3.079   1.524   5.711
 1527SOL    HW1 5480   3.062   1.426   5.727
 1527SOL    HW2 5481   2.994   1.574   5.726
 1528SOL     OW 5482   5.787   5.316   3.717
 1528SOL    HW1 5483   5.863   5.315   3.782
 1528SOL    HW2 5484   5.701   5.317   3.767
 1529SOL     OW 5485   2.455   0.020   5.745
 1529SOL    HW1 5486   2.371   0.014   5.799
 1529SOL    HW2 5487   2.488   6.946   5.724
 1530SOL     OW 5488   2.442   6.583   1.372
 1530SOL    HW1 5489   2.499   6.612   1.449
 1530SOL    HW2 5490   2.372   6.519   1.403
 1531SOL     OW 5491   5.638   0.521   6.340
 1531SOL    HW1 5492   5.733   0.507   6.314
 1531SOL    HW2 5493   5.583   0.537   6.258
 1532SOL     OW 5494   3.073   2.567   5.386
 1532SOL    HW1 5495   3.118   2.534   5.303
 1532SOL    HW2 5496   3.023   2.650   5.366
 1533SOL     OW 5497   5.036   3.104   6.921
 1533SOL    HW1 5498   4.944   3.099   6.883
 1533SOL    HW2 5499   5.093   3.164   6.865
 1534SOL     OW 5500   6.528   0.277   1.960
 1534SOL    HW1 5501   6.491   0.366   1.934
 1534SOL    HW2 5502   6.457   0.225   2.008
 1535SOL     OW 5503   5.178   4.367   4.508
 1535SOL    HW1 5504   5.184   4.411   4.419
 1535SOL    HW2 5505   5.114   4.291   4.504
 1536SOL     OW 5506   3.161   5.697   2.790
 1536SOL    HW1 5507   3.241   5.730   2.741
 1536SOL    HW2 5508   3.078   5.726   2.742
 1537SOL     OW 5509   2.981   5.712   4.715
 1537SOL    HW1 5510   2.935   5.726   4.628
 1537SOL    HW2 5511   2.949   5.780   4.781
 1538SOL     OW 5512   3.650   5.423   6.481
 1538SOL    HW1 5513   3.586   5.449   6.553
 1538SOL    HW2 5514   3.682   5.506   6.434
 1539SOL     OW 5515   3.363   6.320   1.953
 1539SOL    HW1 5516   3.389   6.415   1.969
 1539SOL    HW2 5517   3.268   6.315   1.923
 1540SOL     OW 5518   5.892   6.914   5.152
 1540SOL    HW1 5519   5.946   6.885   5.231
 1540SOL    HW2 5520   5.892   7.014   5.147
 1541SOL     OW 5521   5.213   1.521   1.172
 1541SOL    HW1 5522   5.197   1.593   1.104
 1541SOL    HW2 5523   5.127   1.496   1.215
 1542SOL     OW 5524   0.077   6.103   0.775
 1542SOL    HW1 5525   0.069   6.082   0.872
 1542SOL    HW2 5526   7.006   6.087   0.730
 1543SOL     OW 5527   3.509   3.901   3.392
 1543SOL    HW1 5528   3.536   3.831   3.325
 1543SOL    HW2 5529   3.574   3.977   3.389
 1544SOL     OW 5530   3.441   3.141   2.393
 1544SOL    HW1 5531   3.445   3.056   2.340
 1544SOL    HW2 5532   3.473   3.124   2.486
 1545SOL     OW 5533   0.321   0.566   4.500
 1545SOL    HW1 5534   0.359   0.610   4.582
 1545SOL    HW2 5535   0.222   0.559   4.508
 1546SOL     OW 5536   6.479   6.541   6.443
 1546SOL    HW1 5537   6.389   6.549   6.402
 1546SOL    HW2 5538   6.470   6.537   6.543
 1547SOL     OW 5539   3.340   5.887   0.190
 1547SOL    HW1 5540   3.310   5.853   0.279
 1547SOL    HW2 5541   3.297   5.833   0.118
 1548SOL     OW 5542   6.065   3.906   3.665
 1548SOL    HW1 5543   6.022   3.945   3.746
 1548SOL    HW2 5544   6.011   3.828   3.632
 1549SOL     OW 5545   0.089   2.429   0.618
 1549SOL    HW1 5546   0.145   2.489   0.676
 1549SOL    HW2 5547   0.052   2.355   0.675
 1550SOL     OW 5548   2.394   5.165   2.657
 1550SOL    HW1 5549   2.354   5.249   2.621
 1550SOL    HW2 5550   2.491   5.163   2.637
 1551SOL     OW 5551   0.429   2.915   1.616
 1551SOL    HW1 5552   0.420   2.936   1.518
 1551SOL    HW2 5553   0.417   2.817   1.630
 1552SOL     OW 5554   0.950   6.620   2.181
 1552SOL    HW1 5555   1.021   6.613   2.251
 1552SOL    HW2 5556   0.988   6.668   2.101
 1553SOL     OW 5557   5.129   0.853   6.108
 1553SOL    HW1 5558   5.043   0.851   6.159
 1553SOL    HW2 5559   5.202   0.817   6.166
 1554SOL     OW 5560   2.638   2.402   1.040
 1554SOL    HW1 5561   2.632   2.308   1.072
 1554SOL    HW2 5562   2.733   2.434   1.045
 1555SOL     OW 5563   4.125   0.922   0.466
 1555SOL    HW1 5564   4.095   0.993   0.402
 1555SOL    HW2 5565   4.066   0.924   0.547
 1556SOL     OW 5566   3.803   2.015   0.380
 1556SOL    HW1 5567   3.720   2.018   0.324
 1556SOL    HW2 5568   3.832   1.920   0.392
 1557SOL     OW 5569   1.813   3.242   0.766
 1557SOL    HW1 5570   1.860   3.236   0.678
 1557SOL    HW2 5571   1.868   3.199   0.837
 1558SOL     OW 5572   5.139   2.816   6.441
 1558SOL    HW1 5573   5.054   2.825   6.390
 1558SOL    HW2 5574   5.119   2.794   6.536
 1559SOL     OW 5575   2.454   6.128   3.395
 1559SOL    HW1 5576   2.500   6.040   3.408
 1559SOL    HW2 5577   2.434   6.140   3.298
 1560SOL     OW 5578   4.057   2.665   1.082
 1560SOL    HW1 5579   4.044   2.746   1.024
 1560SOL    HW2 5580   4.058   2.583   1.026
 1561SOL     OW 5581   5.477   6.005   0.662
 1561SOL    HW1 5582   5.560   6.013   0.717
 1561SOL    HW2 5583   5.426   5.924   0.690
 1562SOL     OW 5584   3.222   0.428   2.479
 1562SOL    HW1 5585   3.144   0.476   2.438
 1562SOL    HW2 5586   3.302   0.488   2.478
 1563SOL     OW 5587   1.957   2.819   4.065
 1563SOL    HW1 5588   1.860   2.792   4.061
 1563SOL    HW2 5589   2.012   2.741   4.094
 1564SOL     OW 5590   0.700   1.546   2.845
 1564SOL    HW1 5591   0.600   1.556   2.843
 1564SOL    HW2 5592   0.739   1.609   2.912
 1565SOL     OW 5593   4.925   1.469   5.254
 1565SOL    HW1 5594   4.940   1.376   5.220
 1565SOL    HW2 5595   4.828   1.482   5.274
 1566SOL     OW 5596   6.867   3.778   3.693
 1566SOL    HW1 5597   6.919   3.700   3.728
 1566SOL    HW2 5598   6.913   3.863   3.720
 1567SOL     OW 5599   5.778   0.148   4.924
 1567SOL    HW1 5600   5.830   0.140   5.009
 1567SOL    HW2 5601   5.765   0.058   4.884
 1568SOL     OW 5602   2.513   5.013   1.302
 1568SOL    HW1 5603   2.455   5.039   1.225
 1568SOL    HW2 5604   2.542   4.918   1.291
 1569SOL     OW 5605   2.648   1.227   2.786
 1569SOL    HW1 5606   2.651   1.128   2.773
 1569SOL    HW2 5607   2.595   1.249   2.867
 1570SOL     OW 5608   2.905   5.876   6.450
 1570SOL    HW1 5609   2.863   5.818   6.380
 1570SOL    HW2 5610   3.001   5.850   6.462
 1571SOL     OW 5611   6.757   3.066   4.573
 1571SOL    HW1 5612   6.844   3.074   4.523
 1571SOL    HW2 5613   6.727   2.971   4.572
 1572SOL     OW 5614   2.301   5.886   3.137
 1572SOL    HW1 5615   2.273   5.881   3.233
 1572SOL    HW2 5616   2.353   5.970   3.121
 1573SOL     OW 5617   5.271   5.786   0.412
 1573SOL    HW1 5618   5.217   5.742   0.341
 1573SOL    HW2 5619   5.367   5.762   0.401
 1574SOL     OW 5620   1.105   4.417   3.012
 1574SOL    HW1 5621   1.068   4.361   2.938
 1574SOL    HW2 5622   1.034   4.432   3.081
 1575SOL     OW 5623   6.969   2.202   0.390
 1575SOL    HW1 5624   0.046   2.222   0.414
 1575SOL    HW2 5625   6.933   2.274   0.331
 1576SOL     OW 5626   1.931   5.376   1.902
 1576SOL    HW1 5627   1.974   5.425   1.978
 1576SOL    HW2 5628   1.839   5.347   1.929
 1577SOL     OW 5629   3.931   6.117   3.952
 1577SOL    HW1 5630   3.846   6.120   4.004
 1577SOL    HW2 5631   3.992   6.189   3.984
 1578SOL     OW 5632   5.006   1.494   1.509
 1578SOL    HW1 5633   5.088   1.437   1.505
 1578SOL    HW2 5634   5.004   1.546   1.595
 1579SOL     OW 5635   1.444   3.076   1.688
 1579SOL    HW1 5636   1.392   2.992   1.673
 1579SOL    HW2 5637   1.499   3.096   1.607
 1580SOL     OW 5638   2.959   3.423   3.031
 1580SOL    HW1 5639   2.908   3.450   2.950
 1580SOL    HW2 5640   2.918   3.465   3.112
 1581SOL     OW 5641   6.265   4.186   4.615
 1581SOL    HW1 5642   6.236   4.139   4.698
 1581SOL    HW2 5643   6.298   4.119   4.548
 1582SOL     OW 5644   5.253   5.811   4.852
 1582SOL    HW1 5645   5.170   5.860   4.881
 1582SOL    HW2 5646   5.255   5.806   4.753
 1583SOL     OW 5647   1.397   5.805   5.583
 1583SOL    HW1 5648   1.309   5.770   5.550
 1583SOL    HW2 5649   1.393   5.904   5.589
 1584SOL     OW 5650   0.319   3.911   0.573
 1584SOL    HW1 5651   0.357   3.828   0.532
 1584SOL    HW2 5652   0.222   3.897   0.592
 1585SOL     OW 5653   4.595   6.450   4.198
 1585SOL    HW1 5654   4.661   6.506   4.147
 1585SOL    HW2 5655   4.636   6.419   4.283
 1586SOL     OW 5656   2.849   5.749   3.055
 1586SOL    HW1 5657   2.778   5.720   2.990
 1586SOL    HW2 5658   2.823   5.837   3.096
 1587SOL     OW 5659   3.395   6.641   6.842
 1587SOL    HW1 5660   3.394   6.547   6.808
 1587SOL    HW2 5661   3.304   6.666   6.874
 1588SOL     OW 5662   6.320   2.024   3.032
 1588SOL    HW1 5663   6.340   2.031   3.130
 1588SOL    HW2 5664   6.242   1.963   3.018
 1589SOL     OW 5665   6.815   3.598   4.499
 1589SOL    HW1 5666   6.885   3.532   4.527
 1589SOL    HW2 5667   6.748   3.608   4.573
 1590SOL     OW 5668   6.108   0.962   3.275
 1590SOL    HW1 5669   6.054   1.046   3.284
 1590SOL    HW2 5670   6.116   0.917   3.364
 1591SOL     OW 5671   1.059   5.876   0.978
 1591SOL    HW1 5672   1.090   5.812   0.908
 1591SOL    HW2 5673   1.135   5.902   1.037
 1592SOL     OW 5674   0.323   3.509   5.911
 1592SOL    HW1 5675   0.332   3.567   5.831
 1592SOL    HW2 5676   0.229   3.476   5.919
 1593SOL     OW 5677   3.386   6.338   0.686
 1593SOL    HW1 5678   3.398   6.400   0.764
 1593SOL    HW2 5679   3.359   6.390   0.605
 1594SOL     OW 5680   5.312   0.741   2.687
 1594SOL    HW1 5681   5.402   0.737   2.643
 1594SOL    HW2 5682   5.299   0.660   2.743
 1595SOL     OW 5683   0.499   3.283   6.575
 1595SOL    HW1 5684   0.498   3.203   6.515
 1595SOL    HW2 5685   0.564   3.350   6.540
 1596SOL     OW 5686   4.892   4.651   3.597
 1596SOL    HW1 5687   4.974   4.693   3.636
 1596SOL    HW2 5688   4.917   4.566   3.550
 1597SOL     OW 5689   3.233   6.157   0.145
 1597SOL    HW1 5690   3.278   6.068   0.154
 1597SOL    HW2 5691   3.181   6.177   0.228
 1598SOL     OW 5692   1.072   4.569   6.171
 1598SOL    HW1 5693   1.110   4.617   6.092
 1598SOL    HW2 5694   1.145   4.518   6.217
 1599SOL     OW 5695   4.632   5.647   3.760
 1599SOL    HW1 5696   4.550   5.598   3.788
 1599SOL    HW2 5697   4.713   5.599   3.795
 1600SOL     OW 5698   4.208   0.935   1.403
 1600SOL    HW1 5699   4.189   0.960   1.498
 1600SOL    HW2 5700   4.165   0.847   1.382
 1601SOL     OW 5701   6.628   1.209   4.645
 1601SOL    HW1 5702   6.683   1.219   4.563
 1601SOL    HW2 5703   6.635   1.115   4.679
 1602SOL     OW 5704   4.601   5.841   3.948
 1602SOL    HW1 5705   4.656   5.925   3.950
 1602SOL    HW2 5706   4.632   5.784   3.871
 1603SOL     OW 5707   3.142   4.938   2.499
 1603SOL    HW1 5708   3.226   4.970   2.543
 1603SOL    HW2 5709   3.075   4.912   2.569
 1604SOL     OW 5710   4.577   4.961   3.005
 1604SOL    HW1 5711   4.622   4.905   3.074
 1604SOL    HW2 5712   4.638   5.035   2.977
 1605SOL     OW 5713   4.811   4.650   0.448
 1605SOL    HW1 5714   4.861   4.686   0.369
 1605SOL    HW2 5715   4.872   4.643   0.526
 1606SOL     OW 5716   3.163   5.961   4.921
 1606SOL    HW1 5717   3.064   5.955   4.926
 1606SOL    HW2 5718   3.204   5.885   4.971
 1607SOL     OW 5719   4.856   4.077   3.741
 1607SOL    HW1 5720   4.844   4.111   3.834
 1607SOL    HW2 5721   4.825   4.145   3.675
 1608SOL     OW 5722   5.565   2.264   3.480
 1608SOL    HW1 5723   5.563   2.275   3.580
 1608SOL    HW2 5724   5.606   2.175   3.458
 1609SOL     OW 5725   1.891   0.051   1.269
 1609SOL    HW1 5726   1.863   6.984   1.224
 1609SOL    HW2 5727   1.939   0.029   1.354
 1610SOL     OW 5728   5.686   6.713   0.791
 1610SOL    HW1 5729   5.698   6.807   0.823
 1610SOL    HW2 5730   5.627   6.713   0.710
 1611SOL     OW 5731   1.505   4.215   6.945
 1611SOL    HW1 5732   1.595   4.205   6.903
 1611SOL    HW2 5733   1.460   4.125   6.950
 1612SOL     OW 5734   4.163   1.156   2.294
 1612SOL    HW1 5735   4.124   1.201   2.374
 1612SOL    HW2 5736   4.238   1.212   2.258
 1613SOL     OW 5737   6.925   5.444   2.569
 1613SOL    HW1 5738   6.962   5.458   2.661
 1613SOL    HW2 5739   6.984   5.382   2.519
 1614SOL     OW 5740   6.578   1.716   5.986
 1614SOL    HW1 5741   6.493   1.747   6.029
 1614SOL    HW2 5742   6.605   1.628   6.025
 1615SOL     OW 5743   6.955   3.798   5.534
 1615SOL    HW1 5744   6.887   3.798   5.608
 1615SOL    HW2 5745   6.943   3.879   5.477
 1616SOL     OW 5746   0.320   0.594   4.053
 1616SOL    HW1 5747   0.396   0.554   4.103
 1616SOL    HW2 5748   0.279   0.668   4.108
 1617SOL     OW 5749   6.615   5.660   3.730
 1617SOL    HW1 5750   6.680   5.706   3.791
 1617SOL    HW2 5751   6.523   5.698   3.744
 1618SOL     OW 5752   3.471   5.349   2.783
 1618SOL    HW1 5753   3.566   5.353   2.752
 1618SOL    HW2 5754   3.418   5.294   2.718
 1619SOL     OW 5755   0.969   4.486   6.436
 1619SOL    HW1 5756   0.998   4.392   6.449
 1619SOL    HW2 5757   0.935   4.498   6.343
 1620SOL     OW 5758   3.438   6.601   4.241
 1620SOL    HW1 5759   3.348   6.641   4.254
 1620SOL    HW2 5760   3.429   6.508   4.207
 1621SOL     OW 5761   4.847   5.615   0.719
 1621SOL    HW1 5762   4.764   5.642   0.671
 1621SOL    HW2 5763   4.864   5.679   0.794
 1622SOL     OW 5764   6.300   4.408   4.123
 1622SOL    HW1 5765   6.245   4.337   4.080
 1622SOL    HW2 5766   6.255   4.496   4.113
 1623SOL     OW 5767   0.369   2.392   3.117
 1623SOL    HW1 5768   0.346   2.411   3.212
 1623SOL    HW2 5769   0.370   2.293   3.102
 1624SOL     OW 5770   3.751   3.301   0.767
 1624SOL    HW1 5771   3.669   3.245   0.783
 1624SOL    HW2 5772   3.799   3.266   0.686
 1625SOL     OW 5773   0.476   6.836   0.592
 1625SOL    HW1 5774   0.537   6.826   0.513
 1625SOL    HW2 5775   0.523   6.886   0.665
 1626SOL     OW 5776   2.514   1.813   1.682
 1626SOL    HW1 5777   2.541   1.769   1.768
 1626SOL    HW2 5778   2.575   1.782   1.609
 1627SOL     OW 5779   3.874   2.306   6.078
 1627SOL    HW1 5780   3.807   2.376   6.105
 1627SOL    HW2 5781   3.893   2.247   6.157
 1628SOL     OW 5782   5.382   0.041   0.937
 1628SOL    HW1 5783   5.391   6.963   0.908
 1628SOL    HW2 5784   5.326   0.045   1.020
 1629SOL     OW 5785   1.248   0.257   3.848
 1629SOL    HW1 5786   1.274   0.221   3.759
 1629SOL    HW2 5787   1.237   0.181   3.913
 1630SOL     OW 5788   0.521   3.573   6.115
 1630SOL    HW1 5789   0.441   3.561   6.056
 1630SOL    HW2 5790   0.602   3.593   6.060
 1631SOL     OW 5791   6.060   3.431   0.617
 1631SOL    HW1 5792   6.038   3.525   0.589
 1631SOL    HW2 5793   5.995   3.401   0.687
 1632SOL     OW 5794   6.284   5.717   2.386
 1632SOL    HW1 5795   6.223   5.747   2.459
 1632SOL    HW2 5796   6.252   5.630   2.349
 1633SOL     OW 5797   5.409   3.548   4.532
 1633SOL    HW1 5798   5.343   3.478   4.556
 1633SOL    HW2 5799   5.361   3.629   4.497
 1634SOL     OW 5800   0.628   3.121   6.201
 1634SOL    HW1 5801   0.616   3.217   6.174
 1634SOL    HW2 5802   0.608   3.061   6.124
 1635SOL     OW 5803   3.256   6.833   3.665
 1635SOL    HW1 5804   3.157   6.820   3.675
 1635SOL    HW2 5805   3.284   6.914   3.717
 1636SOL     OW 5806   6.469   5.669   0.930
 1636SOL    HW1 5807   6.370   5.655   0.938
 1636SOL    HW2 5808   6.487   5.749   0.874
 1637SOL     OW 5809   1.426   1.224   2.572
 1637SOL    HW1 5810   1.451   1.157   2.503
 1637SOL    HW2 5811   1.508   1.271   2.605
 1638SOL     OW 5812   5.310   2.351   2.168
 1638SOL    HW1 5813   5.222   2.362   2.122
 1638SOL    HW2 5814   5.296   2.352   2.267
 1639SOL     OW 5815   5.055   2.331   2.019
 1639SOL    HW1 5816   5.060   2.430   2.006
 1639SOL    HW2 5817   5.061   2.286   1.929
 1640SOL     OW 5818   5.897   0.971   6.751
 1640SOL    HW1 5819   5.799   0.990   6.755
 1640SOL    HW2 5820   5.912   0.872   6.750
 1641SOL     OW 5821   6.191   1.778   2.871
 1641SOL    HW1 5822   6.246   1.717   2.927
 1641SOL    HW2 5823   6.122   1.725   2.821
 1642SOL     OW 5824   6.944   3.393   6.135
 1642SOL    HW1 5825   6.916   3.443   6.053
 1642SOL    HW2 5826   6.941   3.295   6.116
 1643SOL     OW 5827   2.009   5.334   4.055
 1643SOL    HW1 5828   1.938   5.270   4.085
 1643SOL    HW2 5829   1.983   5.427   4.078
 1644SOL     OW 5830   6.594   2.149   1.661
 1644SOL    HW1 5831   6.505   2.178   1.694
 1644SOL    HW2 5832   6.666   2.191   1.716
 1645SOL     OW 5833   2.436   0.692   5.048
 1645SOL    HW1 5834   2.483   0.678   4.961
 1645SOL    HW2 5835   2.355   0.633   5.052
 1646SOL     OW 5836   1.158   5.196   1.354
 1646SOL    HW1 5837   1.070   5.159   1.322
 1646SOL    HW2 5838   1.229   5.173   1.287
 1647SOL     OW 5839   5.954   2.927   4.685
 1647SOL    HW1 5840   5.938   3.015   4.728
 1647SOL    HW2 5841   6.052   2.908   4.682
 1648SOL     OW 5842   5.909   6.013   1.885
 1648SOL    HW1 5843   5.857   5.930   1.904
 1648SOL    HW2 5844   5.969   5.998   1.807
 1649SOL     OW 5845   3.770   1.595   3.357
 1649SOL    HW1 5846   3.718   1.659   3.413
 1649SOL    HW2 5847   3.719   1.574   3.273
 1650SOL     OW 5848   3.291   3.593   5.720
 1650SOL    HW1 5849   3.240   3.656   5.780
 1650SOL    HW2 5850   3.259   3.604   5.626
 1651SOL     OW 5851   1.006   2.120   3.496
 1651SOL    HW1 5852   0.990   2.193   3.429
 1651SOL    HW2 5853   1.077   2.058   3.462
 1652SOL     OW 5854   0.613   3.646   1.596
 1652SOL    HW1 5855   0.704   3.666   1.558
 1652SOL    HW2 5856   0.569   3.731   1.624
 1653SOL     OW 5857   0.469   4.707   2.071
 1653SOL    HW1 5858   0.383   4.659   2.088
 1653SOL    HW2 5859   0.488   4.707   1.973
 1654SOL     OW 5860   0.476   3.542   1.842
 1654SOL    HW1 5861   0.501   3.572   1.750
 1654SOL    HW2 5862   0.557   3.510   1.890
 1655SOL     OW 5863   0.460   0.824   5.829
 1655SOL    HW1 5864   0.402   0.747   5.854
 1655SOL    HW2 5865   0.523   0.845   5.904
 1656SOL     OW 5866   2.141   3.859   3.249
 1656SOL    HW1 5867   2.159   3.869   3.151
 1656SOL    HW2 5868   2.203   3.918   3.301
 1657SOL     OW 5869   0.391   0.122   5.783
 1657SOL    HW1 5870   0.459   0.071   5.731
 1657SOL    HW2 5871   0.300   0.084   5.764
 1658SOL     OW 5872   5.028   6.510   6.127
 1658SOL    HW1 5873   5.052   6.420   6.162
 1658SOL    HW2 5874   5.031   6.509   6.027
 1659SOL     OW 5875   4.325   6.753   5.726
 1659SOL    HW1 5876   4.263   6.798   5.662
 1659SOL    HW2 5877   4.300   6.777   5.820
 1660SOL     OW 5878   2.284   0.686   1.964
 1660SOL    HW1 5879   2.252   0.746   2.038
 1660SOL    HW2 5880   2.226   0.605   1.961
 1661SOL     OW 5881   4.858   4.117   2.901
 1661SOL    HW1 5882   4.856   4.020   2.877
 1661SOL    HW2 5883   4.803   4.168   2.836
 1662SOL     OW 5884   0.057   1.964   3.758
 1662SOL    HW1 5885   6.983   1.943   3.723
 1662SOL    HW2 5886   0.050   1.994   3.853
 1663SOL     OW 5887   4.954   4.390   1.133
 1663SOL    HW1 5888   4.900   4.456   1.184
 1663SOL    HW2 5889   5.027   4.438   1.083
 1664SOL     OW 5890   1.808   0.324   6.117
 1664SOL    HW1 5891   1.759   0.264   6.180
 1664SOL    HW2 5892   1.866   0.386   6.169
 1665SOL     OW 5893   2.780   4.559   6.758
 1665SOL    HW1 5894   2.879   4.565   6.746
 1665SOL    HW2 5895   2.754   4.464   6.780
 1666SOL     OW 5896   4.786   6.525   6.306
 1666SOL    HW1 5897   4.769   6.621   6.329
 1666SOL    HW2 5898   4.870   6.518   6.253
 1667SOL     OW 5899   0.015   5.499   0.538
 1667SOL    HW1 5900   6.989   5.426   0.590
 1667SOL    HW2 5901   6.986   5.509   0.450
 1668SOL     OW 5902   5.801   3.258   2.245
 1668SOL    HW1 5903   5.752   3.249   2.332
 1668SOL    HW2 5904   5.868   3.331   2.253
 1669SOL     OW 5905   6.662   3.158   5.472
 1669SOL    HW1 5906   6.687   3.081   5.414
 1669SOL    HW2 5907   6.572   3.142   5.513
 1670SOL     OW 5908   2.750   4.552   5.801
 1670SOL    HW1 5909   2.771   4.559   5.704
 1670SOL    HW2 5910   2.684   4.623   5.826
 1671SOL     OW 5911   6.105   2.549   0.621
 1671SOL    HW1 5912   6.086   2.591   0.710
 1671SOL    HW2 5913   6.200   2.566   0.596
 1672SOL     OW 5914   0.319   2.395   1.296
 1672SOL    HW1 5915   0.272   2.455   1.232
 1672SOL    HW2 5916   0.330   2.442   1.384
 1673SOL     OW 5917   1.164   0.558   4.499
 1673SOL    HW1 5918   1.176   0.458   4.500
 1673SOL    HW2 5919   1.221   0.599   4.571
 1674SOL     OW 5920   5.050   2.125   2.595
 1674SOL    HW1 5921   5.007   2.208   2.631
 1674SOL    HW2 5922   4.981   2.071   2.546
 1675SOL     OW 5923   5.039   0.436   1.912
 1675SOL    HW1 5924   5.064   0.449   2.008
 1675SOL    HW2 5925   4.956   0.381   1.906
 1676SOL     OW 5926   1.030   2.149   3.770
 1676SOL    HW1 5927   1.045   2.127   3.674
 1676SOL    HW2 5928   1.116   2.142   3.820
 1677SOL     OW 5929   3.549   3.128   2.946
 1677SOL    HW1 5930   3.478   3.196   2.931
 1677SOL    HW2 5931   3.508   3.046   2.986
 1678SOL     OW 5932   1.466   0.490   0.425
 1678SOL    HW1 5933   1.400   0.427   0.466
 1678SOL    HW2 5934   1.509   0.446   0.346
 1679SOL     OW 5935   6.498   1.188   6.696
 1679SOL    HW1 5936   6.469   1.093   6.681
 1679SOL    HW2 5937   6.438   1.249   6.645
 1680SOL     OW 5938   5.417   2.541   3.123
 1680SOL    HW1 5939   5.367   2.600   3.059
 1680SOL    HW2 5940   5.442   2.456   3.076
 1681SOL     OW 5941   3.727   6.330   4.600
 1681SOL    HW1 5942   3.755   6.404   4.538
 1681SOL    HW2 5943   3.803   6.306   4.660
 1682SOL     OW 5944   3.879   0.284   4.593
 1682SOL    HW1 5945   3.869   0.188   4.619
 1682SOL    HW2 5946   3.901   0.338   4.674
 1683SOL     OW 5947   6.690   2.958   2.949
 1683SOL    HW1 5948   6.663   3.051   2.925
 1683SOL    HW2 5949   6.762   2.927   2.886
 1684SOL     OW 5950   2.669   4.968   1.793
 1684SOL    HW1 5951   2.746   4.925   1.841
 1684SOL    HW2 5952   2.585   4.917   1.811
 1685SOL     OW 5953   6.803   1.445   5.504
 1685SOL    HW1 5954   6.864   1.524   5.503
 1685SOL    HW2 5955   6.708   1.477   5.506
 1686SOL     OW 5956   4.136   5.361   2.425
 1686SOL    HW1 5957   4.047   5.370   2.470
 1686SOL    HW2 5958   4.206   5.341   2.494
 1687SOL     OW 5959   4.914   4.604   0.884
 1687SOL    HW1 5960   4.830   4.577   0.837
 1687SOL    HW2 5961   4.890   4.656   0.966
 1688SOL     OW 5962   1.851   0.140   3.312
 1688SOL    HW1 5963   1.826   0.159   3.407
 1688SOL    HW2 5964   1.838   0.223   3.258
 1689SOL     OW 5965   4.326   0.680   1.564
 1689SOL    HW1 5966   4.271   0.657   1.644
 1689SOL    HW2 5967   4.278   0.651   1.481
 1690SOL     OW 5968   6.727   4.780   3.971
 1690SOL    HW1 5969   6.641   4.829   3.961
 1690SOL    HW2 5970   6.712   4.693   4.018
 1691SOL     OW 5971   4.180   2.745   5.387
 1691SOL    HW1 5972   4.278   2.766   5.377
 1691SOL    HW2 5973   4.148   2.692   5.309
 1692SOL     OW 5974   5.142   4.876   1.524
 1692SOL    HW1 5975   5.108   4.969   1.540
 1692SOL    HW2 5976   5.225   4.879   1.468
 1693SOL     OW 5977   5.208   6.758   6.011
 1693SOL    HW1 5978   5.189   6.751   5.913
 1693SOL    HW2 5979   5.287   6.699   6.033
 1694SOL     OW 5980   4.714   1.603   6.166
 1694SOL    HW1 5981   4.734   1.687   6.216
 1694SOL    HW2 5982   4.763   1.526   6.208
 1695SOL     OW 5983   3.832   0.281   5.446
 1695SOL    HW1 5984   3.774   0.290   5.366
 1695SOL    HW2 5985   3.823   0.189   5.485
 1696SOL     OW 5986   4.291   6.699   0.773
 1696SOL    HW1 5987   4.390   6.686   0.777
 1696SOL    HW2 5988   4.268   6.755   0.694
 1697SOL     OW 5989   4.661   2.767   1.826
 1697SOL    HW1 5990   4.689   2.692   1.886
 1697SOL    HW2 5991   4.671   2.853   1.875
 1698SOL     OW 5992   4.404   1.588   1.324
 1698SOL    HW1 5993   4.339   1.664   1.327
 1698SOL    HW2 5994   4.436   1.568   1.416
 1699SOL     OW 5995   1.958   0.323   0.573
 1699SOL    HW1 5996   1.901   0.405   0.567
 1699SOL    HW2 5997   1.987   0.309   0.667
 1700SOL     OW 5998   5.247   3.067   2.942
 1700SOL    HW1 5999   5.228   3.165   2.955
 1700SOL    HW2 6000   5.303   3.055   2.860
 1701SOL     OW 6001   0.300   5.888   5.150
 1701SOL    HW1 6002   0.333   5.948   5.078
 1701SOL    HW2 6003   0.208   5.916   5.177
 1702SOL     OW 6004   2.379   3.032   6.919
 1702SOL    HW1 6005   2.352   2.962   6.985
 1702SOL    HW2 6006   2.367   2.997   6.826
 1703SOL     OW 6007   1.318   1.991   1.997
 1703SOL    HW1 6008   1.339   1.917   2.062
 1703SOL    HW2 6009   1.383   1.989   1.921
 1704SOL     OW 6010   2.655   2.810   6.856
 1704SOL    HW1 6011   2.748   2.786   6.884
 1704SOL    HW2 6012   2.608   2.856   6.931
 1705SOL     OW 6013   4.614   3.288   0.508
 1705SOL    HW1 6014   4.711   3.262   0.513
 1705SOL    HW2 6015   4.606   3.383   0.480
 1706SOL     OW 6016   6.305   1.977   6.637
 1706SOL    HW1 6017   6.307   2.042   6.713
 1706SOL    HW2 6018   6.221   1.923   6.642
 1707SOL     OW 6019   3.937   1.180   2.100
 1707SOL    HW1 6020   3.938   1.256   2.035
 1707SOL    HW2 6021   4.031   1.156   2.124
 1708SOL     OW 6022   2.928   4.833   1.991
 1708SOL    HW1 6023   2.884   4.745   1.970
 1708SOL    HW2 6024   2.976   4.826   2.078
 1709SOL     OW 6025   5.065   4.884   0.749
 1709SOL    HW1 6026   5.151   4.898   0.800
 1709SOL    HW2 6027   4.988   4.913   0.806
 1710SOL     OW 6028   4.942   3.519   2.508
 1710SOL    HW1 6029   5.037   3.505   2.480
 1710SOL    HW2 6030   4.903   3.596   2.458
 1711SOL     OW 6031   4.014   5.670   0.213
 1711SOL    HW1 6032   3.925   5.709   0.190
 1711SOL    HW2 6033   4.002   5.593   0.275
 1712SOL     OW 6034   0.651   1.668   1.961
 1712SOL    HW1 6035   0.680   1.579   1.995
 1712SOL    HW2 6036   0.665   1.671   1.862
 1713SOL     OW 6037   2.955   1.619   2.702
 1713SOL    HW1 6038   2.924   1.528   2.673
 1713SOL    HW2 6039   2.895   1.652   2.774
 1714SOL     OW 6040   2.836   4.095   1.070
 1714SOL    HW1 6041   2.873   4.034   1.000
 1714SOL    HW2 6042   2.896   4.175   1.078
 1715SOL     OW 6043   0.941   6.284   1.015
 1715SOL    HW1 6044   0.940   6.235   0.928
 1715SOL    HW2 6045   0.926   6.382   0.999
 1716SOL     OW 6046   4.173   1.205   2.781
 1716SOL    HW1 6047   4.237   1.263   2.731
 1716SOL    HW2 6048   4.223   1.126   2.818
 1717SOL     OW 6049   3.627   6.150   3.630
 1717SOL    HW1 6050   3.574   6.153   3.715
 1717SOL    HW2 6051   3.572   6.110   3.557
 1718SOL     OW 6052   1.582   3.254   1.497
 1718SOL    HW1 6053   1.638   3.333   1.520
 1718SOL    HW2 6054   1.518   3.279   1.424
 1719SOL     OW 6055   1.516   5.560   2.806
 1719SOL    HW1 6056   1.577   5.635   2.778
 1719SOL    HW2 6057   1.441   5.551   2.740
 1720SOL     OW 6058   0.728   3.396   5.289
 1720SOL    HW1 6059   0.762   3.314   5.242
 1720SOL    HW2 6060   0.764   3.477   5.243
 1721SOL     OW 6061   1.759   2.814   0.334
 1721SOL    HW1 6062   1.856   2.792   0.345
 1721SOL    HW2 6063   1.704   2.752   0.390
 1722SOL     OW 6064   2.417   2.237   3.794
 1722SOL    HW1 6065   2.481   2.310   3.770
 1722SOL    HW2 6066   2.356   2.219   3.717
 1723SOL     OW 6067   5.631   4.353   1.326
 1723SOL    HW1 6068   5.645   4.362   1.424
 1723SOL    HW2 6069   5.593   4.439   1.290
 1724SOL     OW 6070   5.008   2.464   1.001
 1724SOL    HW1 6071   4.997   2.447   1.098
 1724SOL    HW2 6072   4.923   2.502   0.964
 1725SOL     OW 6073   2.028   6.814   5.986
 1725SOL    HW1 6074   2.070   6.864   5.910
 1725SOL    HW2 6075   2.060   6.854   6.072
 1726SOL     OW 6076   5.079   4.427   2.725
 1726SOL    HW1 6077   4.989   4.429   2.681
 1726SOL    HW2 6078   5.068   4.447   2.823
 1727SOL     OW 6079   3.178   3.897   2.702
 1727SOL    HW1 6080   3.114   3.929   2.632
 1727SOL    HW2 6081   3.165   3.950   2.786
 1728SOL     OW 6082   6.044   2.325   4.027
 1728SOL    HW1 6083   6.032   2.377   4.111
 1728SOL    HW2 6084   6.064   2.230   4.049
 1729SOL     OW 6085   1.440   2.398   2.362
 1729SOL    HW1 6086   1.529   2.383   2.317
 1729SOL    HW2 6087   1.379   2.322   2.340
 1730SOL     OW 6088   2.263   6.517   4.569
 1730SOL    HW1 6089   2.360   6.527   4.543
 1730SOL    HW2 6090   2.209   6.497   4.487
 1731SOL     OW 6091   4.789   4.783   3.997
 1731SOL    HW1 6092   4.710   4.744   3.951
 1731SOL    HW2 6093   4.769   4.793   4.095
 1732SOL     OW 6094   2.796   3.513   5.197
 1732SOL    HW1 6095   2.786   3.452   5.276
 1732SOL    HW2 6096   2.831   3.462   5.119
 1733SOL     OW 6097   1.685   2.824   6.325
 1733SOL    HW1 6098   1.722   2.775   6.404
 1733SOL    HW2 6099   1.644   2.760   6.261
 1734SOL     OW 6100   6.913   2.896   0.952
 1734SOL    HW1 6101   6.870   2.970   1.004
 1734SOL    HW2 6102   6.842   2.835   0.917
 1735SOL     OW 6103   3.570   5.187   6.348
 1735SOL    HW1 6104   3.588   5.271   6.400
 1735SOL    HW2 6105   3.655   5.135   6.338
 1736SOL     OW 6106   5.271   2.405   6.531
 1736SOL    HW1 6107   5.185   2.376   6.491
 1736SOL    HW2 6108   5.341   2.335   6.517
 1737SOL     OW 6109   3.129   0.925   5.754
 1737SOL    HW1 6110   3.059   0.986   5.716
 1737SOL    HW2 6111   3.086   0.861   5.818
 1738SOL     OW 6112   1.665   3.541   2.142
 1738SOL    HW1 6113   1.720   3.472   2.189
 1738SOL    HW2 6114   1.701   3.632   2.164
 1739SOL     OW 6115   5.192   6.368   3.141
 1739SOL    HW1 6116   5.287   6.394   3.123
 1739SOL    HW2 6117   5.137   6.382   3.059
 1740SOL     OW 6118   6.731   3.266   4.744
 1740SOL    HW1 6119   6.743   3.193   4.677
 1740SOL    HW2 6120   6.661   3.329   4.712
 1741SOL     OW 6121   0.924   2.266   5.048
 1741SOL    HW1 6122   0.862   2.207   5.100
 1741SOL    HW2 6123   0.946   2.347   5.102
 1742SOL     OW 6124   6.689   6.590   6.984
 1742SOL    HW1 6125   6.635   6.534   0.029
 1742SOL    HW2 6126   6.753   6.532   6.935
 1743SOL     OW 6127   1.767   2.434   2.009
 1743SOL    HW1 6128   1.858   2.462   1.979
 1743SOL    HW2 6129   1.719   2.390   1.933
 1744SOL     OW 6130   3.645   2.343   5.660
 1744SOL    HW1 6131   3.573   2.313   5.723
 1744SOL    HW2 6132   3.618   2.319   5.567
 1745SOL     OW 6133   6.753   6.249   1.034
 1745SOL    HW1 6134   6.678   6.231   1.098
 1745SOL    HW2 6135   6.775   6.346   1.035
 1746SOL     OW 6136   2.543   4.584   3.234
 1746SOL    HW1 6137   2.500   4.512   3.288
 1746SOL    HW2 6138   2.534   4.564   3.137
 1747SOL     OW 6139   4.013   6.876   2.206
 1747SOL    HW1 6140   4.074   6.865   2.128
 1747SOL    HW2 6141   4.044   6.953   2.262
 1748SOL     OW 6142   6.950   2.147   4.582
 1748SOL    HW1 6143   6.893   2.211   4.530
 1748SOL    HW2 6144   6.967   2.065   4.526
 1749SOL     OW 6145   6.650   5.615   1.419
 1749SOL    HW1 6146   6.713   5.570   1.356
 1749SOL    HW2 6147   6.662   5.578   1.511
 1750SOL     OW 6148   3.287   0.885   0.633
 1750SOL    HW1 6149   3.353   0.939   0.581
 1750SOL    HW2 6150   3.204   0.939   0.648
 1751SOL     OW 6151   5.306   3.344   4.859
 1751SOL    HW1 6152   5.327   3.428   4.909
 1751SOL    HW2 6153   5.277   3.367   4.766
 1752SOL     OW 6154   0.245   0.977   2.401
 1752SOL    HW1 6155   0.269   0.928   2.317
 1752SOL    HW2 6156   0.150   0.956   2.425
 1753SOL     OW 6157   0.188   1.584   1.324
 1753SOL    HW1 6158   0.213   1.610   1.230
 1753SOL    HW2 6159   0.088   1.578   1.331
 1754SOL     OW 6160   3.182   5.242   3.449
 1754SOL    HW1 6161   3.098   5.281   3.410
 1754SOL    HW2 6162   3.253   5.240   3.379
 1755SOL     OW 6163   6.496   0.384   5.380
 1755SOL    HW1 6164   6.408   0.399   5.425
 1755SOL    HW2 6165   6.554   0.464   5.391
 1756SOL     OW 6166   4.603   6.047   0.816
 1756SOL    HW1 6167   4.615   6.102   0.733
 1756SOL    HW2 6168   4.505   6.043   0.839
 1757SOL     OW 6169   2.689   4.813   5.170
 1757SOL    HW1 6170   2.702   4.804   5.269
 1757SOL    HW2 6171   2.744   4.744   5.123
 1758SOL     OW 6172   1.379   6.332   3.798
 1758SOL    HW1 6173   1.431   6.320   3.883
 1758SOL    HW2 6174   1.310   6.403   3.812
 1759SOL     OW 6175   1.147   5.723   0.311
 1759SOL    HW1 6176   1.055   5.762   0.320
 1759SOL    HW2 6177   1.143   5.625   0.331
 1760SOL     OW 6178   6.540   1.651   4.905
 1760SOL    HW1 6179   6.505   1.733   4.949
 1760SOL    HW2 6180   6.467   1.607   4.853
 1761SOL     OW 6181   5.243   1.099   3.174
 1761SOL    HW1 6182   5.252   1.174   3.240
 1761SOL    HW2 6183   5.332   1.055   3.161
 1762SOL     OW 6184   0.795   1.524   5.562
 1762SOL    HW1 6185   0.884   1.527   5.607
 1762SOL    HW2 6186   0.797   1.582   5.481
 1763SOL     OW 6187   1.308   5.377   3.576
 1763SOL    HW1 6188   1.357   5.397   3.661
 1763SOL    HW2 6189   1.217   5.417   3.580
 1764SOL     OW 6190   0.776   6.172   3.488
 1764SOL    HW1 6191   0.772   6.256   3.543
 1764SOL    HW2 6192   0.711   6.179   3.412
 1765SOL     OW 6193   5.457   4.058   1.965
 1765SOL    HW1 6194   5.418   4.149   1.949
 1765SOL    HW2 6195   5.391   3.988   1.939
 1766SOL     OW 6196   4.685   4.542   4.343
 1766SOL    HW1 6197   4.775   4.576   4.372
 1766SOL    HW2 6198   4.683   4.442   4.351
 1767SOL     OW 6199   0.322   5.085   1.420
 1767SOL    HW1 6200   0.372   5.167   1.450
 1767SOL    HW2 6201   0.265   5.053   1.495
 1768SOL     OW 6202   4.698   4.363   2.449
 1768SOL    HW1 6203   4.683   4.323   2.359
 1768SOL    HW2 6204   4.622   4.422   2.473
 1769SOL     OW 6205   5.192   0.290   1.104
 1769SOL    HW1 6206   5.227   0.202   1.134
 1769SOL    HW2 6207   5.206   0.358   1.176
 1770SOL     OW 6208   1.834   5.133   0.284
 1770SOL    HW1 6209   1.771   5.174   0.219
 1770SOL    HW2 6210   1.858   5.040   0.254
 1771SOL     OW 6211   1.777   3.465   6.011
 1771SOL    HW1 6212   1.678   3.458   6.023
 1771SOL    HW2 6213   1.815   3.527   6.079
 1772SOL     OW 6214   1.835   3.725   2.859
 1772SOL    HW1 6215   1.764   3.654   2.859
 1772SOL    HW2 6216   1.793   3.814   2.876
 1773SOL     OW 6217   2.118   6.051   6.039
 1773SOL    HW1 6218   2.214   6.064   6.062
 1773SOL    HW2 6219   2.067   6.025   6.121
 1774SOL     OW 6220   5.648   5.870   1.402
 1774SOL    HW1 6221   5.572   5.919   1.444
 1774SOL    HW2 6222   5.724   5.863   1.466
 1775SOL     OW 6223   1.884   5.672   0.674
 1775SOL    HW1 6224   1.792   5.686   0.637
 1775SOL    HW2 6225   1.947   5.649   0.599
 1776SOL     OW 6226   4.497   3.128   5.987
 1776SOL    HW1 6227   4.512   3.180   6.071
 1776SOL    HW2 6228   4.565   3.155   5.919
 1777SOL     OW 6229   4.413   6.504   0.025
 1777SOL    HW1 6230   4.427   6.569   0.099
 1777SOL    HW2 6231   4.494   6.503   6.984
 1778SOL     OW 6232   6.023   0.245   4.025
 1778SOL    HW1 6233   5.947   0.179   4.025
 1778SOL    HW2 6234   6.088   0.220   3.952
 1779SOL     OW 6235   5.665   0.597   4.659
 1779SOL    HW1 6236   5.672   0.498   4.665
 1779SOL    HW2 6237   5.755   0.635   4.637
 1780SOL     OW 6238   2.432   6.040   5.568
 1780SOL    HW1 6239   2.523   6.079   5.583
 1780SOL    HW2 6240   2.442   5.952   5.520
 1781SOL     OW 6241   3.678   0.743   5.589
 1781SOL    HW1 6242   3.625   0.697   5.661
 1781SOL    HW2 6243   3.771   0.758   5.622
 1782SOL     OW 6244   4.941   1.042   2.474
 1782SOL    HW1 6245   4.910   0.978   2.404
 1782SOL    HW2 6246   5.012   0.999   2.530
 1783SOL     OW 6247   1.829   4.421   6.617
 1783SOL    HW1 6248   1.912   4.388   6.661
 1783SOL    HW2 6249   1.809   4.365   6.537
 1784SOL     OW 6250   2.580   6.231   1.393
 1784SOL    HW1 6251   2.522   6.283   1.456
 1784SOL    HW2 6252   2.640   6.295   1.343
 1785SOL     OW 6253   1.361   6.456   4.895
 1785SOL    HW1 6254   1.349   6.410   4.983
 1785SOL    HW2 6255   1.306   6.408   4.826
 1786SOL     OW 6256   0.326   6.079   1.801
 1786SOL    HW1 6257   0.238   6.078   1.753
 1786SOL    HW2 6258   0.384   6.151   1.763
 1787SOL     OW 6259   1.891   2.800   5.837
 1787SOL    HW1 6260   1.833   2.746   5.775
 1787SOL    HW2 6261   1.968   2.837   5.786
 1788SOL     OW 6262   3.977   3.714   0.391
 1788SOL    HW1 6263   3.909   3.656   0.347
 1788SOL    HW2 6264   4.063   3.708   0.340
 1789SOL     OW 6265   5.748   3.023   1.962
 1789SOL    HW1 6266   5.717   3.006   1.869
 1789SOL    HW2 6267   5.757   3.121   1.978
 1790SOL     OW 6268   1.712   2.382   4.990
 1790SOL    HW1 6269   1.788   2.392   4.927
 1790SOL    HW2 6270   1.660   2.468   4.995
 1791SOL     OW 6271   4.909   0.448   3.648
 1791SOL    HW1 6272   4.862   0.385   3.587
 1791SOL    HW2 6273   4.846   0.520   3.678
 1792SOL     OW 6274   6.758   2.374   6.591
 1792SOL    HW1 6275   6.685   2.313   6.564
 1792SOL    HW2 6276   6.844   2.323   6.600
 1793SOL     OW 6277   6.605   2.053   5.204
 1793SOL    HW1 6278   6.628   2.135   5.256
 1793SOL    HW2 6279   6.650   2.057   5.115
 1794SOL     OW 6280   0.408   1.410   6.557
 1794SOL    HW1 6281   0.462   1.460   6.625
 1794SOL    HW2 6282   0.460   1.330   6.526
 1795SOL     OW 6283   5.388   5.119   0.997
 1795SOL    HW1 6284   5.417   5.141   1.090
 1795SOL    HW2 6285   5.460   5.143   0.932
 1796SOL     OW 6286   6.060   0.135   1.096
 1796SOL    HW1 6287   6.052   0.075   1.176
 1796SOL    HW2 6288   6.112   0.217   1.121
 1797SOL     OW 6289   3.019   5.856   5.625
 1797SOL    HW1 6290   2.935   5.904   5.602
 1797SOL    HW2 6291   2.997   5.774   5.678
 1798SOL     OW 6292   2.257   3.804   5.675
 1798SOL    HW1 6293   2.338   3.861   5.686
 1798SOL    HW2 6294   2.267   3.721   5.731
 1799SOL     OW 6295   3.110   1.366   2.113
 1799SOL    HW1 6296   3.135   1.303   2.040
 1799SOL    HW2 6297   3.067   1.448   2.074
 1800SOL     OW 6298   6.217   2.862   5.783
 1800SOL    HW1 6299   6.265   2.864   5.695
 1800SOL    HW2 6300   6.249   2.937   5.841
 1801SOL     OW 6301   0.130   0.899   2.999
 1801SOL    HW1 6302   0.220   0.886   3.041
 1801SOL    HW2 6303   0.063   0.840   3.046
 1802SOL     OW 6304   6.222   4.730   3.793
 1802SOL    HW1 6305   6.222   4.660   3.722
 1802SOL    HW2 6306   6.280   4.806   3.766
 1803SOL     OW 6307   0.080   0.201   4.149
 1803SOL    HW1 6308   0.164   0.205   4.095
 1803SOL    HW2 6309   0.030   0.117   4.127
 1804SOL     OW 6310   1.731   2.322   6.339
 1804SOL    HW1 6311   1.636   2.291   6.343
 1804SOL    HW2 6312   1.739   2.400   6.276
 1805SOL     OW 6313   6.604   4.662   0.538
 1805SOL    HW1 6314   6.695   4.628   0.515
 1805SOL    HW2 6315   6.545   4.657   0.458
 1806SOL     OW 6316   0.589   1.599   1.137
 1806SOL    HW1 6317   0.666   1.538   1.157
 1806SOL    HW2 6318   0.553   1.635   1.223
 1807SOL     OW 6319   6.018   3.072   2.839
 1807SOL    HW1 6320   6.092   3.044   2.778
 1807SOL    HW2 6321   5.937   3.016   2.821
 1808SOL     OW 6322   5.463   1.165   6.284
 1808SOL    HW1 6323   5.533   1.120   6.339
 1808SOL    HW2 6324   5.410   1.229   6.341
 1809SOL     OW 6325   5.898   0.436   5.639
 1809SOL    HW1 6326   5.874   0.357   5.696
 1809SOL    HW2 6327   5.901   0.518   5.695
 1810SOL     OW 6328   1.215   1.151   4.411
 1810SOL    HW1 6329   1.206   1.103   4.324
 1810SOL    HW2 6330   1.179   1.244   4.402
 1811SOL     OW 6331   3.071   5.923   2.054
 1811SOL    HW1 6332   3.157   5.938   2.005
 1811SOL    HW2 6333   3.067   5.985   2.133
 1812SOL     OW 6334   3.714   6.469   6.607
 1812SOL    HW1 6335   3.713   6.530   6.686
 1812SOL    HW2 6336   3.773   6.507   6.536
 1813SOL     OW 6337   4.740   3.839   1.786
 1813SOL    HW1 6338   4.647   3.842   1.750
 1813SOL    HW2 6339   4.757   3.922   1.840
 1814SOL     OW 6340   6.353   6.077   0.668
 1814SOL    HW1 6341   6.358   5.999   0.605
 1814SOL    HW2 6342   6.423   6.145   0.643
 1815SOL     OW 6343   5.848   5.138   1.485
 1815SOL    HW1 6344   5.934   5.088   1.475
 1815SOL    HW2 6345   5.782   5.081   1.533
 1816SOL     OW 6346   4.265   5.416   4.987
 1816SOL    HW1 6347   4.175   5.389   4.952
 1816SOL    HW2 6348   4.314   5.335   5.019
 1817SOL     OW 6349   0.076   2.592   3.695
 1817SOL    HW1 6350   0.026   2.562   3.775
 1817SOL    HW2 6351   0.123   2.514   3.653
 1818SOL     OW 6352   2.337   1.266   0.496
 1818SOL    HW1 6353   2.332   1.366   0.497
 1818SOL    HW2 6354   2.424   1.237   0.456
 1819SOL     OW 6355   1.129   4.546   1.896
 1819SOL    HW1 6356   1.066   4.496   1.956
 1819SOL    HW2 6357   1.078   4.583   1.818
 1820SOL     OW 6358   3.788   0.048   4.668
 1820SOL    HW1 6359   3.705   0.073   4.718
 1820SOL    HW2 6360   3.856   0.011   4.733
 1821SOL     OW 6361   3.527   1.330   2.634
 1821SOL    HW1 6362   3.559   1.236   2.638
 1821SOL    HW2 6363   3.449   1.337   2.573
 1822SOL     OW 6364   1.588   3.884   3.994
 1822SOL    HW1 6365   1.601   3.907   3.897
 1822SOL    HW2 6366   1.532   3.955   4.037
 1823SOL     OW 6367   3.847   6.829   3.476
 1823SOL    HW1 6368   3.838   6.928   3.467
 1823SOL    HW2 6369   3.761   6.790   3.509
 1824SOL     OW 6370   4.337   3.130   1.698
 1824SOL    HW1 6371   4.333   3.229   1.689
 1824SOL    HW2 6372   4.409   3.105   1.763
 1825SOL     OW 6373   1.139   4.002   6.510
 1825SOL    HW1 6374   1.148   3.947   6.427
 1825SOL    HW2 6375   1.082   4.082   6.491
 1826SOL     OW 6376   3.823   2.368   0.567
 1826SOL    HW1 6377   3.818   2.402   0.473
 1826SOL    HW2 6378   3.805   2.443   0.631
 1827SOL     OW 6379   5.389   4.596   0.332
 1827SOL    HW1 6380   5.334   4.671   0.370
 1827SOL    HW2 6381   5.378   4.594   0.233
 1828SOL     OW 6382   2.112   4.654   4.746
 1828SOL    HW1 6383   2.065   4.649   4.834
 1828SOL    HW2 6384   2.208   4.676   4.761
 1829SOL     OW 6385   2.383   6.192   2.031
 1829SOL    HW1 6386   2.340   6.177   2.120
 1829SOL    HW2 6387   2.356   6.119   1.968
 1830SOL     OW 6388   4.287   1.059   5.883
 1830SOL    HW1 6389   4.340   0.986   5.926
 1830SOL    HW2 6390   4.278   1.040   5.785
 1831SOL     OW 6391   3.586   4.828   0.201
 1831SOL    HW1 6392   3.594   4.905   0.264
 1831SOL    HW2 6393   3.635   4.749   0.238
 1832SOL     OW 6394   1.783   3.402   5.629
 1832SOL    HW1 6395   1.801   3.497   5.605
 1832SOL    HW2 6396   1.745   3.353   5.550
 1833SOL     OW 6397   5.901   0.723   0.013
 1833SOL    HW1 6398   5.991   0.763   7.014
 1833SOL    HW2 6399   5.902   0.674   0.100
 1834SOL     OW 6400   0.795   3.652   6.264
 1834SOL    HW1 6401   0.762   3.743   6.237
 1834SOL    HW2 6402   0.893   3.647   6.248
 1835SOL     OW 6403   6.909   6.654   1.427
 1835SOL    HW1 6404   6.846   6.639   1.503
 1835SOL    HW2 6405   6.961   6.738   1.442
 1836SOL     OW 6406   5.558   1.692   2.452
 1836SOL    HW1 6407   5.538   1.624   2.523
 1836SOL    HW2 6408   5.496   1.678   2.374
 1837SOL     OW 6409   2.318   2.315   0.213
 1837SOL    HW1 6410   2.395   2.313   0.276
 1837SOL    HW2 6411   2.349   2.348   0.124
 1838SOL     OW 6412   4.601   0.680   0.518
 1838SOL    HW1 6413   4.642   0.681   0.609
 1838SOL    HW2 6414   4.553   0.593   0.503
 1839SOL     OW 6415   6.521   0.492   0.095
 1839SOL    HW1 6416   6.566   0.580   0.113
 1839SOL    HW2 6417   6.522   0.474   7.014
 1840SOL     OW 6418   4.068   0.274   4.373
 1840SOL    HW1 6419   4.156   0.231   4.395
 1840SOL    HW2 6420   4.010   0.273   4.455
 1841SOL     OW 6421   1.558   0.678   1.439
 1841SOL    HW1 6422   1.639   0.689   1.496
 1841SOL    HW2 6423   1.564   0.741   1.361
 1842SOL     OW 6424   0.095   5.233   1.609
 1842SOL    HW1 6425   0.025   5.304   1.616
 1842SOL    HW2 6426   0.060   5.157   1.554
 1843SOL     OW 6427   2.473   1.369   0.183
 1843SOL    HW1 6428   2.536   1.341   0.111
 1843SOL    HW2 6429   2.388   1.316   0.176
 1844SOL     OW 6430   5.375   2.964   6.668
 1844SOL    HW1 6431   5.419   2.922   6.589
 1844SOL    HW2 6432   5.445   3.003   6.728
 1845SOL     OW 6433   0.938   2.394   3.853
 1845SOL    HW1 6434   0.965   2.299   3.838
 1845SOL    HW2 6435   1.003   2.454   3.807
 1846SOL     OW 6436   3.005   0.818   1.612
 1846SOL    HW1 6437   3.048   0.758   1.680
 1846SOL    HW2 6438   2.998   0.910   1.649
 1847SOL     OW 6439   2.162   5.616   6.197
 1847SOL    HW1 6440   2.237   5.603   6.132
 1847SOL    HW2 6441   2.198   5.654   6.282
 1848SOL     OW 6442   4.047   6.154   3.125
 1848SOL    HW1 6443   4.102   6.234   3.100
 1848SOL    HW2 6444   3.952   6.169   3.099
 1849SOL     OW 6445   4.751   2.799   2.989
 1849SOL    HW1 6446   4.841   2.841   2.982
 1849SOL    HW2 6447   4.712   2.789   2.897
 1850SOL     OW 6448   4.325   1.803   0.897
 1850SOL    HW1 6449   4.297   1.899   0.888
 1850SOL    HW2 6450   4.244   1.746   0.911
 1851SOL     OW 6451   0.582   4.721   4.465
 1851SOL    HW1 6452   0.645   4.644   4.477
 1851SOL    HW2 6453   0.539   4.743   4.553
 1852SOL     OW 6454   0.366   6.783   3.643
 1852SOL    HW1 6455   0.295   6.852   3.632
 1852SOL    HW2 6456   0.355   6.738   3.732
 1853SOL     OW 6457   0.877   1.933   5.563
 1853SOL    HW1 6458   0.894   1.899   5.655
 1853SOL    HW2 6459   0.866   1.855   5.501
 1854SOL     OW 6460   0.079   0.353   3.677
 1854SOL    HW1 6461   0.117   0.394   3.760
 1854SOL    HW2 6462   0.103   0.255   3.675
 1855SOL     OW 6463   5.891   2.180   4.988
 1855SOL    HW1 6464   5.896   2.083   4.965
 1855SOL    HW2 6465   5.861   2.191   5.083
 1856SOL     OW 6466   4.842   3.876   0.105
 1856SOL    HW1 6467   4.938   3.860   0.082
 1856SOL    HW2 6468   4.836   3.950   0.173
 1857SOL     OW 6469   4.004   0.964   6.660
 1857SOL    HW1 6470   4.056   0.917   6.731
 1857SOL    HW2 6471   3.923   0.909   6.636
 1858SOL     OW 6472   5.351   1.980   5.078
 1858SOL    HW1 6473   5.401   1.909   5.128
 1858SOL    HW2 6474   5.393   2.069   5.095
 1859SOL     OW 6475   6.674   0.476   2.982
 1859SOL    HW1 6476   6.705   0.402   3.043
 1859SOL    HW2 6477   6.753   0.526   2.948
 1860SOL     OW 6478   2.665   1.277   6.229
 1860SOL    HW1 6479   2.735   1.210   6.206
 1860SOL    HW2 6480   2.677   1.358   6.172
 1861SOL     OW 6481   6.153   6.380   5.176
 1861SOL    HW1 6482   6.139   6.406   5.081
 1861SOL    HW2 6483   6.094   6.302   5.198
 1862SOL     OW 6484   3.140   5.576   6.130
 1862SOL    HW1 6485   3.195   5.541   6.205
 1862SOL    HW2 6486   3.119   5.502   6.066
 1863SOL     OW 6487   0.257   1.770   1.560
 1863SOL    HW1 6488   0.229   1.719   1.478
 1863SOL    HW2 6489   0.229   1.866   1.550
 1864SOL     OW 6490   2.647   6.178   1.743
 1864SOL    HW1 6491   2.574   6.238   1.711
 1864SOL    HW2 6492   2.624   6.143   1.834
 1865SOL     OW 6493   6.165   2.523   5.707
 1865SOL    HW1 6494   6.258   2.512   5.671
 1865SOL    HW2 6495   6.170   2.564   5.798
 1866SOL     OW 6496   0.119   4.611   3.879
 1866SOL    HW1 6497   0.144   4.707   3.891
 1866SOL    HW2 6498   0.045   4.604   3.812
 1867SOL     OW 6499   1.029   1.345   1.558
 1867SOL    HW1 6500   1.068   1.375   1.471
 1867SOL    HW2 6501   1.093   1.285   1.604
 1868SOL     OW 6502   5.250   3.887   6.315
 1868SOL    HW1 6503   5.317   3.862   6.245
 1868SOL    HW2 6504   5.239   3.986   6.317
 1869SOL     OW 6505   5.100   0.816   5.317
 1869SOL    HW1 6506   5.159   0.739   5.343
 1869SOL    HW2 6507   5.042   0.841   5.395
 1870SOL     OW 6508   6.071   0.196   6.250
 1870SOL    HW1 6509   5.983   0.204   6.203
 1870SOL    HW2 6510   6.092   0.099   6.266
 1871SOL     OW 6511   0.723   5.905   0.132
 1871SOL    HW1 6512   0.798   5.902   0.066
 1871SOL    HW2 6513   0.654   5.971   0.102
 1872SOL     OW 6514   2.947   3.083   1.026
 1872SOL    HW1 6515   2.950   3.163   0.966
 1872SOL    HW2 6516   2.911   3.005   0.975
 1873SOL     OW 6517   6.213   1.006   1.455
 1873SOL    HW1 6518   6.251   0.965   1.372
 1873SOL    HW2 6519   6.278   0.997   1.530
 1874SOL     OW 6520   1.378   5.869   6.531
 1874SOL    HW1 6521   1.356   5.909   6.442
 1874SOL    HW2 6522   1.304   5.887   6.595
 1875SOL     OW 6523   0.402   6.348   2.163
 1875SOL    HW1 6524   0.337   6.288   2.117
 1875SOL    HW2 6525   0.488   6.349   2.112
 1876SOL     OW 6526   0.698   4.531   0.559
 1876SOL    HW1 6527   0.752   4.597   0.507
 1876SOL    HW2 6528   0.701   4.442   0.513
 1877SOL     OW 6529   1.343   1.451   2.456
 1877SOL    HW1 6530   1.375   1.361   2.486
 1877SOL    HW2 6531   1.274   1.484   2.520
 1878SOL     OW 6532   5.230   3.553   4.206
 1878SOL    HW1 6533   5.300   3.483   4.192
 1878SOL    HW2 6534   5.271   3.643   4.194
 1879SOL     OW 6535   4.202   6.707   5.048
 1879SOL    HW1 6536   4.111   6.676   5.023
 1879SOL    HW2 6537   4.268   6.675   4.981
 1880SOL     OW 6538   0.892   2.286   4.290
 1880SOL    HW1 6539   0.968   2.336   4.247
 1880SOL    HW2 6540   0.894   2.191   4.258
 1881SOL     OW 6541   1.913   1.065   4.009
 1881SOL    HW1 6542   1.924   0.988   3.946
 1881SOL    HW2 6543   1.991   1.127   4.000
 1882SOL     OW 6544   2.652   5.662   0.664
 1882SOL    HW1 6545   2.670   5.686   0.759
 1882SOL    HW2 6546   2.599   5.736   0.621
 1883SOL     OW 6547   2.240   2.846   2.974
 1883SOL    HW1 6548   2.207   2.870   2.882
 1883SOL    HW2 6549   2.326   2.795   2.966
 1884SOL     OW 6550   5.052   0.612   0.537
 1884SOL    HW1 6551   4.984   0.664   0.485
 1884SOL    HW2 6552   5.069   0.524   0.491
 1885SOL     OW 6553   0.269   1.061   0.612
 1885SOL    HW1 6554   0.193   1.085   0.551
 1885SOL    HW2 6555   0.355   1.090   0.571
 1886SOL     OW 6556   3.719   2.593   5.661
 1886SOL    HW1 6557   3.706   2.495   5.645
 1886SOL    HW2 6558   3.652   2.625   5.729
 1887SOL     OW 6559   0.593   6.277   4.942
 1887SOL    HW1 6560   0.588   6.256   4.845
 1887SOL    HW2 6561   0.682   6.250   4.978
 1888SOL     OW 6562   1.860   1.777   6.015
 1888SOL    HW1 6563   1.891   1.775   6.110
 1888SOL    HW2 6564   1.785   1.711   6.004
 1889SOL     OW 6565   3.063   3.310   0.465
 1889SOL    HW1 6566   3.014   3.223   0.467
 1889SOL    HW2 6567   3.162   3.293   0.462
 1890SOL     OW 6568   5.919   5.739   6.551
 1890SOL    HW1 6569   5.972   5.769   6.630
 1890SOL    HW2 6570   5.837   5.795   6.542
 1891SOL     OW 6571   5.339   3.479   6.867
 1891SOL    HW1 6572   5.401   3.470   6.946
 1891SOL    HW2 6573   5.375   3.548   6.804
 1892SOL     OW 6574   3.792   0.214   2.978
 1892SOL    HW1 6575   3.711   0.192   3.032
 1892SOL    HW2 6576   3.786   0.308   2.945
 1893SOL     OW 6577   3.162   0.927   6.288
 1893SOL    HW1 6578   3.233   0.886   6.344
 1893SOL    HW2 6579   3.108   0.991   6.343
 1894SOL     OW 6580   4.978   3.240   0.885
 1894SOL    HW1 6581   5.077   3.247   0.889
 1894SOL    HW2 6582   4.937   3.292   0.960
 1895SOL     OW 6583   4.718   5.732   3.507
 1895SOL    HW1 6584   4.734   5.830   3.516
 1895SOL    HW2 6585   4.679   5.696   3.591
 1896SOL     OW 6586   6.210   2.206   5.013
 1896SOL    HW1 6587   6.116   2.202   4.980
 1896SOL    HW2 6588   6.258   2.281   4.968
 1897SOL     OW 6589   5.223   4.970   2.938
 1897SOL    HW1 6590   5.320   4.996   2.938
 1897SOL    HW2 6591   5.207   4.904   3.011
 1898SOL     OW 6592   5.586   6.748   0.041
 1898SOL    HW1 6593   5.661   6.753   6.993
 1898SOL    HW2 6594   5.589   6.660   0.087
 1899SOL     OW 6595   1.806   2.644   3.618
 1899SOL    HW1 6596   1.760   2.694   3.545
 1899SOL    HW2 6597   1.885   2.696   3.650
 1900SOL     OW 6598   2.550   5.494   1.602
 1900SOL    HW1 6599   2.483   5.451   1.662
 1900SOL    HW2 6600   2.629   5.433   1.591
 1901SOL     OW 6601   1.145   0.765   5.465
 1901SOL    HW1 6602   1.140   0.846   5.406
 1901SOL    HW2 6603   1.160   0.793   5.559
 1902SOL     OW 6604   1.190   2.864   4.682
 1902SOL    HW1 6605   1.193   2.800   4.759
 1902SOL    HW2 6606   1.137   2.825   4.608
 1903SOL     OW 6607   6.537   4.967   3.910
 1903SOL    HW1 6608   6.477   4.953   3.988
 1903SOL    HW2 6609   6.484   5.003   3.833
 1904SOL     OW 6610   0.680   0.114   4.329
 1904SOL    HW1 6611   0.592   0.067   4.315
 1904SOL    HW2 6612   0.663   0.202   4.372
 1905SOL     OW 6613   6.221   3.032   4.343
 1905SOL    HW1 6614   6.190   2.938   4.335
 1905SOL    HW2 6615   6.306   3.035   4.397
 1906SOL     OW 6616   2.394   6.418   5.588
 1906SOL    HW1 6617   2.367   6.432   5.493
 1906SOL    HW2 6618   2.315   6.433   5.648
 1907SOL     OW 6619   4.496   6.802   3.747
 1907SOL    HW1 6620   4.575   6.863   3.756
 1907SOL    HW2 6621   4.418   6.843   3.794
 1908SOL     OW 6622   4.992   5.946   0.919
 1908SOL    HW1 6623   4.989   5.986   0.827
 1908SOL    HW2 6624   5.083   5.959   0.958
 1909SOL     OW 6625   4.994   5.632   3.491
 1909SOL    HW1 6626   5.013   5.547   3.540
 1909SOL    HW2 6627   4.903   5.665   3.515
 1910SOL     OW 6628   4.849   2.982   4.568
 1910SOL    HW1 6629   4.829   2.896   4.616
 1910SOL    HW2 6630   4.824   2.973   4.472
 1911SOL     OW 6631   0.180   3.193   5.703
 1911SOL    HW1 6632   0.164   3.289   5.725
 1911SOL    HW2 6633   0.101   3.157   5.653
 1912SOL     OW 6634   3.023   5.970   3.237
 1912SOL    HW1 6635   3.044   6.066   3.217
 1912SOL    HW2 6636   3.080   5.910   3.182
 1913SOL     OW 6637   1.900   4.168   5.335
 1913SOL    HW1 6638   1.935   4.236   5.400
 1913SOL    HW2 6639   1.852   4.096   5.385
 1914SOL     OW 6640   4.461   1.355   4.890
 1914SOL    HW1 6641   4.469   1.332   4.793
 1914SOL    HW2 6642   4.365   1.350   4.918
 1915SOL     OW 6643   3.011   0.284   5.407
 1915SOL    HW1 6644   3.025   0.321   5.498
 1915SOL    HW2 6645   2.973   0.355   5.347
 1916SOL     OW 6646   3.747   6.449   2.744
 1916SOL    HW1 6647   3.726   6.467   2.840
 1916SOL    HW2 6648   3.729   6.532   2.690
 1917SOL     OW 6649   2.945   3.727   4.460
 1917SOL    HW1 6650   2.937   3.645   4.403
 1917SOL    HW2 6651   2.858   3.776   4.459
 1918SOL     OW 6652   6.856   6.508   5.493
 1918SOL    HW1 6653   6.814   6.478   5.407
 1918SOL    HW2 6654   6.898   6.429   5.538
 1919SOL     OW 6655   6.445   0.358   2.315
 1919SOL    HW1 6656   6.505   0.421   2.265
 1919SOL    HW2 6657   6.453   0.266   2.275
 1920SOL     OW 6658   6.543   5.663   4.706
 1920SOL    HW1 6659   6.450   5.648   4.740
 1920SOL    HW2 6660   6.598   5.581   4.721
 1921SOL     OW 6661   1.998   6.716   6.887
 1921SOL    HW1 6662   1.915   6.661   6.891
 1921SOL    HW2 6663   2.056   6.695   6.966
 1922SOL     OW 6664   3.979   4.407   0.541
 1922SOL    HW1 6665   3.938   4.497   0.553
 1922SOL    HW2 6666   4.041   4.388   0.618
 1923SOL     OW 6667   1.593   2.824   0.651
 1923SOL    HW1 6668   1.614   2.919   0.674
 1923SOL    HW2 6669   1.502   2.800   0.685
 1924SOL     OW 6670   0.849   4.126   1.054
 1924SOL    HW1 6671   0.782   4.052   1.061
 1924SOL    HW2 6672   0.899   4.133   1.140
 1925SOL     OW 6673   3.679   4.592   0.347
 1925SOL    HW1 6674   3.723   4.531   0.281
 1925SOL    HW2 6675   3.601   4.547   0.388
 1926SOL     OW 6676   0.442   0.600   3.574
 1926SOL    HW1 6677   0.505   0.571   3.647
 1926SOL    HW2 6678   0.359   0.637   3.615
 1927SOL     OW 6679   4.715   3.066   1.168
 1927SOL    HW1 6680   4.636   3.009   1.190
 1927SOL    HW2 6681   4.796   3.032   1.216
 1928SOL     OW 6682   0.250   5.922   4.761
 1928SOL    HW1 6683   0.191   5.985   4.711
 1928SOL    HW2 6684   0.193   5.858   4.813
 1929SOL     OW 6685   1.278   6.300   3.052
 1929SOL    HW1 6686   1.351   6.304   3.119
 1929SOL    HW2 6687   1.316   6.286   2.961
 1930SOL     OW 6688   6.642   4.918   6.513
 1930SOL    HW1 6689   6.714   4.918   6.583
 1930SOL    HW2 6690   6.600   5.009   6.509
 1931SOL     OW 6691   0.541   2.097   4.443
 1931SOL    HW1 6692   0.464   2.160   4.429
 1931SOL    HW2 6693   0.546   2.033   4.366
 1932SOL     OW 6694   5.807   3.242   2.872
 1932SOL    HW1 6695   5.875   3.175   2.843
 1932SOL    HW2 6696   5.836   3.333   2.844
 1933SOL     OW 6697   2.702   4.951   0.595
 1933SOL    HW1 6698   2.651   4.912   0.672
 1933SOL    HW2 6699   2.760   5.026   0.628
 1934SOL     OW 6700   0.013   6.590   3.282
 1934SOL    HW1 6701   6.954   6.578   3.344
 1934SOL    HW2 6702   0.019   6.687   3.256
 1935SOL     OW 6703   2.303   1.044   3.135
 1935SOL    HW1 6704   2.216   1.032   3.183
 1935SOL    HW2 6705   2.324   0.962   3.082
 1936SOL     OW 6706   6.412   5.938   5.383
 1936SOL    HW1 6707   6.387   6.024   5.340
 1936SOL    HW2 6708   6.495   5.950   5.437
 1937SOL     OW 6709   3.989   0.944   2.876
 1937SOL    HW1 6710   4.006   0.970   2.971
 1937SOL    HW2 6711   3.952   1.022   2.825
 1938SOL     OW 6712   5.664   0.969   4.551
 1938SOL    HW1 6713   5.659   0.907   4.472
 1938SOL    HW2 6714   5.732   0.934   4.615
 1939SOL     OW 6715   2.745   0.974   4.271
 1939SOL    HW1 6716   2.836   1.003   4.301
 1939SOL    HW2 6717   2.681   0.982   4.347
 1940SOL     OW 6718   6.092   5.314   6.102
 1940SOL    HW1 6719   6.167   5.316   6.168
 1940SOL    HW2 6720   6.025   5.246   6.130
 1941SOL     OW 6721   5.081   5.137   2.751
 1941SOL    HW1 6722   5.143   5.101   2.821
 1941SOL    HW2 6723   4.988   5.106   2.770
 1942SOL     OW 6724   6.627   4.167   3.234
 1942SOL    HW1 6725   6.550   4.104   3.242
 1942SOL    HW2 6726   6.601   4.244   3.175
 1943SOL     OW 6727   2.662   5.599   3.489
 1943SOL    HW1 6728   2.608   5.529   3.443
 1943SOL    HW2 6729   2.756   5.597   3.455
 1944SOL     OW 6730   7.000   6.723   2.251
 1944SOL    HW1 6731   6.956   6.669   2.323
 1944SOL    HW2 6732   0.033   6.799   2.292
 1945SOL     OW 6733   3.601   4.941   3.157
 1945SOL    HW1 6734   3.623   5.025   3.108
 1945SOL    HW2 6735   3.594   4.960   3.255
 1946SOL     OW 6736   1.308   6.391   6.867
 1946SOL    HW1 6737   1.243   6.402   6.943
 1946SOL    HW2 6738   1.367   6.471   6.863
 1947SOL     OW 6739   4.818   0.083   4.061
 1947SOL    HW1 6740   4.890   0.134   4.014
 1947SOL    HW2 6741   4.728   0.119   4.034
 1948SOL     OW 6742   6.390   3.709   5.116
 1948SOL    HW1 6743   6.348   3.799   5.116
 1948SOL    HW2 6744   6.484   3.715   5.149
 1949SOL     OW 6745   4.943   4.047   6.536
 1949SOL    HW1 6746   5.027   4.010   6.575
 1949SOL    HW2 6747   4.957   4.064   6.438
 1950SOL     OW 6748   3.253   5.247   1.198
 1950SOL    HW1 6749   3.337   5.261   1.147
 1950SOL    HW2 6750   3.190   5.192   1.143
 1951SOL     OW 6751   6.611   2.959   0.365
 1951SOL    HW1 6752   6.617   2.945   0.463
 1951SOL    HW2 6753   6.676   2.899   0.318
 1952SOL     OW 6754   3.661   3.031   4.890
 1952SOL    HW1 6755   3.667   3.120   4.846
 1952SOL    HW2 6756   3.575   2.986   4.863
 1953SOL     OW 6757   0.371   2.695   4.463
 1953SOL    HW1 6758   0.374   2.708   4.364
 1953SOL    HW2 6759   0.417   2.770   4.508
 1954SOL     OW 6760   3.059   1.735   3.864
 1954SOL    HW1 6761   3.038   1.690   3.952
 1954SOL    HW2 6762   3.129   1.683   3.816
 1955SOL     OW 6763   6.171   4.963   1.979
 1955SOL    HW1 6764   6.265   4.965   1.943
 1955SOL    HW2 6765   6.111   5.012   1.916
 1956SOL     OW 6766   5.498   6.100   2.419
 1956SOL    HW1 6767   5.587   6.066   2.449
 1956SOL    HW2 6768   5.454   6.149   2.493
 1957SOL     OW 6769   0.917   6.547   5.076
 1957SOL    HW1 6770   0.853   6.535   5.152
 1957SOL    HW2 6771   0.999   6.594   5.109
 1958SOL     OW 6772   4.285   3.153   5.818
 1958SOL    HW1 6773   4.376   3.162   5.859
 1958SOL    HW2 6774   4.262   3.056   5.809
 1959SOL     OW 6775   2.294   1.527   0.546
 1959SOL    HW1 6776   2.379   1.578   0.535
 1959SOL    HW2 6777   2.227   1.561   0.480
 1960SOL     OW 6778   6.088   6.004   2.137
 1960SOL    HW1 6779   6.020   6.036   2.071
 1960SOL    HW2 6780   6.126   6.082   2.187
 1961SOL     OW 6781   6.026   4.704   5.078
 1961SOL    HW1 6782   6.092   4.711   5.152
 1961SOL    HW2 6783   6.069   4.663   4.997
 1962SOL     OW 6784   6.895   7.009   3.612
 1962SOL    HW1 6785   6.961   0.028   3.678
 1962SOL    HW2 6786   6.802   0.007   3.645
 1963SOL     OW 6787   2.693   0.731   3.667
 1963SOL    HW1 6788   2.688   0.803   3.736
 1963SOL    HW2 6789   2.774   0.744   3.611
 1964SOL     OW 6790   6.026   3.814   1.918
 1964SOL    HW1 6791   5.954   3.778   1.977
 1964SOL    HW2 6792   6.112   3.819   1.970
 1965SOL     OW 6793   2.208   6.130   3.869
 1965SOL    HW1 6794   2.194   6.093   3.961
 1965SOL    HW2 6795   2.298   6.101   3.835
 1966SOL     OW 6796   6.210   6.683   6.759
 1966SOL    HW1 6797   6.204   6.717   6.853
 1966SOL    HW2 6798   6.280   6.735   6.710
 1967SOL     OW 6799   5.179   3.338   4.593
 1967SOL    HW1 6800   5.091   3.371   4.559
 1967SOL    HW2 6801   5.219   3.276   4.526
 1968SOL     OW 6802   3.727   5.548   4.984
 1968SOL    HW1 6803   3.747   5.591   5.072
 1968SOL    HW2 6804   3.642   5.496   4.991
 1969SOL     OW 6805   6.866   1.900   1.523
 1969SOL    HW1 6806   6.813   1.826   1.566
 1969SOL    HW2 6807   6.943   1.923   1.582
 1970SOL     OW 6808   1.531   0.335   3.843
 1970SOL    HW1 6809   1.465   0.349   3.917
 1970SOL    HW2 6810   1.623   0.327   3.881
 1971SOL     OW 6811   0.543   1.208   5.944
 1971SOL    HW1 6812   0.622   1.242   5.893
 1971SOL    HW2 6813   0.524   1.268   6.021
 1972SOL     OW 6814   1.703   6.631   3.522
 1972SOL    HW1 6815   1.691   6.570   3.444
 1972SOL    HW2 6816   1.775   6.698   3.502
 1973SOL     OW 6817   2.546   3.127   0.250
 1973SOL    HW1 6818   2.560   3.181   0.332
 1973SOL    HW2 6819   2.560   3.030   0.271
 1974SOL     OW 6820   5.725   6.984   4.433
 1974SOL    HW1 6821   5.680   7.005   4.347
 1974SOL    HW2 6822   5.669   6.919   4.485
 1975SOL     OW 6823   2.742   0.396   3.764
 1975SOL    HW1 6824   2.789   0.360   3.683
 1975SOL    HW2 6825   2.667   0.456   3.735
 1976SOL     OW 6826   6.941   4.466   6.761
 1976SOL    HW1 6827   6.848   4.475   6.724
 1976SOL    HW2 6828   6.993   4.402   6.704
 1977SOL     OW 6829   2.712   2.512   5.839
 1977SOL    HW1 6830   2.711   2.421   5.798
 1977SOL    HW2 6831   2.746   2.578   5.772
 1978SOL     OW 6832   6.555   2.231   5.628
 1978SOL    HW1 6833   6.532   2.136   5.650
 1978SOL    HW2 6834   6.654   2.244   5.636
 1979SOL     OW 6835   6.029   4.179   2.647
 1979SOL    HW1 6836   6.088   4.141   2.718
 1979SOL    HW2 6837   5.948   4.220   2.688
 1980SOL     OW 6838   2.983   1.088   1.682
 1980SOL    HW1 6839   2.911   1.112   1.747
 1980SOL    HW2 6840   3.017   1.171   1.638
 1981SOL     OW 6841   4.828   3.587   1.773
 1981SOL    HW1 6842   4.791   3.674   1.803
 1981SOL    HW2 6843   4.924   3.599   1.745
 1982SOL     OW 6844   6.713   6.451   5.272
 1982SOL    HW1 6845   6.686   6.423   5.180
 1982SOL    HW2 6846   6.641   6.507   5.312
 1983SOL     OW 6847   0.809   4.555   2.498
 1983SOL    HW1 6848   0.716   4.532   2.527
 1983SOL    HW2 6849   0.837   4.641   2.541
 1984SOL     OW 6850   4.382   0.619   5.235
 1984SOL    HW1 6851   4.325   0.692   5.271
 1984SOL    HW2 6852   4.398   0.551   5.307
 1985SOL     OW 6853   1.897   6.882   1.521
 1985SOL    HW1 6854   1.976   6.888   1.582
 1985SOL    HW2 6855   1.912   6.809   1.454
 1986SOL     OW 6856   0.273   2.066   0.192
 1986SOL    HW1 6857   0.237   2.124   0.265
 1986SOL    HW2 6858   0.303   1.979   0.231
 1987SOL     OW 6859   2.586   4.344   0.436
 1987SOL    HW1 6860   2.684   4.328   0.423
 1987SOL    HW2 6861   2.538   4.257   0.445
 1988SOL     OW 6862   4.760   3.660   0.235
 1988SOL    HW1 6863   4.731   3.687   0.327
 1988SOL    HW2 6864   4.780   3.741   0.181
 1989SOL     OW 6865   2.087   1.332   4.353
 1989SOL    HW1 6866   2.005   1.305   4.403
 1989SOL    HW2 6867   2.109   1.262   4.285
 1990SOL     OW 6868   2.073   0.896   2.765
 1990SOL    HW1 6869   2.126   0.814   2.743
 1990SOL    HW2 6870   2.056   0.949   2.682
 1991SOL     OW 6871   4.919   5.501   3.044
 1991SOL    HW1 6872   4.976   5.420   3.057
 1991SOL    HW2 6873   4.867   5.519   3.127
 1992SOL     OW 6874   2.516   6.238   4.925
 1992SOL    HW1 6875   2.435   6.255   4.868
 1992SOL    HW2 6876   2.493   6.175   4.999
 1993SOL     OW 6877   3.370   2.900   3.862
 1993SOL    HW1 6878   3.401   2.985   3.819
 1993SOL    HW2 6879   3.281   2.875   3.825
 1994SOL     OW 6880   6.022   2.602   2.018
 1994SOL    HW1 6881   6.048   2.521   1.966
 1994SOL    HW2 6882   6.040   2.587   2.115
 1995SOL     OW 6883   4.036   2.440   1.262
 1995SOL    HW1 6884   4.059   2.384   1.183
 1995SOL    HW2 6885   4.021   2.534   1.232
 1996SOL     OW 6886   2.991   3.985   5.400
 1996SOL    HW1 6887   3.029   4.076   5.386
 1996SOL    HW2 6888   2.946   3.955   5.315
 1997SOL     OW 6889   5.502   6.994   3.835
 1997SOL    HW1 6890   5.564   0.037   3.786
 1997SOL    HW2 6891   5.554   6.943   3.905
 1998SOL     OW 6892   3.194   5.084   5.057
 1998SOL    HW1 6893   3.286   5.051   5.037
 1998SOL    HW2 6894   3.160   5.137   4.980
 1999SOL     OW 6895   2.739   0.675   1.790
 1999SOL    HW1 6896   2.776   0.766   1.809
 1999SOL    HW2 6897   2.810   0.607   1.805
 2000SOL     OW 6898   3.750   1.671   4.527
 2000SOL    HW1 6899   3.828   1.621   4.487
 2000SOL    HW2 6900   3.772   1.695   4.621
 2001SOL     OW 6901   2.295   3.544   6.894
 2001SOL    HW1 6902   2.384   3.497   6.894
 2001SOL    HW2 6903   2.244   3.519   6.812
 2002SOL     OW 6904   1.180   5.639   5.417
 2002SOL    HW1 6905   1.099   5.696   5.408
 2002SOL    HW2 6906   1.158   5.558   5.473
 2003SOL     OW 6907   6.390   4.624   3.002
 2003SOL    HW1 6908   6.362   4.589   2.912
 2003SOL    HW2 6909   6.454   4.700   2.989
 2004SOL     OW 6910   3.397   7.015   6.464
 2004SOL    HW1 6911   3.356   0.066   6.404
 2004SOL    HW2 6912   3.494   0.018   6.476
 2005SOL     OW 6913   2.864   6.735   5.060
 2005SOL    HW1 6914   2.961   6.737   5.086
 2005SOL    HW2 6915   2.849   6.666   4.990
 2006SOL     OW 6916   4.863   6.554   3.308
 2006SOL    HW1 6917   4.947   6.525   3.354
 2006SOL    HW2 6918   4.786   6.548   3.371
 2007SOL     OW 6919   6.372   5.250   0.069
 2007SOL    HW1 6920   6.372   5.151   0.080
 2007SOL    HW2 6921   6.365   5.294   0.159
 2008SOL     OW 6922   6.822   6.533   4.340
 2008SOL    HW1 6923   6.916   6.543   4.371
 2008SOL    HW2 6924   6.759   6.556   4.416
 2009SOL     OW 6925   0.731   0.220   0.244
 2009SOL    HW1 6926   0.731   0.274   0.160
 2009SOL    HW2 6927   0.796   0.259   0.309
 2010SOL     OW 6928   1.362   0.031   0.818
 2010SOL    HW1 6929   1.276   0.000   0.860
 2010SOL    HW2 6930   1.433   0.039   0.888
 2011SOL     OW 6931   0.018   2.566   5.327
 2011SOL    HW1 6932   0.055   2.537   5.238
 2011SOL    HW2 6933   7.004   2.486   5.377
 2012SOL     OW 6934   0.075   3.337   0.935
 2012SOL    HW1 6935   0.160   3.384   0.908
 2012SOL    HW2 6936   0.091   3.287   1.020
 2013SOL     OW 6937   4.280   2.000   2.527
 2013SOL    HW1 6938   4.366   1.949   2.523
 2013SOL    HW2 6939   4.205   1.936   2.542
 2014SOL     OW 6940   2.653   5.658   3.781
 2014SOL    HW1 6941   2.602   5.738   3.749
 2014SOL    HW2 6942   2.713   5.626   3.708
 2015SOL     OW 6943   3.113   6.499   6.970
 2015SOL    HW1 6944   3.130   6.536   0.044
 2015SOL    HW2 6945   3.087   6.402   6.977
 2016SOL     OW 6946   6.144   5.309   3.613
 2016SOL    HW1 6947   6.153   5.291   3.711
 2016SOL    HW2 6948   6.125   5.224   3.564
 2017SOL     OW 6949   2.299   4.911   2.137
 2017SOL    HW1 6950   2.200   4.926   2.135
 2017SOL    HW2 6951   2.335   4.942   2.225
 2018SOL     OW 6952   0.417   4.282   6.329
 2018SOL    HW1 6953   0.477   4.332   6.391
 2018SOL    HW2 6954   0.451   4.291   6.235
 2019SOL     OW 6955   5.717   1.849   2.860
 2019SOL    HW1 6956   5.708   1.858   2.761
 2019SOL    HW2 6957   5.721   1.940   2.901
 2020SOL     OW 6958   1.370   5.613   3.744
 2020SOL    HW1 6959   1.391   5.656   3.832
 2020SOL    HW2 6960   1.429   5.651   3.673
 2021SOL     OW 6961   1.430   0.115   1.927
 2021SOL    HW1 6962   1.386   0.046   1.985
 2021SOL    HW2 6963   1.517   0.142   1.968
 2022SOL     OW 6964   3.094   5.075   1.044
 2022SOL    HW1 6965   3.075   5.019   1.124
 2022SOL    HW2 6966   3.010   5.090   0.992
 2023SOL     OW 6967   6.454   1.600   6.498
 2023SOL    HW1 6968   6.361   1.600   6.535
 2023SOL    HW2 6969   6.451   1.609   6.398
 2024SOL     OW 6970   6.002   0.405   2.589
 2024SOL    HW1 6971   6.058   0.400   2.506
 2024SOL    HW2 6972   6.014   0.495   2.632
 2025SOL     OW 6973   6.418   0.654   0.666
 2025SOL    HW1 6974   6.417   0.583   0.737
 2025SOL    HW2 6975   6.509   0.661   0.627
 2026SOL     OW 6976   1.500   2.218   5.085
 2026SOL    HW1 6977   1.440   2.259   5.016
 2026SOL    HW2 6978   1.594   2.250   5.070
 2027SOL     OW 6979   1.331   1.501   2.181
 2027SOL    HW1 6980   1.331   1.494   2.281
 2027SOL    HW2 6981   1.251   1.555   2.152
 2028SOL     OW 6982   3.613   4.239   5.832
 2028SOL    HW1 6983   3.595   4.163   5.769
 2028SOL    HW2 6984   3.658   4.313   5.783
 2029SOL     OW 6985   1.734   0.580   0.508
 2029SOL    HW1 6986   1.800   0.587   0.433
 2029SOL    HW2 6987   1.644   0.559   0.471
 2030SOL     OW 6988   1.709   2.112   2.856
 2030SOL    HW1 6989   1.740   2.203   2.828
 2030SOL    HW2 6990   1.612   2.117   2.881
 2031SOL     OW 6991   4.983   0.033   2.720
 2031SOL    HW1 6992   5.073   0.025   2.676
 2031SOL    HW2 6993   4.934   6.964   2.709
 2032SOL     OW 6994   5.572   6.520   1.553
 2032SOL    HW1 6995   5.574   6.618   1.533
 2032SOL    HW2 6996   5.491   6.499   1.608
 2033SOL     OW 6997   6.691   5.250   6.797
 2033SOL    HW1 6998   6.745   5.195   6.862
 2033SOL    HW2 6999   6.603   5.274   6.838
 2034SOL     OW 7000   2.320   6.829   3.370
 2034SOL    HW1 7001   2.364   6.890   3.435
 2034SOL    HW2 7002   2.245   6.877   3.324
 2035SOL     OW 7003   0.378   3.000   1.365
 2035SOL    HW1 7004   0.412   2.913   1.330
 2035SOL    HW2 7005   0.438   3.074   1.335
 2036SOL     OW 7006   0.971   4.317   0.402
 2036SOL    HW1 7007   0.972   4.355   0.309
 2036SOL    HW2 7008   0.897   4.250   0.409
 2037SOL     OW 7009   0.267   1.916   6.280
 2037SOL    HW1 7010   0.330   1.852   6.237
 2037SOL    HW2 7011   0.248   1.886   6.374
 2038SOL     OW 7012   0.922   0.033   5.374
 2038SOL    HW1 7013   0.975   0.102   5.324
 2038SOL    HW2 7014   0.909   0.064   5.468
 2039SOL     OW 7015   1.079   5.356   2.314
 2039SOL    HW1 7016   1.171   5.393   2.309
 2039SOL    HW2 7017   1.056   5.313   2.226
 2040SOL     OW 7018   3.354   3.820   4.285
 2040SOL    HW1 7019   3.268   3.870   4.276
 2040SOL    HW2 7020   3.394   3.839   4.375
 2041SOL     OW 7021   5.855   3.306   0.236
 2041SOL    HW1 7022   5.764   3.265   0.240
 2041SOL    HW2 7023   5.851   3.392   0.186
 2042SOL     OW 7024   3.395   5.900   0.654
 2042SOL    HW1 7025   3.342   5.823   0.617
 2042SOL    HW2 7026   3.441   5.871   0.738
 2043SOL     OW 7027   4.501   4.541   2.490
 2043SOL    HW1 7028   4.491   4.599   2.409
 2043SOL    HW2 7029   4.554   4.590   2.559
 2044SOL     OW 7030   6.426   0.853   1.979
 2044SOL    HW1 7031   6.400   0.787   1.909
 2044SOL    HW2 7032   6.524   0.872   1.971
 2045SOL     OW 7033   2.418   5.830   6.023
 2045SOL    HW1 7034   2.464   5.865   6.105
 2045SOL    HW2 7035   2.358   5.754   6.049
 2046SOL     OW 7036   6.257   0.003   5.133
 2046SOL    HW1 7037   6.160   0.011   5.110
 2046SOL    HW2 7038   6.275   0.053   5.218
 2047SOL     OW 7039   5.331   2.538   0.318
 2047SOL    HW1 7040   5.414   2.578   0.279
 2047SOL    HW2 7041   5.257   2.605   0.314
 2048SOL     OW 7042   4.590   6.776   5.236
 2048SOL    HW1 7043   4.553   6.683   5.228
 2048SOL    HW2 7044   4.630   6.803   5.149
 2049SOL     OW 7045   4.896   6.287   0.548
 2049SOL    HW1 7046   4.937   6.360   0.493
 2049SOL    HW2 7047   4.906   6.309   0.645
 2050SOL     OW 7048   5.444   0.597   4.206
 2050SOL    HW1 7049   5.540   0.573   4.224
 2050SOL    HW2 7050   5.436   0.638   4.116
 2051SOL     OW 7051   2.525   5.239   0.669
 2051SOL    HW1 7052   2.587   5.234   0.748
 2051SOL    HW2 7053   2.497   5.334   0.655
 2052SOL     OW 7054   1.193   2.615   0.976
 2052SOL    HW1 7055   1.102   2.629   1.015
 2052SOL    HW2 7056   1.209   2.517   0.963
 2053SOL     OW 7057   5.215   1.021   0.129
 2053SOL    HW1 7058   5.283   0.949   0.143
 2053SOL    HW2 7059   5.130   0.980   0.095
 2054SOL     OW 7060   0.138   3.629   1.390
 2054SOL    HW1 7061   0.117   3.715   1.435
 2054SOL    HW2 7062   0.126   3.553   1.454
 2055SOL     OW 7063   6.293   2.030   3.921
 2055SOL    HW1 7064   6.354   1.971   3.974
 2055SOL    HW2 7065   6.336   2.053   3.833
 2056SOL     OW 7066   0.761   0.145   2.246
 2056SOL    HW1 7067   0.677   0.182   2.206
 2056SOL    HW2 7068   0.737   0.073   2.311
 2057SOL     OW 7069   6.486   2.313   3.947
 2057SOL    HW1 7070   6.476   2.269   3.857
 2057SOL    HW2 7071   6.422   2.271   4.011
 2058SOL     OW 7072   0.447   1.326   1.905
 2058SOL    HW1 7073   0.451   1.229   1.929
 2058SOL    HW2 7074   0.534   1.369   1.928
 2059SOL     OW 7075   1.676   0.697   6.771
 2059SOL    HW1 7076   1.751   0.724   6.711
 2059SOL    HW2 7077   1.657   0.600   6.760
 2060SOL     OW 7078   0.469   5.320   2.009
 2060SOL    HW1 7079   0.376   5.322   1.973
 2060SOL    HW2 7080   0.520   5.400   1.975
 2061SOL     OW 7081   0.867   1.125   1.278
 2061SOL    HW1 7082   0.960   1.136   1.241
 2061SOL    HW2 7083   0.861   1.038   1.326
 2062SOL     OW 7084   4.193   0.482   3.372
 2062SOL    HW1 7085   4.122   0.534   3.420
 2062SOL    HW2 7086   4.150   0.404   3.325
 2063SOL     OW 7087   2.606   1.802   0.709
 2063SOL    HW1 7088   2.535   1.804   0.639
 2063SOL    HW2 7089   2.594   1.881   0.769
 2064SOL     OW 7090   0.883   2.302   6.998
 2064SOL    HW1 7091   0.967   2.353   0.001
 2064SOL    HW2 7092   0.889   2.266   6.904
 2065SOL     OW 7093   6.371   2.917   2.159
 2065SOL    HW1 7094   6.446   2.863   2.122
 2065SOL    HW2 7095   6.406   2.981   2.228
 2066SOL     OW 7096   1.852   6.644   3.128
 2066SOL    HW1 7097   1.868   6.723   3.069
 2066SOL    HW2 7098   1.940   6.606   3.158
 2067SOL     OW 7099   0.116   0.049   1.228
 2067SOL    HW1 7100   0.088   0.117   1.160
 2067SOL    HW2 7101   0.037   0.021   1.282
 2068SOL     OW 7102   1.610   1.121   5.174
 2068SOL    HW1 7103   1.555   1.180   5.114
 2068SOL    HW2 7104   1.707   1.139   5.159
 2069SOL     OW 7105   0.740   1.887   2.118
 2069SOL    HW1 7106   0.716   1.822   2.047
 2069SOL    HW2 7107   0.723   1.981   2.086
 2070SOL     OW 7108   1.307   1.271   2.824
 2070SOL    HW1 7109   1.349   1.245   2.737
 2070SOL    HW2 7110   1.377   1.268   2.896
 2071SOL     OW 7111   1.373   6.275   5.101
 2071SOL    HW1 7112   1.471   6.265   5.115
 2071SOL    HW2 7113   1.336   6.339   5.168
 2072SOL     OW 7114   4.882   4.565   2.038
 2072SOL    HW1 7115   4.948   4.608   2.100
 2072SOL    HW2 7116   4.898   4.597   1.945
 2073SOL     OW 7117   3.525   6.129   5.227
 2073SOL    HW1 7118   3.618   6.161   5.208
 2073SOL    HW2 7119   3.467   6.151   5.149
 2074SOL     OW 7120   6.255   2.358   2.010
 2074SOL    HW1 7121   6.163   2.321   2.017
 2074SOL    HW2 7122   6.321   2.284   2.006
 2075SOL     OW 7123   3.653   3.660   6.632
 2075SOL    HW1 7124   3.717   3.727   6.670
 2075SOL    HW2 7125   3.703   3.594   6.576
 2076SOL     OW 7126   4.560   0.882   0.815
 2076SOL    HW1 7127   4.627   0.921   0.879
 2076SOL    HW2 7128   4.596   0.798   0.776
 2077SOL     OW 7129   5.442   1.620   3.724
 2077SOL    HW1 7130   5.433   1.596   3.820
 2077SOL    HW2 7131   5.469   1.716   3.716
 2078SOL     OW 7132   4.213   6.001   4.863
 2078SOL    HW1 7133   4.185   5.909   4.838
 2078SOL    HW2 7134   4.256   6.045   4.784
 2079SOL     OW 7135   5.648   0.841   3.607
 2079SOL    HW1 7136   5.629   0.832   3.704
 2079SOL    HW2 7137   5.710   0.918   3.591
 2080SOL     OW 7138   3.242   2.187   4.309
 2080SOL    HW1 7139   3.219   2.178   4.212
 2080SOL    HW2 7140   3.321   2.130   4.329
 2081SOL     OW 7141   0.799   5.962   4.672
 2081SOL    HW1 7142   0.759   6.024   4.604
 2081SOL    HW2 7143   0.729   5.939   4.739
 2082SOL     OW 7144   4.839   0.865   2.275
 2082SOL    HW1 7145   4.813   0.944   2.220
 2082SOL    HW2 7146   4.767   0.797   2.273
 2083SOL     OW 7147   3.470   4.846   5.452
 2083SOL    HW1 7148   3.518   4.871   5.537
 2083SOL    HW2 7149   3.374   4.872   5.459
 2084SOL     OW 7150   0.138   2.968   2.625
 2084SOL    HW1 7151   0.203   2.893   2.612
 2084SOL    HW2 7152   0.049   2.940   2.590
 2085SOL     OW 7153   5.139   6.336   6.314
 2085SOL    HW1 7154   5.092   6.275   6.378
 2085SOL    HW2 7155   5.091   6.424   6.311
 2086SOL     OW 7156   3.328   4.882   0.392
 2086SOL    HW1 7157   3.420   4.887   0.431
 2086SOL    HW2 7158   3.266   4.938   0.447
 2087SOL     OW 7159   6.380   6.000   3.823
 2087SOL    HW1 7160   6.326   6.085   3.821
 2087SOL    HW2 7161   6.419   5.988   3.914
 2088SOL     OW 7162   2.406   0.178   0.888
 2088SOL    HW1 7163   2.505   0.193   0.882
 2088SOL    HW2 7164   2.384   0.086   0.856
 2089SOL     OW 7165   3.210   0.934   6.668
 2089SOL    HW1 7166   3.300   0.941   6.624
 2089SOL    HW2 7167   3.185   1.023   6.706
 2090SOL     OW 7168   3.699   2.983   3.364
 2090SOL    HW1 7169   3.686   2.965   3.461
 2090SOL    HW2 7170   3.674   2.903   3.311
 2091SOL     OW 7171   1.871   5.359   0.429
 2091SOL    HW1 7172   1.878   5.289   0.357
 2091SOL    HW2 7173   1.878   5.314   0.519
 2092SOL     OW 7174   0.033   6.485   1.243
 2092SOL    HW1 7175   0.069   6.410   1.299
 2092SOL    HW2 7176   7.009   6.554   1.302
 2093SOL     OW 7177   0.720   2.324   1.415
 2093SOL    HW1 7178   0.674   2.267   1.484
 2093SOL    HW2 7179   0.679   2.306   1.325
 2094SOL     OW 7180   6.050   0.494   2.141
 2094SOL    HW1 7181   5.972   0.541   2.182
 2094SOL    HW2 7182   6.118   0.560   2.112
 2095SOL     OW 7183   0.202   4.690   4.999
 2095SOL    HW1 7184   0.171   4.741   4.918
 2095SOL    HW2 7185   0.122   4.652   5.047
 2096SOL     OW 7186   5.024   3.791   3.386
 2096SOL    HW1 7187   4.982   3.704   3.410
 2096SOL    HW2 7188   5.124   3.783   3.392
 2097SOL     OW 7189   6.627   3.244   0.085
 2097SOL    HW1 7190   6.555   3.231   0.017
 2097SOL    HW2 7191   6.602   3.320   0.146
 2098SOL     OW 7192   4.878   0.470   4.039
 2098SOL    HW1 7193   4.798   0.420   4.007
 2098SOL    HW2 7194   4.881   0.468   4.139
 2099SOL     OW 7195   3.031   1.829   3.400
 2099SOL    HW1 7196   3.023   1.834   3.500
 2099SOL    HW2 7197   3.050   1.919   3.363
 2100SOL     OW 7198   3.742   4.323   6.665
 2100SOL    HW1 7199   3.659   4.377   6.678
 2100SOL    HW2 7200   3.772   4.331   6.570
 2101SOL     OW 7201   6.868   0.312   2.803
 2101SOL    HW1 7202   6.932   0.388   2.786
 2101SOL    HW2 7203   6.894   0.265   2.887
 2102SOL     OW 7204   0.745   5.002   1.759
 2102SOL    HW1 7205   0.765   5.087   1.808
 2102SOL    HW2 7206   0.756   4.925   1.822
 2103SOL     OW 7207   2.357   3.864   6.352
 2103SOL    HW1 7208   2.388   3.849   6.445
 2103SOL    HW2 7209   2.424   3.920   6.303
 2104SOL     OW 7210   1.584   3.494   5.127
 2104SOL    HW1 7211   1.577   3.402   5.088
 2104SOL    HW2 7212   1.644   3.492   5.208
 2105SOL     OW 7213   6.275   5.814   1.229
 2105SOL    HW1 7214   6.308   5.906   1.250
 2105SOL    HW2 7215   6.350   5.748   1.238
 2106SOL     OW 7216   5.158   5.695   6.516
 2106SOL    HW1 7217   5.081   5.749   6.548
 2106SOL    HW2 7218   5.162   5.608   6.565
 2107SOL     OW 7219   3.169   4.496   6.911
 2107SOL    HW1 7220   3.230   4.535   6.842
 2107SOL    HW2 7221   3.108   4.567   6.945
 2108SOL     OW 7222   5.471   5.038   5.616
 2108SOL    HW1 7223   5.489   5.090   5.532
 2108SOL    HW2 7224   5.373   5.024   5.627
 2109SOL     OW 7225   5.982   6.275   2.444
 2109SOL    HW1 7226   6.081   6.262   2.455
 2109SOL    HW2 7227   5.934   6.211   2.504
 2110SOL     OW 7228   2.066   4.852   5.198
 2110SOL    HW1 7229   2.075   4.774   5.136
 2110SOL    HW2 7230   2.027   4.929   5.149
 2111SOL     OW 7231   1.698   2.300   6.972
 2111SOL    HW1 7232   1.599   2.309   6.962
 2111SOL    HW2 7233   1.723   2.304   0.050
 2112SOL     OW 7234   5.044   3.400   0.437
 2112SOL    HW1 7235   5.021   3.469   0.368
 2112SOL    HW2 7236   5.108   3.334   0.399
 2113SOL     OW 7237   6.556   1.469   3.217
 2113SOL    HW1 7238   6.580   1.531   3.292
 2113SOL    HW2 7239   6.473   1.501   3.173
 2114SOL     OW 7240   1.919   3.573   0.016
 2114SOL    HW1 7241   1.821   3.587   0.001
 2114SOL    HW2 7242   1.932   3.507   0.090
 2115SOL     OW 7243   3.123   5.241   2.074
 2115SOL    HW1 7244   3.088   5.168   2.015
 2115SOL    HW2 7245   3.047   5.285   2.121
 2116SOL     OW 7246   0.043   4.015   3.241
 2116SOL    HW1 7247   0.023   4.014   3.143
 2116SOL    HW2 7248   7.002   4.081   3.286
 2117SOL     OW 7249   0.037   5.195   0.061
 2117SOL    HW1 7250   0.017   5.276   0.006
 2117SOL    HW2 7251   0.109   5.216   0.127
 2118SOL     OW 7252   6.550   4.100   2.094
 2118SOL    HW1 7253   6.627   4.078   2.033
 2118SOL    HW2 7254   6.465   4.102   2.041
 2119SOL     OW 7255   3.194   6.027   0.847
 2119SOL    HW1 7256   3.257   6.099   0.819
 2119SOL    HW2 7257   3.102   6.048   0.813
 2120SOL     OW 7258   0.023   4.994   2.291
 2120SOL    HW1 7259   0.019   4.959   2.197
 2120SOL    HW2 7260   0.065   5.085   2.291
 2121SOL     OW 7261   0.494   4.353   4.569
 2121SOL    HW1 7262   0.585   4.366   4.529
 2121SOL    HW2 7263   0.428   4.411   4.520
 2122SOL     OW 7264   4.661   4.531   5.444
 2122SOL    HW1 7265   4.598   4.453   5.448
 2122SOL    HW2 7266   4.748   4.505   5.484
 2123SOL     OW 7267   4.655   4.653   3.767
 2123SOL    HW1 7268   4.736   4.650   3.709
 2123SOL    HW2 7269   4.657   4.576   3.832
 2124SOL     OW 7270   3.132   1.249   1.516
 2124SOL    HW1 7271   3.190   1.264   1.597
 2124SOL    HW2 7272   3.186   1.261   1.433
 2125SOL     OW 7273   2.958   6.885   1.176
 2125SOL    HW1 7274   2.883   6.941   1.209
 2125SOL    HW2 7275   2.977   6.908   1.080
 2126SOL     OW 7276   2.502   0.590   2.253
 2126SOL    HW1 7277   2.471   0.617   2.162
 2126SOL    HW2 7278   2.434   0.531   2.295
 2127SOL     OW 7279   5.595   2.923   5.016
 2127SOL    HW1 7280   5.656   2.983   5.068
 2127SOL    HW2 7281   5.604   2.944   4.919
 2128SOL     OW 7282   0.821   4.335   4.152
 2128SOL    HW1 7283   0.868   4.423   4.141
 2128SOL    HW2 7284   0.729   4.351   4.188
 2129SOL     OW 7285   3.858   2.167   5.626
 2129SOL    HW1 7286   3.832   2.088   5.569
 2129SOL    HW2 7287   3.776   2.213   5.659
 2130SOL     OW 7288   4.529   6.881   3.359
 2130SOL    HW1 7289   4.560   6.815   3.290
 2130SOL    HW2 7290   4.430   6.876   3.369
 2131SOL     OW 7291   5.269   1.927   6.644
 2131SOL    HW1 7292   5.315   2.004   6.689
 2131SOL    HW2 7293   5.209   1.881   6.710
 2132SOL     OW 7294   2.379   3.479   0.618
 2132SOL    HW1 7295   2.426   3.491   0.705
 2132SOL    HW2 7296   2.298   3.422   0.631
 2133SOL     OW 7297   2.647   3.512   6.055
 2133SOL    HW1 7298   2.632   3.610   6.047
 2133SOL    HW2 7299   2.610   3.480   6.143
 2134SOL     OW 7300   0.874   0.007   0.983
 2134SOL    HW1 7301   0.829   6.980   0.906
 2134SOL    HW2 7302   0.834   6.994   1.069
 2135SOL     OW 7303   6.371   4.391   5.408
 2135SOL    HW1 7304   6.394   4.364   5.315
 2135SOL    HW2 7305   6.306   4.326   5.447
 2136SOL     OW 7306   0.869   5.008   0.999
 2136SOL    HW1 7307   0.840   4.964   1.084
 2136SOL    HW2 7308   0.793   5.062   0.962
 2137SOL     OW 7309   1.447   6.663   4.694
 2137SOL    HW1 7310   1.362   6.637   4.648
 2137SOL    HW2 7311   1.456   6.613   4.779
 2138SOL     OW 7312   5.252   1.299   1.621
 2138SOL    HW1 7313   5.277   1.356   1.699
 2138SOL    HW2 7314   5.210   1.214   1.653
 2139SOL     OW 7315   2.996   0.337   5.685
 2139SOL    HW1 7316   2.943   0.284   5.752
 2139SOL    HW2 7317   3.079   0.371   5.728
 2140SOL     OW 7318   2.441   1.556   4.832
 2140SOL    HW1 7319   2.347   1.579   4.806
 2140SOL    HW2 7320   2.501   1.633   4.808
 2141SOL     OW 7321   6.841   3.027   3.250
 2141SOL    HW1 7322   6.766   3.092   3.259
 2141SOL    HW2 7323   6.882   3.036   3.159
 2142SOL     OW 7324   1.487   2.239   2.669
 2142SOL    HW1 7325   1.550   2.180   2.617
 2142SOL    HW2 7326   1.395   2.229   2.633
 2143SOL     OW 7327   0.955   4.789   6.277
 2143SOL    HW1 7328   0.861   4.773   6.244
 2143SOL    HW2 7329   1.007   4.704   6.270
 2144SOL     OW 7330   6.617   4.788   3.382
 2144SOL    HW1 7331   6.530   4.778   3.335
 2144SOL    HW2 7332   6.646   4.884   3.379
 2145SOL     OW 7333   4.596   1.158   3.621
 2145SOL    HW1 7334   4.539   1.186   3.543
 2145SOL    HW2 7335   4.542   1.164   3.705
 2146SOL     OW 7336   2.079   2.906   0.611
 2146SOL    HW1 7337   2.173   2.914   0.643
 2146SOL    HW2 7338   2.019   2.886   0.689
 2147SOL     OW 7339   5.988   6.881   4.449
 2147SOL    HW1 7340   5.982   6.928   4.361
 2147SOL    HW2 7341   5.907   6.903   4.504
 2148SOL     OW 7342   0.489   3.312   5.971
 2148SOL    HW1 7343   0.421   3.376   5.933
 2148SOL    HW2 7344   0.454   3.219   5.965
 2149SOL     OW 7345   1.184   6.973   0.100
 2149SOL    HW1 7346   1.101   0.010   0.096
 2149SOL    HW2 7347   1.160   6.877   0.117
 2150SOL     OW 7348   1.817   2.935   1.391
 2150SOL    HW1 7349   1.726   2.921   1.352
 2150SOL    HW2 7350   1.827   2.881   1.474
 2151SOL     OW 7351   0.685   5.209   0.905
 2151SOL    HW1 7352   0.628   5.185   0.984
 2151SOL    HW2 7353   0.701   5.308   0.905
 2152SOL     OW 7354   5.656   6.033   3.906
 2152SOL    HW1 7355   5.611   6.070   3.988
 2152SOL    HW2 7356   5.591   5.976   3.856
 2153SOL     OW 7357   5.034   0.938   3.576
 2153SOL    HW1 7358   4.942   0.914   3.610
 2153SOL    HW2 7359   5.036   0.927   3.477
 2154SOL     OW 7360   3.080   0.510   2.897
 2154SOL    HW1 7361   3.122   0.438   2.842
 2154SOL    HW2 7362   3.118   0.598   2.870
 2155SOL     OW 7363   4.017   0.965   0.717
 2155SOL    HW1 7364   4.116   0.954   0.721
 2155SOL    HW2 7365   3.983   0.999   0.804
 2156SOL     OW 7366   5.476   1.793   5.223
 2156SOL    HW1 7367   5.497   1.835   5.311
 2156SOL    HW2 7368   5.427   1.707   5.238
 2157SOL     OW 7369   3.480   6.273   4.249
 2157SOL    HW1 7370   3.482   6.241   4.343
 2157SOL    HW2 7371   3.422   6.212   4.194
 2158SOL     OW 7372   3.083   6.837   0.642
 2158SOL    HW1 7373   3.036   6.916   0.603
 2158SOL    HW2 7374   3.182   6.853   0.642
 2159SOL     OW 7375   0.614   0.804   5.605
 2159SOL    HW1 7376   0.697   0.851   5.636
 2159SOL    HW2 7377   0.555   0.785   5.684
 2160SOL     OW 7378   5.627   0.195   0.159
 2160SOL    HW1 7379   5.723   0.187   0.133
 2160SOL    HW2 7380   5.620   0.237   0.249
 2161SOL     OW 7381   1.376   2.607   1.209
 2161SOL    HW1 7382   1.326   2.611   1.122
 2161SOL    HW2 7383   1.358   2.690   1.261
 2162SOL     OW 7384   1.280   6.752   1.518
 2162SOL    HW1 7385   1.282   6.849   1.497
 2162SOL    HW2 7386   1.370   6.723   1.551
 2163SOL     OW 7387   1.849   2.867   2.858
 2163SOL    HW1 7388   1.890   2.832   2.774
 2163SOL    HW2 7389   1.789   2.944   2.836
 2164SOL     OW 7390   2.157   3.114   2.577
 2164SOL    HW1 7391   2.062   3.082   2.579
 2164SOL    HW2 7392   2.162   3.203   2.623
 2165SOL     OW 7393   6.708   1.383   4.387
 2165SOL    HW1 7394   6.802   1.416   4.397
 2165SOL    HW2 7395   6.645   1.450   4.426
 2166SOL     OW 7396   0.011   3.877   2.634
 2166SOL    HW1 7397   0.093   3.858   2.580
 2166SOL    HW2 7398   6.953   3.820   2.600
 2167SOL     OW 7399   2.594   1.445   2.625
 2167SOL    HW1 7400   2.610   1.360   2.676
 2167SOL    HW2 7401   2.516   1.494   2.665
 2168SOL     OW 7402   1.804   1.568   3.326
 2168SOL    HW1 7403   1.803   1.608   3.234
 2168SOL    HW2 7404   1.729   1.606   3.380
 2169SOL     OW 7405   0.011   6.919   1.496
 2169SOL    HW1 7406   7.010   6.928   1.593
 2169SOL    HW2 7407   6.983   6.994   1.446
 2170SOL     OW 7408   1.322   3.983   5.996
 2170SOL    HW1 7409   1.337   3.989   5.897
 2170SOL    HW2 7410   1.224   3.970   6.014
 2171SOL     OW 7411   6.822   5.978   0.994
 2171SOL    HW1 7412   6.750   6.036   0.956
 2171SOL    HW2 7413   6.850   6.015   1.082
 2172SOL     OW 7414   1.757   1.653   5.085
 2172SOL    HW1 7415   1.695   1.701   5.147
 2172SOL    HW2 7416   1.851   1.665   5.117
 2173SOL     OW 7417   5.515   1.035   5.814
 2173SOL    HW1 7418   5.439   1.096   5.839
 2173SOL    HW2 7419   5.602   1.083   5.826
 2174SOL     OW 7420   5.491   0.642   6.123
 2174SOL    HW1 7421   5.428   0.570   6.094
 2174SOL    HW2 7422   5.504   0.707   6.048
 2175SOL     OW 7423   2.584   3.891   5.336
 2175SOL    HW1 7424   2.614   3.982   5.366
 2175SOL    HW2 7425   2.511   3.900   5.269
 2176SOL     OW 7426   5.253   2.290   2.416
 2176SOL    HW1 7427   5.315   2.216   2.442
 2176SOL    HW2 7428   5.173   2.289   2.477
 2177SOL     OW 7429   0.475   0.667   4.870
 2177SOL    HW1 7430   0.536   0.717   4.809
 2177SOL    HW2 7431   0.404   0.621   4.816
 2178SOL     OW 7432   1.231   1.954   2.705
 2178SOL    HW1 7433   1.174   1.894   2.650
 2178SOL    HW2 7434   1.320   1.912   2.720
 2179SOL     OW 7435   2.010   4.344   6.279
 2179SOL    HW1 7436   2.057   4.279   6.339
 2179SOL    HW2 7437   1.922   4.370   6.320
 2180SOL     OW 7438   0.581   5.932   3.017
 2180SOL    HW1 7439   0.527   6.014   2.998
 2180SOL    HW2 7440   0.674   5.959   3.043
 2181SOL     OW 7441   3.737   4.962   4.573
 2181SOL    HW1 7442   3.678   5.026   4.524
 2181SOL    HW2 7443   3.681   4.888   4.611
 2182SOL     OW 7444   0.002   6.250   2.414
 2182SOL    HW1 7445   0.098   6.277   2.403
 2182SOL    HW2 7446   6.989   6.279   2.505
 2183SOL     OW 7447   3.211   3.478   6.636
 2183SOL    HW1 7448   3.122   3.488   6.680
 2183SOL    HW2 7449   3.216   3.390   6.589
 2184SOL     OW 7450   6.619   1.440   0.358
 2184SOL    HW1 7451   6.715   1.459   0.339
 2184SOL    HW2 7452   6.588   1.498   0.433
 2185SOL     OW 7453   1.052   0.420   6.449
 2185SOL    HW1 7454   0.980   0.437   6.516
 2185SOL    HW2 7455   1.047   0.489   6.376
 2186SOL     OW 7456   6.781   5.582   5.460
 2186SOL    HW1 7457   6.804   5.649   5.389
 2186SOL    HW2 7458   6.745   5.500   5.418
 2187SOL     OW 7459   6.888   5.476   1.799
 2187SOL    HW1 7460   6.863   5.566   1.835
 2187SOL    HW2 7461   6.926   5.486   1.707
 2188SOL     OW 7462   2.680   0.824   0.539
 2188SOL    HW1 7463   2.627   0.768   0.603
 2188SOL    HW2 7464   2.758   0.772   0.504
 2189SOL     OW 7465   2.295   1.508   1.414
 2189SOL    HW1 7466   2.238   1.559   1.477
 2189SOL    HW2 7467   2.268   1.529   1.320
 2190SOL     OW 7468   6.522   3.982   1.602
 2190SOL    HW1 7469   6.446   3.978   1.538
 2190SOL    HW2 7470   6.560   3.890   1.614
 2191SOL     OW 7471   2.916   0.202   6.506
 2191SOL    HW1 7472   2.925   0.106   6.477
 2191SOL    HW2 7473   2.855   0.207   6.585
 2192SOL     OW 7474   5.241   1.855   1.932
 2192SOL    HW1 7475   5.169   1.873   1.865
 2192SOL    HW2 7476   5.263   1.940   1.981
 2193SOL     OW 7477   1.850   6.861   5.697
 2193SOL    HW1 7478   1.921   6.912   5.746
 2193SOL    HW2 7479   1.884   6.834   5.607
 2194SOL     OW 7480   0.818   4.199   6.117
 2194SOL    HW1 7481   0.778   4.113   6.148
 2194SOL    HW2 7482   0.904   4.181   6.069
 2195SOL     OW 7483   0.623   3.439   4.923
 2195SOL    HW1 7484   0.614   3.339   4.918
 2195SOL    HW2 7485   0.625   3.477   4.830
 2196SOL     OW 7486   3.169   0.542   6.808
 2196SOL    HW1 7487   3.192   0.455   6.763
 2196SOL    HW2 7488   3.098   0.527   6.876
 2197SOL     OW 7489   3.311   5.680   5.660
 2197SOL    HW1 7490   3.302   5.751   5.729
 2197SOL    HW2 7491   3.404   5.641   5.663
 2198SOL     OW 7492   0.964   0.870   0.218
 2198SOL    HW1 7493   1.027   0.815   0.163
 2198SOL    HW2 7494   0.956   0.961   0.179
 2199SOL     OW 7495   4.062   6.571   4.348
 2199SOL    HW1 7496   4.153   6.573   4.306
 2199SOL    HW2 7497   4.072   6.571   4.448
 2200SOL     OW 7498   2.841   1.999   3.868
 2200SOL    HW1 7499   2.916   1.983   3.804
 2200SOL    HW2 7500   2.754   1.986   3.822
 2201SOL     OW 7501   5.854   3.823   4.626
 2201SOL    HW1 7502   5.795   3.750   4.591
 2201SOL    HW2 7503   5.898   3.869   4.550
 2202SOL     OW 7504   3.266   6.796   2.339
 2202SOL    HW1 7505   3.361   6.790   2.308
 2202SOL    HW2 7506   3.205   6.810   2.261
 2203SOL     OW 7507   2.029   5.103   1.354
 2203SOL    HW1 7508   2.124   5.084   1.328
 2203SOL    HW2 7509   2.010   5.061   1.443
 2204SOL     OW 7510   5.994   3.005   0.729
 2204SOL    HW1 7511   5.963   3.086   0.678
 2204SOL    HW2 7512   5.938   2.926   0.703
 2205SOL     OW 7513   0.126   5.487   0.949
 2205SOL    HW1 7514   0.122   5.552   0.872
 2205SOL    HW2 7515   0.187   5.524   1.019
 2206SOL     OW 7516   4.070   2.460   5.937
 2206SOL    HW1 7517   4.033   2.526   5.871
 2206SOL    HW2 7518   3.996   2.406   5.976
 2207SOL     OW 7519   4.735   5.826   0.919
 2207SOL    HW1 7520   4.825   5.855   0.952
 2207SOL    HW2 7521   4.689   5.904   0.876
 2208SOL     OW 7522   6.743   6.737   3.585
 2208SOL    HW1 7523   6.808   6.809   3.608
 2208SOL    HW2 7524   6.783   6.677   3.515
 2209SOL     OW 7525   2.928   5.706   3.995
 2209SOL    HW1 7526   2.860   5.643   4.033
 2209SOL    HW2 7527   2.882   5.784   3.954
 2210SOL     OW 7528   4.662   0.234   1.545
 2210SOL    HW1 7529   4.616   0.163   1.492
 2210SOL    HW2 7530   4.724   0.285   1.485
 2211SOL     OW 7531   1.097   1.626   1.301
 2211SOL    HW1 7532   0.998   1.631   1.318
 2211SOL    HW2 7533   1.144   1.694   1.357
 2212SOL     OW 7534   3.178   5.723   6.657
 2212SOL    HW1 7535   3.188   5.630   6.622
 2212SOL    HW2 7536   3.184   5.788   6.581
 2213SOL     OW 7537   3.674   1.914   5.208
 2213SOL    HW1 7538   3.582   1.929   5.171
 2213SOL    HW2 7539   3.730   1.995   5.188
 2214SOL     OW 7540   4.428   4.203   6.733
 2214SOL    HW1 7541   4.426   4.109   6.698
 2214SOL    HW2 7542   4.355   4.214   6.801
 2215SOL     OW 7543   3.890   0.121   6.775
 2215SOL    HW1 7544   3.934   0.203   6.738
 2215SOL    HW2 7545   3.790   0.129   6.765
 2216SOL     OW 7546   0.848   6.579   6.357
 2216SOL    HW1 7547   0.879   6.567   6.452
 2216SOL    HW2 7548   0.752   6.553   6.350
 2217SOL     OW 7549   4.508   1.340   4.045
 2217SOL    HW1 7550   4.451   1.403   4.097
 2217SOL    HW2 7551   4.453   1.261   4.018
 2218SOL     OW 7552   0.362   5.586   5.558
 2218SOL    HW1 7553   0.453   5.608   5.592
 2218SOL    HW2 7554   0.321   5.667   5.516
 2219SOL     OW 7555   5.495   1.011   1.257
 2219SOL    HW1 7556   5.442   1.051   1.330
 2219SOL    HW2 7557   5.489   1.068   1.175
 2220SOL     OW 7558   0.164   6.130   4.620
 2220SOL    HW1 7559   0.064   6.132   4.620
 2220SOL    HW2 7560   0.200   6.223   4.608
 2221SOL     OW 7561   6.351   1.223   4.274
 2221SOL    HW1 7562   6.328   1.126   4.282
 2221SOL    HW2 7563   6.438   1.233   4.225
 2222SOL     OW 7564   4.750   0.528   2.397
 2222SOL    HW1 7565   4.688   0.588   2.448
 2222SOL    HW2 7566   4.836   0.519   2.447
 2223SOL     OW 7567   0.773   6.467   5.320
 2223SOL    HW1 7568   0.819   6.510   5.398
 2223SOL    HW2 7569   0.766   6.369   5.335
 2224SOL     OW 7570   5.812   3.646   0.208
 2224SOL    HW1 7571   5.860   3.692   0.284
 2224SOL    HW2 7572   5.760   3.714   0.157
 2225SOL     OW 7573   6.490   6.163   2.196
 2225SOL    HW1 7574   6.485   6.071   2.236
 2225SOL    HW2 7575   6.571   6.170   2.138
 2226SOL     OW 7576   2.628   4.891   0.032
 2226SOL    HW1 7577   2.722   4.921   0.051
 2226SOL    HW2 7578   2.626   4.841   6.964
 2227SOL     OW 7579   4.084   1.880   1.870
 2227SOL    HW1 7580   4.179   1.909   1.864
 2227SOL    HW2 7581   4.029   1.954   1.910
 2228SOL     OW 7582   5.382   5.553   0.083
 2228SOL    HW1 7583   5.297   5.518   0.122
 2228SOL    HW2 7584   5.430   5.609   0.151
 2229SOL     OW 7585   3.471   3.153   3.781
 2229SOL    HW1 7586   3.535   3.212   3.731
 2229SOL    HW2 7587   3.378   3.187   3.768
 2230SOL     OW 7588   5.915   0.426   6.689
 2230SOL    HW1 7589   5.972   0.362   6.741
 2230SOL    HW2 7590   5.879   0.380   6.608
 2231SOL     OW 7591   1.184   6.958   6.297
 2231SOL    HW1 7592   1.213   6.997   6.210
 2231SOL    HW2 7593   1.178   6.858   6.289
 2232SOL     OW 7594   1.428   0.785   5.474
 2232SOL    HW1 7595   1.475   0.807   5.388
 2232SOL    HW2 7596   1.334   0.758   5.454
 2233SOL     OW 7597   3.149   4.657   0.763
 2233SOL    HW1 7598   3.140   4.668   0.664
 2233SOL    HW2 7599   3.242   4.679   0.791
 2234SOL     OW 7600   4.988   1.907   1.739
 2234SOL    HW1 7601   4.964   1.967   1.815
 2234SOL    HW2 7602   4.972   1.954   1.652
 2235SOL     OW 7603   1.014   1.641   3.125
 2235SOL    HW1 7604   1.005   1.598   3.215
 2235SOL    HW2 7605   1.077   1.588   3.069
 2236SOL     OW 7606   2.616   5.080   5.283
 2236SOL    HW1 7607   2.686   5.026   5.329
 2236SOL    HW2 7608   2.564   5.022   5.221
 2237SOL     OW 7609   6.264   5.349   5.608
 2237SOL    HW1 7610   6.207   5.317   5.532
 2237SOL    HW2 7611   6.277   5.275   5.674
 2238SOL     OW 7612   6.035   3.644   1.707
 2238SOL    HW1 7613   6.092   3.564   1.724
 2238SOL    HW2 7614   6.058   3.716   1.772
 2239SOL     OW 7615   4.721   6.754   3.196
 2239SOL    HW1 7616   4.778   6.690   3.248
 2239SOL    HW2 7617   4.652   6.703   3.145
 2240SOL     OW 7618   4.800   5.281   2.453
 2240SOL    HW1 7619   4.707   5.298   2.422
 2240SOL    HW2 7620   4.840   5.205   2.401
 2241SOL     OW 7621   0.750   1.426   2.625
 2241SOL    HW1 7622   0.709   1.336   2.638
 2241SOL    HW2 7623   0.741   1.479   2.709
 2242SOL     OW 7624   5.306   2.496   3.511
 2242SOL    HW1 7625   5.295   2.424   3.579
 2242SOL    HW2 7626   5.393   2.543   3.526
 2243SOL     OW 7627   1.953   6.839   0.833
 2243SOL    HW1 7628   1.989   6.860   0.742
 2243SOL    HW2 7629   2.008   6.767   0.875
 2244SOL     OW 7630   2.154   1.083   0.569
 2244SOL    HW1 7631   2.207   1.156   0.525
 2244SOL    HW2 7632   2.058   1.110   0.573
 2245SOL     OW 7633   0.362   0.462   0.336
 2245SOL    HW1 7634   0.378   0.510   0.422
 2245SOL    HW2 7635   0.417   0.378   0.335
 2246SOL     OW 7636   3.322   1.705   5.348
 2246SOL    HW1 7637   3.353   1.794   5.383
 2246SOL    HW2 7638   3.329   1.704   5.248
 2247SOL     OW 7639   3.276   2.953   2.629
 2247SOL    HW1 7640   3.297   2.885   2.559
 2247SOL    HW2 7641   3.262   2.908   2.717
 2248SOL     OW 7642   4.634   4.079   5.228
 2248SOL    HW1 7643   4.686   4.104   5.309
 2248SOL    HW2 7644   4.696   4.045   5.157
 2249SOL     OW 7645   1.465   6.339   3.242
 2249SOL    HW1 7646   1.409   6.366   3.320
 2249SOL    HW2 7647   1.533   6.410   3.224
 2250SOL     OW 7648   4.624   5.652   6.268
 2250SOL    HW1 7649   4.660   5.614   6.354
 2250SOL    HW2 7650   4.673   5.736   6.246
 2251SOL     OW 7651   5.446   6.057   5.400
 2251SOL    HW1 7652   5.519   6.008   5.449
 2251SOL    HW2 7653   5.485   6.105   5.321
 2252SOL     OW 7654   4.362   1.896   2.204
 2252SOL    HW1 7655   4.268   1.930   2.213
 2252SOL    HW2 7656   4.419   1.967   2.161
 2253SOL     OW 7657   0.752   3.433   0.941
 2253SOL    HW1 7658   0.751   3.472   1.034
 2253SOL    HW2 7659   0.843   3.444   0.901
 2254SOL     OW 7660   3.779   4.094   2.584
 2254SOL    HW1 7661   3.826   4.049   2.659
 2254SOL    HW2 7662   3.682   4.105   2.607
 2255SOL     OW 7663   2.707   3.204   6.239
 2255SOL    HW1 7664   2.691   3.284   6.296
 2255SOL    HW2 7665   2.675   3.222   6.146
 2256SOL     OW 7666   5.285   0.272   1.402
 2256SOL    HW1 7667   5.380   0.253   1.376
 2256SOL    HW2 7668   5.250   0.348   1.348
 2257SOL     OW 7669   6.984   0.988   5.314
 2257SOL    HW1 7670   6.997   0.931   5.395
 2257SOL    HW2 7671   6.955   1.080   5.341
 2258SOL     OW 7672   2.823   5.512   4.162
 2258SOL    HW1 7673   2.847   5.506   4.259
 2258SOL    HW2 7674   2.825   5.420   4.122
 2259SOL     OW 7675   5.750   2.360   4.825
 2259SOL    HW1 7676   5.663   2.311   4.811
 2259SOL    HW2 7677   5.817   2.297   4.865
 2260SOL     OW 7678   0.553   3.934   1.532
 2260SOL    HW1 7679   0.540   3.986   1.448
 2260SOL    HW2 7680   0.650   3.934   1.557
 2261SOL     OW 7681   5.347   3.649   6.650
 2261SOL    HW1 7682   5.266   3.690   6.691
 2261SOL    HW2 7683   5.323   3.609   6.562
 2262SOL     OW 7684   6.540   0.034   4.713
 2262SOL    HW1 7685   6.608   0.067   4.648
 2262SOL    HW2 7686   6.537   6.952   4.710
 2263SOL     OW 7687   2.222   4.497   6.504
 2263SOL    HW1 7688   2.161   4.553   6.448
 2263SOL    HW2 7689   2.190   4.402   6.503
 2264SOL     OW 7690   3.115   0.051   5.762
 2264SOL    HW1 7691   3.110   0.123   5.693
 2264SOL    HW2 7692   3.153   0.088   5.847
 2265SOL     OW 7693   0.022   6.468   4.465
 2265SOL    HW1 7694   0.089   6.480   4.537
 2265SOL    HW2 7695   0.065   6.424   4.386
 2266SOL     OW 7696   4.314   3.011   6.843
 2266SOL    HW1 7697   4.266   3.035   6.928
 2266SOL    HW2 7698   4.260   3.043   6.765
 2267SOL     OW 7699   4.922   2.647   4.410
 2267SOL    HW1 7700   4.918   2.555   4.371
 2267SOL    HW2 7701   4.848   2.658   4.476
 2268SOL     OW 7702   1.049   5.597   4.727
 2268SOL    HW1 7703   1.079   5.689   4.751
 2268SOL    HW2 7704   1.017   5.549   4.808
 2269SOL     OW 7705   1.532   2.558   5.458
 2269SOL    HW1 7706   1.565   2.464   5.459
 2269SOL    HW2 7707   1.487   2.579   5.544
 2270SOL     OW 7708   4.762   1.716   5.901
 2270SOL    HW1 7709   4.715   1.672   5.978
 2270SOL    HW2 7710   4.833   1.777   5.935
 2271SOL     OW 7711   4.435   5.674   5.318
 2271SOL    HW1 7712   4.483   5.759   5.341
 2271SOL    HW2 7713   4.362   5.694   5.253
 2272SOL     OW 7714   5.264   1.387   6.172
 2272SOL    HW1 7715   5.322   1.413   6.249
 2272SOL    HW2 7716   5.311   1.320   6.115
 2273SOL     OW 7717   0.756   2.445   2.949
 2273SOL    HW1 7718   0.822   2.411   2.882
 2273SOL    HW2 7719   0.701   2.369   2.983
 2274SOL     OW 7720   0.451   1.654   0.035
 2274SOL    HW1 7721   0.540   1.697   0.017
 2274SOL    HW2 7722   0.447   1.623   0.130
 2275SOL     OW 7723   5.648   4.828   3.053
 2275SOL    HW1 7724   5.693   4.795   2.971
 2275SOL    HW2 7725   5.557   4.786   3.060
 2276SOL     OW 7726   1.857   1.918   1.046
 2276SOL    HW1 7727   1.837   2.016   1.056
 2276SOL    HW2 7728   1.949   1.899   1.080
 2277SOL     OW 7729   3.785   3.382   3.441
 2277SOL    HW1 7730   3.764   3.478   3.460
 2277SOL    HW2 7731   3.709   3.342   3.390
 2278SOL     OW 7732   0.683   2.653   3.457
 2278SOL    HW1 7733   0.653   2.566   3.417
 2278SOL    HW2 7734   0.731   2.635   3.543
 2279SOL     OW 7735   0.617   5.587   5.671
 2279SOL    HW1 7736   0.707   5.580   5.628
 2279SOL    HW2 7737   0.620   5.545   5.762
 2280SOL     OW 7738   4.686   1.764   5.486
 2280SOL    HW1 7739   4.618   1.798   5.422
 2280SOL    HW2 7740   4.691   1.826   5.565
 2281SOL     OW 7741   5.856   6.703   2.563
 2281SOL    HW1 7742   5.922   6.677   2.493
 2281SOL    HW2 7743   5.806   6.785   2.534
 2282SOL     OW 7744   4.122   6.926   5.593
 2282SOL    HW1 7745   4.102   0.006   5.603
 2282SOL    HW2 7746   4.087   6.893   5.505
 2283SOL     OW 7747   0.145   0.456   3.908
 2283SOL    HW1 7748   0.228   0.493   3.950
 2283SOL    HW2 7749   0.072   0.450   3.976
 2284SOL     OW 7750   0.952   2.567   0.043
 2284SOL    HW1 7751   0.994   2.641   7.008
 2284SOL    HW2 7752   0.951   2.592   0.140
 2285SOL     OW 7753   1.735   4.331   6.378
 2285SOL    HW1 7754   1.732   4.274   6.296
 2285SOL    HW2 7755   1.649   4.321   6.428
 2286SOL     OW 7756   4.947   5.226   3.432
 2286SOL    HW1 7757   4.863   5.243   3.381
 2286SOL    HW2 7758   4.942   5.136   3.475
 2287SOL     OW 7759   1.566   1.284   3.332
 2287SOL    HW1 7760   1.569   1.307   3.235
 2287SOL    HW2 7761   1.595   1.189   3.345
 2288SOL     OW 7762   0.200   5.515   2.471
 2288SOL    HW1 7763   0.127   5.583   2.467
 2288SOL    HW2 7764   0.276   5.545   2.414
 2289SOL     OW 7765   0.426   5.429   1.317
 2289SOL    HW1 7766   0.466   5.392   1.400
 2289SOL    HW2 7767   0.335   5.465   1.337
 2290SOL     OW 7768   0.594   5.833   0.350
 2290SOL    HW1 7769   0.650   5.848   0.269
 2290SOL    HW2 7770   0.597   5.736   0.375
 2291SOL     OW 7771   2.724   1.597   0.202
 2291SOL    HW1 7772   2.639   1.648   0.214
 2291SOL    HW2 7773   2.726   1.519   0.264
 2292SOL     OW 7774   1.364   1.545   5.115
 2292SOL    HW1 7775   1.331   1.548   5.020
 2292SOL    HW2 7776   1.312   1.609   5.170
 2293SOL     OW 7777   5.468   4.351   2.601
 2293SOL    HW1 7778   5.520   4.268   2.621
 2293SOL    HW2 7779   5.384   4.328   2.552
 2294SOL     OW 7780   3.454   6.111   6.596
 2294SOL    HW1 7781   3.356   6.124   6.590
 2294SOL    HW2 7782   3.482   6.109   6.693
 2295SOL     OW 7783   0.566   2.308   1.181
 2295SOL    HW1 7784   0.472   2.300   1.212
 2295SOL    HW2 7785   0.573   2.275   1.086
 2296SOL     OW 7786   2.758   6.492   0.383
 2296SOL    HW1 7787   2.857   6.485   0.388
 2296SOL    HW2 7788   2.724   6.546   0.460
 2297SOL     OW 7789   4.288   6.451   5.801
 2297SOL    HW1 7790   4.297   6.526   5.736
 2297SOL    HW2 7791   4.364   6.453   5.866
 2298SOL     OW 7792   4.157   3.176   6.691
 2298SOL    HW1 7793   4.116   3.134   6.611
 2298SOL    HW2 7794   4.190   3.268   6.667
 2299SOL     OW 7795   4.656   6.143   0.534
 2299SOL    HW1 7796   4.678   6.050   0.506
 2299SOL    HW2 7797   4.735   6.203   0.518
 2300SOL     OW 7798   1.469   4.679   1.691
 2300SOL    HW1 7799   1.414   4.740   1.748
 2300SOL    HW2 7800   1.454   4.584   1.720
 2301SOL     OW 7801   4.012   3.641   1.741
 2301SOL    HW1 7802   4.064   3.607   1.819
 2301SOL    HW2 7803   3.942   3.574   1.716
 2302SOL     OW 7804   2.482   5.715   3.083
 2302SOL    HW1 7805   2.412   5.780   3.116
 2302SOL    HW2 7806   2.454   5.622   3.107
 2303SOL     OW 7807   0.645   3.158   4.868
 2303SOL    HW1 7808   0.550   3.181   4.846
 2303SOL    HW2 7809   0.682   3.097   4.798
 2304SOL     OW 7810   2.805   1.170   4.083
 2304SOL    HW1 7811   2.866   1.106   4.037
 2304SOL    HW2 7812   2.749   1.121   4.150
 2305SOL     OW 7813   4.063   5.605   1.956
 2305SOL    HW1 7814   3.999   5.572   1.887
 2305SOL    HW2 7815   4.113   5.684   1.920
 2306SOL     OW 7816   1.066   3.648   0.662
 2306SOL    HW1 7817   1.111   3.698   0.736
 2306SOL    HW2 7818   1.076   3.699   0.576
 2307SOL     OW 7819   0.841   2.544   2.465
 2307SOL    HW1 7820   0.871   2.594   2.546
 2307SOL    HW2 7821   0.834   2.446   2.486
 2308SOL     OW 7822   0.158   0.174   0.078
 2308SOL    HW1 7823   0.112   0.205   0.161
 2308SOL    HW2 7824   0.090   0.150   0.009
 2309SOL     OW 7825   3.736   5.121   5.922
 2309SOL    HW1 7826   3.674   5.121   6.001
 2309SOL    HW2 7827   3.828   5.144   5.951
 2310SOL     OW 7828   5.357   1.419   2.311
 2310SOL    HW1 7829   5.260   1.402   2.331
 2310SOL    HW2 7830   5.365   1.499   2.252
 2311SOL     OW 7831   2.906   0.188   3.030
 2311SOL    HW1 7832   2.940   0.178   2.937
 2311SOL    HW2 7833   2.883   0.284   3.047
 2312SOL     OW 7834   2.791   0.718   2.648
 2312SOL    HW1 7835   2.838   0.788   2.701
 2312SOL    HW2 7836   2.805   0.735   2.550
 2313SOL     OW 7837   5.197   3.942   1.915
 2313SOL    HW1 7838   5.186   3.974   1.821
 2313SOL    HW2 7839   5.206   3.843   1.916
 2314SOL     OW 7840   6.165   0.090   2.902
 2314SOL    HW1 7841   6.107   0.171   2.914
 2314SOL    HW2 7842   6.114   0.019   2.855
 2315SOL     OW 7843   4.080   6.003   5.135
 2315SOL    HW1 7844   4.142   6.059   5.189
 2315SOL    HW2 7845   4.116   5.995   5.042
 2316SOL     OW 7846   2.886   1.902   5.951
 2316SOL    HW1 7847   2.983   1.922   5.938
 2316SOL    HW2 7848   2.840   1.902   5.862
 2317SOL     OW 7849   6.676   6.101   3.423
 2317SOL    HW1 7850   6.744   6.040   3.463
 2317SOL    HW2 7851   6.586   6.058   3.426
 2318SOL     OW 7852   1.484   4.926   5.362
 2318SOL    HW1 7853   1.491   4.840   5.413
 2318SOL    HW2 7854   1.575   4.961   5.342
 2319SOL     OW 7855   2.254   4.959   3.816
 2319SOL    HW1 7856   2.303   4.942   3.902
 2319SOL    HW2 7857   2.167   4.909   3.816
 2320SOL     OW 7858   1.486   2.575   5.154
 2320SOL    HW1 7859   1.441   2.663   5.138
 2320SOL    HW2 7860   1.531   2.577   5.243
 2321SOL     OW 7861   2.437   4.999   5.755
 2321SOL    HW1 7862   2.382   5.008   5.839
 2321SOL    HW2 7863   2.410   4.915   5.707
 2322SOL     OW 7864   0.850   3.784   1.818
 2322SOL    HW1 7865   0.771   3.812   1.874
 2322SOL    HW2 7866   0.926   3.760   1.878
 2323SOL     OW 7867   2.307   4.904   1.683
 2323SOL    HW1 7868   2.222   4.852   1.694
 2323SOL    HW2 7869   2.362   4.896   1.766
 2324SOL     OW 7870   0.058   5.295   2.342
 2324SOL    HW1 7871   7.003   5.292   2.274
 2324SOL    HW2 7872   0.104   5.383   2.339
 2325SOL     OW 7873   0.040   5.030   1.839
 2325SOL    HW1 7874   0.020   5.119   1.797
 2325SOL    HW2 7875   0.136   5.007   1.824
 2326SOL     OW 7876   1.315   0.473   6.367
 2326SOL    HW1 7877   1.220   0.444   6.373
 2326SOL    HW2 7878   1.338   0.530   6.446
 2327SOL     OW 7879   6.875   0.631   2.876
 2327SOL    HW1 7880   6.921   0.646   2.964
 2327SOL    HW2 7881   6.941   0.640   2.802
 2328SOL     OW 7882   2.326   2.698   2.512
 2328SOL    HW1 7883   2.284   2.609   2.493
 2328SOL    HW2 7884   2.265   2.751   2.570
 2329SOL     OW 7885   0.736   5.671   3.452
 2329SOL    HW1 7886   0.744   5.690   3.354
 2329SOL    HW2 7887   0.676   5.738   3.495
 2330SOL     OW 7888   6.678   2.417   0.349
 2330SOL    HW1 7889   6.623   2.413   0.432
 2330SOL    HW2 7890   6.759   2.473   0.365
 2331SOL     OW 7891   4.246   5.999   0.226
 2331SOL    HW1 7892   4.229   5.902   0.240
 2331SOL    HW2 7893   4.344   6.014   0.210
 2332SOL     OW 7894   5.202   6.686   6.310
 2332SOL    HW1 7895   5.181   6.782   6.328
 2332SOL    HW2 7896   5.152   6.655   6.229
 2333SOL     OW 7897   0.206   4.575   2.592
 2333SOL    HW1 7898   0.125   4.517   2.595
 2333SOL    HW2 7899   0.185   4.660   2.543
 2334SOL     OW 7900   2.702   0.967   5.638
 2334SOL    HW1 7901   2.627   0.905   5.618
 2334SOL    HW2 7902   2.703   0.988   5.736
 2335SOL     OW 7903   6.247   1.505   3.069
 2335SOL    HW1 7904   6.247   1.484   3.166
 2335SOL    HW2 7905   6.291   1.430   3.018
 2336SOL     OW 7906   2.352   1.620   2.670
 2336SOL    HW1 7907   2.265   1.572   2.671
 2336SOL    HW2 7908   2.359   1.676   2.587
 2337SOL     OW 7909   4.221   2.073   1.198
 2337SOL    HW1 7910   4.210   2.123   1.284
 2337SOL    HW2 7911   4.315   2.086   1.164
 2338SOL     OW 7912   6.999   4.319   4.301
 2338SOL    HW1 7913   6.999   4.226   4.265
 2338SOL    HW2 7914   6.985   4.384   4.226
 2339SOL     OW 7915   3.964   3.572   2.799
 2339SOL    HW1 7916   3.922   3.660   2.817
 2339SOL    HW2 7917   3.913   3.524   2.728
 2340SOL     OW 7918   1.753   5.537   6.341
 2340SOL    HW1 7919   1.684   5.511   6.274
 2340SOL    HW2 7920   1.812   5.608   6.303
 2341SOL     OW 7921   2.404   4.352   3.642
 2341SOL    HW1 7922   2.375   4.304   3.725
 2341SOL    HW2 7923   2.473   4.421   3.665
 2342SOL     OW 7924   2.765   0.168   3.909
 2342SOL    HW1 7925   2.729   0.253   3.872
 2342SOL    HW2 7926   2.865   0.170   3.906
 2343SOL     OW 7927   1.559   6.721   2.294
 2343SOL    HW1 7928   1.603   6.756   2.377
 2343SOL    HW2 7929   1.551   6.795   2.227
 2344SOL     OW 7930   5.509   4.172   0.925
 2344SOL    HW1 7931   5.572   4.240   0.889
 2344SOL    HW2 7932   5.535   4.150   1.019
 2345SOL     OW 7933   2.688   5.951   4.812
 2345SOL    HW1 7934   2.626   5.902   4.873
 2345SOL    HW2 7935   2.644   6.036   4.781
 2346SOL     OW 7936   4.038   4.321   6.357
 2346SOL    HW1 7937   4.056   4.405   6.306
 2346SOL    HW2 7938   3.951   4.282   6.327
 2347SOL     OW 7939   1.227   2.468   1.522
 2347SOL    HW1 7940   1.196   2.385   1.569
 2347SOL    HW2 7941   1.326   2.464   1.511
 2348SOL     OW 7942   0.526   5.179   2.871
 2348SOL    HW1 7943   0.500   5.148   2.963
 2348SOL    HW2 7944   0.443   5.196   2.818
 2349SOL     OW 7945   0.357   4.741   6.510
 2349SOL    HW1 7946   0.367   4.840   6.508
 2349SOL    HW2 7947   0.337   4.708   6.418
 2350SOL     OW 7948   6.393   3.960   6.543
 2350SOL    HW1 7949   6.295   3.939   6.547
 2350SOL    HW2 7950   6.433   3.914   6.464
 2351SOL     OW 7951   2.198   4.953   3.219
 2351SOL    HW1 7952   2.137   4.963   3.298
 2351SOL    HW2 7953   2.278   4.899   3.245
 2352SOL     OW 7954   0.302   3.224   3.631
 2352SOL    HW1 7955   0.377   3.249   3.569
 2352SOL    HW2 7956   0.335   3.156   3.697
 2353SOL     OW 7957   3.520   5.766   5.080
 2353SOL    HW1 7958   3.426   5.796   5.095
 2353SOL    HW2 7959   3.569   5.834   5.026
 2354SOL     OW 7960   2.355   1.746   3.772
 2354SOL    HW1 7961   2.353   1.828   3.829
 2354SOL    HW2 7962   2.442   1.742   3.723
 2355SOL     OW 7963   1.990   5.915   4.836
 2355SOL    HW1 7964   1.925   5.839   4.826
 2355SOL    HW2 7965   2.035   5.909   4.925
 2356SOL     OW 7966   0.084   3.035   0.291
 2356SOL    HW1 7967   0.001   3.067   0.337
 2356SOL    HW2 7968   0.144   3.112   0.272
 2357SOL     OW 7969   2.883   6.845   2.524
 2357SOL    HW1 7970   2.902   6.816   2.618
 2357SOL    HW2 7971   2.798   6.898   2.522
 2358SOL     OW 7972   3.740   4.606   6.494
 2358SOL    HW1 7973   3.671   4.533   6.495
 2358SOL    HW2 7974   3.767   4.624   6.400
 2359SOL     OW 7975   1.255   0.415   4.832
 2359SOL    HW1 7976   1.176   0.354   4.824
 2359SOL    HW2 7977   1.330   0.366   4.878
 2360SOL     OW 7978   6.599   3.237   0.446
 2360SOL    HW1 7979   6.562   3.215   0.536
 2360SOL    HW2 7980   6.601   3.154   0.390
 2361SOL     OW 7981   3.775   1.576   5.972
 2361SOL    HW1 7982   3.844   1.511   5.941
 2361SOL    HW2 7983   3.743   1.631   5.895
 2362SOL     OW 7984   3.175   5.489   3.178
 2362SOL    HW1 7985   3.205   5.496   3.083
 2362SOL    HW2 7986   3.249   5.518   3.239
 2363SOL     OW 7987   3.931   1.499   3.962
 2363SOL    HW1 7988   3.865   1.424   3.964
 2363SOL    HW2 7989   3.918   1.553   3.879
 2364SOL     OW 7990   0.959   2.374   1.119
 2364SOL    HW1 7991   0.953   2.311   1.195
 2364SOL    HW2 7992   0.875   2.428   1.113
 2365SOL     OW 7993   5.777   2.116   6.513
 2365SOL    HW1 7994   5.876   2.128   6.518
 2365SOL    HW2 7995   5.734   2.205   6.499
 2366SOL     OW 7996   3.788   5.178   1.182
 2366SOL    HW1 7997   3.757   5.264   1.222
 2366SOL    HW2 7998   3.709   5.117   1.170
 2367SOL     OW 7999   2.133   3.016   0.261
 2367SOL    HW1 8000   2.094   2.951   0.195
 2367SOL    HW2 8001   2.082   3.011   0.347
 2368SOL     OW 8002   6.376   6.399   3.654
 2368SOL    HW1 8003   6.383   6.340   3.735
 2368SOL    HW2 8004   6.283   6.437   3.649
 2369SOL     OW 8005   2.160   0.110   3.644
 2369SOL    HW1 8006   2.178   0.021   3.684
 2369SOL    HW2 8007   2.194   0.182   3.706
 2370SOL     OW 8008   5.520   2.356   6.875
 2370SOL    HW1 8009   5.602   2.358   6.932
 2370SOL    HW2 8010   5.448   2.411   6.918
 2371SOL     OW 8011   2.960   6.899   1.640
 2371SOL    HW1 8012   2.900   6.820   1.644
 2371SOL    HW2 8013   3.055   6.869   1.630
 2372SOL     OW 8014   6.379   3.082   2.368
 2372SOL    HW1 8015   6.437   3.140   2.425
 2372SOL    HW2 8016   6.283   3.107   2.381
 2373SOL     OW 8017   2.011   3.471   6.509
 2373SOL    HW1 8018   2.051   3.412   6.579
 2373SOL    HW2 8019   1.985   3.558   6.551
 2374SOL     OW 8020   6.123   2.424   4.559
 2374SOL    HW1 8021   6.084   2.333   4.565
 2374SOL    HW2 8022   6.081   2.483   4.627
 2375SOL     OW 8023   3.463   5.588   4.834
 2375SOL    HW1 8024   3.509   5.643   4.904
 2375SOL    HW2 8025   3.531   5.549   4.771
 2376SOL     OW 8026   6.198   2.743   4.393
 2376SOL    HW1 8027   6.267   2.706   4.455
 2376SOL    HW2 8028   6.107   2.723   4.430
 2377SOL     OW 8029   3.086   3.069   3.814
 2377SOL    HW1 8030   3.120   3.058   3.721
 2377SOL    HW2 8031   3.037   3.156   3.822
 2378SOL     OW 8032   5.413   2.790   6.442
 2378SOL    HW1 8033   5.451   2.707   6.483
 2378SOL    HW2 8034   5.313   2.781   6.435
 2379SOL     OW 8035   6.390   0.258   0.849
 2379SOL    HW1 8036   6.411   0.177   0.904
 2379SOL    HW2 8037   6.323   0.314   0.896
 2380SOL     OW 8038   6.291   2.421   1.198
 2380SOL    HW1 8039   6.385   2.388   1.190
 2380SOL    HW2 8040   6.228   2.344   1.192
 2381SOL     OW 8041   1.774   6.218   3.367
 2381SOL    HW1 8042   1.732   6.201   3.456
 2381SOL    HW2 8043   1.706   6.205   3.295
 2382SOL     OW 8044   2.124   3.149   5.052
 2382SOL    HW1 8045   2.124   3.244   5.081
 2382SOL    HW2 8046   2.218   3.116   5.046
 2383SOL     OW 8047   6.325   6.064   1.337
 2383SOL    HW1 8048   6.234   6.098   1.360
 2383SOL    HW2 8049   6.366   6.122   1.267
 2384SOL     OW 8050   4.665   2.033   1.569
 2384SOL    HW1 8051   4.680   2.082   1.655
 2384SOL    HW2 8052   4.594   1.964   1.582
 2385SOL     OW 8053   0.674   1.793   6.668
 2385SOL    HW1 8054   0.670   1.765   6.764
 2385SOL    HW2 8055   0.679   1.893   6.662
 2386SOL     OW 8056   5.204   5.667   3.954
 2386SOL    HW1 8057   5.244   5.710   3.873
 2386SOL    HW2 8058   5.172   5.575   3.931
 2387SOL     OW 8059   1.806   1.573   4.034
 2387SOL    HW1 8060   1.758   1.499   4.081
 2387SOL    HW2 8061   1.853   1.630   4.102
 2388SOL     OW 8062   6.409   2.196   4.218
 2388SOL    HW1 8063   6.444   2.114   4.172
 2388SOL    HW2 8064   6.325   2.173   4.267
 2389SOL     OW 8065   4.177   5.118   3.170
 2389SOL    HW1 8066   4.080   5.097   3.168
 2389SOL    HW2 8067   4.195   5.189   3.238
 2390SOL     OW 8068   3.550   3.897   2.027
 2390SOL    HW1 8069   3.457   3.878   1.995
 2390SOL    HW2 8070   3.552   3.984   2.076
 2391SOL     OW 8071   4.618   5.326   5.520
 2391SOL    HW1 8072   4.612   5.237   5.565
 2391SOL    HW2 8073   4.535   5.379   5.539
 2392SOL     OW 8074   3.227   0.710   0.149
 2392SOL    HW1 8075   3.245   0.717   0.051
 2392SOL    HW2 8076   3.215   0.802   0.187
 2393SOL     OW 8077   4.233   4.585   5.957
 2393SOL    HW1 8078   4.307   4.536   5.911
 2393SOL    HW2 8079   4.198   4.657   5.896
 2394SOL     OW 8080   0.623   4.105   4.959
 2394SOL    HW1 8081   0.550   4.045   4.928
 2394SOL    HW2 8082   0.605   4.199   4.928
 2395SOL     OW 8083   3.710   6.653   5.828
 2395SOL    HW1 8084   3.749   6.598   5.902
 2395SOL    HW2 8085   3.670   6.736   5.866
 2396SOL     OW 8086   4.294   4.743   0.095
 2396SOL    HW1 8087   4.268   4.795   0.176
 2396SOL    HW2 8088   4.326   4.805   0.024
 2397SOL     OW 8089   0.458   3.815   4.984
 2397SOL    HW1 8090   0.497   3.824   5.075
 2397SOL    HW2 8091   0.408   3.728   4.977
 2398SOL     OW 8092   4.347   4.583   5.532
 2398SOL    HW1 8093   4.375   4.524   5.456
 2398SOL    HW2 8094   4.307   4.527   5.605
 2399SOL     OW 8095   4.613   2.299   1.734
 2399SOL    HW1 8096   4.705   2.325   1.707
 2399SOL    HW2 8097   4.562   2.381   1.763
 2400SOL     OW 8098   2.555   5.068   0.926
 2400SOL    HW1 8099   2.556   5.165   0.950
 2400SOL    HW2 8100   2.466   5.045   0.887
 2401SOL     OW 8101   6.086   6.244   6.084
 2401SOL    HW1 8102   6.141   6.310   6.034
 2401SOL    HW2 8103   5.997   6.232   6.039
 2402SOL     OW 8104   0.193   6.870   4.352
 2402SOL    HW1 8105   0.148   6.940   4.407
 2402SOL    HW2 8106   0.124   6.807   4.316
 2403SOL     OW 8107   0.526   2.286   5.518
 2403SOL    HW1 8108   0.445   2.275   5.460
 2403SOL    HW2 8109   0.497   2.298   5.613
 2404SOL     OW 8110   1.629   0.482   0.767
 2404SOL    HW1 8111   1.623   0.382   0.767
 2404SOL    HW2 8112   1.669   0.513   0.681
 2405SOL     OW 8113   2.925   3.608   1.673
 2405SOL    HW1 8114   2.847   3.604   1.611
 2405SOL    HW2 8115   3.010   3.595   1.621
 2406SOL     OW 8116   4.888   1.652   0.599
 2406SOL    HW1 8117   4.829   1.591   0.546
 2406SOL    HW2 8118   4.863   1.747   0.580
 2407SOL     OW 8119   5.595   0.906   3.127
 2407SOL    HW1 8120   5.579   0.827   3.068
 2407SOL    HW2 8121   5.530   0.905   3.203
 2408SOL     OW 8122   4.697   4.210   2.221
 2408SOL    HW1 8123   4.786   4.233   2.184
 2408SOL    HW2 8124   4.629   4.207   2.147
 2409SOL     OW 8125   1.805   3.999   0.531
 2409SOL    HW1 8126   1.760   3.917   0.565
 2409SOL    HW2 8127   1.752   4.079   0.557
 2410SOL     OW 8128   3.552   3.417   2.583
 2410SOL    HW1 8129   3.558   3.462   2.672
 2410SOL    HW2 8130   3.542   3.318   2.596
 2411SOL     OW 8131   5.409   0.033   4.602
 2411SOL    HW1 8132   5.403   0.132   4.614
 2411SOL    HW2 8133   5.344   0.003   4.533
 2412SOL     OW 8134   4.892   3.429   1.084
 2412SOL    HW1 8135   4.963   3.469   1.143
 2412SOL    HW2 8136   4.824   3.384   1.141
 2413SOL     OW 8137   5.102   0.365   2.171
 2413SOL    HW1 8138   5.093   0.447   2.228
 2413SOL    HW2 8139   5.031   0.299   2.196
 2414SOL     OW 8140   5.485   3.220   3.989
 2414SOL    HW1 8141   5.556   3.170   3.940
 2414SOL    HW2 8142   5.407   3.235   3.927
 2415SOL     OW 8143   4.769   1.343   3.478
 2415SOL    HW1 8144   4.732   1.259   3.517
 2415SOL    HW2 8145   4.842   1.378   3.537
 2416SOL     OW 8146   4.763   1.575   5.669
 2416SOL    HW1 8147   4.764   1.644   5.741
 2416SOL    HW2 8148   4.746   1.618   5.581
 2417SOL     OW 8149   3.083   3.080   4.085
 2417SOL    HW1 8150   3.071   3.063   3.987
 2417SOL    HW2 8151   3.145   3.010   4.123
 2418SOL     OW 8152   4.086   3.555   3.075
 2418SOL    HW1 8153   4.116   3.475   3.127
 2418SOL    HW2 8154   4.006   3.530   3.020
 2419SOL     OW 8155   0.609   0.112   2.921
 2419SOL    HW1 8156   0.558   0.106   2.835
 2419SOL    HW2 8157   0.706   0.127   2.901
 2420SOL     OW 8158   2.350   0.050   1.721
 2420SOL    HW1 8159   2.362   0.105   1.639
 2420SOL    HW2 8160   2.355   0.109   1.802
 2421SOL     OW 8161   2.848   2.281   3.954
 2421SOL    HW1 8162   2.861   2.257   4.050
 2421SOL    HW2 8163   2.824   2.199   3.902
 2422SOL     OW 8164   4.756   1.853   0.958
 2422SOL    HW1 8165   4.756   1.770   1.013
 2422SOL    HW2 8166   4.826   1.916   0.991
 2423SOL     OW 8167   2.080   5.587   2.832
 2423SOL    HW1 8168   2.075   5.634   2.920
 2423SOL    HW2 8169   2.037   5.497   2.839
 2424SOL     OW 8170   5.453   0.577   1.024
 2424SOL    HW1 8171   5.475   0.496   1.078
 2424SOL    HW2 8172   5.535   0.609   0.977
 2425SOL     OW 8173   6.498   6.636   4.489
 2425SOL    HW1 8174   6.528   6.668   4.399
 2425SOL    HW2 8175   6.452   6.548   4.480
 2426SOL     OW 8176   2.543   5.033   4.090
 2426SOL    HW1 8177   2.636   4.998   4.104
 2426SOL    HW2 8178   2.543   5.133   4.100
 2427SOL     OW 8179   6.411   0.090   5.614
 2427SOL    HW1 8180   6.380   0.011   5.561
 2427SOL    HW2 8181   6.372   0.086   5.706
 2428SOL     OW 8182   6.696   0.571   0.600
 2428SOL    HW1 8183   6.661   0.535   0.686
 2428SOL    HW2 8184   6.777   0.627   0.618
 2429SOL     OW 8185   4.751   5.868   1.966
 2429SOL    HW1 8186   4.699   5.815   1.899
 2429SOL    HW2 8187   4.826   5.916   1.919
 2430SOL     OW 8188   5.706   0.843   2.434
 2430SOL    HW1 8189   5.802   0.855   2.456
 2430SOL    HW2 8190   5.661   0.932   2.427
 2431SOL     OW 8191   3.854   0.345   2.242
 2431SOL    HW1 8192   3.783   0.415   2.233
 2431SOL    HW2 8193   3.931   0.382   2.294
 2432SOL     OW 8194   2.295   6.388   2.381
 2432SOL    HW1 8195   2.269   6.293   2.398
 2432SOL    HW2 8196   2.303   6.403   2.283
 2433SOL     OW 8197   3.946   0.098   0.013
 2433SOL    HW1 8198   3.882   0.028   0.044
 2433SOL    HW2 8199   3.940   0.106   6.931
 2434SOL     OW 8200   4.122   3.103   6.187
 2434SOL    HW1 8201   4.033   3.082   6.146
 2434SOL    HW2 8202   4.191   3.041   6.151
 2435SOL     OW 8203   5.690   5.812   5.281
 2435SOL    HW1 8204   5.788   5.823   5.265
 2435SOL    HW2 8205   5.664   5.717   5.265
 2436SOL     OW 8206   3.000   5.658   0.265
 2436SOL    HW1 8207   3.018   5.721   0.340
 2436SOL    HW2 8208   2.994   5.564   0.300
 2437SOL     OW 8209   6.878   0.308   6.271
 2437SOL    HW1 8210   6.827   0.241   6.219
 2437SOL    HW2 8211   6.936   0.261   6.338
 2438SOL     OW 8212   2.825   2.720   1.075
 2438SOL    HW1 8213   2.839   2.778   0.995
 2438SOL    HW2 8214   2.743   2.750   1.124
 2439SOL     OW 8215   6.095   4.541   4.864
 2439SOL    HW1 8216   6.182   4.498   4.887
 2439SOL    HW2 8217   6.111   4.622   4.808
 2440SOL     OW 8218   5.951   5.133   6.223
 2440SOL    HW1 8219   5.864   5.172   6.252
 2440SOL    HW2 8220   6.004   5.104   6.303
 2441SOL     OW 8221   6.079   2.338   1.021
 2441SOL    HW1 8222   6.002   2.394   1.051
 2441SOL    HW2 8223   6.093   2.264   1.087
 2442SOL     OW 8224   6.890   3.749   4.956
 2442SOL    HW1 8225   6.914   3.795   5.042
 2442SOL    HW2 8226   6.973   3.717   4.911
 2443SOL     OW 8227   2.933   5.002   5.986
 2443SOL    HW1 8228   2.933   4.902   5.993
 2443SOL    HW2 8229   2.928   5.029   5.890
 2444SOL     OW 8230   3.116   3.307   5.456
 2444SOL    HW1 8231   3.041   3.316   5.522
 2444SOL    HW2 8232   3.171   3.391   5.458
 2445SOL     OW 8233   0.880   0.212   0.795
 2445SOL    HW1 8234   0.787   0.216   0.758
 2445SOL    HW2 8235   0.885   0.142   0.865
 2446SOL     OW 8236   5.457   3.875   6.134
 2446SOL    HW1 8237   5.415   3.787   6.111
 2446SOL    HW2 8238   5.467   3.929   6.051
 2447SOL     OW 8239   0.298   2.347   6.597
 2447SOL    HW1 8240   0.343   2.434   6.580
 2447SOL    HW2 8241   0.224   2.361   6.664
 2448SOL     OW 8242   0.499   0.501   4.252
 2448SOL    HW1 8243   0.451   0.528   4.336
 2448SOL    HW2 8244   0.579   0.447   4.276
 2449SOL     OW 8245   0.723   2.819   4.675
 2449SOL    HW1 8246   0.728   2.771   4.763
 2449SOL    HW2 8247   0.805   2.874   4.663
 2450SOL     OW 8248   1.453   3.267   2.103
 2450SOL    HW1 8249   1.477   3.299   2.011
 2450SOL    HW2 8250   1.426   3.171   2.099
 2451SOL     OW 8251   2.562   6.610   4.660
 2451SOL    HW1 8252   2.586   6.568   4.748
 2451SOL    HW2 8253   2.641   6.609   4.600
 2452SOL     OW 8254   1.891   2.437   4.358
 2452SOL    HW1 8255   1.986   2.421   4.386
 2452SOL    HW2 8256   1.841   2.481   4.433
 2453SOL     OW 8257   0.479   3.449   1.451
 2453SOL    HW1 8258   0.537   3.518   1.495
 2453SOL    HW2 8259   0.421   3.405   1.519
 2454SOL     OW 8260   2.121   6.919   1.680
 2454SOL    HW1 8261   2.220   6.931   1.691
 2454SOL    HW2 8262   2.075   6.935   1.767
 2455SOL     OW 8263   5.087   4.118   0.914
 2455SOL    HW1 8264   5.050   4.060   0.842
 2455SOL    HW2 8265   5.137   4.195   0.873
 2456SOL     OW 8266   2.999   6.665   1.343
 2456SOL    HW1 8267   2.951   6.702   1.264
 2456SOL    HW2 8268   2.981   6.723   1.423
 2457SOL     OW 8269   5.889   6.325   1.276
 2457SOL    HW1 8270   5.843   6.339   1.363
 2457SOL    HW2 8271   5.842   6.254   1.224
 2458SOL     OW 8272   0.409   5.782   2.863
 2458SOL    HW1 8273   0.440   5.790   2.768
 2458SOL    HW2 8274   0.474   5.828   2.923
 2459SOL     OW 8275   0.700   1.013   0.582
 2459SOL    HW1 8276   0.776   0.960   0.619
 2459SOL    HW2 8277   0.628   0.951   0.551
 2460SOL     OW 8278   3.550   5.211   1.428
 2460SOL    HW1 8279   3.649   5.214   1.437
 2460SOL    HW2 8280   3.515   5.305   1.420
 2461SOL     OW 8281   5.317   0.990   3.635
 2461SOL    HW1 8282   5.377   0.916   3.666
 2461SOL    HW2 8283   5.228   0.982   3.679
 2462SOL     OW 8284   2.852   4.479   6.215
 2462SOL    HW1 8285   2.926   4.546   6.230
 2462SOL    HW2 8286   2.845   4.460   6.117
 2463SOL     OW 8287   0.105   2.061   4.241
 2463SOL    HW1 8288   0.188   2.113   4.223
 2463SOL    HW2 8289   0.033   2.123   4.273
 2464SOL     OW 8290   1.494   3.657   1.189
 2464SOL    HW1 8291   1.519   3.700   1.276
 2464SOL    HW2 8292   1.577   3.623   1.144
 2465SOL     OW 8293   5.915   5.171   2.515
 2465SOL    HW1 8294   5.911   5.089   2.458
 2465SOL    HW2 8295   5.870   5.153   2.602
 2466SOL     OW 8296   3.629   1.555   1.794
 2466SOL    HW1 8297   3.633   1.583   1.890
 2466SOL    HW2 8298   3.637   1.635   1.735
 2467SOL     OW 8299   6.601   1.453   5.096
 2467SOL    HW1 8300   6.589   1.544   5.056
 2467SOL    HW2 8301   6.698   1.433   5.105
 2468SOL     OW 8302   6.795   3.812   0.390
 2468SOL    HW1 8303   6.789   3.911   0.377
 2468SOL    HW2 8304   6.891   3.784   0.390
 2469SOL     OW 8305   3.071   2.712   5.748
 2469SOL    HW1 8306   3.124   2.709   5.833
 2469SOL    HW2 8307   3.134   2.717   5.670
 2470SOL     OW 8308   5.776   2.790   0.747
 2470SOL    HW1 8309   5.715   2.712   0.765
 2470SOL    HW2 8310   5.730   2.854   0.685
 2471SOL     OW 8311   0.288   1.155   3.586
 2471SOL    HW1 8312   0.345   1.076   3.606
 2471SOL    HW2 8313   0.235   1.138   3.503
 2472SOL     OW 8314   5.801   1.750   3.771
 2472SOL    HW1 8315   5.732   1.793   3.829
 2472SOL    HW2 8316   5.800   1.793   3.681
 2473SOL     OW 8317   0.521   6.544   5.274
 2473SOL    HW1 8318   0.617   6.517   5.272
 2473SOL    HW2 8319   0.465   6.466   5.302
 2474SOL     OW 8320   6.090   6.024   4.525
 2474SOL    HW1 8321   6.032   6.037   4.606
 2474SOL    HW2 8322   6.179   6.066   4.542
 2475SOL     OW 8323   4.677   2.328   6.026
 2475SOL    HW1 8324   4.622   2.249   6.000
 2475SOL    HW2 8325   4.707   2.319   6.121
 2476SOL     OW 8326   0.330   1.802   3.541
 2476SOL    HW1 8327   0.428   1.782   3.536
 2476SOL    HW2 8328   0.294   1.773   3.630
 2477SOL     OW 8329   4.562   5.104   2.238
 2477SOL    HW1 8330   4.500   5.066   2.307
 2477SOL    HW2 8331   4.600   5.030   2.182
 2478SOL     OW 8332   6.907   0.026   3.356
 2478SOL    HW1 8333   6.885   0.122   3.339
 2478SOL    HW2 8334   6.884   0.003   3.451
 2479SOL     OW 8335   0.296   2.064   6.929
 2479SOL    HW1 8336   0.305   2.071   0.010
 2479SOL    HW2 8337   0.220   2.003   6.906
 2480SOL     OW 8338   0.638   5.152   2.143
 2480SOL    HW1 8339   0.559   5.211   2.126
 2480SOL    HW2 8340   0.606   5.060   2.167
 2481SOL     OW 8341   3.884   5.016   2.452
 2481SOL    HW1 8342   3.862   5.084   2.382
 2481SOL    HW2 8343   3.956   5.051   2.511
 2482SOL     OW 8344   4.617   2.524   3.869
 2482SOL    HW1 8345   4.569   2.457   3.925
 2482SOL    HW2 8346   4.664   2.589   3.928
 2483SOL     OW 8347   0.488   2.799   0.039
 2483SOL    HW1 8348   0.469   2.867   6.986
 2483SOL    HW2 8349   0.485   2.708   7.017
 2484SOL     OW 8350   4.098   3.701   6.573
 2484SOL    HW1 8351   4.053   3.617   6.542
 2484SOL    HW2 8352   4.081   3.774   6.507
 2485SOL     OW 8353   0.305   6.218   0.592
 2485SOL    HW1 8354   0.251   6.157   0.651
 2485SOL    HW2 8355   0.400   6.219   0.625
 2486SOL     OW 8356   0.478   4.916   3.694
 2486SOL    HW1 8357   0.514   4.905   3.787
 2486SOL    HW2 8358   0.524   4.852   3.633
 2487SOL     OW 8359   3.207   1.640   1.487
 2487SOL    HW1 8360   3.107   1.639   1.484
 2487SOL    HW2 8361   3.237   1.611   1.578
 2488SOL     OW 8362   2.837   6.141   6.164
 2488SOL    HW1 8363   2.856   6.157   6.261
 2488SOL    HW2 8364   2.918   6.163   6.110
 2489SOL     OW 8365   6.891   5.779   4.362
 2489SOL    HW1 8366   6.896   5.874   4.334
 2489SOL    HW2 8367   6.883   5.721   4.280
 2490SOL     OW 8368   5.371   3.108   1.701
 2490SOL    HW1 8369   5.313   3.188   1.686
 2490SOL    HW2 8370   5.461   3.137   1.732
 2491SOL     OW 8371   0.003   4.386   2.598
 2491SOL    HW1 8372   6.923   4.374   2.616
 2491SOL    HW2 8373   0.031   4.323   2.525
 2492SOL     OW 8374   4.210   1.576   5.921
 2492SOL    HW1 8375   4.269   1.518   5.977
 2492SOL    HW2 8376   4.255   1.595   5.834
 2493SOL     OW 8377   6.463   1.284   4.945
 2493SOL    HW1 8378   6.387   1.333   4.902
 2493SOL    HW2 8379   6.513   1.346   5.005
 2494SOL     OW 8380   4.249   4.354   0.664
 2494SOL    HW1 8381   4.179   4.319   0.726
 2494SOL    HW2 8382   4.336   4.360   0.711
 2495SOL     OW 8383   6.657   0.799   2.905
 2495SOL    HW1 8384   6.743   0.748   2.898
 2495SOL    HW2 8385   6.595   0.753   2.968
 2496SOL     OW 8386   1.589   5.537   6.864
 2496SOL    HW1 8387   1.613   5.449   6.824
 2496SOL    HW2 8388   1.527   5.586   6.802
 2497SOL     OW 8389   5.536   0.365   6.955
 2497SOL    HW1 8390   5.567   0.314   0.017
 2497SOL    HW2 8391   5.602   0.437   6.933
 2498SOL     OW 8392   0.721   2.835   5.048
 2498SOL    HW1 8393   0.657   2.908   5.071
 2498SOL    HW2 8394   0.678   2.746   5.063
 2499SOL     OW 8395   5.005   0.307   0.207
 2499SOL    HW1 8396   5.003   0.378   0.137
 2499SOL    HW2 8397   4.947   0.230   0.179
 2500SOL     OW 8398   4.012   3.944   6.476
 2500SOL    HW1 8399   4.054   4.013   6.417
 2500SOL    HW2 8400   3.915   3.967   6.490
 2501SOL     OW 8401   6.355   4.536   1.008
 2501SOL    HW1 8402   6.404   4.602   0.951
 2501SOL    HW2 8403   6.377   4.443   0.977
 2502SOL     OW 8404   0.709   6.857   3.043
 2502SOL    HW1 8405   0.800   6.894   3.064
 2502SOL    HW2 8406   0.719   6.774   2.988
 2503SOL     OW 8407   5.570   0.033   4.193
 2503SOL    HW1 8408   5.552   0.090   4.113
 2503SOL    HW2 8409   5.487   7.002   4.219
 2504SOL     OW 8410   2.101   3.867   2.959
 2504SOL    HW1 8411   2.111   3.862   2.860
 2504SOL    HW2 8412   2.023   3.811   2.987
 2505SOL     OW 8413   5.235   3.998   4.601
 2505SOL    HW1 8414   5.220   3.907   4.561
 2505SOL    HW2 8415   5.313   4.042   4.557
 2506SOL     OW 8416   0.911   1.118   0.739
 2506SOL    HW1 8417   0.981   1.127   0.668
 2506SOL    HW2 8418   0.830   1.169   0.713
 2507SOL     OW 8419   6.513   6.409   0.066
 2507SOL    HW1 8420   6.419   6.435   0.048
 2507SOL    HW2 8421   6.534   6.324   0.019
 2508SOL     OW 8422   2.291   2.389   1.830
 2508SOL    HW1 8423   2.375   2.424   1.872
 2508SOL    HW2 8424   2.291   2.289   1.834
 2509SOL     OW 8425   5.637   1.234   3.412
 2509SOL    HW1 8426   5.708   1.236   3.483
 2509SOL    HW2 8427   5.621   1.327   3.379
 2510SOL     OW 8428   4.124   5.676   2.483
 2510SOL    HW1 8429   4.174   5.590   2.476
 2510SOL    HW2 8430   4.157   5.740   2.413
 2511SOL     OW 8431   1.279   7.016   3.146
 2511SOL    HW1 8432   1.221   6.998   3.067
 2511SOL    HW2 8433   1.223   0.030   3.222
 2512SOL     OW 8434   5.818   3.117   4.103
 2512SOL    HW1 8435   5.792   3.119   4.007
 2512SOL    HW2 8436   5.752   3.169   4.157
 2513SOL     OW 8437   0.487   4.509   1.161
 2513SOL    HW1 8438   0.556   4.441   1.138
 2513SOL    HW2 8439   0.401   4.487   1.114
 2514SOL     OW 8440   0.307   2.491   3.349
 2514SOL    HW1 8441   0.315   2.590   3.347
 2514SOL    HW2 8442   0.265   2.462   3.435
 2515SOL     OW 8443   1.196   4.615   0.048
 2515SOL    HW1 8444   1.137   4.680   7.017
 2515SOL    HW2 8445   1.278   4.662   0.080
 2516SOL     OW 8446   5.066   6.703   4.179
 2516SOL    HW1 8447   5.151   6.723   4.130
 2516SOL    HW2 8448   5.000   6.776   4.161
 2517SOL     OW 8449   2.213   5.418   1.055
 2517SOL    HW1 8450   2.138   5.444   0.994
 2517SOL    HW2 8451   2.235   5.494   1.116
 2518SOL     OW 8452   2.047   2.852   0.035
 2518SOL    HW1 8453   2.088   2.768   7.017
 2518SOL    HW2 8454   1.987   2.892   6.983
 2519SOL     OW 8455   6.040   4.114   5.202
 2519SOL    HW1 8456   5.978   4.176   5.154
 2519SOL    HW2 8457   6.006   4.020   5.196
 2520SOL     OW 8458   3.566   5.524   2.031
 2520SOL    HW1 8459   3.504   5.597   2.002
 2520SOL    HW2 8460   3.514   5.440   2.048
 2521SOL     OW 8461   5.492   6.865   5.959
 2521SOL    HW1 8462   5.520   6.773   5.983
 2521SOL    HW2 8463   5.392   6.871   5.960
 2522SOL     OW 8464   2.765   4.684   4.329
 2522SOL    HW1 8465   2.807   4.725   4.410
 2522SOL    HW2 8466   2.671   4.655   4.352
 2523SOL     OW 8467   0.847   2.491   5.726
 2523SOL    HW1 8468   0.863   2.393   5.710
 2523SOL    HW2 8469   0.831   2.506   5.823
 2524SOL     OW 8470   1.769   6.978   4.529
 2524SOL    HW1 8471   1.822   6.953   4.610
 2524SOL    HW2 8472   1.752   0.059   4.529
 2525SOL     OW 8473   2.354   4.705   2.801
 2525SOL    HW1 8474   2.368   4.789   2.853
 2525SOL    HW2 8475   2.364   4.724   2.703
 2526SOL     OW 8476   1.879   2.477   4.787
 2526SOL    HW1 8477   1.820   2.503   4.711
 2526SOL    HW2 8478   1.972   2.506   4.769
 2527SOL     OW 8479   6.772   0.180   3.965
 2527SOL    HW1 8480   6.835   0.122   4.018
 2527SOL    HW2 8481   6.748   0.261   4.018
 2528SOL     OW 8482   6.068   5.063   0.130
 2528SOL    HW1 8483   6.080   5.143   0.189
 2528SOL    HW2 8484   6.155   5.039   0.088
 2529SOL     OW 8485   4.943   4.076   5.230
 2529SOL    HW1 8486   5.028   4.028   5.253
 2529SOL    HW2 8487   4.896   4.026   5.157
 2530SOL     OW 8488   1.086   6.275   3.458
 2530SOL    HW1 8489   1.105   6.184   3.421
 2530SOL    HW2 8490   0.987   6.287   3.467
 2531SOL     OW 8491   5.241   1.233   6.940
 2531SOL    HW1 8492   5.256   1.301   7.013
 2531SOL    HW2 8493   5.159   1.180   6.960
 2532SOL     OW 8494   0.633   4.884   5.693
 2532SOL    HW1 8495   0.657   4.807   5.751
 2532SOL    HW2 8496   0.618   4.852   5.599
 2533SOL     OW 8497   5.712   0.039   5.475
 2533SOL    HW1 8498   5.676   0.005   5.562
 2533SOL    HW2 8499   5.807   0.067   5.487
 2534SOL     OW 8500   7.010   1.933   2.948
 2534SOL    HW1 8501   6.968   2.024   2.947
 2534SOL    HW2 8502   0.050   1.924   3.030
 2535SOL     OW 8503   2.559   1.301   3.043
 2535SOL    HW1 8504   2.461   1.312   3.053
 2535SOL    HW2 8505   2.602   1.391   3.038
 2536SOL     OW 8506   0.294   0.810   4.213
 2536SOL    HW1 8507   0.209   0.770   4.248
 2536SOL    HW2 8508   0.323   0.884   4.272
 2537SOL     OW 8509   3.769   6.140   2.003
 2537SOL    HW1 8510   3.859   6.096   2.003
 2537SOL    HW2 8511   3.772   6.222   1.945
 2538SOL     OW 8512   0.846   4.534   4.918
 2538SOL    HW1 8513   0.940   4.515   4.948
 2538SOL    HW2 8514   0.847   4.605   4.848
 2539SOL     OW 8515   2.164   0.552   5.302
 2539SOL    HW1 8516   2.079   0.505   5.326
 2539SOL    HW2 8517   2.184   0.536   5.205
 2540SOL     OW 8518   5.180   1.962   2.254
 2540SOL    HW1 8519   5.101   2.022   2.244
 2540SOL    HW2 8520   5.204   1.953   2.351
 2541SOL     OW 8521   0.819   1.459   5.883
 2541SOL    HW1 8522   0.794   1.529   5.950
 2541SOL    HW2 8523   0.786   1.486   5.793
 2542SOL     OW 8524   4.004   2.045   3.707
 2542SOL    HW1 8525   4.030   2.002   3.794
 2542SOL    HW2 8526   4.053   2.131   3.697
 2543SOL     OW 8527   6.811   1.669   4.785
 2543SOL    HW1 8528   6.883   1.681   4.853
 2543SOL    HW2 8529   6.721   1.681   4.828
 2544SOL     OW 8530   6.914   6.286   1.798
 2544SOL    HW1 8531   6.910   6.364   1.736
 2544SOL    HW2 8532   6.943   6.317   1.888
 2545SOL     OW 8533   6.686   1.734   0.118
 2545SOL    HW1 8534   6.670   1.808   0.053
 2545SOL    HW2 8535   6.688   1.771   0.211
 2546SOL     OW 8536   6.103   3.341   2.494
 2546SOL    HW1 8537   6.142   3.344   2.402
 2546SOL    HW2 8538   6.092   3.245   2.521
 2547SOL     OW 8539   5.638   4.149   1.165
 2547SOL    HW1 8540   5.621   4.212   1.241
 2547SOL    HW2 8541   5.712   4.086   1.190
 2548SOL     OW 8542   6.209   0.919   5.801
 2548SOL    HW1 8543   6.213   0.980   5.722
 2548SOL    HW2 8544   6.286   0.938   5.862
 2549SOL     OW 8545   2.851   5.044   0.870
 2549SOL    HW1 8546   2.887   4.952   0.880
 2549SOL    HW2 8547   2.756   5.047   0.902
 2550SOL     OW 8548   4.067   6.477   0.741
 2550SOL    HW1 8549   4.073   6.506   0.645
 2550SOL    HW2 8550   4.039   6.554   0.798
 2551SOL     OW 8551   3.660   4.710   1.292
 2551SOL    HW1 8552   3.678   4.695   1.389
 2551SOL    HW2 8553   3.625   4.802   1.278
 2552SOL     OW 8554   2.388   4.395   2.019
 2552SOL    HW1 8555   2.305   4.425   1.974
 2552SOL    HW2 8556   2.464   4.394   1.954
 2553SOL     OW 8557   4.826   1.278   0.070
 2553SOL    HW1 8558   4.782   1.328   0.145
 2553SOL    HW2 8559   4.860   1.190   0.104
 2554SOL     OW 8560   1.091   5.360   1.011
 2554SOL    HW1 8561   1.188   5.336   1.009
 2554SOL    HW2 8562   1.067   5.407   0.926
 2555SOL     OW 8563   0.110   6.742   5.080
 2555SOL    HW1 8564   0.086   6.698   4.993
 2555SOL    HW2 8565   0.103   6.675   5.154
 2556SOL     OW 8566   4.505   0.419   0.835
 2556SOL    HW1 8567   4.423   0.475   0.822
 2556SOL    HW2 8568   4.488   0.351   0.906
 2557SOL     OW 8569   3.086   1.065   0.025
 2557SOL    HW1 8570   2.987   1.068   0.016
 2557SOL    HW2 8571   3.127   1.053   6.952
 2558SOL     OW 8572   5.417   1.786   1.533
 2558SOL    HW1 8573   5.427   1.690   1.558
 2558SOL    HW2 8574   5.341   1.797   1.469
 2559SOL     OW 8575   0.009   5.450   2.817
 2559SOL    HW1 8576   0.070   5.528   2.828
 2559SOL    HW2 8577   0.018   5.390   2.897
 2560SOL     OW 8578   4.709   2.581   2.029
 2560SOL    HW1 8579   4.622   2.564   1.984
 2560SOL    HW2 8580   4.694   2.598   2.126
 2561SOL     OW 8581   2.854   0.169   4.204
 2561SOL    HW1 8582   2.820   0.234   4.272
 2561SOL    HW2 8583   2.798   0.175   4.121
 2562SOL     OW 8584   1.569   6.545   5.390
 2562SOL    HW1 8585   1.600   6.457   5.427
 2562SOL    HW2 8586   1.476   6.536   5.356
 2563SOL     OW 8587   3.594   2.981   6.695
 2563SOL    HW1 8588   3.613   3.066   6.647
 2563SOL    HW2 8589   3.598   2.904   6.631
 2564SOL     OW 8590   1.640   1.993   6.988
 2564SOL    HW1 8591   1.667   1.958   6.898
 2564SOL    HW2 8592   1.720   1.992   0.030
 2565SOL     OW 8593   0.537   0.731   0.773
 2565SOL    HW1 8594   0.635   0.739   0.791
 2565SOL    HW2 8595   0.513   0.782   0.691
 2566SOL     OW 8596   2.910   0.935   0.792
 2566SOL    HW1 8597   2.986   0.989   0.756
 2566SOL    HW2 8598   2.827   0.955   0.740
 2567SOL     OW 8599   1.942   0.649   6.440
 2567SOL    HW1 8600   1.980   0.676   6.352
 2567SOL    HW2 8601   1.846   0.625   6.428
 2568SOL     OW 8602   2.251   5.348   1.413
 2568SOL    HW1 8603   2.255   5.258   1.456
 2568SOL    HW2 8604   2.196   5.409   1.470
 2569SOL     OW 8605   1.733   6.627   6.954
 2569SOL    HW1 8606   1.773   6.541   6.986
 2569SOL    HW2 8607   1.633   6.622   6.963
 2570SOL     OW 8608   0.754   6.278   4.046
 2570SOL    HW1 8609   0.841   6.261   3.998
 2570SOL    HW2 8610   0.737   6.205   4.111
 2571SOL     OW 8611   3.164   4.044   2.930
 2571SOL    HW1 8612   3.108   4.023   3.010
 2571SOL    HW2 8613   3.256   4.071   2.960
 2572SOL     OW 8614   2.677   4.981   2.764
 2572SOL    HW1 8615   2.725   4.902   2.725
 2572SOL    HW2 8616   2.655   4.962   2.860
 2573SOL     OW 8617   6.521   0.942   3.151
 2573SOL    HW1 8618   6.457   0.936   3.228
 2573SOL    HW2 8619   6.559   1.034   3.146
 2574SOL     OW 8620   0.742   3.546   2.147
 2574SOL    HW1 8621   0.660   3.596   2.176
 2574SOL    HW2 8622   0.737   3.528   2.048
 2575SOL     OW 8623   4.677   3.211   5.787
 2575SOL    HW1 8624   4.636   3.223   5.697
 2575SOL    HW2 8625   4.731   3.126   5.788
 2576SOL     OW 8626   0.774   0.305   3.487
 2576SOL    HW1 8627   0.851   0.369   3.483
 2576SOL    HW2 8628   0.803   0.220   3.532
 2577SOL     OW 8629   1.722   4.804   1.853
 2577SOL    HW1 8630   1.714   4.825   1.951
 2577SOL    HW2 8631   1.711   4.889   1.801
 2578SOL     OW 8632   4.446   2.106   5.006
 2578SOL    HW1 8633   4.409   2.194   4.978
 2578SOL    HW2 8634   4.419   2.086   5.100
 2579SOL     OW 8635   0.270   1.119   6.331
 2579SOL    HW1 8636   0.197   1.160   6.386
 2579SOL    HW2 8637   0.348   1.098   6.389
 2580SOL     OW 8638   1.766   1.465   5.827
 2580SOL    HW1 8639   1.707   1.503   5.898
 2580SOL    HW2 8640   1.711   1.439   5.747
 2581SOL     OW 8641   6.292   6.314   4.693
 2581SOL    HW1 8642   6.289   6.360   4.604
 2581SOL    HW2 8643   6.271   6.380   4.765
 2582SOL     OW 8644   0.128   4.835   2.489
 2582SOL    HW1 8645   0.093   4.872   2.575
 2582SOL    HW2 8646   0.081   4.878   2.412
 2583SOL     OW 8647   2.528   0.945   6.575
 2583SOL    HW1 8648   2.602   0.994   6.530
 2583SOL    HW2 8649   2.452   1.008   6.593
 2584SOL     OW 8650   4.591   0.358   2.869
 2584SOL    HW1 8651   4.629   0.266   2.860
 2584SOL    HW2 8652   4.497   0.352   2.904
 2585SOL     OW 8653   3.950   1.363   1.888
 2585SOL    HW1 8654   3.933   1.413   1.972
 2585SOL    HW2 8655   3.883   1.389   1.819
 2586SOL     OW 8656   6.998   1.348   4.347
 2586SOL    HW1 8657   6.985   1.256   4.311
 2586SOL    HW2 8658   0.024   1.343   4.437
 2587SOL     OW 8659   6.546   5.656   2.589
 2587SOL    HW1 8660   6.501   5.606   2.664
 2587SOL    HW2 8661   6.561   5.594   2.512
 2588SOL     OW 8662   4.419   6.994   2.275
 2588SOL    HW1 8663   4.376   0.064   2.258
 2588SOL    HW2 8664   4.518   7.004   2.272
 2589SOL     OW 8665   4.853   6.293   1.256
 2589SOL    HW1 8666   4.945   6.260   1.280
 2589SOL    HW2 8667   4.800   6.218   1.218
 2590SOL     OW 8668   3.135   6.011   3.523
 2590SOL    HW1 8669   3.045   5.967   3.528
 2590SOL    HW2 8670   3.156   6.052   3.612
 2591SOL     OW 8671   6.254   0.378   1.069
 2591SOL    HW1 8672   6.176   0.438   1.091
 2591SOL    HW2 8673   6.337   0.416   1.109
 2592SOL     OW 8674   3.108   4.720   1.711
 2592SOL    HW1 8675   3.148   4.651   1.771
 2592SOL    HW2 8676   3.032   4.680   1.659
 2593SOL     OW 8677   3.770   6.912   3.194
 2593SOL    HW1 8678   3.792   6.830   3.247
 2593SOL    HW2 8679   3.740   6.885   3.103
 2594SOL     OW 8680   1.135   6.095   6.801
 2594SOL    HW1 8681   1.204   6.089   6.873
 2594SOL    HW2 8682   1.147   6.019   6.736
 2595SOL     OW 8683   6.757   2.420   4.186
 2595SOL    HW1 8684   6.732   2.464   4.100
 2595SOL    HW2 8685   6.680   2.426   4.250
 2596SOL     OW 8686   3.778   2.102   0.926
 2596SOL    HW1 8687   3.778   2.031   0.855
 2596SOL    HW2 8688   3.863   2.153   0.922
 2597SOL     OW 8689   2.075   2.591   6.626
 2597SOL    HW1 8690   2.004   2.642   6.674
 2597SOL    HW2 8691   2.052   2.494   6.625
 2598SOL     OW 8692   6.746   0.851   2.661
 2598SOL    HW1 8693   6.669   0.842   2.725
 2598SOL    HW2 8694   6.761   0.763   2.615
 2599SOL     OW 8695   4.940   5.847   6.593
 2599SOL    HW1 8696   4.997   5.929   6.600
 2599SOL    HW2 8697   4.865   5.863   6.529
 2600SOL     OW 8698   0.199   2.337   3.933
 2600SOL    HW1 8699   0.169   2.275   3.860
 2600SOL    HW2 8700   0.231   2.282   4.011
 2601SOL     OW 8701   3.987   3.900   4.781
 2601SOL    HW1 8702   3.948   3.845   4.708
 2601SOL    HW2 8703   4.049   3.843   4.836
 2602SOL     OW 8704   6.082   5.938   6.074
 2602SOL    HW1 8705   6.109   6.033   6.062
 2602SOL    HW2 8706   6.162   5.883   6.098
 2603SOL     OW 8707   1.500   2.091   6.639
 2603SOL    HW1 8708   1.465   2.138   6.558
 2603SOL    HW2 8709   1.425   2.043   6.685
 2604SOL     OW 8710   5.801   1.537   0.544
 2604SOL    HW1 8711   5.702   1.528   0.558
 2604SOL    HW2 8712   5.843   1.579   0.625
 2605SOL     OW 8713   6.000   3.413   4.158
 2605SOL    HW1 8714   5.972   3.445   4.248
 2605SOL    HW2 8715   6.040   3.322   4.166
 2606SOL     OW 8716   6.899   4.468   1.128
 2606SOL    HW1 8717   6.950   4.403   1.185
 2606SOL    HW2 8718   6.905   4.439   1.032
 2607SOL     OW 8719   1.055   1.662   4.323
 2607SOL    HW1 8720   1.142   1.692   4.284
 2607SOL    HW2 8721   0.991   1.739   4.324
 2608SOL     OW 8722   4.998   0.226   0.641
 2608SOL    HW1 8723   5.050   0.300   0.598
 2608SOL    HW2 8724   5.013   0.229   0.740
 2609SOL     OW 8725   0.524   3.380   3.508
 2609SOL    HW1 8726   0.611   3.353   3.467
 2609SOL    HW2 8727   0.502   3.474   3.480
 2610SOL     OW 8728   5.487   5.574   4.213
 2610SOL    HW1 8729   5.559   5.509   4.190
 2610SOL    HW2 8730   5.528   5.659   4.246
 2611SOL     OW 8731   2.943   5.623   2.165
 2611SOL    HW1 8732   2.947   5.722   2.157
 2611SOL    HW2 8733   3.014   5.591   2.227
 2612SOL     OW 8734   0.253   7.012   5.256
 2612SOL    HW1 8735   0.318   0.062   5.291
 2612SOL    HW2 8736   0.288   6.974   5.171
 2613SOL     OW 8737   3.553   0.834   0.747
 2613SOL    HW1 8738   3.461   0.808   0.718
 2613SOL    HW2 8739   3.549   0.869   0.841
 2614SOL     OW 8740   6.501   6.404   6.694
 2614SOL    HW1 8741   6.421   6.350   6.719
 2614SOL    HW2 8742   6.509   6.484   6.754
 2615SOL     OW 8743   5.702   4.317   1.694
 2615SOL    HW1 8744   5.704   4.227   1.737
 2615SOL    HW2 8745   5.620   4.326   1.638
 2616SOL     OW 8746   4.131   3.502   1.922
 2616SOL    HW1 8747   4.121   3.404   1.934
 2616SOL    HW2 8748   4.140   3.546   2.012
 2617SOL     OW 8749   2.856   0.335   0.884
 2617SOL    HW1 8750   2.783   0.278   0.847
 2617SOL    HW2 8751   2.819   0.394   0.956
 2618SOL     OW 8752   1.018   6.950   0.377
 2618SOL    HW1 8753   1.025   6.878   0.308
 2618SOL    HW2 8754   1.072   6.925   0.457
 2619SOL     OW 8755   5.913   1.694   1.509
 2619SOL    HW1 8756   5.814   1.711   1.507
 2619SOL    HW2 8757   5.931   1.600   1.480
 2620SOL     OW 8758   1.261   5.272   4.296
 2620SOL    HW1 8759   1.166   5.240   4.289
 2620SOL    HW2 8760   1.279   5.303   4.389
 2621SOL     OW 8761   0.244   5.044   3.686
 2621SOL    HW1 8762   0.327   4.992   3.702
 2621SOL    HW2 8763   0.266   5.142   3.679
 2622SOL     OW 8764   2.276   2.711   5.885
 2622SOL    HW1 8765   2.334   2.767   5.826
 2622SOL    HW2 8766   2.299   2.729   5.981
 2623SOL     OW 8767   3.247   0.255   6.431
 2623SOL    HW1 8768   3.282   0.283   6.521
 2623SOL    HW2 8769   3.185   0.178   6.443
 2624SOL     OW 8770   6.474   1.880   4.057
 2624SOL    HW1 8771   6.556   1.893   4.002
 2624SOL    HW2 8772   6.464   1.783   4.081
 2625SOL     OW 8773   4.128   6.918   6.127
 2625SOL    HW1 8774   4.197   6.967   6.074
 2625SOL    HW2 8775   4.044   6.973   6.132
 2626SOL     OW 8776   2.380   0.110   2.697
 2626SOL    HW1 8777   2.411   0.156   2.780
 2626SOL    HW2 8778   2.333   0.025   2.722
 2627SOL     OW 8779   0.395   1.313   4.670
 2627SOL    HW1 8780   0.466   1.245   4.687
 2627SOL    HW2 8781   0.359   1.347   4.757
 2628SOL     OW 8782   3.875   5.937   6.697
 2628SOL    HW1 8783   3.894   6.001   6.771
 2628SOL    HW2 8784   3.905   5.845   6.722
 2629SOL     OW 8785   3.011   3.813   1.262
 2629SOL    HW1 8786   3.010   3.893   1.321
 2629SOL    HW2 8787   3.067   3.741   1.303
 2630SOL     OW 8788   2.619   2.347   2.267
 2630SOL    HW1 8789   2.644   2.326   2.172
 2630SOL    HW2 8790   2.541   2.290   2.294
 2631SOL     OW 8791   4.096   6.195   4.625
 2631SOL    HW1 8792   4.037   6.213   4.704
 2631SOL    HW2 8793   4.066   6.111   4.580
 2632SOL     OW 8794   4.896   0.984   1.069
 2632SOL    HW1 8795   4.841   1.067   1.074
 2632SOL    HW2 8796   4.920   0.965   0.974
 2633SOL     OW 8797   6.492   2.984   6.867
 2633SOL    HW1 8798   6.496   2.903   6.808
 2633SOL    HW2 8799   6.405   2.985   6.916
 2634SOL     OW 8800   3.306   5.095   1.401
 2634SOL    HW1 8801   3.401   5.118   1.420
 2634SOL    HW2 8802   3.269   5.158   1.333
 2635SOL     OW 8803   6.155   4.810   3.424
 2635SOL    HW1 8804   6.190   4.838   3.335
 2635SOL    HW2 8805   6.155   4.710   3.431
 2636SOL     OW 8806   5.963   6.540   4.844
 2636SOL    HW1 8807   5.949   6.445   4.871
 2636SOL    HW2 8808   5.927   6.601   4.915
 2637SOL     OW 8809   5.548   6.548   2.465
 2637SOL    HW1 8810   5.461   6.499   2.464
 2637SOL    HW2 8811   5.614   6.499   2.408
 2638SOL     OW 8812   5.220   5.560   0.640
 2638SOL    HW1 8813   5.149   5.498   0.606
 2638SOL    HW2 8814   5.183   5.653   0.645
 2639SOL     OW 8815   6.883   6.534   6.308
 2639SOL    HW1 8816   6.841   6.527   6.217
 2639SOL    HW2 8817   6.824   6.588   6.368
 2640SOL     OW 8818   6.396   6.816   6.624
 2640SOL    HW1 8819   6.427   6.901   6.665
 2640SOL    HW2 8820   6.365   6.834   6.530
 2641SOL     OW 8821   6.450   5.359   0.320
 2641SOL    HW1 8822   6.537   5.309   0.327
 2641SOL    HW2 8823   6.466   5.456   0.339
 2642SOL     OW 8824   6.720   1.007   4.145
 2642SOL    HW1 8825   6.648   0.980   4.081
 2642SOL    HW2 8826   6.788   0.935   4.152
 2643SOL     OW 8827   2.289   0.255   2.026
 2643SOL    HW1 8828   2.242   0.322   1.969
 2643SOL    HW2 8829   2.386   0.252   2.000
 2644SOL     OW 8830   0.086   5.867   5.558
 2644SOL    HW1 8831   0.078   5.846   5.655
 2644SOL    HW2 8832   0.022   5.809   5.506
 2645SOL     OW 8833   6.339   5.855   6.117
 2645SOL    HW1 8834   6.376   5.815   6.033
 2645SOL    HW2 8835   6.402   5.924   6.152
 2646SOL     OW 8836   5.924   6.273   6.928
 2646SOL    HW1 8837   5.986   6.340   6.888
 2646SOL    HW2 8838   5.874   6.227   6.855
 2647SOL     OW 8839   3.409   3.294   0.700
 2647SOL    HW1 8840   3.452   3.384   0.696
 2647SOL    HW2 8841   3.356   3.278   0.617
 2648SOL     OW 8842   4.303   1.152   3.628
 2648SOL    HW1 8843   4.263   1.242   3.641
 2648SOL    HW2 8844   4.350   1.148   3.540
 2649SOL     OW 8845   3.539   3.047   5.192
 2649SOL    HW1 8846   3.621   3.027   5.137
 2649SOL    HW2 8847   3.481   2.965   5.195
 2650SOL     OW 8848   6.663   6.790   2.437
 2650SOL    HW1 8849   6.701   6.881   2.421
 2650SOL    HW2 8850   6.737   6.722   2.431
 2651SOL     OW 8851   0.116   0.264   3.275
 2651SOL    HW1 8852   0.034   0.303   3.317
 2651SOL    HW2 8853   0.197   0.305   3.317
 2652SOL     OW 8854   3.266   2.905   2.882
 2652SOL    HW1 8855   3.168   2.923   2.894
 2652SOL    HW2 8856   3.318   2.950   2.955
 2653SOL     OW 8857   6.646   5.484   0.607
 2653SOL    HW1 8858   6.562   5.538   0.607
 2653SOL    HW2 8859   6.624   5.387   0.593
 2654SOL     OW 8860   6.158   1.349   6.050
 2654SOL    HW1 8861   6.177   1.440   6.015
 2654SOL    HW2 8862   6.147   1.353   6.150
 2655SOL     OW 8863   4.745   5.789   4.692
 2655SOL    HW1 8864   4.709   5.714   4.636
 2655SOL    HW2 8865   4.715   5.778   4.787
 2656SOL     OW 8866   5.589   3.348   4.437
 2656SOL    HW1 8867   5.532   3.422   4.473
 2656SOL    HW2 8868   5.621   3.292   4.513
 2657SOL     OW 8869   3.413   2.449   6.045
 2657SOL    HW1 8870   3.338   2.397   6.004
 2657SOL    HW2 8871   3.436   2.410   6.134
 2658SOL     OW 8872   5.986   4.303   5.559
 2658SOL    HW1 8873   5.966   4.367   5.485
 2658SOL    HW2 8874   5.900   4.262   5.591
 2659SOL     OW 8875   6.584   1.827   3.164
 2659SOL    HW1 8876   6.570   1.819   3.065
 2659SOL    HW2 8877   6.498   1.853   3.208
 2660SOL     OW 8878   6.954   2.274   2.738
 2660SOL    HW1 8879   6.932   2.251   2.832
 2660SOL    HW2 8880   6.958   2.190   2.683
 2661SOL     OW 8881   3.567   6.813   2.289
 2661SOL    HW1 8882   3.609   6.729   2.321
 2661SOL    HW2 8883   3.611   6.843   2.204
 2662SOL     OW 8884   3.469   0.636   3.528
 2662SOL    HW1 8885   3.396   0.582   3.488
 2662SOL    HW2 8886   3.443   0.732   3.530
 2663SOL     OW 8887   0.700   4.219   2.644
 2663SOL    HW1 8888   0.632   4.286   2.676
 2663SOL    HW2 8889   0.687   4.133   2.694
 2664SOL     OW 8890   4.249   4.067   1.702
 2664SOL    HW1 8891   4.189   4.130   1.654
 2664SOL    HW2 8892   4.310   4.118   1.763
 2665SOL     OW 8893   4.700   0.626   4.825
 2665SOL    HW1 8894   4.753   0.655   4.745
 2665SOL    HW2 8895   4.645   0.703   4.858
 2666SOL     OW 8896   4.799   6.201   1.753
 2666SOL    HW1 8897   4.791   6.300   1.750
 2666SOL    HW2 8898   4.894   6.176   1.773
 2667SOL     OW 8899   1.577   5.331   3.463
 2667SOL    HW1 8900   1.519   5.340   3.544
 2667SOL    HW2 8901   1.636   5.411   3.455
 2668SOL     OW 8902   6.441   2.496   5.700
 2668SOL    HW1 8903   6.514   2.546   5.652
 2668SOL    HW2 8904   6.474   2.405   5.726
 2669SOL     OW 8905   4.178   5.589   5.482
 2669SOL    HW1 8906   4.170   5.688   5.497
 2669SOL    HW2 8907   4.205   5.572   5.387
 2670SOL     OW 8908   2.220   6.927   5.495
 2670SOL    HW1 8909   2.266   6.891   5.576
 2670SOL    HW2 8910   2.199   0.006   5.508
 2671SOL     OW 8911   3.422   4.383   6.150
 2671SOL    HW1 8912   3.420   4.298   6.098
 2671SOL    HW2 8913   3.444   4.459   6.089
 2672SOL     OW 8914   1.422   3.992   0.288
 2672SOL    HW1 8915   1.518   4.002   0.315
 2672SOL    HW2 8916   1.396   4.068   0.228
 2673SOL     OW 8917   4.421   2.401   3.644
 2673SOL    HW1 8918   4.448   2.481   3.698
 2673SOL    HW2 8919   4.381   2.431   3.558
 2674SOL     OW 8920   6.122   5.301   5.361
 2674SOL    HW1 8921   6.051   5.231   5.347
 2674SOL    HW2 8922   6.116   5.370   5.290
 2675SOL     OW 8923   0.634   4.221   5.219
 2675SOL    HW1 8924   0.668   4.179   5.135
 2675SOL    HW2 8925   0.534   4.211   5.223
 2676SOL     OW 8926   4.752   0.601   2.116
 2676SOL    HW1 8927   4.755   0.544   2.198
 2676SOL    HW2 8928   4.678   0.668   2.125
 2677SOL     OW 8929   2.739   4.683   2.417
 2677SOL    HW1 8930   2.760   4.666   2.514
 2677SOL    HW2 8931   2.683   4.607   2.382
 2678SOL     OW 8932   0.074   6.705   6.117
 2678SOL    HW1 8933   0.013   6.666   6.047
 2678SOL    HW2 8934   0.040   6.680   6.208
 2679SOL     OW 8935   2.992   4.950   1.232
 2679SOL    HW1 8936   2.941   4.873   1.192
 2679SOL    HW2 8937   3.050   4.916   1.306
 2680SOL     OW 8938   1.405   2.204   1.443
 2680SOL    HW1 8939   1.416   2.289   1.495
 2680SOL    HW2 8940   1.480   2.195   1.378
 2681SOL     OW 8941   1.833   1.664   2.687
 2681SOL    HW1 8942   1.830   1.752   2.734
 2681SOL    HW2 8943   1.891   1.601   2.738
 2682SOL     OW 8944   6.028   2.047   4.045
 2682SOL    HW1 8945   6.103   2.030   3.982
 2682SOL    HW2 8946   5.954   1.981   4.028
 2683SOL     OW 8947   1.642   0.351   1.282
 2683SOL    HW1 8948   1.621   0.280   1.350
 2683SOL    HW2 8949   1.687   0.310   1.203
 2684SOL     OW 8950   2.434   5.457   3.119
 2684SOL    HW1 8951   2.432   5.427   3.215
 2684SOL    HW2 8952   2.434   5.378   3.059
 2685SOL     OW 8953   5.653   5.913   5.514
 2685SOL    HW1 8954   5.740   5.944   5.553
 2685SOL    HW2 8955   5.670   5.868   5.427
 2686SOL     OW 8956   0.940   3.013   4.717
 2686SOL    HW1 8957   0.993   3.076   4.660
 2686SOL    HW2 8958   0.959   3.031   4.813
 2687SOL     OW 8959   4.714   4.759   3.136
 2687SOL    HW1 8960   4.650   4.684   3.120
 2687SOL    HW2 8961   4.793   4.750   3.075
 2688SOL     OW 8962   4.290   5.157   5.589
 2688SOL    HW1 8963   4.191   5.143   5.595
 2688SOL    HW2 8964   4.311   5.254   5.601
 2689SOL     OW 8965   0.341   3.062   3.846
 2689SOL    HW1 8966   0.282   3.136   3.879
 2689SOL    HW2 8967   0.435   3.078   3.877
 2690SOL     OW 8968   3.477   2.899   3.091
 2690SOL    HW1 8969   3.480   2.813   3.041
 2690SOL    HW2 8970   3.468   2.880   3.189
 2691SOL     OW 8971   1.292   5.581   1.607
 2691SOL    HW1 8972   1.356   5.593   1.531
 2691SOL    HW2 8973   1.214   5.643   1.595
 2692SOL     OW 8974   0.088   5.336   3.096
 2692SOL    HW1 8975   0.080   5.421   3.147
 2692SOL    HW2 8976   0.184   5.321   3.070
 2693SOL     OW 8977   1.768   3.346   2.876
 2693SOL    HW1 8978   1.711   3.422   2.844
 2693SOL    HW2 8979   1.865   3.369   2.862
 2694SOL     OW 8980   2.623   0.962   3.352
 2694SOL    HW1 8981   2.676   0.999   3.275
 2694SOL    HW2 8982   2.627   0.862   3.351
 2695SOL     OW 8983   3.765   2.131   2.695
 2695SOL    HW1 8984   3.719   2.103   2.779
 2695SOL    HW2 8985   3.701   2.182   2.637
 2696SOL     OW 8986   4.210   3.915   5.296
 2696SOL    HW1 8987   4.189   4.008   5.268
 2696SOL    HW2 8988   4.156   3.850   5.243
 2697SOL     OW 8989   2.820   1.895   4.123
 2697SOL    HW1 8990   2.794   1.926   4.031
 2697SOL    HW2 8991   2.769   1.812   4.145
 2698SOL     OW 8992   2.177   3.354   6.712
 2698SOL    HW1 8993   2.176   3.335   6.810
 2698SOL    HW2 8994   2.164   3.268   6.662
 2699SOL     OW 8995   2.638   5.706   2.853
 2699SOL    HW1 8996   2.664   5.610   2.852
 2699SOL    HW2 8997   2.568   5.721   2.923
 2700SOL     OW 8998   1.430   4.418   3.185
 2700SOL    HW1 8999   1.391   4.487   3.123
 2700SOL    HW2 9000   1.483   4.352   3.133
 2701SOL     OW 9001   3.505   0.107   5.871
 2701SOL    HW1 9002   3.525   0.189   5.818
 2701SOL    HW2 9003   3.423   0.122   5.927
 2702SOL     OW 9004   0.094   6.671   2.982
 2702SOL    HW1 9005   0.118   6.653   3.077
 2702SOL    HW2 9006   0.166   6.725   2.939
 2703SOL     OW 9007   1.654   1.655   3.534
 2703SOL    HW1 9008   1.643   1.744   3.489
 2703SOL    HW2 9009   1.631   1.663   3.631
 2704SOL     OW 9010   1.142   6.466   0.050
 2704SOL    HW1 9011   1.097   6.496   6.985
 2704SOL    HW2 9012   1.074   6.451   0.122
 2705SOL     OW 9013   0.190   4.198   2.479
 2705SOL    HW1 9014   0.176   4.192   2.578
 2705SOL    HW2 9015   0.159   4.114   2.435
 2706SOL     OW 9016   6.620   2.337   2.110
 2706SOL    HW1 9017   6.560   2.258   2.096
 2706SOL    HW2 9018   6.576   2.403   2.171
 2707SOL     OW 9019   2.353   1.244   6.176
 2707SOL    HW1 9020   2.391   1.271   6.265
 2707SOL    HW2 9021   2.268   1.194   6.191
 2708SOL     OW 9022   2.029   4.091   1.059
 2708SOL    HW1 9023   2.016   4.107   1.156
 2708SOL    HW2 9024   2.047   4.178   1.013
 2709SOL     OW 9025   3.968   6.835   1.351
 2709SOL    HW1 9026   4.055   6.832   1.401
 2709SOL    HW2 9027   3.904   6.896   1.398
 2710SOL     OW 9028   6.176   4.210   2.415
 2710SOL    HW1 9029   6.126   4.200   2.501
 2710SOL    HW2 9030   6.125   4.269   2.353
 2711SOL     OW 9031   1.128   6.453   1.909
 2711SOL    HW1 9032   1.087   6.447   1.818
 2711SOL    HW2 9033   1.096   6.535   1.955
 2712SOL     OW 9034   3.274   5.161   2.683
 2712SOL    HW1 9035   3.330   5.079   2.690
 2712SOL    HW2 9036   3.190   5.149   2.736
 2713SOL     OW 9037   2.408   2.261   4.882
 2713SOL    HW1 9038   2.322   2.210   4.876
 2713SOL    HW2 9039   2.483   2.203   4.853
 2714SOL     OW 9040   5.517   0.221   5.787
 2714SOL    HW1 9041   5.447   0.231   5.857
 2714SOL    HW2 9042   5.535   0.123   5.771
 2715SOL     OW 9043   6.488   6.984   0.912
 2715SOL    HW1 9044   6.472   6.971   1.010
 2715SOL    HW2 9045   6.407   6.953   0.862
 2716SOL     OW 9046   0.018   6.609   2.726
 2716SOL    HW1 9047   6.974   6.671   2.678
 2716SOL    HW2 9048   0.029   6.640   2.821
 2717SOL     OW 9049   1.208   0.459   2.993
 2717SOL    HW1 9050   1.138   0.432   2.927
 2717SOL    HW2 9051   1.299   0.433   2.959
 2718SOL     OW 9052   0.883   4.630   3.263
 2718SOL    HW1 9053   0.960   4.682   3.225
 2718SOL    HW2 9054   0.880   4.540   3.221
 2719SOL     OW 9055   4.304   4.776   3.080
 2719SOL    HW1 9056   4.284   4.720   3.161
 2719SOL    HW2 9057   4.237   4.756   3.009
 2720SOL     OW 9058   0.443   6.201   3.679
 2720SOL    HW1 9059   0.508   6.193   3.754
 2720SOL    HW2 9060   0.361   6.147   3.700
 2721SOL     OW 9061   5.194   6.520   4.729
 2721SOL    HW1 9062   5.198   6.588   4.802
 2721SOL    HW2 9063   5.099   6.503   4.704
 2722SOL     OW 9064   1.038   5.891   1.327
 2722SOL    HW1 9065   0.974   5.847   1.264
 2722SOL    HW2 9066   1.126   5.903   1.281
 2723SOL     OW 9067   1.928   1.483   4.940
 2723SOL    HW1 9068   1.886   1.562   4.986
 2723SOL    HW2 9069   1.931   1.405   5.002
 2724SOL     OW 9070   3.703   6.081   6.510
 2724SOL    HW1 9071   3.749   6.039   6.588
 2724SOL    HW2 9072   3.610   6.107   6.537
 2725SOL     OW 9073   2.741   4.861   3.549
 2725SOL    HW1 9074   2.808   4.840   3.620
 2725SOL    HW2 9075   2.769   4.944   3.501
 2726SOL     OW 9076   4.862   6.389   2.250
 2726SOL    HW1 9077   4.916   6.339   2.182
 2726SOL    HW2 9078   4.922   6.448   2.304
 2727SOL     OW 9079   2.017   5.483   3.261
 2727SOL    HW1 9080   2.015   5.448   3.355
 2727SOL    HW2 9081   1.929   5.524   3.239
 2728SOL     OW 9082   3.656   6.615   4.998
 2728SOL    HW1 9083   3.604   6.530   4.986
 2728SOL    HW2 9084   3.661   6.637   5.096
 2729SOL     OW 9085   6.576   5.179   2.409
 2729SOL    HW1 9086   6.499   5.117   2.426
 2729SOL    HW2 9087   6.661   5.134   2.437
 2730SOL     OW 9088   1.343   4.464   1.480
 2730SOL    HW1 9089   1.434   4.435   1.507
 2730SOL    HW2 9090   1.345   4.561   1.456
 2731SOL     OW 9091   2.767   3.828   1.141
 2731SOL    HW1 9092   2.740   3.921   1.114
 2731SOL    HW2 9093   2.867   3.824   1.149
 2732SOL     OW 9094   5.182   2.895   4.062
 2732SOL    HW1 9095   5.128   2.825   4.109
 2732SOL    HW2 9096   5.275   2.896   4.101
 2733SOL     OW 9097   2.198   0.474   5.727
 2733SOL    HW1 9098   2.246   0.408   5.786
 2733SOL    HW2 9099   2.197   0.563   5.771
 2734SOL     OW 9100   2.244   6.934   3.790
 2734SOL    HW1 9101   2.255   6.940   3.889
 2734SOL    HW2 9102   2.250   6.839   3.761
 2735SOL     OW 9103   1.876   4.919   1.207
 2735SOL    HW1 9104   1.928   4.988   1.258
 2735SOL    HW2 9105   1.785   4.955   1.185
 2736SOL     OW 9106   3.420   6.430   6.512
 2736SOL    HW1 9107   3.364   6.413   6.593
 2736SOL    HW2 9108   3.516   6.437   6.540
 2737SOL     OW 9109   4.294   3.286   5.574
 2737SOL    HW1 9110   4.287   3.216   5.645
 2737SOL    HW2 9111   4.380   3.336   5.584
 2738SOL     OW 9112   5.871   4.224   4.218
 2738SOL    HW1 9113   5.860   4.321   4.199
 2738SOL    HW2 9114   5.955   4.191   4.174
 2739SOL     OW 9115   5.482   3.662   0.514
 2739SOL    HW1 9116   5.456   3.703   0.601
 2739SOL    HW2 9117   5.402   3.659   0.454
 2740SOL     OW 9118   6.122   2.494   2.946
 2740SOL    HW1 9119   6.037   2.488   2.998
 2740SOL    HW2 9120   6.110   2.445   2.859
 2741SOL     OW 9121   1.295   2.641   4.880
 2741SOL    HW1 9122   1.290   2.597   4.790
 2741SOL    HW2 9123   1.352   2.586   4.941
 2742SOL     OW 9124   2.790   6.368   5.199
 2742SOL    HW1 9125   2.796   6.269   5.199
 2742SOL    HW2 9126   2.882   6.407   5.195
 2743SOL     OW 9127   6.258   4.670   0.538
 2743SOL    HW1 9128   6.248   4.649   0.440
 2743SOL    HW2 9129   6.167   4.676   0.579
 2744SOL     OW 9130   4.285   0.371   0.165
 2744SOL    HW1 9131   4.311   0.376   0.069
 2744SOL    HW2 9132   4.308   0.280   0.202
 2745SOL     OW 9133   2.185   5.579   1.266
 2745SOL    HW1 9134   2.199   5.497   1.321
 2745SOL    HW2 9135   2.268   5.636   1.268
 2746SOL     OW 9136   1.078   2.249   6.698
 2746SOL    HW1 9137   1.050   2.345   6.695
 2746SOL    HW2 9138   1.177   2.242   6.684
 2747SOL     OW 9139   5.278   5.840   3.721
 2747SOL    HW1 9140   5.309   5.798   3.636
 2747SOL    HW2 9141   5.292   5.939   3.716
 2748SOL     OW 9142   4.412   0.813   4.560
 2748SOL    HW1 9143   4.344   0.838   4.491
 2748SOL    HW2 9144   4.476   0.890   4.572
 2749SOL     OW 9145   5.108   4.102   3.707
 2749SOL    HW1 9146   5.019   4.059   3.720
 2749SOL    HW2 9147   5.110   4.189   3.757
 2750SOL     OW 9148   0.387   6.453   0.768
 2750SOL    HW1 9149   0.303   6.398   0.774
 2750SOL    HW2 9150   0.451   6.424   0.839
 2751SOL     OW 9151   1.973   7.014   0.145
 2751SOL    HW1 9152   1.885   6.985   0.108
 2751SOL    HW2 9153   1.960   0.073   0.207
 2752SOL     OW 9154   6.531   6.258   5.582
 2752SOL    HW1 9155   6.591   6.331   5.614
 2752SOL    HW2 9156   6.585   6.177   5.563
 2753SOL     OW 9157   3.204   5.111   5.333
 2753SOL    HW1 9158   3.215   5.078   5.239
 2753SOL    HW2 9159   3.254   5.196   5.345
 2754SOL     OW 9160   0.688   6.095   4.248
 2754SOL    HW1 9161   0.787   6.099   4.257
 2754SOL    HW2 9162   0.647   6.062   4.333
 2755SOL     OW 9163   3.655   5.991   2.389
 2755SOL    HW1 9164   3.664   6.088   2.367
 2755SOL    HW2 9165   3.715   5.938   2.329
 2756SOL     OW 9166   6.950   3.035   5.550
 2756SOL    HW1 9167   6.855   3.054   5.528
 2756SOL    HW2 9168   6.955   2.967   5.624
 2757SOL     OW 9169   4.547   3.681   6.782
 2757SOL    HW1 9170   4.645   3.687   6.762
 2757SOL    HW2 9171   4.534   3.659   6.878
 2758SOL     OW 9172   0.326   6.782   2.116
 2758SOL    HW1 9173   0.239   6.829   2.104
 2758SOL    HW2 9174   0.319   6.717   2.192
 2759SOL     OW 9175   3.380   3.471   5.400
 2759SOL    HW1 9176   3.442   3.545   5.426
 2759SOL    HW2 9177   3.432   3.387   5.386
 2760SOL     OW 9178   5.990   5.786   2.332
 2760SOL    HW1 9179   6.007   5.865   2.274
 2760SOL    HW2 9180   6.050   5.711   2.305
 2761SOL     OW 9181   1.572   2.921   2.992
 2761SOL    HW1 9182   1.502   2.928   3.063
 2761SOL    HW2 9183   1.663   2.917   3.034
 2762SOL     OW 9184   3.448   1.791   0.841
 2762SOL    HW1 9185   3.386   1.772   0.917
 2762SOL    HW2 9186   3.542   1.773   0.871
 2763SOL     OW 9187   5.984   1.416   3.976
 2763SOL    HW1 9188   5.890   1.434   3.948
 2763SOL    HW2 9189   5.986   1.338   4.038
 2764SOL     OW 9190   0.435   2.873   2.974
 2764SOL    HW1 9191   0.416   2.855   3.071
 2764SOL    HW2 9192   0.451   2.971   2.962
 2765SOL     OW 9193   5.847   6.612   5.909
 2765SOL    HW1 9194   5.906   6.531   5.910
 2765SOL    HW2 9195   5.898   6.689   5.873
 2766SOL     OW 9196   4.549   0.230   0.062
 2766SOL    HW1 9197   4.498   0.255   6.997
 2766SOL    HW2 9198   4.489   0.176   0.122
 2767SOL     OW 9199   0.872   4.847   6.523
 2767SOL    HW1 9200   0.926   4.843   6.439
 2767SOL    HW2 9201   0.885   4.763   6.575
 2768SOL     OW 9202   3.792   6.768   1.128
 2768SOL    HW1 9203   3.821   6.861   1.149
 2768SOL    HW2 9204   3.823   6.705   1.199
 2769SOL     OW 9205   1.050   4.741   5.604
 2769SOL    HW1 9206   1.093   4.794   5.530
 2769SOL    HW2 9207   1.036   4.800   5.683
 2770SOL     OW 9208   2.086   0.096   1.001
 2770SOL    HW1 9209   2.094   0.130   0.907
 2770SOL    HW2 9210   2.067   7.016   1.000
 2771SOL     OW 9211   4.493   7.005   5.375
 2771SOL    HW1 9212   4.497   6.925   5.314
 2771SOL    HW2 9213   4.422   0.049   5.343
 2772SOL     OW 9214   4.878   1.514   3.842
 2772SOL    HW1 9215   4.827   1.447   3.895
 2772SOL    HW2 9216   4.936   1.466   3.776
 2773SOL     OW 9217   6.209   2.586   5.082
 2773SOL    HW1 9218   6.114   2.557   5.073
 2773SOL    HW2 9219   6.243   2.560   5.172
 2774SOL     OW 9220   6.159   0.918   3.859
 2774SOL    HW1 9221   6.120   0.840   3.810
 2774SOL    HW2 9222   6.161   0.997   3.799
 2775SOL     OW 9223   0.010   3.393   4.417
 2775SOL    HW1 9224   0.073   3.383   4.340
 2775SOL    HW2 9225   6.981   3.305   4.434
 2776SOL     OW 9226   4.634   4.446   6.151
 2776SOL    HW1 9227   4.680   4.511   6.091
 2776SOL    HW2 9228   4.633   4.482   6.245
 2777SOL     OW 9229   1.976   2.316   6.616
 2777SOL    HW1 9230   1.977   2.306   6.516
 2777SOL    HW2 9231   1.883   2.303   6.650
 2778SOL     OW 9232   2.680   0.711   6.342
 2778SOL    HW1 9233   2.728   0.674   6.421
 2778SOL    HW2 9234   2.746   0.740   6.273
 2779SOL     OW 9235   4.957   1.111   1.784
 2779SOL    HW1 9236   4.963   1.023   1.736
 2779SOL    HW2 9237   4.908   1.177   1.726
 2780SOL     OW 9238   6.587   1.029   4.893
 2780SOL    HW1 9239   6.603   0.990   4.984
 2780SOL    HW2 9240   6.537   1.115   4.903
 2781SOL     OW 9241   6.317   0.650   3.259
 2781SOL    HW1 9242   6.407   0.646   3.303
 2781SOL    HW2 9243   6.328   0.682   3.165
 2782SOL     OW 9244   5.776   1.020   5.900
 2782SOL    HW1 9245   5.856   1.078   5.917
 2782SOL    HW2 9246   5.750   0.973   5.984
 2783SOL     OW 9247   5.871   3.237   1.625
 2783SOL    HW1 9248   5.865   3.318   1.683
 2783SOL    HW2 9249   5.965   3.203   1.626
 2784SOL     OW 9250   0.542   3.206   1.314
 2784SOL    HW1 9251   0.642   3.207   1.316
 2784SOL    HW2 9252   0.507   3.284   1.366
 2785SOL     OW 9253   5.630   3.731   2.722
 2785SOL    HW1 9254   5.618   3.767   2.630
 2785SOL    HW2 9255   5.584   3.792   2.787
 2786SOL     OW 9256   1.114   6.501   0.340
 2786SOL    HW1 9257   1.044   6.439   0.305
 2786SOL    HW2 9258   1.173   6.452   0.404
 2787SOL     OW 9259   0.454   5.785   6.631
 2787SOL    HW1 9260   0.423   5.821   6.543
 2787SOL    HW2 9261   0.554   5.779   6.632
 2788SOL     OW 9262   2.637   6.990   0.070
 2788SOL    HW1 9263   2.575   6.919   0.105
 2788SOL    HW2 9264   2.652   0.041   0.141
 2789SOL     OW 9265   1.549   2.142   4.415
 2789SOL    HW1 9266   1.545   2.049   4.452
 2789SOL    HW2 9267   1.526   2.207   4.488
 2790SOL     OW 9268   0.317   5.766   1.756
 2790SOL    HW1 9269   0.358   5.743   1.668
 2790SOL    HW2 9270   0.321   5.865   1.769
 2791SOL     OW 9271   1.114   3.129   4.428
 2791SOL    HW1 9272   1.177   3.149   4.504
 2791SOL    HW2 9273   1.043   3.199   4.425
 2792SOL     OW 9274   3.309   1.298   6.185
 2792SOL    HW1 9275   3.240   1.253   6.129
 2792SOL    HW2 9276   3.309   1.257   6.276
 2793SOL     OW 9277   3.612   3.798   0.258
 2793SOL    HW1 9278   3.521   3.808   0.299
 2793SOL    HW2 9279   3.602   3.776   0.161
 2794SOL     OW 9280   1.916   2.133   6.947
 2794SOL    HW1 9281   1.974   2.183   7.011
 2794SOL    HW2 9282   1.836   2.187   6.923
 2795SOL     OW 9283   1.326   6.464   1.292
 2795SOL    HW1 9284   1.398   6.492   1.356
 2795SOL    HW2 9285   1.351   6.493   1.200
 2796SOL     OW 9286   1.764   6.234   6.768
 2796SOL    HW1 9287   1.786   6.222   6.672
 2796SOL    HW2 9288   1.665   6.225   6.781
 2797SOL     OW 9289   4.820   4.101   4.023
 2797SOL    HW1 9290   4.816   4.016   4.075
 2797SOL    HW2 9291   4.847   4.176   4.084
 2798SOL     OW 9292   5.354   1.408   1.853
 2798SOL    HW1 9293   5.394   1.500   1.858
 2798SOL    HW2 9294   5.427   1.340   1.865
 2799SOL     OW 9295   3.213   6.429   4.830
 2799SOL    HW1 9296   3.262   6.344   4.815
 2799SOL    HW2 9297   3.262   6.484   4.898
 2800SOL     OW 9298   4.606   0.688   6.060
 2800SOL    HW1 9299   4.618   0.777   6.106
 2800SOL    HW2 9300   4.550   0.629   6.118
 2801SOL     OW 9301   6.949   4.621   3.682
 2801SOL    HW1 9302   6.861   4.597   3.641
 2801SOL    HW2 9303   7.017   4.632   3.610
 2802SOL     OW 9304   1.243   5.188   5.073
 2802SOL    HW1 9305   1.302   5.206   4.994
 2802SOL    HW2 9306   1.260   5.096   5.107
 2803SOL     OW 9307   3.272   2.495   6.909
 2803SOL    HW1 9308   3.353   2.524   6.857
 2803SOL    HW2 9309   3.192   2.494   6.849
 2804SOL     OW 9310   6.458   2.374   3.497
 2804SOL    HW1 9311   6.398   2.335   3.427
 2804SOL    HW2 9312   6.509   2.300   3.542
 2805SOL     OW 9313   4.060   4.863   0.491
 2805SOL    HW1 9314   4.035   4.946   0.540
 2805SOL    HW2 9315   4.011   4.785   0.529
 2806SOL     OW 9316   0.236   3.291   5.182
 2806SOL    HW1 9317   0.270   3.198   5.174
 2806SOL    HW2 9318   0.312   3.353   5.200
 2807SOL     OW 9319   4.472   1.057   3.945
 2807SOL    HW1 9320   4.506   0.991   3.878
 2807SOL    HW2 9321   4.378   1.034   3.970
 2808SOL     OW 9322   1.090   5.938   6.141
 2808SOL    HW1 9323   1.161   5.975   6.202
 2808SOL    HW2 9324   1.131   5.919   6.052
 2809SOL     OW 9325   0.607   6.013   1.678
 2809SOL    HW1 9326   0.581   6.012   1.581
 2809SOL    HW2 9327   0.629   6.106   1.706
 2810SOL     OW 9328   1.027   6.177   2.998
 2810SOL    HW1 9329   1.084   6.226   3.065
 2810SOL    HW2 9330   1.019   6.232   2.915
 2811SOL     OW 9331   1.044   1.277   0.446
 2811SOL    HW1 9332   0.961   1.303   0.496
 2811SOL    HW2 9333   1.052   1.177   0.446
 2812SOL     OW 9334   1.356   1.626   0.630
 2812SOL    HW1 9335   1.452   1.614   0.604
 2812SOL    HW2 9336   1.325   1.716   0.599
 2813SOL     OW 9337   0.808   3.138   0.973
 2813SOL    HW1 9338   0.780   3.232   0.953
 2813SOL    HW2 9339   0.779   3.078   0.898
 2814SOL     OW 9340   2.554   4.301   0.131
 2814SOL    HW1 9341   2.648   4.311   0.097
 2814SOL    HW2 9342   2.554   4.304   0.231
 2815SOL     OW 9343   0.057   5.457   4.574
 2815SOL    HW1 9344   0.135   5.514   4.601
 2815SOL    HW2 9345   0.086   5.361   4.570
 2816SOL     OW 9346   1.036   5.185   4.791
 2816SOL    HW1 9347   1.121   5.235   4.803
 2816SOL    HW2 9348   0.992   5.171   4.880
 2817SOL     OW 9349   2.905   0.869   2.471
 2817SOL    HW1 9350   2.983   0.826   2.426
 2817SOL    HW2 9351   2.935   0.953   2.518
 2818SOL     OW 9352   1.268   0.409   7.014
 2818SOL    HW1 9353   1.292   0.506   0.004
 2818SOL    HW2 9354   1.183   0.391   0.045
 2819SOL     OW 9355   0.830   0.481   6.626
 2819SOL    HW1 9356   0.771   0.420   6.572
 2819SOL    HW2 9357   0.790   0.573   6.627
 2820SOL     OW 9358   1.839   1.929   6.796
 2820SOL    HW1 9359   1.864   1.847   6.847
 2820SOL    HW2 9360   1.862   2.011   6.849
 2821SOL     OW 9361   3.197   2.915   6.233
 2821SOL    HW1 9362   3.137   2.995   6.221
 2821SOL    HW2 9363   3.167   2.863   6.313
 2822SOL     OW 9364   4.215   2.955   0.683
 2822SOL    HW1 9365   4.301   2.976   0.637
 2822SOL    HW2 9366   4.143   3.013   0.646
 2823SOL     OW 9367   5.076   3.646   1.683
 2823SOL    HW1 9368   5.127   3.666   1.600
 2823SOL    HW2 9369   5.139   3.641   1.761
 2824SOL     OW 9370   0.693   4.731   5.370
 2824SOL    HW1 9371   0.674   4.688   5.282
 2824SOL    HW2 9372   0.607   4.742   5.421
 2825SOL     OW 9373   5.130   1.781   5.778
 2825SOL    HW1 9374   5.055   1.824   5.727
 2825SOL    HW2 9375   5.095   1.703   5.830
 2826SOL     OW 9376   3.084   3.570   0.342
 2826SOL    HW1 9377   3.016   3.619   0.397
 2826SOL    HW2 9378   3.098   3.478   0.380
 2827SOL     OW 9379   5.946   1.927   6.861
 2827SOL    HW1 9380   6.003   2.008   6.867
 2827SOL    HW2 9381   5.853   1.949   6.891
 2828SOL     OW 9382   1.571   4.065   0.805
 2828SOL    HW1 9383   1.649   4.046   0.864
 2828SOL    HW2 9384   1.593   4.142   0.745
 2829SOL     OW 9385   3.598   3.489   1.818
 2829SOL    HW1 9386   3.664   3.543   1.870
 2829SOL    HW2 9387   3.640   3.403   1.790
 2830SOL     OW 9388   3.305   5.602   4.416
 2830SOL    HW1 9389   3.343   5.694   4.410
 2830SOL    HW2 9390   3.283   5.581   4.511
 2831SOL     OW 9391   7.010   1.766   2.013
 2831SOL    HW1 9392   0.060   1.715   1.961
 2831SOL    HW2 9393   6.987   1.717   2.097
 2832SOL     OW 9394   0.802   3.133   2.484
 2832SOL    HW1 9395   0.716   3.082   2.485
 2832SOL    HW2 9396   0.783   3.230   2.470
 2833SOL     OW 9397   6.916   2.688   2.373
 2833SOL    HW1 9398   7.000   2.655   2.329
 2833SOL    HW2 9399   6.935   2.704   2.470
 2834SOL     OW 9400   3.712   0.300   4.384
 2834SOL    HW1 9401   3.687   0.391   4.351
 2834SOL    HW2 9402   3.769   0.308   4.466
 2835SOL     OW 9403   6.898   0.991   6.859
 2835SOL    HW1 9404   6.991   0.966   6.833
 2835SOL    HW2 9405   6.864   1.063   6.798
 2836SOL     OW 9406   3.009   5.258   2.783
 2836SOL    HW1 9407   2.979   5.285   2.691
 2836SOL    HW2 9408   3.018   5.340   2.840
 2837SOL     OW 9409   5.249   4.230   1.906
 2837SOL    HW1 9410   5.219   4.244   2.000
 2837SOL    HW2 9411   5.177   4.184   1.854
 2838SOL     OW 9412   6.725   3.795   6.283
 2838SOL    HW1 9413   6.742   3.737   6.362
 2838SOL    HW2 9414   6.757   3.749   6.200
 2839SOL     OW 9415   5.602   2.530   5.724
 2839SOL    HW1 9416   5.697   2.535   5.755
 2839SOL    HW2 9417   5.547   2.595   5.777
 2840SOL     OW 9418   5.673   6.176   4.284
 2840SOL    HW1 9419   5.637   6.147   4.372
 2840SOL    HW2 9420   5.763   6.136   4.270
 2841SOL     OW 9421   5.173   3.943   2.309
 2841SOL    HW1 9422   5.230   4.020   2.281
 2841SOL    HW2 9423   5.225   3.858   2.305
 2842SOL     OW 9424   0.896   0.041   3.509
 2842SOL    HW1 9425   0.949   0.052   3.593
 2842SOL    HW2 9426   0.834   6.980   3.519
 2843SOL     OW 9427   2.313   2.697   3.669
 2843SOL    HW1 9428   2.372   2.640   3.610
 2843SOL    HW2 9429   2.362   2.719   3.753
 2844SOL     OW 9430   5.381   3.569   1.002
 2844SOL    HW1 9431   5.433   3.627   1.064
 2844SOL    HW2 9432   5.284   3.595   1.004
 2845SOL     OW 9433   3.088   1.995   1.744
 2845SOL    HW1 9434   3.180   2.021   1.772
 2845SOL    HW2 9435   3.035   2.077   1.722
 2846SOL     OW 9436   5.830   0.030   6.739
 2846SOL    HW1 9437   5.828   6.959   6.692
 2846SOL    HW2 9438   5.924   0.063   6.744
 2847SOL     OW 9439   4.934   5.002   0.959
 2847SOL    HW1 9440   4.874   4.942   1.012
 2847SOL    HW2 9441   4.879   5.063   0.902
 2848SOL     OW 9442   0.480   4.277   6.064
 2848SOL    HW1 9443   0.561   4.299   6.010
 2848SOL    HW2 9444   0.398   4.305   6.015
 2849SOL     OW 9445   4.983   0.892   1.657
 2849SOL    HW1 9446   4.941   0.807   1.690
 2849SOL    HW2 9447   5.009   0.879   1.561
 2850SOL     OW 9448   0.904   0.374   1.963
 2850SOL    HW1 9449   0.965   0.438   1.916
 2850SOL    HW2 9450   0.813   0.414   1.972
 2851SOL     OW 9451   3.162   2.873   1.611
 2851SOL    HW1 9452   3.200   2.836   1.526
 2851SOL    HW2 9453   3.176   2.972   1.614
 2852SOL     OW 9454   0.072   5.498   5.283
 2852SOL    HW1 9455   0.132   5.436   5.334
 2852SOL    HW2 9456   0.029   5.562   5.347
 2853SOL     OW 9457   0.320   4.356   5.412
 2853SOL    HW1 9458   0.357   4.432   5.359
 2853SOL    HW2 9459   0.252   4.306   5.358
 2854SOL     OW 9460   2.582   0.491   5.893
 2854SOL    HW1 9461   2.568   0.582   5.853
 2854SOL    HW2 9462   2.673   0.486   5.934
 2855SOL     OW 9463   2.352   1.008   4.436
 2855SOL    HW1 9464   2.256   1.023   4.412
 2855SOL    HW2 9465   2.369   1.043   4.528
 2856SOL     OW 9466   0.468   5.247   4.462
 2856SOL    HW1 9467   0.473   5.298   4.548
 2856SOL    HW2 9468   0.467   5.311   4.385
 2857SOL     OW 9469   6.711   4.026   1.180
 2857SOL    HW1 9470   6.772   3.951   1.206
 2857SOL    HW2 9471   6.718   4.100   1.248
 2858SOL     OW 9472   5.546   4.100   3.059
 2858SOL    HW1 9473   5.542   4.095   3.158
 2858SOL    HW2 9474   5.476   4.163   3.025
 2859SOL     OW 9475   5.997   5.063   1.795
 2859SOL    HW1 9476   5.969   5.155   1.767
 2859SOL    HW2 9477   6.043   5.018   1.719
 2860SOL     OW 9478   1.510   0.127   3.093
 2860SOL    HW1 9479   1.422   0.082   3.112
 2860SOL    HW2 9480   1.525   0.200   3.159
 2861SOL     OW 9481   5.038   4.460   6.119
 2861SOL    HW1 9482   5.001   4.460   6.212
 2861SOL    HW2 9483   5.121   4.516   6.115
 2862SOL     OW 9484   4.789   1.156   0.717
 2862SOL    HW1 9485   4.882   1.189   0.703
 2862SOL    HW2 9486   4.773   1.075   0.661
 2863SOL     OW 9487   5.908   2.313   5.459
 2863SOL    HW1 9488   5.989   2.265   5.493
 2863SOL    HW2 9489   5.926   2.412   5.456
 2864SOL     OW 9490   4.145   4.136   1.212
 2864SOL    HW1 9491   4.151   4.040   1.241
 2864SOL    HW2 9492   4.052   4.158   1.186
 2865SOL     OW 9493   5.738   5.232   5.454
 2865SOL    HW1 9494   5.784   5.222   5.542
 2865SOL    HW2 9495   5.660   5.294   5.463
 2866SOL     OW 9496   3.748   4.676   0.799
 2866SOL    HW1 9497   3.767   4.689   0.897
 2866SOL    HW2 9498   3.699   4.590   0.786
 2867SOL     OW 9499   6.298   6.483   2.997
 2867SOL    HW1 9500   6.337   6.534   3.074
 2867SOL    HW2 9501   6.289   6.544   2.918
 2868SOL     OW 9502   0.107   0.196   5.403
 2868SOL    HW1 9503   0.147   0.113   5.363
 2868SOL    HW2 9504   0.155   0.276   5.369
 2869SOL     OW 9505   6.026   4.702   4.521
 2869SOL    HW1 9506   6.086   4.705   4.601
 2869SOL    HW2 9507   6.034   4.613   4.476
 2870SOL     OW 9508   0.876   0.779   1.669
 2870SOL    HW1 9509   0.959   0.816   1.710
 2870SOL    HW2 9510   0.889   0.681   1.651
 2871SOL     OW 9511   4.758   1.361   3.203
 2871SOL    HW1 9512   4.751   1.343   3.301
 2871SOL    HW2 9513   4.836   1.311   3.165
 2872SOL     OW 9514   2.724   1.824   2.615
 2872SOL    HW1 9515   2.821   1.806   2.598
 2872SOL    HW2 9516   2.686   1.877   2.539
 2873SOL     OW 9517   1.835   0.579   1.835
 2873SOL    HW1 9518   1.846   0.484   1.804
 2873SOL    HW2 9519   1.798   0.634   1.760
 2874SOL     OW 9520   2.105   0.930   3.630
 2874SOL    HW1 9521   2.199   0.945   3.598
 2874SOL    HW2 9522   2.061   1.018   3.648
 2875SOL     OW 9523   2.429   0.265   3.248
 2875SOL    HW1 9524   2.508   0.226   3.296
 2875SOL    HW2 9525   2.435   0.365   3.250
 2876SOL     OW 9526   1.166   6.235   1.220
 2876SOL    HW1 9527   1.094   6.271   1.162
 2876SOL    HW2 9528   1.219   6.311   1.259
 2877SOL     OW 9529   2.012   2.656   5.051
 2877SOL    HW1 9530   1.940   2.685   4.988
 2877SOL    HW2 9531   2.088   2.720   5.046
 2878SOL     OW 9532   3.833   2.932   4.619
 2878SOL    HW1 9533   3.881   3.007   4.664
 2878SOL    HW2 9534   3.876   2.845   4.645
 2879SOL     OW 9535   5.457   5.100   6.823
 2879SOL    HW1 9536   5.473   5.001   6.826
 2879SOL    HW2 9537   5.385   5.125   6.887
 2880SOL     OW 9538   1.879   1.805   3.746
 2880SOL    HW1 9539   1.940   1.836   3.819
 2880SOL    HW2 9540   1.878   1.705   3.743
 2881SOL     OW 9541   5.133   5.208   0.965
 2881SOL    HW1 9542   5.212   5.168   1.012
 2881SOL    HW2 9543   5.061   5.139   0.957
 2882SOL     OW 9544   4.637   6.308   0.132
 2882SOL    HW1 9545   4.640   6.344   0.039
 2882SOL    HW2 9546   4.616   6.210   0.129
 2883SOL     OW 9547   5.439   6.483   3.845
 2883SOL    HW1 9548   5.430   6.474   3.746
 2883SOL    HW2 9549   5.518   6.540   3.866
 2884SOL     OW 9550   6.309   5.518   3.594
 2884SOL    HW1 9551   6.286   5.598   3.651
 2884SOL    HW2 9552   6.239   5.448   3.606
 2885SOL     OW 9553   0.784   3.064   3.682
 2885SOL    HW1 9554   0.697   3.016   3.674
 2885SOL    HW2 9555   0.859   3.002   3.660
 2886SOL     OW 9556   2.309   4.718   5.244
 2886SOL    HW1 9557   2.343   4.804   5.205
 2886SOL    HW2 9558   2.225   4.735   5.295
 2887SOL     OW 9559   6.726   5.852   2.626
 2887SOL    HW1 9560   6.653   5.791   2.596
 2887SOL    HW2 9561   6.744   5.921   2.556
 2888SOL     OW 9562   5.407   6.950   6.832
 2888SOL    HW1 9563   5.340   6.878   6.848
 2888SOL    HW2 9564   5.456   6.970   6.917
 2889SOL     OW 9565   4.436   6.567   4.391
 2889SOL    HW1 9566   4.433   6.491   4.456
 2889SOL    HW2 9567   4.504   6.547   4.320
 2890SOL     OW 9568   1.213   2.706   0.556
 2890SOL    HW1 9569   1.121   2.736   0.533
 2890SOL    HW2 9570   1.241   2.633   0.493
 2891SOL     OW 9571   0.853   1.748   5.358
 2891SOL    HW1 9572   0.789   1.771   5.284
 2891SOL    HW2 9573   0.920   1.681   5.325
 2892SOL     OW 9574   5.390   4.458   1.818
 2892SOL    HW1 9575   5.325   4.385   1.839
 2892SOL    HW2 9576   5.433   4.440   1.730
 2893SOL     OW 9577   6.753   5.434   4.937
 2893SOL    HW1 9578   6.734   5.383   4.853
 2893SOL    HW2 9579   6.677   5.422   5.001
 2894SOL     OW 9580   1.898   5.407   1.093
 2894SOL    HW1 9581   1.924   5.321   1.049
 2894SOL    HW2 9582   1.932   5.408   1.187
 2895SOL     OW 9583   4.808   6.771   6.097
 2895SOL    HW1 9584   4.879   6.709   6.130
 2895SOL    HW2 9585   4.816   6.781   5.997
 2896SOL     OW 9586   6.218   0.458   5.222
 2896SOL    HW1 9587   6.313   0.429   5.211
 2896SOL    HW2 9588   6.169   0.391   5.277
 2897SOL     OW 9589   3.331   5.137   3.227
 2897SOL    HW1 9590   3.303   5.058   3.281
 2897SOL    HW2 9591   3.266   5.152   3.153
 2898SOL     OW 9592   5.227   2.123   3.412
 2898SOL    HW1 9593   5.260   2.199   3.355
 2898SOL    HW2 9594   5.189   2.160   3.497
 2899SOL     OW 9595   6.494   3.311   0.859
 2899SOL    HW1 9596   6.405   3.312   0.814
 2899SOL    HW2 9597   6.545   3.393   0.834
 2900SOL     OW 9598   2.558   2.429   6.259
 2900SOL    HW1 9599   2.645   2.420   6.308
 2900SOL    HW2 9600   2.564   2.507   6.196
 2901SOL     OW 9601   1.111   3.898   2.490
 2901SOL    HW1 9602   1.120   3.809   2.535
 2901SOL    HW2 9603   1.071   3.964   2.553
 2902SOL     OW 9604   5.864   5.336   3.434
 2902SOL    HW1 9605   5.862   5.330   3.533
 2902SOL    HW2 9606   5.959   5.331   3.402
 2903SOL     OW 9607   6.463   4.633   0.288
 2903SOL    HW1 9608   6.389   4.566   0.299
 2903SOL    HW2 9609   6.470   4.658   0.191
 2904SOL     OW 9610   2.873   4.842   4.521
 2904SOL    HW1 9611   2.960   4.876   4.482
 2904SOL    HW2 9612   2.798   4.898   4.486
 2905SOL     OW 9613   1.641   5.338   1.308
 2905SOL    HW1 9614   1.650   5.284   1.224
 2905SOL    HW2 9615   1.721   5.322   1.366
 2906SOL     OW 9616   6.278   6.153   5.590
 2906SOL    HW1 9617   6.371   6.186   5.578
 2906SOL    HW2 9618   6.279   6.055   5.612
 2907SOL     OW 9619   0.214   1.114   5.419
 2907SOL    HW1 9620   0.197   1.089   5.323
 2907SOL    HW2 9621   0.302   1.075   5.447
 2908SOL     OW 9622   4.162   0.213   3.541
 2908SOL    HW1 9623   4.184   0.202   3.444
 2908SOL    HW2 9624   4.085   0.155   3.565
 2909SOL     OW 9625   6.902   6.918   1.744
 2909SOL    HW1 9626   6.983   6.970   1.769
 2909SOL    HW2 9627   6.882   6.851   1.816
 2910SOL     OW 9628   1.015   0.975   4.420
 2910SOL    HW1 9629   1.060   0.892   4.388
 2910SOL    HW2 9630   1.083   1.041   4.449
 2911SOL     OW 9631   0.281   3.947   5.832
 2911SOL    HW1 9632   0.308   3.977   5.740
 2911SOL    HW2 9633   0.360   3.950   5.893
 2912SOL     OW 9634   0.872   1.460   2.205
 2912SOL    HW1 9635   0.915   1.466   2.115
 2912SOL    HW2 9636   0.872   1.551   2.248
 2913SOL     OW 9637   1.363   6.990   2.822
 2913SOL    HW1 9638   1.447   6.953   2.863
 2913SOL    HW2 9639   1.286   6.970   2.881
 2914SOL     OW 9640   3.892   4.529   1.185
 2914SOL    HW1 9641   3.976   4.511   1.237
 2914SOL    HW2 9642   3.839   4.600   1.230
 2915SOL     OW 9643   2.650   0.542   3.987
 2915SOL    HW1 9644   2.699   0.496   3.913
 2915SOL    HW2 9645   2.666   0.641   3.979
 2916SOL     OW 9646   0.869   5.490   0.241
 2916SOL    HW1 9647   0.797   5.449   0.298
 2916SOL    HW2 9648   0.828   5.523   0.156
 2917SOL     OW 9649   2.554   0.176   2.917
 2917SOL    HW1 9650   2.595   0.096   2.960
 2917SOL    HW2 9651   2.506   0.230   2.985
 2918SOL     OW 9652   5.324   2.688   1.517
 2918SOL    HW1 9653   5.233   2.729   1.518
 2918SOL    HW2 9654   5.391   2.754   1.485
 2919SOL     OW 9655   0.116   6.187   5.014
 2919SOL    HW1 9656   0.031   6.137   4.999
 2919SOL    HW2 9657   0.194   6.127   4.994
 2920SOL     OW 9658   2.979   2.252   1.697
 2920SOL    HW1 9659   2.949   2.293   1.783
 2920SOL    HW2 9660   2.935   2.299   1.621
 2921SOL     OW 9661   1.342   6.392   3.468
 2921SOL    HW1 9662   1.339   6.375   3.567
 2921SOL    HW2 9663   1.260   6.353   3.425
 2922SOL     OW 9664   3.739   4.933   3.804
 2922SOL    HW1 9665   3.827   4.893   3.779
 2922SOL    HW2 9666   3.751   5.029   3.826
 2923SOL     OW 9667   0.762   5.489   4.430
 2923SOL    HW1 9668   0.766   5.577   4.477
 2923SOL    HW2 9669   0.755   5.415   4.498
 2924SOL     OW 9670   5.380   1.924   6.399
 2924SOL    HW1 9671   5.327   1.926   6.314
 2924SOL    HW2 9672   5.318   1.908   6.476
 2925SOL     OW 9673   5.407   6.747   4.860
 2925SOL    HW1 9674   5.484   6.810   4.851
 2925SOL    HW2 9675   5.387   6.733   4.957
 2926SOL     OW 9676   6.934   2.350   4.805
 2926SOL    HW1 9677   6.874   2.420   4.766
 2926SOL    HW2 9678   6.983   2.303   4.731
 2927SOL     OW 9679   1.403   1.779   2.214
 2927SOL    HW1 9680   1.407   1.690   2.169
 2927SOL    HW2 9681   1.496   1.814   2.225
 2928SOL     OW 9682   5.654   2.789   6.898
 2928SOL    HW1 9683   5.677   2.809   6.803
 2928SOL    HW2 9684   5.737   2.762   6.947
 2929SOL     OW 9685   2.614   2.021   3.681
 2929SOL    HW1 9686   2.537   2.069   3.724
 2929SOL    HW2 9687   2.628   2.057   3.588
 2930SOL     OW 9688   0.255   3.460   4.190
 2930SOL    HW1 9689   0.200   3.536   4.154
 2930SOL    HW2 9690   0.293   3.486   4.279
 2931SOL     OW 9691   5.613   4.822   5.559
 2931SOL    HW1 9692   5.578   4.915   5.549
 2931SOL    HW2 9693   5.559   4.774   5.628
 2932SOL     OW 9694   6.301   4.927   1.257
 2932SOL    HW1 9695   6.361   5.003   1.232
 2932SOL    HW2 9696   6.209   4.945   1.223
 2933SOL     OW 9697   1.497   6.976   0.137
 2933SOL    HW1 9698   1.522   0.055   0.128
 2933SOL    HW2 9699   1.397   6.968   0.139
 2934SOL     OW 9700   4.808   4.962   1.877
 2934SOL    HW1 9701   4.729   4.990   1.822
 2934SOL    HW2 9702   4.830   5.034   1.943
 2935SOL     OW 9703   0.825   2.814   6.057
 2935SOL    HW1 9704   0.884   2.892   6.035
 2935SOL    HW2 9705   0.779   2.782   5.974
 2936SOL     OW 9706   4.853   0.011   2.415
 2936SOL    HW1 9707   4.796   0.069   2.473
 2936SOL    HW2 9708   4.801   7.000   2.335
 2937SOL     OW 9709   6.025   3.439   3.116
 2937SOL    HW1 9710   5.966   3.520   3.115
 2937SOL    HW2 9711   6.105   3.455   3.057
 2938SOL     OW 9712   0.422   5.059   6.911
 2938SOL    HW1 9713   0.409   5.158   6.906
 2938SOL    HW2 9714   0.413   5.030   7.006
 2939SOL     OW 9715   6.952   5.829   1.698
 2939SOL    HW1 9716   6.905   5.756   1.747
 2939SOL    HW2 9717   6.947   5.813   1.599
 2940SOL     OW 9718   4.438   6.325   3.823
 2940SOL    HW1 9719   4.395   6.360   3.907
 2940SOL    HW2 9720   4.372   6.269   3.773
 2941SOL     OW 9721   2.444   4.917   2.969
 2941SOL    HW1 9722   2.390   4.997   2.945
 2941SOL    HW2 9723   2.422   4.888   3.063
 2942SOL     OW 9724   3.639   2.064   1.733
 2942SOL    HW1 9725   3.645   2.143   1.794
 2942SOL    HW2 9726   3.683   2.086   1.645
 2943SOL     OW 9727   5.982   3.300   3.532
 2943SOL    HW1 9728   6.039   3.223   3.561
 2943SOL    HW2 9729   5.908   3.313   3.598
 2944SOL     OW 9730   1.440   5.937   2.601
 2944SOL    HW1 9731   1.366   5.899   2.656
 2944SOL    HW2 9732   1.459   6.030   2.631
 2945SOL     OW 9733   5.747   3.890   1.506
 2945SOL    HW1 9734   5.793   3.912   1.591
 2945SOL    HW2 9735   5.648   3.895   1.519
 2946SOL     OW 9736   3.574   2.886   4.302
 2946SOL    HW1 9737   3.564   2.920   4.395
 2946SOL    HW2 9738   3.667   2.851   4.290
 2947SOL     OW 9739   6.534   4.956   0.802
 2947SOL    HW1 9740   6.587   4.992   0.879
 2947SOL    HW2 9741   6.514   4.859   0.817
 2948SOL     OW 9742   0.048   3.731   1.828
 2948SOL    HW1 9743   6.997   3.664   1.854
 2948SOL    HW2 9744   0.013   3.786   1.752
 2949SOL     OW 9745   1.529   6.442   0.495
 2949SOL    HW1 9746   1.503   6.533   0.526
 2949SOL    HW2 9747   1.629   6.432   0.499
 2950SOL     OW 9748   6.174   6.051   2.549
 2950SOL    HW1 9749   6.251   5.998   2.585
 2950SOL    HW2 9750   6.201   6.095   2.463
 2951SOL     OW 9751   0.954   2.205   1.339
 2951SOL    HW1 9752   0.963   2.107   1.322
 2951SOL    HW2 9753   0.875   2.222   1.398
 2952SOL     OW 9754   0.264   2.020   4.624
 2952SOL    HW1 9755   0.291   1.950   4.556
 2952SOL    HW2 9756   0.268   2.110   4.582
 2953SOL     OW 9757   1.799   5.610   3.179
 2953SOL    HW1 9758   1.767   5.566   3.095
 2953SOL    HW2 9759   1.752   5.698   3.190
 2954SOL     OW 9760   0.504   4.669   6.249
 2954SOL    HW1 9761   0.582   4.726   6.275
 2954SOL    HW2 9762   0.538   4.582   6.213
 2955SOL     OW 9763   1.442   4.674   6.235
 2955SOL    HW1 9764   1.388   4.595   6.262
 2955SOL    HW2 9765   1.381   4.752   6.218
 2956SOL     OW 9766   5.572   4.298   4.315
 2956SOL    HW1 9767   5.670   4.312   4.326
 2956SOL    HW2 9768   5.526   4.302   4.404
 2957SOL     OW 9769   2.331   5.371   1.734
 2957SOL    HW1 9770   2.240   5.330   1.729
 2957SOL    HW2 9771   2.378   5.339   1.816
 2958SOL     OW 9772   1.607   4.061   1.973
 2958SOL    HW1 9773   1.529   4.087   1.916
 2958SOL    HW2 9774   1.642   4.141   2.021
 2959SOL     OW 9775   0.495   3.543   4.028
 2959SOL    HW1 9776   0.401   3.509   4.035
 2959SOL    HW2 9777   0.535   3.549   4.119
 2960SOL     OW 9778   4.811   6.243   0.831
 2960SOL    HW1 9779   4.718   6.240   0.868
 2960SOL    HW2 9780   4.834   6.154   0.791
 2961SOL     OW 9781   5.578   2.528   1.451
 2961SOL    HW1 9782   5.497   2.583   1.473
 2961SOL    HW2 9783   5.629   2.510   1.535
 2962SOL     OW 9784   0.290   0.155   3.697
 2962SOL    HW1 9785   0.356   0.210   3.748
 2962SOL    HW2 9786   0.321   0.146   3.602
 2963SOL     OW 9787   1.473   0.300   5.001
 2963SOL    HW1 9788   1.427   0.236   5.062
 2963SOL    HW2 9789   1.494   0.384   5.050
 2964SOL     OW 9790   1.562   0.381   6.439
 2964SOL    HW1 9791   1.544   0.402   6.535
 2964SOL    HW2 9792   1.477   0.385   6.387
 2965SOL     OW 9793   6.281   0.254   6.082
 2965SOL    HW1 9794   6.274   0.341   6.033
 2965SOL    HW2 9795   6.208   0.247   6.150
 2966SOL     OW 9796   3.384   4.927   2.656
 2966SOL    HW1 9797   3.459   4.896   2.597
 2966SOL    HW2 9798   3.393   4.885   2.746
 2967SOL     OW 9799   5.808   6.692   5.037
 2967SOL    HW1 9800   5.780   6.627   5.108
 2967SOL    HW2 9801   5.827   6.781   5.079
 2968SOL     OW 9802   1.067   3.864   1.107
 2968SOL    HW1 9803   1.105   3.814   1.184
 2968SOL    HW2 9804   1.103   3.826   1.022
 2969SOL     OW 9805   4.462   2.425   4.600
 2969SOL    HW1 9806   4.494   2.343   4.647
 2969SOL    HW2 9807   4.379   2.459   4.645
 2970SOL     OW 9808   2.883   2.756   6.193
 2970SOL    HW1 9809   2.890   2.812   6.275
 2970SOL    HW2 9810   2.881   2.815   6.112
 2971SOL     OW 9811   5.024   3.494   6.794
 2971SOL    HW1 9812   5.069   3.466   6.879
 2971SOL    HW2 9813   4.938   3.445   6.784
 2972SOL     OW 9814   7.012   5.542   6.501
 2972SOL    HW1 9815   0.053   5.561   6.579
 2972SOL    HW2 9816   6.938   5.609   6.497
 2973SOL     OW 9817   5.747   0.805   4.353
 2973SOL    HW1 9818   5.845   0.795   4.371
 2973SOL    HW2 9819   5.720   0.739   4.283
 2974SOL     OW 9820   5.211   6.404   2.357
 2974SOL    HW1 9821   5.121   6.448   2.366
 2974SOL    HW2 9822   5.243   6.377   2.448
 2975SOL     OW 9823   6.602   3.739   4.745
 2975SOL    HW1 9824   6.621   3.826   4.699
 2975SOL    HW2 9825   6.660   3.730   4.826
 2976SOL     OW 9826   3.765   0.772   1.275
 2976SOL    HW1 9827   3.734   0.859   1.237
 2976SOL    HW2 9828   3.777   0.706   1.202
 2977SOL     OW 9829   1.308   1.012   1.866
 2977SOL    HW1 9830   1.394   0.983   1.908
 2977SOL    HW2 9831   1.327   1.076   1.792
 2978SOL     OW 9832   3.091   5.305   0.017
 2978SOL    HW1 9833   3.163   5.368   7.006
 2978SOL    HW2 9834   3.100   5.219   6.987
 2979SOL     OW 9835   2.889   0.946   5.227
 2979SOL    HW1 9836   2.938   0.967   5.142
 2979SOL    HW2 9837   2.812   0.885   5.206
 2980SOL     OW 9838   3.547   3.229   4.038
 2980SOL    HW1 9839   3.588   3.313   4.002
 2980SOL    HW2 9840   3.500   3.180   3.964
 2981SOL     OW 9841   2.931   1.674   1.421
 2981SOL    HW1 9842   2.862   1.656   1.491
 2981SOL    HW2 9843   2.966   1.767   1.433
 2982SOL     OW 9844   1.931   0.750   1.063
 2982SOL    HW1 9845   1.983   0.789   1.139
 2982SOL    HW2 9846   1.963   0.790   0.977
 2983SOL     OW 9847   6.585   3.277   5.803
 2983SOL    HW1 9848   6.526   3.284   5.722
 2983SOL    HW2 9849   6.586   3.365   5.851
 2984SOL     OW 9850   0.204   6.485   1.669
 2984SOL    HW1 9851   0.257   6.400   1.671
 2984SOL    HW2 9852   0.188   6.512   1.574
 2985SOL     OW 9853   6.437   0.432   6.437
 2985SOL    HW1 9854   6.360   0.484   6.472
 2985SOL    HW2 9855   6.516   0.445   6.497
 2986SOL     OW 9856   3.422   3.369   1.990
 2986SOL    HW1 9857   3.487   3.425   1.941
 2986SOL    HW2 9858   3.428   3.388   2.088
 2987SOL     OW 9859   1.953   5.552   4.689
 2987SOL    HW1 9860   2.003   5.587   4.609
 2987SOL    HW2 9861   1.882   5.489   4.659
 2988SOL     OW 9862   6.742   1.989   6.172
 2988SOL    HW1 9863   6.813   2.022   6.234
 2988SOL    HW2 9864   6.784   1.955   6.087
 2989SOL     OW 9865   5.791   3.489   4.914
 2989SOL    HW1 9866   5.805   3.487   5.013
 2989SOL    HW2 9867   5.877   3.465   4.868
 2990SOL     OW 9868   5.729   1.931   5.622
 2990SOL    HW1 9869   5.828   1.915   5.619
 2990SOL    HW2 9870   5.705   1.975   5.708
 2991SOL     OW 9871   0.007   3.337   0.079
 2991SOL    HW1 9872   0.014   3.437   0.074
 2991SOL    HW2 9873   6.977   3.311   0.163
 2992SOL     OW 9874   0.929   4.235   4.952
 2992SOL    HW1 9875   0.847   4.292   4.958
 2992SOL    HW2 9876   0.904   4.144   4.918
 2993SOL     OW 9877   3.347   4.921   1.056
 2993SOL    HW1 9878   3.346   4.920   0.956
 2993SOL    HW2 9879   3.253   4.926   1.091
 2994SOL     OW 9880   3.265   5.186   4.605
 2994SOL    HW1 9881   3.182   5.130   4.599
 2994SOL    HW2 9882   3.291   5.217   4.514
 2995SOL     OW 9883   4.534   0.989   1.891
 2995SOL    HW1 9884   4.538   1.088   1.873
 2995SOL    HW2 9885   4.515   0.940   1.806
 2996SOL     OW 9886   6.586   1.297   4.151
 2996SOL    HW1 9887   6.619   1.324   4.242
 2996SOL    HW2 9888   6.640   1.344   4.081
 2997SOL     OW 9889   4.948   6.057   4.337
 2997SOL    HW1 9890   5.041   6.030   4.312
 2997SOL    HW2 9891   4.910   6.117   4.266
 2998SOL     OW 9892   2.399   0.906   1.567
 2998SOL    HW1 9893   2.381   0.839   1.495
 2998SOL    HW2 9894   2.492   0.941   1.557
 2999SOL     OW 9895   1.999   4.491   0.791
 2999SOL    HW1 9896   1.995   4.402   0.838
 2999SOL    HW2 9897   2.039   4.559   0.853
 3000SOL     OW 9898   2.084   3.995   5.207
 3000SOL    HW1 9899   2.019   4.057   5.251
 3000SOL    HW2 9900   2.163   4.047   5.175
 3001SOL     OW 9901   4.135   0.708   6.151
 3001SOL    HW1 9902   4.069   0.738   6.082
 3001SOL    HW2 9903   4.143   0.777   6.223
 3002SOL     OW 9904   1.463   2.260   2.041
 3002SOL    HW1 9905   1.382   2.206   2.063
 3002SOL    HW2 9906   1.526   2.259   2.119
 3003SOL     OW 9907   1.253   5.973   1.175
 3003SOL    HW1 9908   1.220   6.067   1.178
 3003SOL    HW2 9909   1.352   5.973   1.164
 3004SOL     OW 9910   2.955   6.650   3.852
 3004SOL    HW1 9911   2.932   6.732   3.799
 3004SOL    HW2 9912   3.012   6.589   3.797
 3005SOL     OW 9913   2.621   2.029   0.876
 3005SOL    HW1 9914   2.627   2.041   0.975
 3005SOL    HW2 9915   2.613   2.118   0.832
 3006SOL     OW 9916   5.436   1.516   6.005
 3006SOL    HW1 9917   5.508   1.448   6.019
 3006SOL    HW2 9918   5.350   1.481   6.041
 3007SOL     OW 9919   5.956   5.474   5.905
 3007SOL    HW1 9920   5.970   5.377   5.884
 3007SOL    HW2 9921   6.045   5.518   5.916
 3008SOL     OW 9922   4.800   4.194   5.437
 3008SOL    HW1 9923   4.861   4.228   5.509
 3008SOL    HW2 9924   4.852   4.182   5.353
 3009SOL     OW 9925   5.623   3.186   1.748
 3009SOL    HW1 9926   5.620   3.268   1.805
 3009SOL    HW2 9927   5.716   3.174   1.712
 3010SOL     OW 9928   4.585   5.095   1.768
 3010SOL    HW1 9929   4.553   5.158   1.839
 3010SOL    HW2 9930   4.603   5.146   1.684
 3011SOL     OW 9931   6.076   7.006   0.711
 3011SOL    HW1 9932   6.158   0.028   0.669
 3011SOL    HW2 9933   6.018   0.061   0.747
 3012SOL     OW 9934   2.191   1.587   4.825
 3012SOL    HW1 9935   2.201   1.669   4.881
 3012SOL    HW2 9936   2.096   1.558   4.824
 3013SOL     OW 9937   0.806   5.103   5.695
 3013SOL    HW1 9938   0.737   5.039   5.730
 3013SOL    HW2 9939   0.818   5.178   5.759
 3014SOL     OW 9940   4.196   0.016   6.641
 3014SOL    HW1 9941   4.281   0.065   6.661
 3014SOL    HW2 9942   4.213   6.966   6.569
 3015SOL     OW 9943   2.424   0.493   6.150
 3015SOL    HW1 9944   2.519   0.507   6.123
 3015SOL    HW2 9945   2.390   0.406   6.113
 3016SOL     OW 9946   2.660   0.583   4.264
 3016SOL    HW1 9947   2.582   0.637   4.297
 3016SOL    HW2 9948   2.659   0.581   4.164
 3017SOL     OW 9949   1.341   5.765   0.496
 3017SOL    HW1 9950   1.293   5.723   0.419
 3017SOL    HW2 9951   1.293   5.848   0.525
 3018SOL     OW 9952   3.325   1.896   2.114
 3018SOL    HW1 9953   3.413   1.932   2.082
 3018SOL    HW2 9954   3.251   1.952   2.076
 3019SOL     OW 9955   1.630   6.870   5.843
 3019SOL    HW1 9956   1.707   6.859   5.780
 3019SOL    HW2 9957   1.619   6.967   5.864
 3020SOL     OW 9958   4.880   4.605   6.928
 3020SOL    HW1 9959   4.931   4.539   6.983
 3020SOL    HW2 9960   4.885   4.578   6.831
 3021SOL     OW 9961   5.145   0.168   4.825
 3021SOL    HW1 9962   5.067   0.215   4.785
 3021SOL    HW2 9963   5.143   0.071   4.799
 3022SOL     OW 9964   4.336   6.785   4.253
 3022SOL    HW1 9965   4.272   6.751   4.184
 3022SOL    HW2 9966   4.380   6.707   4.298
 3023SOL     OW 9967   5.663   4.409   4.965
 3023SOL    HW1 9968   5.609   4.326   4.958
 3023SOL    HW2 9969   5.614   4.485   4.923
 3024SOL     OW 9970   0.283   0.860   0.360
 3024SOL    HW1 9971   0.328   0.845   0.272
 3024SOL    HW2 9972   0.254   0.955   0.367
 3025SOL     OW 9973   3.945   5.242   0.952
 3025SOL    HW1 9974   3.909   5.201   1.035
 3025SOL    HW2 9975   3.901   5.200   0.872
 3026SOL     OW 9976   0.284   0.676   2.311
 3026SOL    HW1 9977   0.381   0.700   2.307
 3026SOL    HW2 9978   0.238   0.706   2.227
 3027SOL     OW 9979   4.195   6.807   0.534
 3027SOL    HW1 9980   4.153   6.721   0.508
 3027SOL    HW2 9981   4.287   6.813   0.495
 3028SOL     OW 9982   3.715   3.475   4.608
 3028SOL    HW1 9983   3.665   3.542   4.663
 3028SOL    HW2 9984   3.720   3.506   4.514
 3029SOL     OW 9985   6.646   3.085   5.005
 3029SOL    HW1 9986   6.605   3.136   5.081
 3029SOL    HW2 9987   6.687   3.149   4.940
 3030SOL     OW 9988   1.446   2.584   6.497
 3030SOL    HW1 9989   1.448   2.684   6.494
 3030SOL    HW2 9990   1.455   2.553   6.592
 3031SOL     OW 9991   0.431   5.882   0.736
 3031SOL    HW1 9992   0.509   5.821   0.720
 3031SOL    HW2 9993   0.407   5.928   0.651
 3032SOL     OW 9994   2.440   6.981   3.567
 3032SOL    HW1 9995   2.422   6.955   3.662
 3032SOL    HW2 9996   2.448   0.062   3.560
 3033SOL     OW 9997   1.692   1.311   6.349
 3033SOL    HW1 9998   1.639   1.395   6.339
 3033SOL    HW2 9999   1.743   1.293   6.265
 3034SOL     OW10000   5.452   3.280   3.615
 3034SOL    HW110001   5.410   3.201   3.661
 3034SOL    HW210002   5.386   3.355   3.611
 3035SOL     OW10003   0.254   3.518   6.892
 3035SOL    HW110004   0.224   3.514   6.987
 3035SOL    HW210005   0.290   3.609   6.872
 3036SOL     OW10006   3.369   2.791   5.814
 3036SOL    HW110007   3.312   2.801   5.733
 3036SOL    HW210008   3.370   2.877   5.864
 3037SOL     OW10009   0.888   5.038   6.721
 3037SOL    HW110010   0.825   4.971   6.760
 3037SOL    HW210011   0.894   5.025   6.622
 3038SOL     OW10012   6.004   4.947   5.746
 3038SOL    HW110013   5.977   4.961   5.842
 3038SOL    HW210014   6.005   5.035   5.699
 3039SOL     OW10015   5.555   3.825   5.617
 3039SOL    HW110016   5.488   3.839   5.690
 3039SOL    HW210017   5.523   3.868   5.533
 3040SOL     OW10018   4.028   6.338   5.799
 3040SOL    HW110019   4.112   6.389   5.818
 3040SOL    HW210020   4.006   6.280   5.877
 3041SOL     OW10021   1.537   5.399   6.237
 3041SOL    HW110022   1.461   5.464   6.238
 3041SOL    HW210023   1.549   5.361   6.329
 3042SOL     OW10024   0.176   4.628   4.159
 3042SOL    HW110025   0.210   4.585   4.075
 3042SOL    HW210026   0.243   4.695   4.191
 3043SOL     OW10027   3.085   4.257   1.740
 3043SOL    HW110028   3.028   4.330   1.776
 3043SOL    HW210029   3.154   4.296   1.678
 3044SOL     OW10030   4.005   3.542   4.763
 3044SOL    HW110031   4.054   3.492   4.834
 3044SOL    HW210032   3.907   3.544   4.785
 3045SOL     OW10033   5.649   1.347   2.108
 3045SOL    HW110034   5.601   1.273   2.061
 3045SOL    HW210035   5.586   1.423   2.122
 3046SOL     OW10036   5.885   5.874   1.600
 3046SOL    HW110037   5.855   5.782   1.626
 3046SOL    HW210038   5.976   5.869   1.558
 3047SOL     OW10039   6.306   1.525   4.330
 3047SOL    HW110040   6.369   1.565   4.397
 3047SOL    HW210041   6.234   1.475   4.378
 3048SOL     OW10042   4.428   4.852   1.733
 3048SOL    HW110043   4.474   4.932   1.771
 3048SOL    HW210044   4.369   4.881   1.657
 3049SOL     OW10045   0.790   2.076   2.313
 3049SOL    HW110046   0.799   1.997   2.252
 3049SOL    HW210047   0.694   2.089   2.336
 3050SOL     OW10048   3.072   2.565   6.713
 3050SOL    HW110049   3.030   2.644   6.759
 3050SOL    HW210050   3.017   2.484   6.731
 3051SOL     OW10051   2.071   5.025   5.784
 3051SOL    HW110052   1.983   5.071   5.793
 3051SOL    HW210053   2.084   4.994   5.690
 3052SOL     OW10054   6.818   6.456   3.726
 3052SOL    HW110055   6.750   6.528   3.712
 3052SOL    HW210056   6.789   6.397   3.801
 3053SOL     OW10057   0.796   4.415   6.978
 3053SOL    HW110058   0.745   4.499   6.960
 3053SOL    HW210059   0.818   4.369   6.892
 3054SOL     OW10060   5.606   0.255   2.640
 3054SOL    HW110061   5.670   0.186   2.605
 3054SOL    HW210062   5.600   0.248   2.740
 3055SOL     OW10063   5.465   6.443   0.337
 3055SOL    HW110064   5.422   6.354   0.353
 3055SOL    HW210065   5.422   6.487   0.257
 3056SOL     OW10066   4.446   1.801   0.217
 3056SOL    HW110067   4.542   1.823   0.232
 3056SOL    HW210068   4.422   1.819   0.122
 3057SOL     OW10069   6.154   3.813   3.347
 3057SOL    HW110070   6.215   3.806   3.269
 3057SOL    HW210071   6.185   3.887   3.407
 3058SOL     OW10072   0.369   5.302   6.100
 3058SOL    HW110073   0.377   5.203   6.085
 3058SOL    HW210074   0.322   5.344   6.022
 3059SOL     OW10075   1.154   2.211   1.994
 3059SOL    HW110076   1.210   2.128   1.987
 3059SOL    HW210077   1.075   2.193   2.053
 3060SOL     OW10078   5.748   3.729   3.742
 3060SOL    HW110079   5.715   3.823   3.728
 3060SOL    HW210080   5.686   3.665   3.697
 3061SOL     OW10081   5.620   6.747   3.284
 3061SOL    HW110082   5.522   6.765   3.296
 3061SOL    HW210083   5.671   6.792   3.357
 3062SOL     OW10084   4.069   5.113   1.247
 3062SOL    HW110085   3.969   5.115   1.259
 3062SOL    HW210086   4.113   5.104   1.337
 3063SOL     OW10087   6.813   4.639   1.309
 3063SOL    HW110088   6.841   4.575   1.237
 3063SOL    HW210089   6.716   4.625   1.330
 3064SOL     OW10090   4.751   1.856   6.264
 3064SOL    HW110091   4.789   1.912   6.191
 3064SOL    HW210092   4.769   1.899   6.352
 3065SOL     OW10093   5.658   1.389   6.470
 3065SOL    HW110094   5.719   1.405   6.392
 3065SOL    HW210095   5.692   1.312   6.524
 3066SOL     OW10096   5.221   6.958   5.704
 3066SOL    HW110097   5.194   7.006   5.788
 3066SOL    HW210098   5.176   7.002   5.626
 3067SOL     OW10099   1.331   1.751   4.633
 3067SOL    HW110100   1.321   1.679   4.563
 3067SOL    HW210101   1.424   1.787   4.630
 3068SOL     OW10102   5.943   0.162   0.846
 3068SOL    HW110103   5.866   0.225   0.859
 3068SOL    HW210104   6.005   0.169   0.923
 3069SOL     OW10105   5.489   6.146   4.088
 3069SOL    HW110106   5.550   6.166   4.165
 3069SOL    HW210107   5.407   6.202   4.095
 3070SOL     OW10108   2.550   1.646   0.971
 3070SOL    HW110109   2.607   1.659   0.890
 3070SOL    HW210110   2.589   1.697   1.047
 3071SOL     OW10111   5.878   4.299   5.073
 3071SOL    HW110112   5.795   4.353   5.059
 3071SOL    HW210113   5.891   4.238   4.995
 3072SOL     OW10114   1.577   6.513   5.810
 3072SOL    HW110115   1.538   6.581   5.872
 3072SOL    HW210116   1.635   6.560   5.743
 3073SOL     OW10117   0.013   5.730   2.418
 3073SOL    HW110118   0.061   5.718   2.332
 3073SOL    HW210119   6.932   5.728   2.403
 3074SOL     OW10120   3.232   2.862   1.877
 3074SOL    HW110121   3.196   2.877   1.785
 3074SOL    HW210122   3.326   2.829   1.870
 3075SOL     OW10123   4.040   4.878   1.880
 3075SOL    HW110124   4.020   4.975   1.900
 3075SOL    HW210125   3.958   4.835   1.842
 3076SOL     OW10126   1.458   1.235   4.040
 3076SOL    HW110127   1.382   1.296   4.062
 3076SOL    HW210128   1.443   1.192   3.952
 3077SOL     OW10129   0.237   3.561   1.691
 3077SOL    HW110130   0.182   3.633   1.734
 3077SOL    HW210131   0.322   3.549   1.742
 3078SOL     OW10132   6.892   3.684   2.259
 3078SOL    HW110133   6.831   3.763   2.261
 3078SOL    HW210134   6.973   3.705   2.203
 3079SOL     OW10135   1.581   4.299   4.584
 3079SOL    HW110136   1.646   4.365   4.621
 3079SOL    HW210137   1.511   4.279   4.653
 3080SOL     OW10138   4.126   4.645   1.732
 3080SOL    HW110139   4.043   4.695   1.708
 3080SOL    HW210140   4.119   4.550   1.701
 3081SOL     OW10141   2.366   3.215   6.161
 3081SOL    HW110142   2.374   3.151   6.086
 3081SOL    HW210143   2.280   3.266   6.152
 3082SOL     OW10144   5.369   3.948   4.962
 3082SOL    HW110145   5.377   3.884   5.039
 3082SOL    HW210146   5.276   3.943   4.925
 3083SOL     OW10147   4.029   5.978   1.532
 3083SOL    HW110148   4.090   5.904   1.560
 3083SOL    HW210149   3.950   5.940   1.484
 3084SOL     OW10150   6.975   5.294   3.621
 3084SOL    HW110151   6.994   5.387   3.589
 3084SOL    HW210152   0.018   5.230   3.575
 3085SOL     OW10153   6.079   5.548   0.081
 3085SOL    HW110154   6.061   5.477   0.013
 3085SOL    HW210155   6.041   5.635   0.050
 3086SOL     OW10156   6.141   6.399   6.315
 3086SOL    HW110157   6.124   6.360   6.224
 3086SOL    HW210158   6.181   6.490   6.305
 3087SOL     OW10159   3.378   0.111   2.671
 3087SOL    HW110160   3.383   0.127   2.572
 3087SOL    HW210161   3.364   0.197   2.719
 3088SOL     OW10162   2.236   3.781   5.253
 3088SOL    HW110163   2.160   3.846   5.243
 3088SOL    HW210164   2.320   3.821   5.216
 3089SOL     OW10165   4.340   5.794   5.992
 3089SOL    HW110166   4.343   5.810   5.893
 3089SOL    HW210167   4.353   5.881   6.040
 3090SOL     OW10168   0.364   2.791   2.066
 3090SOL    HW110169   0.394   2.886   2.079
 3090SOL    HW210170   0.265   2.789   2.053
 3091SOL     OW10171   1.155   2.708   0.226
 3091SOL    HW110172   1.064   2.692   0.265
 3091SOL    HW210173   1.157   2.675   0.132
 3092SOL     OW10174   6.213   1.483   2.186
 3092SOL    HW110175   6.252   1.566   2.146
 3092SOL    HW210176   6.170   1.504   2.273
 3093SOL     OW10177   6.142   5.340   6.480
 3093SOL    HW110178   6.110   5.422   6.528
 3093SOL    HW210179   6.086   5.262   6.508
 3094SOL     OW10180   2.099   1.140   6.167
 3094SOL    HW110181   2.061   1.232   6.173
 3094SOL    HW210182   2.083   1.103   6.076
 3095SOL     OW10183   1.642   3.880   4.711
 3095SOL    HW110184   1.561   3.842   4.756
 3095SOL    HW210185   1.614   3.922   4.624
 3096SOL     OW10186   1.775   3.486   4.547
 3096SOL    HW110187   1.858   3.477   4.602
 3096SOL    HW210188   1.786   3.434   4.462
 3097SOL     OW10189   5.407   3.113   5.330
 3097SOL    HW110190   5.381   3.066   5.415
 3097SOL    HW210191   5.494   3.077   5.297
 3098SOL     OW10192   1.695   3.256   2.262
 3098SOL    HW110193   1.603   3.278   2.231
 3098SOL    HW210194   1.695   3.242   2.361
 3099SOL     OW10195   0.491   6.814   5.295
 3099SOL    HW110196   0.487   6.714   5.301
 3099SOL    HW210197   0.573   6.847   5.340
 3100SOL     OW10198   5.441   4.804   2.335
 3100SOL    HW110199   5.390   4.723   2.361
 3100SOL    HW210200   5.382   4.866   2.284
 3101SOL     OW10201   5.186   6.885   5.114
 3101SOL    HW110202   5.250   6.958   5.089
 3101SOL    HW210203   5.111   6.924   5.166
 3102SOL     OW10204   5.818   4.825   1.627
 3102SOL    HW110205   5.888   4.846   1.558
 3102SOL    HW210206   5.851   4.751   1.686
 3103SOL     OW10207   1.896   2.144   1.754
 3103SOL    HW110208   1.974   2.110   1.701
 3103SOL    HW210209   1.875   2.238   1.724
 3104SOL     OW10210   5.381   2.505   5.405
 3104SOL    HW110211   5.392   2.426   5.345
 3104SOL    HW210212   5.471   2.535   5.437
 3105SOL     OW10213   5.605   4.123   0.487
 3105SOL    HW110214   5.560   4.054   0.429
 3105SOL    HW210215   5.636   4.079   0.571
 3106SOL     OW10216   5.345   1.698   5.606
 3106SOL    HW110217   5.308   1.731   5.693
 3106SOL    HW210218   5.286   1.727   5.531
 3107SOL     OW10219   3.825   2.094   5.111
 3107SOL    HW110220   3.832   2.186   5.150
 3107SOL    HW210221   3.916   2.062   5.085
 3108SOL     OW10222   1.870   3.985   3.530
 3108SOL    HW110223   1.965   3.966   3.552
 3108SOL    HW210224   1.865   4.055   3.459
 3109SOL     OW10225   6.843   6.273   3.289
 3109SOL    HW110226   6.788   6.209   3.344
 3109SOL    HW210227   6.925   6.227   3.256
 3110SOL     OW10228   0.916   5.343   3.885
 3110SOL    HW110229   0.992   5.278   3.878
 3110SOL    HW210230   0.892   5.377   3.794
 3111SOL     OW10231   6.629   4.024   3.794
 3111SOL    HW110232   6.600   4.060   3.705
 3111SOL    HW210233   6.562   4.050   3.864
 3112SOL     OW10234   3.987   1.094   0.306
 3112SOL    HW110235   3.917   1.025   0.286
 3112SOL    HW210236   4.039   1.114   0.222
 3113SOL     OW10237   1.689   6.943   3.338
 3113SOL    HW110238   1.728   0.013   3.313
 3113SOL    HW210239   1.762   6.878   3.359
 3114SOL     OW10240   4.692   6.470   5.930
 3114SOL    HW110241   4.783   6.507   5.911
 3114SOL    HW210242   4.701   6.377   5.967
 3115SOL     OW10243   4.873   5.462   4.775
 3115SOL    HW110244   4.871   5.522   4.855
 3115SOL    HW210245   4.964   5.465   4.733
 3116SOL     OW10246   0.868   1.795   6.010
 3116SOL    HW110247   0.915   1.838   5.933
 3116SOL    HW210248   0.776   1.768   5.981
 3117SOL     OW10249   4.100   0.113   1.195
 3117SOL    HW110250   4.111   0.167   1.278
 3117SOL    HW210251   4.010   0.069   1.196
 3118SOL     OW10252   1.184   1.945   3.375
 3118SOL    HW110253   1.267   1.905   3.415
 3118SOL    HW210254   1.191   1.942   3.275
 3119SOL     OW10255   5.122   5.734   4.188
 3119SOL    HW110256   5.183   5.702   4.115
 3119SOL    HW210257   5.031   5.750   4.150
 3120SOL     OW10258   2.273   5.508   6.812
 3120SOL    HW110259   2.288   5.528   6.715
 3120SOL    HW210260   2.256   5.594   6.861
 3121SOL     OW10261   4.329   2.341   3.918
 3121SOL    HW110262   4.259   2.306   3.980
 3121SOL    HW210263   4.309   2.310   3.825
 3122SOL     OW10264   5.259   5.075   6.093
 3122SOL    HW110265   5.222   5.166   6.115
 3122SOL    HW210266   5.228   5.047   6.003
 3123SOL     OW10267   1.888   1.864   2.875
 3123SOL    HW110268   1.870   1.822   2.964
 3123SOL    HW210269   1.828   1.942   2.861
 3124SOL     OW10270   5.122   6.736   5.413
 3124SOL    HW110271   5.205   6.789   5.430
 3124SOL    HW210272   5.062   6.787   5.350
 3125SOL     OW10273   1.739   1.127   5.915
 3125SOL    HW110274   1.698   1.052   5.863
 3125SOL    HW210275   1.680   1.208   5.907
 3126SOL     OW10276   4.937   4.752   5.680
 3126SOL    HW110277   4.939   4.796   5.770
 3126SOL    HW210278   5.030   4.744   5.645
 3127SOL     OW10279   6.603   1.765   5.190
 3127SOL    HW110280   6.549   1.709   5.252
 3127SOL    HW210281   6.586   1.862   5.209
 3128SOL     OW10282   3.798   0.288   0.482
 3128SOL    HW110283   3.827   0.329   0.568
 3128SOL    HW210284   3.711   0.241   0.495
 3129SOL     OW10285   4.472   4.361   6.994
 3129SOL    HW110286   4.540   4.433   6.981
 3129SOL    HW210287   4.389   4.400   0.015
 3130SOL     OW10288   0.488   5.989   1.990
 3130SOL    HW110289   0.571   6.011   1.939
 3130SOL    HW210290   0.411   6.041   1.952
 3131SOL     OW10291   6.742   3.854   2.898
 3131SOL    HW110292   6.730   3.835   2.995
 3131SOL    HW210293   6.780   3.773   2.853
 3132SOL     OW10294   5.186   3.917   0.076
 3132SOL    HW110295   5.159   3.860   0.154
 3132SOL    HW210296   5.246   3.991   0.108
 3133SOL     OW10297   5.371   6.870   4.333
 3133SOL    HW110298   5.286   6.847   4.379
 3133SOL    HW210299   5.448   6.832   4.384
 3134SOL     OW10300   5.579   4.818   2.672
 3134SOL    HW110301   5.642   4.799   2.747
 3134SOL    HW210302   5.627   4.806   2.585
 3135SOL     OW10303   3.492   6.123   6.885
 3135SOL    HW110304   3.518   6.050   6.948
 3135SOL    HW210305   3.399   6.155   6.908
 3136SOL     OW10306   6.434   0.397   2.880
 3136SOL    HW110307   6.517   0.424   2.928
 3136SOL    HW210308   6.376   0.343   2.941
 3137SOL     OW10309   4.270   5.674   0.130
 3137SOL    HW110310   4.177   5.679   0.165
 3137SOL    HW210311   4.335   5.680   0.205
 3138SOL     OW10312   6.534   6.186   4.974
 3138SOL    HW110313   6.557   6.191   4.877
 3138SOL    HW210314   6.502   6.276   5.005
 3139SOL     OW10315   1.729   5.057   1.707
 3139SOL    HW110316   1.670   5.002   1.649
 3139SOL    HW210317   1.715   5.154   1.685
 3140SOL     OW10318   6.255   5.838   6.904
 3140SOL    HW110319   6.224   5.786   6.983
 3140SOL    HW210320   6.179   5.851   6.840
 3141SOL     OW10321   5.905   1.595   6.787
 3141SOL    HW110322   5.823   1.616   6.733
 3141SOL    HW210323   5.895   1.633   6.879
 3142SOL     OW10324   4.459   0.893   3.719
 3142SOL    HW110325   4.405   0.824   3.767
 3142SOL    HW210326   4.398   0.963   3.681
 3143SOL     OW10327   6.938   1.602   1.351
 3143SOL    HW110328   6.908   1.695   1.329
 3143SOL    HW210329   6.954   1.595   1.450
 3144SOL     OW10330   3.528   4.511   6.756
 3144SOL    HW110331   3.489   4.420   6.769
 3144SOL    HW210332   3.576   4.539   6.839
 3145SOL     OW10333   0.387   5.517   0.236
 3145SOL    HW110334   0.411   5.540   0.330
 3145SOL    HW210335   0.410   5.593   0.176
 3146SOL     OW10336   6.704   2.148   4.988
 3146SOL    HW110337   6.688   2.074   4.923
 3146SOL    HW210338   6.802   2.163   4.999
 3147SOL     OW10339   4.060   6.870   6.848
 3147SOL    HW110340   4.061   6.933   6.770
 3147SOL    HW210341   4.082   6.921   6.932
 3148SOL     OW10342   6.789   4.647   1.589
 3148SOL    HW110343   6.821   4.718   1.652
 3148SOL    HW210344   6.818   4.670   1.496
 3149SOL     OW10345   3.559   3.308   0.427
 3149SOL    HW110346   3.591   3.379   0.491
 3149SOL    HW210347   3.574   3.339   0.333
 3150SOL     OW10348   0.118   0.050   5.771
 3150SOL    HW110349   0.138   7.001   5.843
 3150SOL    HW210350   0.106   0.003   5.684
 3151SOL     OW10351   6.846   1.122   5.854
 3151SOL    HW110352   6.810   1.215   5.860
 3151SOL    HW210353   6.943   1.126   5.832
 3152SOL     OW10354   2.055   2.252   5.929
 3152SOL    HW110355   2.112   2.315   5.981
 3152SOL    HW210356   1.960   2.264   5.955
 3153SOL     OW10357   5.516   5.795   2.020
 3153SOL    HW110358   5.485   5.869   2.079
 3153SOL    HW210359   5.467   5.711   2.043
 3154SOL     OW10360   3.925   1.810   0.808
 3154SOL    HW110361   3.983   1.888   0.834
 3154SOL    HW210362   3.983   1.734   0.778
 3155SOL     OW10363   0.925   5.030   0.003
 3155SOL    HW110364   0.868   5.106   6.991
 3155SOL    HW210365   0.988   5.061   0.074
 3156SOL     OW10366   4.222   4.564   0.849
 3156SOL    HW110367   4.290   4.597   0.784
 3156SOL    HW210368   4.179   4.481   0.813
 3157SOL     OW10369   0.967   0.866   4.719
 3157SOL    HW110370   1.065   0.857   4.698
 3157SOL    HW210371   0.913   0.836   4.641
 3158SOL     OW10372   2.416   0.617   5.575
 3158SOL    HW110373   2.436   0.671   5.657
 3158SOL    HW210374   2.350   0.545   5.597
 3159SOL     OW10375   4.926   0.056   1.338
 3159SOL    HW110376   4.875   0.038   1.254
 3159SOL    HW210377   4.918   0.152   1.362
 3160SOL     OW10378   1.946   0.730   5.545
 3160SOL    HW110379   2.029   0.747   5.597
 3160SOL    HW210380   1.886   0.810   5.549
 3161SOL     OW10381   1.438   2.810   2.185
 3161SOL    HW110382   1.342   2.781   2.179
 3161SOL    HW210383   1.497   2.735   2.153
 3162SOL     OW10384   1.108   5.802   1.589
 3162SOL    HW110385   1.081   5.874   1.652
 3162SOL    HW210386   1.083   5.828   1.496
 3163SOL     OW10387   4.899   4.264   0.375
 3163SOL    HW110388   4.837   4.330   0.332
 3163SOL    HW210389   4.994   4.290   0.358
 3164SOL     OW10390   2.530   0.112   4.582
 3164SOL    HW110391   2.456   0.044   4.589
 3164SOL    HW210392   2.603   0.075   4.524
 3165SOL     OW10393   0.860   6.123   6.032
 3165SOL    HW110394   0.939   6.092   6.084
 3165SOL    HW210395   0.888   6.147   5.939
 3166SOL     OW10396   4.726   1.549   4.577
 3166SOL    HW110397   4.769   1.552   4.487
 3166SOL    HW210398   4.786   1.501   4.641
 3167SOL     OW10399   5.803   3.125   1.220
 3167SOL    HW110400   5.801   3.211   1.271
 3167SOL    HW210401   5.863   3.134   1.141
 3168SOL     OW10402   4.894   1.303   0.433
 3168SOL    HW110403   4.964   1.305   0.505
 3168SOL    HW210404   4.889   1.212   0.393
 3169SOL     OW10405   1.308   4.056   2.322
 3169SOL    HW110406   1.220   4.011   2.306
 3169SOL    HW210407   1.335   4.106   2.239
 3170SOL     OW10408   1.837   3.703   3.621
 3170SOL    HW110409   1.923   3.653   3.613
 3170SOL    HW210410   1.845   3.791   3.574
 3171SOL     OW10411   5.433   1.703   4.374
 3171SOL    HW110412   5.346   1.681   4.419
 3171SOL    HW210413   5.477   1.618   4.344
 3172SOL     OW10414   5.757   4.787   1.367
 3172SOL    HW110415   5.750   4.779   1.467
 3172SOL    HW210416   5.669   4.766   1.325
 3173SOL     OW10417   4.951   2.560   0.231
 3173SOL    HW110418   4.889   2.636   0.252
 3173SOL    HW210419   4.928   2.481   0.288
 3174SOL     OW10420   3.699   2.452   6.590
 3174SOL    HW110421   3.746   2.470   6.676
 3174SOL    HW210422   3.616   2.399   6.607
 3175SOL     OW10423   5.447   6.596   5.394
 3175SOL    HW110424   5.456   6.517   5.455
 3175SOL    HW210425   5.405   6.672   5.444
 3176SOL     OW10426   0.008   4.993   3.594
 3176SOL    HW110427   6.968   4.976   3.674
 3176SOL    HW210428   0.102   5.012   3.625
 3177SOL     OW10429   5.373   3.036   3.704
 3177SOL    HW110430   5.280   3.041   3.740
 3177SOL    HW210431   5.370   3.015   3.606
 3178SOL     OW10432   0.417   0.882   2.581
 3178SOL    HW110433   0.359   0.922   2.510
 3178SOL    HW210434   0.448   0.953   2.643
 3179SOL     OW10435   0.863   2.796   2.290
 3179SOL    HW110436   0.866   2.759   2.197
 3179SOL    HW210437   0.845   2.723   2.355
 3180SOL     OW10438   0.090   6.526   6.465
 3180SOL    HW110439   0.055   6.486   6.550
 3180SOL    HW210440   0.016   6.533   6.399
 3181SOL     OW10441   0.568   5.815   5.553
 3181SOL    HW110442   0.577   5.734   5.611
 3181SOL    HW210443   0.480   5.813   5.507
 3182SOL     OW10444   1.999   0.472   1.148
 3182SOL    HW110445   1.973   0.558   1.102
 3182SOL    HW210446   2.038   0.409   1.082
 3183SOL     OW10447   4.001   3.603   0.962
 3183SOL    HW110448   3.926   3.549   0.999
 3183SOL    HW210449   4.021   3.573   0.869
 3184SOL     OW10450   6.459   1.611   4.133
 3184SOL    HW110451   6.374   1.574   4.173
 3184SOL    HW210452   6.532   1.544   4.143
 3185SOL     OW10453   0.851   6.302   6.619
 3185SOL    HW110454   0.859   6.252   6.533
 3185SOL    HW210455   0.919   6.376   6.621
 3186SOL     OW10456   6.985   2.805   6.444
 3186SOL    HW110457   6.966   2.726   6.502
 3186SOL    HW210458   0.035   2.863   6.487
 3187SOL     OW10459   5.227   7.007   2.604
 3187SOL    HW110460   5.182   6.917   2.601
 3187SOL    HW210461   5.325   6.995   2.586
 3188SOL     OW10462   1.613   6.608   0.870
 3188SOL    HW110463   1.691   6.572   0.819
 3188SOL    HW210464   1.601   6.705   0.849
 3189SOL     OW10465   2.892   1.676   6.123
 3189SOL    HW110466   2.901   1.767   6.082
 3189SOL    HW210467   2.983   1.643   6.150
 3190SOL     OW10468   6.390   6.305   3.912
 3190SOL    HW110469   6.396   6.391   3.963
 3190SOL    HW210470   6.298   6.267   3.920
 3191SOL     OW10471   3.782   5.589   1.880
 3191SOL    HW110472   3.702   5.558   1.931
 3191SOL    HW210473   3.764   5.678   1.839
 3192SOL     OW10474   5.532   1.103   2.883
 3192SOL    HW110475   5.477   1.028   2.845
 3192SOL    HW210476   5.599   1.065   2.947
 3193SOL     OW10477   3.531   5.830   4.681
 3193SOL    HW110478   3.521   5.742   4.727
 3193SOL    HW210479   3.573   5.896   4.744
 3194SOL     OW10480   1.807   6.780   6.299
 3194SOL    HW110481   1.786   6.774   6.202
 3194SOL    HW210482   1.770   6.866   6.336
 3195SOL     OW10483   1.026   0.434   0.999
 3195SOL    HW110484   1.008   0.373   0.922
 3195SOL    HW210485   0.952   0.427   1.066
 3196SOL     OW10486   5.814   0.038   2.541
 3196SOL    HW110487   5.817   0.028   2.641
 3196SOL    HW210488   5.907   0.047   2.506
 3197SOL     OW10489   2.692   1.111   6.450
 3197SOL    HW110490   2.678   1.181   6.381
 3197SOL    HW210491   2.780   1.065   6.433
 3198SOL     OW10492   5.755   2.499   3.931
 3198SOL    HW110493   5.830   2.499   3.997
 3198SOL    HW210494   5.778   2.559   3.854
 3199SOL     OW10495   4.847   3.738   3.158
 3199SOL    HW110496   4.817   3.671   3.225
 3199SOL    HW210497   4.896   3.812   3.204
 3200SOL     OW10498   5.647   3.171   4.637
 3200SOL    HW110499   5.649   3.078   4.600
 3200SOL    HW210500   5.709   3.177   4.715
 3201SOL     OW10501   6.319   4.185   1.945
 3201SOL    HW110502   6.246   4.172   2.013
 3201SOL    HW210503   6.278   4.196   1.854
 3202SOL     OW10504   2.535   3.279   6.670
 3202SOL    HW110505   2.560   3.295   6.766
 3202SOL    HW210506   2.471   3.350   6.640
 3203SOL     OW10507   3.214   6.672   1.817
 3203SOL    HW110508   3.270   6.590   1.803
 3203SOL    HW210509   3.272   6.747   1.848
 3204SOL     OW10510   3.771   0.761   3.730
 3204SOL    HW110511   3.844   0.782   3.796
 3204SOL    HW210512   3.746   0.665   3.738
 3205SOL     OW10513   5.032   3.064   5.655
 3205SOL    HW110514   4.967   3.008   5.706
 3205SOL    HW210515   5.009   3.062   5.557
 3206SOL     OW10516   2.630   4.275   1.145
 3206SOL    HW110517   2.712   4.242   1.100
 3206SOL    HW210518   2.655   4.323   1.229
 3207SOL     OW10519   2.230   5.203   4.103
 3207SOL    HW110520   2.137   5.228   4.077
 3207SOL    HW210521   2.295   5.258   4.050
 3208SOL     OW10522   6.538   4.640   6.198
 3208SOL    HW110523   6.532   4.739   6.187
 3208SOL    HW210524   6.606   4.603   6.134
 3209SOL     OW10525   5.353   6.529   6.522
 3209SOL    HW110526   5.366   6.441   6.475
 3209SOL    HW210527   5.288   6.585   6.471
 3210SOL     OW10528   5.046   5.727   1.538
 3210SOL    HW110529   5.142   5.734   1.565
 3210SOL    HW210530   4.992   5.699   1.618
 3211SOL     OW10531   2.075   6.259   6.399
 3211SOL    HW110532   2.009   6.317   6.353
 3211SOL    HW210533   2.043   6.164   6.398
 3212SOL     OW10534   3.101   6.687   3.198
 3212SOL    HW110535   3.060   6.648   3.281
 3212SOL    HW210536   3.079   6.628   3.120
 3213SOL     OW10537   1.417   6.721   5.923
 3213SOL    HW110538   1.488   6.779   5.884
 3213SOL    HW210539   1.434   6.707   6.021
 3214SOL     OW10540   4.142   0.342   2.405
 3214SOL    HW110541   4.136   0.434   2.366
 3214SOL    HW210542   4.089   0.338   2.489
 3215SOL     OW10543   2.216   3.175   1.600
 3215SOL    HW110544   2.214   3.147   1.696
 3215SOL    HW210545   2.179   3.101   1.543
 3216SOL     OW10546   6.063   5.232   1.084
 3216SOL    HW110547   6.105   5.287   1.013
 3216SOL    HW210548   6.028   5.291   1.157
 3217SOL     OW10549   6.847   5.220   3.095
 3217SOL    HW110550   6.946   5.226   3.081
 3217SOL    HW210551   6.811   5.144   3.041
 3218SOL     OW10552   5.544   1.518   2.665
 3218SOL    HW110553   5.630   1.481   2.701
 3218SOL    HW210554   5.469   1.455   2.685
 3219SOL     OW10555   5.909   1.900   4.981
 3219SOL    HW110556   5.812   1.902   5.002
 3219SOL    HW210557   5.924   1.848   4.897
 3220SOL     OW10558   0.133   3.944   6.054
 3220SOL    HW110559   0.108   4.034   6.088
 3220SOL    HW210560   0.183   3.953   5.968
 3221SOL     OW10561   3.677   1.695   2.058
 3221SOL    HW110562   3.605   1.691   2.127
 3221SOL    HW210563   3.707   1.789   2.045
 3222SOL     OW10564   3.346   1.125   3.188
 3222SOL    HW110565   3.377   1.154   3.098
 3222SOL    HW210566   3.392   1.039   3.213
 3223SOL     OW10567   1.494   5.395   0.499
 3223SOL    HW110568   1.496   5.337   0.581
 3223SOL    HW210569   1.511   5.339   0.418
 3224SOL     OW10570   4.745   2.148   4.359
 3224SOL    HW110571   4.722   2.093   4.439
 3224SOL    HW210572   4.695   2.114   4.279
 3225SOL     OW10573   4.857   1.037   4.619
 3225SOL    HW110574   4.843   1.050   4.717
 3225SOL    HW210575   4.944   0.989   4.605
 3226SOL     OW10576   6.001   0.823   0.560
 3226SOL    HW110577   5.926   0.845   0.623
 3226SOL    HW210578   6.065   0.900   0.555
 3227SOL     OW10579   5.571   4.208   5.341
 3227SOL    HW110580   5.632   4.130   5.332
 3227SOL    HW210581   5.623   4.293   5.331
 3228SOL     OW10582   2.777   4.686   0.503
 3228SOL    HW110583   2.723   4.628   0.564
 3228SOL    HW210584   2.752   4.781   0.516
 3229SOL     OW10585   1.698   2.168   0.539
 3229SOL    HW110586   1.784   2.181   0.490
 3229SOL    HW210587   1.717   2.137   0.632
 3230SOL     OW10588   3.200   6.105   5.262
 3230SOL    HW110589   3.244   6.194   5.277
 3230SOL    HW210590   3.199   6.055   5.349
 3231SOL     OW10591   1.960   2.437   2.691
 3231SOL    HW110592   2.021   2.456   2.768
 3231SOL    HW210593   1.866   2.434   2.723
 3232SOL     OW10594   3.537   4.943   3.625
 3232SOL    HW110595   3.608   4.939   3.695
 3232SOL    HW210596   3.569   4.998   3.548
 3233SOL     OW10597   1.737   6.900   7.017
 3233SOL    HW110598   1.755   6.809   6.979
 3233SOL    HW210599   1.653   6.898   0.052
 3234SOL     OW10600   3.290   3.917   0.695
 3234SOL    HW110601   3.339   3.862   0.763
 3234SOL    HW210602   3.351   3.986   0.657
 3235SOL     OW10603   0.625   1.065   3.424
 3235SOL    HW110604   0.649   1.007   3.502
 3235SOL    HW210605   0.708   1.101   3.382
 3236SOL     OW10606   4.738   0.927   0.515
 3236SOL    HW110607   4.712   0.831   0.500
 3236SOL    HW210608   4.662   0.986   0.487
 3237SOL     OW10609   5.837   1.613   5.766
 3237SOL    HW110610   5.830   1.525   5.812
 3237SOL    HW210611   5.761   1.625   5.703
 3238SOL     OW10612   6.437   4.912   1.554
 3238SOL    HW110613   6.387   4.923   1.468
 3238SOL    HW210614   6.532   4.942   1.542
 3239SOL     OW10615   6.899   0.454   4.988
 3239SOL    HW110616   6.802   0.437   5.005
 3239SOL    HW210617   6.946   0.367   4.974
 3240SOL     OW10618   6.952   0.868   0.182
 3240SOL    HW110619   0.015   0.866   0.124
 3240SOL    HW210620   6.873   0.895   0.127
 3241SOL     OW10621   6.765   3.385   5.198
 3241SOL    HW110622   6.778   3.285   5.202
 3241SOL    HW210623   6.791   3.418   5.108
 3242SOL     OW10624   6.671   3.987   4.653
 3242SOL    HW110625   6.654   4.010   4.557
 3242SOL    HW210626   6.768   3.963   4.665
 3243SOL     OW10627   5.844   4.630   3.878
 3243SOL    HW110628   5.900   4.664   3.953
 3243SOL    HW210629   5.749   4.620   3.908
 3244SOL     OW10630   4.901   6.761   0.365
 3244SOL    HW110631   4.945   6.672   0.374
 3244SOL    HW210632   4.966   6.834   0.387
 3245SOL     OW10633   3.427   6.886   4.611
 3245SOL    HW110634   3.411   6.956   4.680
 3245SOL    HW210635   3.508   6.833   4.636
 3246SOL     OW10636   6.778   6.943   2.975
 3246SOL    HW110637   6.746   6.862   2.925
 3246SOL    HW210638   6.866   6.973   2.937
 3247SOL     OW10639   1.674   4.201   3.691
 3247SOL    HW110640   1.628   4.264   3.754
 3247SOL    HW210641   1.633   4.209   3.601
 3248SOL     OW10642   5.335   2.309   3.274
 3248SOL    HW110643   5.399   2.303   3.350
 3248SOL    HW210644   5.328   2.404   3.245
 3249SOL     OW10645   3.154   3.035   3.301
 3249SOL    HW110646   3.137   3.043   3.203
 3249SOL    HW210647   3.082   3.082   3.352
 3250SOL     OW10648   4.357   5.689   2.839
 3250SOL    HW110649   4.421   5.650   2.904
 3250SOL    HW210650   4.270   5.639   2.843
 3251SOL     OW10651   2.972   2.249   2.631
 3251SOL    HW110652   3.029   2.189   2.576
 3251SOL    HW210653   2.907   2.296   2.572
 3252SOL     OW10654   2.001   1.373   3.345
 3252SOL    HW110655   1.921   1.427   3.369
 3252SOL    HW210656   2.078   1.434   3.325
 3253SOL     OW10657   6.862   3.053   0.063
 3253SOL    HW110658   6.948   3.095   0.092
 3253SOL    HW210659   6.785   3.111   0.091
 3254SOL     OW10660   6.482   6.706   1.567
 3254SOL    HW110661   6.461   6.633   1.631
 3254SOL    HW210662   6.574   6.741   1.585
 3255SOL     OW10663   4.346   6.222   1.769
 3255SOL    HW110664   4.422   6.157   1.768
 3255SOL    HW210665   4.312   6.233   1.862
 3256SOL     OW10666   5.238   2.583   1.259
 3256SOL    HW110667   5.156   2.631   1.228
 3256SOL    HW210668   5.257   2.608   1.354
 3257SOL     OW10669   3.156   1.325   2.705
 3257SOL    HW110670   3.206   1.336   2.620
 3257SOL    HW210671   3.111   1.411   2.729
 3258SOL     OW10672   1.484   5.518   4.535
 3258SOL    HW110673   1.512   5.578   4.460
 3258SOL    HW210674   1.396   5.477   4.512
 3259SOL     OW10675   5.367   4.088   4.315
 3259SOL    HW110676   5.427   4.046   4.382
 3259SOL    HW210677   5.397   4.181   4.297
 3260SOL     OW10678   1.781   5.120   3.428
 3260SOL    HW110679   1.713   5.187   3.456
 3260SOL    HW210680   1.747   5.068   3.350
 3261SOL     OW10681   5.713   0.276   4.337
 3261SOL    HW110682   5.810   0.262   4.358
 3261SOL    HW210683   5.680   0.203   4.278
 3262SOL     OW10684   3.142   1.576   3.351
 3262SOL    HW110685   3.132   1.666   3.392
 3262SOL    HW210686   3.053   1.530   3.348
 3263SOL     OW10687   6.989   0.839   2.042
 3263SOL    HW110688   6.986   0.746   2.006
 3263SOL    HW210689   7.004   0.904   1.968
 3264SOL     OW10690   1.666   4.947   6.967
 3264SOL    HW110691   1.728   5.026   6.972
 3264SOL    HW210692   1.720   4.863   6.969
 3265SOL     OW10693   0.308   5.512   6.601
 3265SOL    HW110694   0.240   5.555   6.660
 3265SOL    HW210695   0.368   5.582   6.562
 3266SOL     OW10696   4.151   5.053   5.903
 3266SOL    HW110697   4.094   5.072   5.823
 3266SOL    HW210698   4.145   5.130   5.967
 3267SOL     OW10699   3.383   6.787   0.694
 3267SOL    HW110700   3.479   6.813   0.681
 3267SOL    HW210701   3.379   6.695   0.733
 3268SOL     OW10702   5.886   5.117   2.081
 3268SOL    HW110703   5.877   5.039   2.143
 3268SOL    HW210704   5.959   5.098   2.015
 3269SOL     OW10705   1.479   5.124   1.880
 3269SOL    HW110706   1.478   5.164   1.972
 3269SOL    HW210707   1.555   5.162   1.827
 3270SOL     OW10708   1.020   2.820   5.756
 3270SOL    HW110709   1.099   2.850   5.703
 3270SOL    HW210710   1.050   2.764   5.833
 3271SOL     OW10711   0.805   3.888   1.544
 3271SOL    HW110712   0.873   3.935   1.488
 3271SOL    HW210713   0.840   3.875   1.637
 3272SOL     OW10714   4.744   5.875   0.523
 3272SOL    HW110715   4.799   5.826   0.455
 3272SOL    HW210716   4.676   5.813   0.561
 3273SOL     OW10717   3.746   3.941   6.416
 3273SOL    HW110718   3.670   3.989   6.460
 3273SOL    HW210719   3.712   3.890   6.337
 3274SOL     OW10720   5.058   0.026   2.065
 3274SOL    HW110721   5.015   0.090   2.128
 3274SOL    HW210722   5.056   6.952   2.103
 3275SOL     OW10723   5.006   0.557   1.597
 3275SOL    HW110724   4.937   0.544   1.668
 3275SOL    HW210725   5.097   0.541   1.635
 3276SOL     OW10726   5.856   5.951   6.806
 3276SOL    HW110727   5.804   5.962   6.890
 3276SOL    HW210728   5.797   5.969   6.727
 3277SOL     OW10729   3.043   2.031   2.299
 3277SOL    HW110730   2.967   2.095   2.306
 3277SOL    HW210731   3.090   2.045   2.211
 3278SOL     OW10732   5.335   0.902   6.544
 3278SOL    HW110733   5.280   0.828   6.582
 3278SOL    HW210734   5.372   0.874   6.455
 3279SOL     OW10735   3.843   0.004   1.749
 3279SOL    HW110736   3.832   0.052   1.836
 3279SOL    HW210737   3.940   0.002   1.724
 3280SOL     OW10738   6.812   3.193   4.090
 3280SOL    HW110739   6.747   3.260   4.125
 3280SOL    HW210740   6.877   3.238   4.028
 3281SOL     OW10741   6.356   2.243   1.739
 3281SOL    HW110742   6.284   2.187   1.697
 3281SOL    HW210743   6.338   2.252   1.837
 3282SOL     OW10744   0.104   5.002   5.203
 3282SOL    HW110745   0.197   5.034   5.224
 3282SOL    HW210746   0.090   4.912   5.244
 3283SOL     OW10747   3.586   1.762   0.134
 3283SOL    HW110748   3.613   1.854   0.161
 3283SOL    HW210749   3.570   1.759   0.036
 3284SOL     OW10750   2.269   6.356   4.814
 3284SOL    HW110751   2.310   6.393   4.730
 3284SOL    HW210752   2.257   6.430   4.880
 3285SOL     OW10753   3.753   2.106   4.301
 3285SOL    HW110754   3.786   2.199   4.319
 3285SOL    HW210755   3.698   2.106   4.218
 3286SOL     OW10756   1.559   2.615   2.530
 3286SOL    HW110757   1.659   2.621   2.520
 3286SOL    HW210758   1.525   2.539   2.476
 3287SOL     OW10759   2.586   0.706   0.791
 3287SOL    HW110760   2.647   0.675   0.864
 3287SOL    HW210761   2.501   0.740   0.831
 3288SOL     OW10762   2.588   5.845   1.882
 3288SOL    HW110763   2.550   5.819   1.971
 3288SOL    HW210764   2.527   5.813   1.809
 3289SOL     OW10765   4.159   0.756   6.825
 3289SOL    HW110766   4.253   0.747   6.793
 3289SOL    HW210767   4.099   0.701   6.768
 3290SOL     OW10768   0.422   5.971   0.487
 3290SOL    HW110769   0.492   5.915   0.442
 3290SOL    HW210770   0.415   6.059   0.441
 3291SOL     OW10771   5.130   6.884   4.772
 3291SOL    HW110772   5.217   6.846   4.804
 3291SOL    HW210773   5.056   6.819   4.790
 3292SOL     OW10774   0.219   2.089   0.475
 3292SOL    HW110775   0.161   2.051   0.548
 3292SOL    HW210776   0.296   2.028   0.459
 3293SOL     OW10777   6.598   4.807   2.978
 3293SOL    HW110778   6.679   4.831   2.924
 3293SOL    HW210779   6.626   4.783   3.071
 3294SOL     OW10780   5.088   2.835   5.313
 3294SOL    HW110781   5.061   2.781   5.234
 3294SOL    HW210782   5.187   2.828   5.327
 3295SOL     OW10783   0.938   2.380   2.728
 3295SOL    HW110784   1.037   2.387   2.717
 3295SOL    HW210785   0.899   2.326   2.654
 3296SOL     OW10786   2.160   0.738   5.810
 3296SOL    HW110787   2.240   0.788   5.842
 3296SOL    HW210788   2.110   0.702   5.889
 3297SOL     OW10789   4.276   1.000   5.097
 3297SOL    HW110790   4.178   0.997   5.115
 3297SOL    HW210791   4.313   1.089   5.123
 3298SOL     OW10792   3.973   3.709   5.777
 3298SOL    HW110793   3.968   3.718   5.677
 3298SOL    HW210794   4.016   3.791   5.816
 3299SOL     OW10795   2.375   5.842   4.073
 3299SOL    HW110796   2.461   5.790   4.078
 3299SOL    HW210797   2.331   5.826   3.984
 3300SOL     OW10798   2.191   0.603   4.052
 3300SOL    HW110799   2.265   0.549   4.093
 3300SOL    HW210800   2.164   0.675   4.116
 3301SOL     OW10801   1.291   1.222   3.207
 3301SOL    HW110802   1.262   1.136   3.166
 3301SOL    HW210803   1.268   1.223   3.304
 3302SOL     OW10804   1.400   5.312   5.325
 3302SOL    HW110805   1.309   5.345   5.350
 3302SOL    HW210806   1.391   5.236   5.260
 3303SOL     OW10807   3.432   3.583   6.812
 3303SOL    HW110808   3.368   3.524   6.764
 3303SOL    HW210809   3.505   3.611   6.749
 3304SOL     OW10810   1.772   3.945   0.137
 3304SOL    HW110811   1.849   3.956   0.200
 3304SOL    HW210812   1.714   4.026   0.141
 3305SOL     OW10813   3.033   2.782   0.595
 3305SOL    HW110814   2.982   2.706   0.555
 3305SOL    HW210815   3.111   2.747   0.645
 3306SOL     OW10816   2.352   0.444   6.986
 3306SOL    HW110817   2.442   0.452   0.011
 3306SOL    HW210818   2.356   0.379   6.911
 3307SOL     OW10819   1.606   5.874   4.662
 3307SOL    HW110820   1.667   5.865   4.583
 3307SOL    HW210821   1.514   5.900   4.630
 3308SOL     OW10822   4.150   4.428   1.260
 3308SOL    HW110823   4.205   4.484   1.198
 3308SOL    HW210824   4.150   4.333   1.228
 3309SOL     OW10825   5.249   3.507   3.338
 3309SOL    HW110826   5.275   3.456   3.257
 3309SOL    HW210827   5.296   3.595   3.339
 3310SOL     OW10828   6.375   4.657   5.940
 3310SOL    HW110829   6.277   4.671   5.952
 3310SOL    HW210830   6.398   4.564   5.971
 3311SOL     OW10831   2.459   3.878   0.260
 3311SOL    HW110832   2.411   3.858   0.175
 3311SOL    HW210833   2.481   3.975   0.264
 3312SOL     OW10834   4.692   2.796   6.543
 3312SOL    HW110835   4.789   2.795   6.521
 3312SOL    HW210836   4.644   2.728   6.487
 3313SOL     OW10837   6.984   0.456   4.119
 3313SOL    HW110838   7.013   0.365   4.148
 3313SOL    HW210839   6.884   0.461   4.119
 3314SOL     OW10840   3.796   5.870   2.182
 3314SOL    HW110841   3.830   5.779   2.206
 3314SOL    HW210842   3.778   5.874   2.084
 3315SOL     OW10843   0.544   5.431   4.280
 3315SOL    HW110844   0.533   5.479   4.194
 3315SOL    HW210845   0.631   5.458   4.323
 3316SOL     OW10846   3.999   2.812   0.016
 3316SOL    HW110847   3.948   2.836   6.951
 3316SOL    HW210848   3.987   2.714   0.034
 3317SOL     OW10849   5.078   2.708   1.689
 3317SOL    HW110850   5.036   2.704   1.780
 3317SOL    HW210851   5.009   2.688   1.620
 3318SOL     OW10852   3.266   2.944   0.877
 3318SOL    HW110853   3.224   3.034   0.885
 3318SOL    HW210854   3.227   2.882   0.945
 3319SOL     OW10855   6.849   5.790   3.856
 3319SOL    HW110856   6.922   5.724   3.873
 3319SOL    HW210857   6.886   5.883   3.858
 3320SOL     OW10858   6.293   6.682   1.876
 3320SOL    HW110859   6.197   6.674   1.852
 3320SOL    HW210860   6.322   6.778   1.865
 3321SOL     OW10861   4.961   2.007   6.996
 3321SOL    HW110862   5.035   2.065   0.014
 3321SOL    HW210863   4.908   1.970   0.054
 3322SOL     OW10864   6.370   3.134   0.599
 3322SOL    HW110865   6.341   3.069   0.529
 3322SOL    HW210866   6.358   3.094   0.689
 3323SOL     OW10867   1.762   1.431   1.505
 3323SOL    HW110868   1.728   1.353   1.558
 3323SOL    HW210869   1.706   1.443   1.423
 3324SOL     OW10870   5.124   5.515   5.410
 3324SOL    HW110871   5.108   5.595   5.468
 3324SOL    HW210872   5.036   5.477   5.381
 3325SOL     OW10873   2.507   4.933   4.928
 3325SOL    HW110874   2.557   4.876   4.994
 3325SOL    HW210875   2.572   4.994   4.882
 3326SOL     OW10876   3.348   2.139   2.457
 3326SOL    HW110877   3.300   2.052   2.467
 3326SOL    HW210878   3.288   2.206   2.414
 3327SOL     OW10879   0.494   5.541   6.172
 3327SOL    HW110880   0.428   5.466   6.170
 3327SOL    HW210881   0.565   5.522   6.239
 3328SOL     OW10882   4.817   2.630   5.367
 3328SOL    HW110883   4.851   2.678   5.286
 3328SOL    HW210884   4.722   2.604   5.352
 3329SOL     OW10885   6.349   5.891   5.719
 3329SOL    HW110886   6.382   5.814   5.664
 3329SOL    HW210887   6.258   5.871   5.754
 3330SOL     OW10888   6.721   3.804   3.190
 3330SOL    HW110889   6.801   3.755   3.156
 3330SOL    HW210890   6.740   3.840   3.281
 3331SOL     OW10891   2.150   3.374   0.671
 3331SOL    HW110892   2.113   3.466   0.679
 3331SOL    HW210893   2.082   3.314   0.629
 3332SOL     OW10894   6.892   4.016   1.687
 3332SOL    HW110895   6.920   4.083   1.756
 3332SOL    HW210896   6.792   4.016   1.679
 3333SOL     OW10897   3.201   5.430   6.616
 3333SOL    HW110898   3.104   5.408   6.612
 3333SOL    HW210899   3.249   5.361   6.671
 3334SOL     OW10900   1.840   3.697   1.808
 3334SOL    HW110901   1.894   3.687   1.725
 3334SOL    HW210902   1.894   3.665   1.886
 3335SOL     OW10903   5.822   4.045   4.446
 3335SOL    HW110904   5.914   4.007   4.446
 3335SOL    HW210905   5.817   4.122   4.382
 3336SOL     OW10906   2.910   5.697   6.052
 3336SOL    HW110907   2.992   5.653   6.088
 3336SOL    HW210908   2.904   5.680   5.953
 3337SOL     OW10909   3.287   1.975   0.744
 3337SOL    HW110910   3.270   1.952   0.648
 3337SOL    HW210911   3.365   1.922   0.778
 3338SOL     OW10912   6.810   4.558   0.404
 3338SOL    HW110913   6.749   4.499   0.352
 3338SOL    HW210914   6.866   4.611   0.341
 3339SOL     OW10915   0.708   5.753   6.614
 3339SOL    HW110916   0.742   5.670   6.659
 3339SOL    HW210917   0.783   5.799   6.568
 3340SOL     OW10918   4.076   0.043   1.880
 3340SOL    HW110919   4.132   6.985   1.914
 3340SOL    HW210920   4.071   0.115   1.949
 3341SOL     OW10921   0.624   6.885   1.459
 3341SOL    HW110922   0.648   6.951   1.530
 3341SOL    HW210923   0.582   6.805   1.501
 3342SOL     OW10924   2.727   0.499   5.239
 3342SOL    HW110925   2.818   0.505   5.278
 3342SOL    HW210926   2.682   0.588   5.245
 3343SOL     OW10927   6.954   2.581   1.240
 3343SOL    HW110928   6.990   2.671   1.216
 3343SOL    HW210929   7.010   2.541   1.312
 3344SOL     OW10930   6.794   3.073   5.838
 3344SOL    HW110931   6.730   3.127   5.784
 3344SOL    HW210932   6.757   3.061   5.930
 3345SOL     OW10933   2.394   3.404   5.737
 3345SOL    HW110934   2.303   3.368   5.718
 3345SOL    HW210935   2.385   3.491   5.786
 3346SOL     OW10936   1.833   5.802   2.457
 3346SOL    HW110937   1.785   5.732   2.404
 3346SOL    HW210938   1.921   5.766   2.487
 3347SOL     OW10939   6.088   4.073   4.126
 3347SOL    HW110940   6.122   3.994   4.178
 3347SOL    HW210941   6.121   4.067   4.032
 3348SOL     OW10942   3.522   4.151   3.031
 3348SOL    HW110943   3.471   4.158   2.945
 3348SOL    HW210944   3.617   4.125   3.012
 3349SOL     OW10945   5.910   3.922   5.877
 3349SOL    HW110946   5.870   3.846   5.826
 3349SOL    HW210947   5.978   3.969   5.820
 3350SOL     OW10948   1.530   2.028   0.911
 3350SOL    HW110949   1.557   1.932   0.909
 3350SOL    HW210950   1.456   2.041   0.977
 3351SOL     OW10951   5.240   2.286   0.643
 3351SOL    HW110952   5.305   2.318   0.712
 3351SOL    HW210953   5.286   2.284   0.554
 3352SOL     OW10954   0.612   3.378   0.292
 3352SOL    HW110955   0.591   3.418   0.381
 3352SOL    HW210956   0.559   3.423   0.221
 3353SOL     OW10957   1.935   6.429   6.219
 3353SOL    HW110958   1.962   6.507   6.275
 3353SOL    HW210959   1.946   6.453   6.122
 3354SOL     OW10960   1.313   0.885   2.175
 3354SOL    HW110961   1.363   0.869   2.090
 3354SOL    HW210962   1.228   0.934   2.155
 3355SOL     OW10963   6.729   1.476   3.000
 3355SOL    HW110964   6.666   1.480   3.077
 3355SOL    HW210965   6.699   1.406   2.935
 3356SOL     OW10966   1.994   3.658   5.586
 3356SOL    HW110967   2.075   3.618   5.543
 3356SOL    HW210968   2.022   3.729   5.651
 3357SOL     OW10969   2.428   5.346   2.248
 3357SOL    HW110970   2.464   5.396   2.169
 3357SOL    HW210971   2.486   5.362   2.327
 3358SOL     OW10972   6.876   4.189   3.309
 3358SOL    HW110973   6.785   4.162   3.278
 3358SOL    HW210974   6.868   4.268   3.370
 3359SOL     OW10975   1.597   1.306   1.935
 3359SOL    HW110976   1.664   1.380   1.933
 3359SOL    HW210977   1.510   1.339   1.899
 3360SOL     OW10978   2.045   0.442   6.201
 3360SOL    HW110979   2.074   0.537   6.203
 3360SOL    HW210980   2.091   0.391   6.273
 3361SOL     OW10981   4.232   0.640   3.011
 3361SOL    HW110982   4.207   0.726   3.055
 3361SOL    HW210983   4.331   0.630   3.009
 3362SOL     OW10984   2.300   1.482   5.332
 3362SOL    HW110985   2.350   1.460   5.248
 3362SOL    HW210986   2.362   1.525   5.397
 3363SOL     OW10987   0.448   1.374   6.139
 3363SOL    HW110988   0.538   1.390   6.179
 3363SOL    HW210989   0.377   1.408   6.200
 3364SOL     OW10990   2.150   4.642   6.234
 3364SOL    HW110991   2.218   4.617   6.165
 3364SOL    HW210992   2.146   4.742   6.243
 3365SOL     OW10993   5.687   1.977   5.346
 3365SOL    HW110994   5.710   1.972   5.443
 3365SOL    HW210995   5.717   1.893   5.300
 3366SOL     OW10996   5.138   1.128   6.471
 3366SOL    HW110997   5.156   1.213   6.520
 3366SOL    HW210998   5.224   1.080   6.454
 3367SOL     OW10999   1.684   0.217   1.954
 3367SOL    HW111000   1.768   0.227   1.901
 3367SOL    HW211001   1.641   0.307   1.966
 3368SOL     OW11002   6.442   1.281   6.074
 3368SOL    HW111003   6.450   1.200   6.016
 3368SOL    HW211004   6.346   1.296   6.096
 3369SOL     OW11005   3.658   6.321   5.895
 3369SOL    HW111006   3.683   6.267   5.814
 3369SOL    HW211007   3.723   6.304   5.969
 3370SOL     OW11008   5.215   0.155   5.325
 3370SOL    HW111009   5.313   0.139   5.339
 3370SOL    HW211010   5.202   0.231   5.263
 3371SOL     OW11011   6.739   4.993   1.530
 3371SOL    HW111012   6.828   5.005   1.484
 3371SOL    HW211013   6.753   4.946   1.617
 3372SOL     OW11014   0.607   2.193   2.710
 3372SOL    HW111015   0.583   2.289   2.694
 3372SOL    HW211016   0.617   2.177   2.809
 3373SOL     OW11017   0.660   1.984   6.328
 3373SOL    HW111018   0.599   1.906   6.315
 3373SOL    HW211019   0.649   2.020   6.421
 3374SOL     OW11020   3.601   5.553   5.278
 3374SOL    HW111021   3.540   5.576   5.355
 3374SOL    HW211022   3.580   5.613   5.201
 3375SOL     OW11023   3.786   4.072   4.879
 3375SOL    HW111024   3.784   4.169   4.855
 3375SOL    HW211025   3.869   4.030   4.842
 3376SOL     OW11026   2.726   3.027   1.776
 3376SOL    HW111027   2.815   3.065   1.802
 3376SOL    HW211028   2.690   2.971   1.850
 3377SOL     OW11029   2.883   5.668   5.764
 3377SOL    HW111030   2.855   5.586   5.715
 3377SOL    HW211031   2.802   5.720   5.791
 3378SOL     OW11032   0.477   1.046   0.876
 3378SOL    HW111033   0.426   0.991   0.809
 3378SOL    HW211034   0.566   1.004   0.892
 3379SOL     OW11035   0.255   4.955   6.260
 3379SOL    HW111036   0.258   4.855   6.254
 3379SOL    HW211037   0.287   4.984   6.350
 3380SOL     OW11038   1.022   3.923   5.952
 3380SOL    HW111039   0.962   3.848   5.925
 3380SOL    HW211040   1.062   3.965   5.870
 3381SOL     OW11041   3.016   2.898   1.235
 3381SOL    HW111042   2.943   2.875   1.300
 3381SOL    HW211043   2.977   2.943   1.155
 3382SOL     OW11044   6.722   6.888   6.916
 3382SOL    HW111045   6.759   6.817   6.857
 3382SOL    HW211046   6.765   6.881   7.007
 3383SOL     OW11047   0.238   4.140   2.761
 3383SOL    HW111048   0.166   4.093   2.812
 3383SOL    HW211049   0.315   4.078   2.748
 3384SOL     OW11050   3.268   3.062   4.575
 3384SOL    HW111051   3.200   3.128   4.541
 3384SOL    HW211052   3.264   2.979   4.521
 3385SOL     OW11053   6.562   3.788   3.619
 3385SOL    HW111054   6.622   3.848   3.673
 3385SOL    HW211055   6.615   3.711   3.584
 3386SOL     OW11056   6.105   3.770   4.742
 3386SOL    HW111057   6.007   3.752   4.748
 3386SOL    HW211058   6.122   3.867   4.758
 3387SOL     OW11059   2.894   2.198   3.164
 3387SOL    HW111060   2.973   2.182   3.222
 3387SOL    HW211061   2.916   2.171   3.070
 3388SOL     OW11062   5.312   2.924   2.057
 3388SOL    HW111063   5.296   2.990   2.131
 3388SOL    HW211064   5.275   2.960   1.972
 3389SOL     OW11065   5.041   4.464   3.026
 3389SOL    HW111066   4.955   4.415   3.039
 3389SOL    HW211067   5.110   4.430   3.089
 3390SOL     OW11068   4.872   2.598   5.860
 3390SOL    HW111069   4.909   2.614   5.951
 3390SOL    HW211070   4.819   2.678   5.831
 3391SOL     OW11071   4.013   2.062   4.298
 3391SOL    HW111072   3.915   2.080   4.309
 3391SOL    HW211073   4.035   1.974   4.339
 3392SOL     OW11074   5.008   5.906   3.656
 3392SOL    HW111075   5.048   5.816   3.639
 3392SOL    HW211076   5.080   5.976   3.650
 3393SOL     OW11077   6.709   0.709   0.144
 3393SOL    HW111078   6.703   0.708   0.244
 3393SOL    HW211079   6.700   0.803   0.111
 3394SOL     OW11080   5.722   1.410   1.439
 3394SOL    HW111081   5.653   1.393   1.368
 3394SOL    HW211082   5.703   1.352   1.518
 3395SOL     OW11083   1.862   3.321   5.167
 3395SOL    HW111084   1.795   3.325   5.093
 3395SOL    HW211085   1.943   3.375   5.142
 3396SOL     OW11086   6.937   4.035   4.342
 3396SOL    HW111087   7.010   4.021   4.408
 3396SOL    HW211088   6.849   4.010   4.383
 3397SOL     OW11089   2.929   6.397   5.576
 3397SOL    HW111090   2.840   6.362   5.606
 3397SOL    HW211091   2.997   6.324   5.583
 3398SOL     OW11092   0.426   0.049   4.317
 3398SOL    HW111093   0.399   6.971   4.322
 3398SOL    HW211094   0.371   0.096   4.248
 3399SOL     OW11095   4.503   5.297   4.477
 3399SOL    HW111096   4.415   5.253   4.499
 3399SOL    HW211097   4.503   5.323   4.380
 3400SOL     OW11098   4.529   2.644   6.395
 3400SOL    HW111099   4.584   2.578   6.343
 3400SOL    HW211100   4.436   2.609   6.404
 3401SOL     OW11101   6.398   4.785   6.486
 3401SOL    HW111102   6.494   4.804   6.509
 3401SOL    HW211103   6.388   4.687   6.465
 3402SOL     OW11104   4.958   5.488   2.355
 3402SOL    HW111105   4.895   5.548   2.307
 3402SOL    HW211106   4.908   5.433   2.422
 3403SOL     OW11107   3.175   2.012   5.150
 3403SOL    HW111108   3.185   2.108   5.124
 3403SOL    HW211109   3.158   2.005   5.248
 3404SOL     OW11110   4.313   0.742   1.067
 3404SOL    HW111111   4.377   0.685   1.119
 3404SOL    HW211112   4.346   0.836   1.063
 3405SOL     OW11113   5.886   3.848   0.804
 3405SOL    HW111114   5.868   3.778   0.735
 3405SOL    HW211115   5.972   3.826   0.851
 3406SOL     OW11116   1.181   4.764   2.095
 3406SOL    HW111117   1.204   4.747   2.191
 3406SOL    HW211118   1.159   4.678   2.050
 3407SOL     OW11119   1.381   5.330   2.576
 3407SOL    HW111120   1.481   5.336   2.574
 3407SOL    HW211121   1.348   5.287   2.492
 3408SOL     OW11122   5.475   3.871   2.873
 3408SOL    HW111123   5.384   3.853   2.836
 3408SOL    HW211124   5.490   3.969   2.878
 3409SOL     OW11125   2.744   0.770   5.903
 3409SOL    HW111126   2.804   0.724   5.838
 3409SOL    HW211127   2.768   0.867   5.907
 3410SOL     OW11128   0.013   0.383   6.945
 3410SOL    HW111129   6.987   0.297   6.971
 3410SOL    HW211130   7.015   0.451   7.017
 3411SOL     OW11131   4.978   2.661   1.939
 3411SOL    HW111132   5.035   2.697   2.013
 3411SOL    HW211133   4.885   2.648   1.972
 3412SOL     OW11134   4.136   4.889   6.720
 3412SOL    HW111135   4.074   4.968   6.716
 3412SOL    HW211136   4.130   4.838   6.634
 3413SOL     OW11137   4.114   2.040   2.243
 3413SOL    HW111138   4.150   2.082   2.327
 3413SOL    HW211139   4.032   2.090   2.214
 3414SOL     OW11140   3.795   1.817   5.794
 3414SOL    HW111141   3.748   1.849   5.712
 3414SOL    HW211142   3.884   1.778   5.768
 3415SOL     OW11143   0.207   5.250   4.175
 3415SOL    HW111144   0.207   5.350   4.179
 3415SOL    HW211145   0.131   5.219   4.117
 3416SOL     OW11146   2.090   4.963   5.527
 3416SOL    HW111147   1.998   4.935   5.499
 3416SOL    HW211148   2.128   5.027   5.460
 3417SOL     OW11149   5.908   0.491   1.695
 3417SOL    HW111150   5.927   0.403   1.739
 3417SOL    HW211151   5.818   0.488   1.651
 3418SOL     OW11152   3.326   1.172   6.451
 3418SOL    HW111153   3.404   1.142   6.397
 3418SOL    HW211154   3.358   1.223   6.531
 3419SOL     OW11155   4.507   4.082   0.309
 3419SOL    HW111156   4.438   4.036   0.365
 3419SOL    HW211157   4.598   4.053   0.337
 3420SOL     OW11158   4.200   2.222   4.133
 3420SOL    HW111159   4.226   2.245   4.227
 3420SOL    HW211160   4.103   2.196   4.131
 3421SOL     OW11161   0.689   6.533   3.991
 3421SOL    HW111162   0.719   6.439   4.004
 3421SOL    HW211163   0.640   6.540   3.904
 3422SOL     OW11164   3.478   1.685   2.271
 3422SOL    HW111165   3.434   1.747   2.206
 3422SOL    HW211166   3.436   1.595   2.265
 3423SOL     OW11167   2.797   1.112   1.886
 3423SOL    HW111168   2.796   1.185   1.955
 3423SOL    HW211169   2.735   1.039   1.914
 3424SOL     OW11170   4.090   1.538   2.376
 3424SOL    HW111171   4.070   1.631   2.406
 3424SOL    HW211172   4.145   1.540   2.293
 3425SOL     OW11173   4.659   4.466   1.802
 3425SOL    HW111174   4.624   4.400   1.869
 3425SOL    HW211175   4.601   4.547   1.801
 3426SOL     OW11176   4.318   3.907   0.474
 3426SOL    HW111177   4.250   3.978   0.457
 3426SOL    HW211178   4.353   3.914   0.567
 3427SOL     OW11179   0.968   1.780   0.230
 3427SOL    HW111180   0.958   1.877   0.250
 3427SOL    HW211181   1.062   1.751   0.248
 3428SOL     OW11182   4.433   4.537   3.328
 3428SOL    HW111183   4.447   4.530   3.229
 3428SOL    HW211184   4.501   4.599   3.367
 3429SOL     OW11185   0.391   2.871   6.610
 3429SOL    HW111186   0.417   2.921   6.527
 3429SOL    HW211187   0.436   2.912   6.689
 3430SOL     OW11188   0.949   6.465   6.875
 3430SOL    HW111189   0.986   6.460   6.783
 3430SOL    HW211190   0.890   6.386   6.892
 3431SOL     OW11191   0.646   6.217   0.274
 3431SOL    HW111192   0.582   6.218   0.351
 3431SOL    HW211193   0.619   6.146   0.209
 3432SOL     OW11194   3.104   1.980   6.728
 3432SOL    HW111195   3.006   1.993   6.733
 3432SOL    HW211196   3.135   1.997   6.634
 3433SOL     OW11197   4.100   0.589   4.938
 3433SOL    HW111198   4.177   0.624   4.886
 3433SOL    HW211199   4.133   0.531   5.012
 3434SOL     OW11200   4.535   2.067   2.766
 3434SOL    HW111201   4.464   2.135   2.782
 3434SOL    HW211202   4.546   2.010   2.848
 3435SOL     OW11203   0.554   1.235   6.995
 3435SOL    HW111204   0.556   1.165   0.047
 3435SOL    HW211205   0.645   1.245   6.955
 3436SOL     OW11206   4.210   6.871   3.288
 3436SOL    HW111207   4.211   6.833   3.380
 3436SOL    HW211208   4.183   6.967   3.291
 3437SOL     OW11209   4.047   0.523   6.369
 3437SOL    HW111210   4.040   0.602   6.307
 3437SOL    HW211211   3.991   0.448   6.334
 3438SOL     OW11212   1.686   4.032   6.628
 3438SOL    HW111213   1.724   4.050   6.719
 3438SOL    HW211214   1.616   4.100   6.606
 3439SOL     OW11215   2.773   6.392   3.567
 3439SOL    HW111216   2.697   6.389   3.502
 3439SOL    HW211217   2.830   6.311   3.555
 3440SOL     OW11218   4.582   2.094   0.907
 3440SOL    HW111219   4.631   2.176   0.936
 3440SOL    HW211220   4.645   2.017   0.902
 3441SOL     OW11221   3.331   0.461   4.261
 3441SOL    HW111222   3.340   0.362   4.271
 3441SOL    HW211223   3.234   0.485   4.252
 3442SOL     OW11224   1.653   4.927   3.228
 3442SOL    HW111225   1.737   4.894   3.271
 3442SOL    HW211226   1.666   4.934   3.129
 3443SOL     OW11227   5.854   0.783   4.049
 3443SOL    HW111228   5.907   0.867   4.056
 3443SOL    HW211229   5.915   0.708   4.024
 3444SOL     OW11230   4.144   5.192   0.488
 3444SOL    HW111231   4.090   5.130   0.545
 3444SOL    HW211232   4.240   5.165   0.491
 3445SOL     OW11233   6.158   4.782   4.744
 3445SOL    HW111234   6.152   4.881   4.749
 3445SOL    HW211235   6.224   4.756   4.674
 3446SOL     OW11236   3.233   6.396   2.818
 3446SOL    HW111237   3.259   6.446   2.736
 3446SOL    HW211238   3.280   6.435   2.898
 3447SOL     OW11239   5.953   4.937   6.016
 3447SOL    HW111240   5.996   5.003   6.076
 3447SOL    HW211241   5.872   4.899   6.061
 3448SOL     OW11242   3.343   2.274   0.894
 3448SOL    HW111243   3.250   2.239   0.906
 3448SOL    HW211244   3.370   2.264   0.798
 3449SOL     OW11245   6.148   6.521   3.502
 3449SOL    HW111246   6.138   6.427   3.470
 3449SOL    HW211247   6.059   6.567   3.501
 3450SOL     OW11248   1.014   1.945   1.296
 3450SOL    HW111249   1.054   1.916   1.210
 3450SOL    HW211250   1.086   1.968   1.361
 3451SOL     OW11251   0.961   5.336   4.169
 3451SOL    HW111252   0.938   5.375   4.080
 3451SOL    HW211253   0.977   5.237   4.159
 3452SOL     OW11254   6.313   2.291   0.229
 3452SOL    HW111255   6.241   2.286   0.159
 3452SOL    HW211256   6.342   2.198   0.254
 3453SOL     OW11257   6.042   5.731   5.577
 3453SOL    HW111258   5.945   5.710   5.589
 3453SOL    HW211259   6.053   5.802   5.507
 3454SOL     OW11260   0.319   1.153   0.276
 3454SOL    HW111261   0.417   1.139   0.262
 3454SOL    HW211262   0.305   1.231   0.337
 3455SOL     OW11263   2.139   2.472   4.699
 3455SOL    HW111264   2.137   2.430   4.608
 3455SOL    HW211265   2.213   2.540   4.702
 3456SOL     OW11266   6.327   0.378   1.499
 3456SOL    HW111267   6.369   0.297   1.541
 3456SOL    HW211268   6.395   0.450   1.491
 3457SOL     OW11269   2.176   5.476   3.838
 3457SOL    HW111270   2.200   5.490   3.933
 3457SOL    HW211271   2.102   5.408   3.832
 3458SOL     OW11272   5.278   5.454   1.232
 3458SOL    HW111273   5.180   5.464   1.251
 3458SOL    HW211274   5.294   5.465   1.134
 3459SOL     OW11275   6.288   6.688   3.358
 3459SOL    HW111276   6.261   6.632   3.436
 3459SOL    HW211277   6.330   6.630   3.288
 3460SOL     OW11278   4.145   3.616   6.210
 3460SOL    HW111279   4.212   3.544   6.188
 3460SOL    HW211280   4.187   3.683   6.270
 3461SOL     OW11281   3.119   5.584   2.361
 3461SOL    HW111282   3.205   5.617   2.324
 3461SOL    HW211283   3.136   5.509   2.425
 3462SOL     OW11284   4.904   3.219   3.335
 3462SOL    HW111285   4.846   3.148   3.373
 3462SOL    HW211286   4.911   3.207   3.236
 3463SOL     OW11287   1.969   2.933   1.124
 3463SOL    HW111288   1.889   2.878   1.148
 3463SOL    HW211289   2.050   2.896   1.170
 3464SOL     OW11290   4.256   2.550   6.867
 3464SOL    HW111291   4.302   2.638   6.859
 3464SOL    HW211292   4.292   2.501   6.947
 3465SOL     OW11293   1.576   3.627   1.876
 3465SOL    HW111294   1.665   3.666   1.851
 3465SOL    HW211295   1.589   3.563   1.952
 3466SOL     OW11296   5.957   4.499   3.615
 3466SOL    HW111297   5.923   4.555   3.692
 3466SOL    HW211298   5.990   4.412   3.650
 3467SOL     OW11299   2.618   2.367   1.543
 3467SOL    HW111300   2.705   2.372   1.495
 3467SOL    HW211301   2.606   2.448   1.599
 3468SOL     OW11302   3.681   1.760   0.968
 3468SOL    HW111303   3.650   1.750   1.063
 3468SOL    HW211304   3.765   1.814   0.966
 3469SOL     OW11305   4.123   5.862   5.467
 3469SOL    HW111306   4.147   5.952   5.429
 3469SOL    HW211307   4.024   5.851   5.467
 3470SOL     OW11308   1.105   3.235   1.443
 3470SOL    HW111309   1.172   3.296   1.485
 3470SOL    HW211310   1.077   3.273   1.355
 3471SOL     OW11311   5.270   3.166   4.407
 3471SOL    HW111312   5.343   3.133   4.347
 3471SOL    HW211313   5.226   3.088   4.452
 3472SOL     OW11314   4.277   1.610   3.012
 3472SOL    HW111315   4.268   1.674   3.089
 3472SOL    HW211316   4.290   1.517   3.047
 3473SOL     OW11317   6.969   4.244   1.836
 3473SOL    HW111318   0.046   4.261   1.807
 3473SOL    HW211319   6.913   4.322   1.813
 3474SOL     OW11320   5.507   4.871   3.851
 3474SOL    HW111321   5.500   4.920   3.938
 3474SOL    HW211322   5.509   4.936   3.776
 3475SOL     OW11323   6.922   4.546   4.038
 3475SOL    HW111324   7.012   4.589   4.029
 3475SOL    HW211325   6.919   4.464   3.979
 3476SOL     OW11326   1.703   0.876   3.610
 3476SOL    HW111327   1.649   0.808   3.660
 3476SOL    HW211328   1.725   0.952   3.671
 3477SOL     OW11329   0.526   4.043   2.218
 3477SOL    HW111330   0.517   3.951   2.255
 3477SOL    HW211331   0.501   4.110   2.289
 3478SOL     OW11332   2.410   1.064   1.193
 3478SOL    HW111333   2.442   1.156   1.172
 3478SOL    HW211334   2.322   1.048   1.149
 3479SOL     OW11335   1.308   4.468   4.907
 3479SOL    HW111336   1.404   4.449   4.929
 3479SOL    HW211337   1.287   4.433   4.816
 3480SOL     OW11338   1.313   4.908   6.946
 3480SOL    HW111339   1.224   4.873   6.916
 3480SOL    HW211340   1.385   4.867   6.892
 3481SOL     OW11341   6.100   0.988   5.217
 3481SOL    HW111342   6.046   1.034   5.287
 3481SOL    HW211343   6.120   0.894   5.245
 3482SOL     OW11344   6.061   3.562   5.228
 3482SOL    HW111345   5.993   3.499   5.264
 3482SOL    HW211346   6.152   3.534   5.258
 3483SOL     OW11347   5.442   2.622   4.945
 3483SOL    HW111348   5.414   2.532   4.980
 3483SOL    HW211349   5.431   2.690   5.017
 3484SOL     OW11350   2.214   3.310   5.390
 3484SOL    HW111351   2.224   3.408   5.404
 3484SOL    HW211352   2.303   3.266   5.398
 3485SOL     OW11353   6.687   2.752   6.506
 3485SOL    HW111354   6.770   2.700   6.528
 3485SOL    HW211355   6.710   2.849   6.500
 3486SOL     OW11356   2.043   6.221   4.829
 3486SOL    HW111357   2.135   6.261   4.826
 3486SOL    HW211358   2.049   6.123   4.847
 3487SOL     OW11359   4.900   1.270   6.628
 3487SOL    HW111360   4.886   1.316   6.716
 3487SOL    HW211361   4.998   1.272   6.605
 3488SOL     OW11362   5.615   0.321   5.044
 3488SOL    HW111363   5.528   0.319   4.995
 3488SOL    HW211364   5.674   0.248   5.010
 3489SOL     OW11365   3.000   6.360   0.592
 3489SOL    HW111366   2.974   6.405   0.677
 3489SOL    HW211367   3.055   6.423   0.536
 3490SOL     OW11368   3.434   6.331   0.267
 3490SOL    HW111369   3.487   6.256   0.305
 3490SOL    HW211370   3.376   6.297   0.193
 3491SOL     OW11371   4.608   4.766   6.079
 3491SOL    HW111372   4.572   4.846   6.032
 3491SOL    HW211373   4.699   4.786   6.114
 3492SOL     OW11374   5.655   4.130   2.377
 3492SOL    HW111375   5.659   4.079   2.463
 3492SOL    HW211376   5.663   4.228   2.396
 3493SOL     OW11377   6.420   3.056   5.611
 3493SOL    HW111378   6.341   3.113   5.631
 3493SOL    HW211379   6.391   2.973   5.563
 3494SOL     OW11380   4.510   1.777   1.795
 3494SOL    HW111381   4.485   1.852   1.856
 3494SOL    HW211382   4.482   1.800   1.701
 3495SOL     OW11383   0.819   2.462   2.211
 3495SOL    HW111384   0.823   2.495   2.306
 3495SOL    HW211385   0.831   2.539   2.148
 3496SOL     OW11386   5.693   5.482   1.166
 3496SOL    HW111387   5.622   5.439   1.223
 3496SOL    HW211388   5.783   5.449   1.194
 3497SOL     OW11389   3.272   6.613   2.627
 3497SOL    HW111390   3.305   6.560   2.549
 3497SOL    HW211391   3.256   6.707   2.599
 3498SOL     OW11392   1.951   2.553   1.470
 3498SOL    HW111393   1.905   2.623   1.415
 3498SOL    HW211394   2.012   2.596   1.536
 3499SOL     OW11395   6.359   5.517   5.295
 3499SOL    HW111396   6.369   5.588   5.365
 3499SOL    HW211397   6.298   5.445   5.328
 3500SOL     OW11398   1.673   1.839   4.206
 3500SOL    HW111399   1.655   1.744   4.182
 3500SOL    HW211400   1.729   1.881   4.134
 3501SOL     OW11401   1.400   0.402   5.374
 3501SOL    HW111402   1.414   0.364   5.465
 3501SOL    HW211403   1.302   0.415   5.357
 3502SOL     OW11404   4.829   2.880   2.168
 3502SOL    HW111405   4.779   2.912   2.088
 3502SOL    HW211406   4.918   2.845   2.139
 3503SOL     OW11407   6.317   6.230   6.772
 3503SOL    HW111408   6.279   6.138   6.764
 3503SOL    HW211409   6.254   6.288   6.825
 3504SOL     OW11410   1.068   1.022   0.537
 3504SOL    HW111411   1.025   0.944   0.491
 3504SOL    HW211412   1.151   0.992   0.583
 3505SOL     OW11413   4.990   4.728   6.422
 3505SOL    HW111414   5.080   4.764   6.447
 3505SOL    HW211415   4.930   4.729   6.501
 3506SOL     OW11416   5.061   4.710   4.864
 3506SOL    HW111417   5.076   4.809   4.859
 3506SOL    HW211418   5.134   4.663   4.815
 3507SOL     OW11419   3.542   0.139   0.543
 3507SOL    HW111420   3.514   0.162   0.636
 3507SOL    HW211421   3.487   0.192   0.478
 3508SOL     OW11422   2.823   2.170   5.499
 3508SOL    HW111423   2.904   2.203   5.451
 3508SOL    HW211424   2.748   2.159   5.434
 3509SOL     OW11425   3.882   5.289   6.415
 3509SOL    HW111426   3.859   5.195   6.388
 3509SOL    HW211427   3.807   5.327   6.469
 3510SOL     OW11428   2.703   1.535   0.664
 3510SOL    HW111429   2.780   1.542   0.728
 3510SOL    HW211430   2.661   1.625   0.654
 3511SOL     OW11431   2.807   4.303   1.561
 3511SOL    HW111432   2.853   4.330   1.645
 3511SOL    HW211433   2.762   4.214   1.575
 3512SOL     OW11434   0.322   5.290   6.415
 3512SOL    HW111435   0.321   5.381   6.457
 3512SOL    HW211436   0.257   5.286   6.340
 3513SOL     OW11437   5.774   2.060   0.571
 3513SOL    HW111438   5.766   2.021   0.479
 3513SOL    HW211439   5.869   2.090   0.586
 3514SOL     OW11440   3.857   1.444   2.133
 3514SOL    HW111441   3.800   1.525   2.116
 3514SOL    HW211442   3.897   1.449   2.224
 3515SOL     OW11443   6.826   5.638   4.125
 3515SOL    HW111444   6.755   5.577   4.091
 3515SOL    HW211445   6.895   5.653   4.054
 3516SOL     OW11446   4.370   0.313   1.398
 3516SOL    HW111447   4.448   0.375   1.400
 3516SOL    HW211448   4.298   0.351   1.341
 3517SOL     OW11449   6.033   0.529   1.038
 3517SOL    HW111450   5.939   0.516   1.069
 3517SOL    HW211451   6.033   0.583   0.954
 3518SOL     OW11452   5.326   1.032   5.464
 3518SOL    HW111453   5.236   0.990   5.453
 3518SOL    HW211454   5.316   1.131   5.475
 3519SOL     OW11455   3.584   0.674   0.995
 3519SOL    HW111456   3.617   0.670   0.901
 3519SOL    HW211457   3.651   0.632   1.056
 3520SOL     OW11458   2.622   6.176   4.629
 3520SOL    HW111459   2.689   6.243   4.661
 3520SOL    HW211460   2.635   6.159   4.532
 3521SOL     OW11461   2.300   3.262   0.914
 3521SOL    HW111462   2.257   3.287   0.828
 3521SOL    HW211463   2.391   3.303   0.920
 3522SOL     OW11464   0.161   5.868   6.486
 3522SOL    HW111465   0.233   5.812   6.445
 3522SOL    HW211466   0.149   5.842   6.581
 3523SOL     OW11467   1.844   5.403   6.761
 3523SOL    HW111468   1.823   5.475   6.696
 3523SOL    HW211469   1.833   5.314   6.717
 3524SOL     OW11470   5.231   1.229   3.439
 3524SOL    HW111471   5.197   1.143   3.478
 3524SOL    HW211472   5.330   1.234   3.453
 3525SOL     OW11473   6.434   3.980   3.180
 3525SOL    HW111474   6.400   4.033   3.103
 3525SOL    HW211475   6.458   3.888   3.149
 3526SOL     OW11476   0.781   6.740   3.401
 3526SOL    HW111477   0.717   6.709   3.471
 3526SOL    HW211478   0.811   6.662   3.346
 3527SOL     OW11479   0.179   2.666   5.901
 3527SOL    HW111480   0.231   2.633   5.822
 3527SOL    HW211481   0.101   2.720   5.870
 3528SOL     OW11482   2.074   5.897   4.566
 3528SOL    HW111483   2.040   5.920   4.657
 3528SOL    HW211484   2.147   5.961   4.542
 3529SOL     OW11485   4.518   5.178   1.232
 3529SOL    HW111486   4.423   5.193   1.261
 3529SOL    HW211487   4.556   5.263   1.196
 3530SOL     OW11488   6.945   0.154   2.083
 3530SOL    HW111489   0.004   0.208   2.049
 3530SOL    HW211490   6.897   0.207   2.154
 3531SOL     OW11491   5.410   2.121   0.173
 3531SOL    HW111492   5.423   2.186   0.249
 3531SOL    HW211493   5.481   2.135   0.105
 3532SOL     OW11494   2.159   1.671   1.583
 3532SOL    HW111495   2.202   1.748   1.536
 3532SOL    HW211496   2.200   1.659   1.673
 3533SOL     OW11497   1.033   1.449   2.886
 3533SOL    HW111498   0.955   1.425   2.944
 3533SOL    HW211499   1.108   1.385   2.902
 3534SOL     OW11500   0.204   1.446   1.001
 3534SOL    HW111501   0.280   1.413   1.057
 3534SOL    HW211502   0.187   1.381   0.927
 3535SOL     OW11503   2.784   5.878   4.518
 3535SOL    HW111504   2.753   5.945   4.450
 3535SOL    HW211505   2.792   5.923   4.607
 3536SOL     OW11506   3.587   2.078   2.879
 3536SOL    HW111507   3.494   2.085   2.844
 3536SOL    HW211508   3.586   2.083   2.979
 3537SOL     OW11509   1.804   5.847   2.942
 3537SOL    HW111510   1.754   5.831   2.856
 3537SOL    HW211511   1.895   5.806   2.935
 3538SOL     OW11512   3.363   5.358   3.684
 3538SOL    HW111513   3.367   5.289   3.755
 3538SOL    HW211514   3.295   5.331   3.615
 3539SOL     OW11515   3.245   3.559   4.335
 3539SOL    HW111516   3.330   3.511   4.317
 3539SOL    HW211517   3.259   3.657   4.320
 3540SOL     OW11518   1.960   1.844   3.467
 3540SOL    HW111519   1.917   1.811   3.551
 3540SOL    HW211520   2.055   1.868   3.484
 3541SOL     OW11521   3.161   4.084   5.087
 3541SOL    HW111522   3.069   4.047   5.074
 3541SOL    HW211523   3.223   4.046   5.018
 3542SOL     OW11524   0.575   5.536   1.618
 3542SOL    HW111525   0.662   5.581   1.640
 3542SOL    HW211526   0.515   5.601   1.570
 3543SOL     OW11527   6.354   2.458   4.891
 3543SOL    HW111528   6.309   2.515   4.960
 3543SOL    HW211529   6.326   2.487   4.800
 3544SOL     OW11530   2.019   5.777   6.595
 3544SOL    HW111531   1.940   5.717   6.606
 3544SOL    HW211532   2.059   5.795   6.684
 3545SOL     OW11533   3.386   5.316   6.998
 3545SOL    HW111534   3.378   5.416   7.003
 3545SOL    HW211535   3.383   5.287   6.902
 3546SOL     OW11536   6.036   4.521   2.868
 3546SOL    HW111537   6.135   4.515   2.857
 3546SOL    HW211538   5.995   4.554   2.783
 3547SOL     OW11539   5.015   4.644   3.923
 3547SOL    HW111540   4.944   4.715   3.924
 3547SOL    HW211541   4.985   4.566   3.978
 3548SOL     OW11542   4.503   2.948   5.602
 3548SOL    HW111543   4.475   2.916   5.511
 3548SOL    HW211544   4.552   3.035   5.593
 3549SOL     OW11545   6.080   3.841   2.635
 3549SOL    HW111546   5.999   3.843   2.576
 3549SOL    HW211547   6.098   3.934   2.668
 3550SOL     OW11548   5.598   2.253   2.412
 3550SOL    HW111549   5.514   2.291   2.372
 3550SOL    HW211550   5.634   2.182   2.351
 3551SOL     OW11551   2.453   6.678   2.941
 3551SOL    HW111552   2.504   6.747   2.890
 3551SOL    HW211553   2.469   6.690   3.039
 3552SOL     OW11554   6.960   4.472   2.889
 3552SOL    HW111555   6.933   4.568   2.887
 3552SOL    HW211556   6.999   4.446   2.801
 3553SOL     OW11557   5.714   2.256   3.185
 3553SOL    HW111558   5.696   2.352   3.203
 3553SOL    HW211559   5.811   2.243   3.163
 3554SOL     OW11560   4.110   5.443   6.700
 3554SOL    HW111561   4.057   5.486   6.626
 3554SOL    HW211562   4.048   5.417   6.774
 3555SOL     OW11563   0.950   2.863   3.612
 3555SOL    HW111564   0.976   2.849   3.516
 3555SOL    HW211565   1.028   2.840   3.671
 3556SOL     OW11566   3.992   0.632   6.642
 3556SOL    HW111567   3.903   0.674   6.624
 3556SOL    HW211568   4.017   0.575   6.564
 3557SOL     OW11569   0.781   0.977   4.890
 3557SOL    HW111570   0.865   0.932   4.860
 3557SOL    HW211571   0.771   0.968   4.989
 3558SOL     OW11572   6.874   5.547   1.163
 3558SOL    HW111573   6.971   5.549   1.136
 3558SOL    HW211574   6.823   5.613   1.107
 3559SOL     OW11575   0.701   1.273   5.491
 3559SOL    HW111576   0.741   1.350   5.541
 3559SOL    HW211577   0.638   1.307   5.422
 3560SOL     OW11578   6.708   6.152   1.729
 3560SOL    HW111579   6.716   6.056   1.753
 3560SOL    HW211580   6.778   6.205   1.778
 3561SOL     OW11581   4.272   4.715   4.265
 3561SOL    HW111582   4.349   4.693   4.325
 3561SOL    HW211583   4.200   4.761   4.318
 3562SOL     OW11584   4.763   2.282   2.814
 3562SOL    HW111585   4.672   2.255   2.784
 3562SOL    HW211586   4.784   2.237   2.901
 3563SOL     OW11587   4.528   0.595   1.202
 3563SOL    HW111588   4.550   0.557   1.292
 3563SOL    HW211589   4.586   0.675   1.185
 3564SOL     OW11590   0.228   4.351   2.987
 3564SOL    HW111591   0.219   4.277   2.922
 3564SOL    HW211592   0.186   4.434   2.950
 3565SOL     OW11593   2.117   6.994   4.958
 3565SOL    HW111594   2.020   6.994   4.983
 3565SOL    HW211595   2.127   7.018   4.862
 3566SOL     OW11596   0.433   4.006   5.594
 3566SOL    HW111597   0.427   3.958   5.506
 3566SOL    HW211598   0.525   3.995   5.632
 3567SOL     OW11599   0.136   2.871   0.739
 3567SOL    HW111600   0.114   2.900   0.832
 3567SOL    HW211601   0.055   2.829   0.698
 3568SOL     OW11602   5.367   3.686   3.662
 3568SOL    HW111603   5.335   3.682   3.567
 3568SOL    HW211604   5.288   3.694   3.723
 3569SOL     OW11605   3.695   3.254   3.680
 3569SOL    HW111606   3.754   3.176   3.700
 3569SOL    HW211607   3.741   3.316   3.617
 3570SOL     OW11608   0.303   2.474   5.745
 3570SOL    HW111609   0.258   2.385   5.745
 3570SOL    HW211610   0.332   2.496   5.652
 3571SOL     OW11611   2.282   6.564   4.998
 3571SOL    HW111612   2.243   6.656   4.990
 3571SOL    HW211613   2.382   6.569   4.990
 3572SOL     OW11614   4.988   4.697   1.776
 3572SOL    HW111615   5.073   4.693   1.827
 3572SOL    HW211616   4.950   4.790   1.780
 3573SOL     OW11617   0.519   3.917   3.056
 3573SOL    HW111618   0.426   3.919   3.017
 3573SOL    HW211619   0.513   3.933   3.154
 3574SOL     OW11620   1.843   1.801   5.394
 3574SOL    HW111621   1.844   1.899   5.371
 3574SOL    HW211622   1.818   1.789   5.490
 3575SOL     OW11623   5.473   7.001   0.077
 3575SOL    HW111624   5.521   6.914   0.066
 3575SOL    HW211625   5.538   0.053   0.109
 3576SOL     OW11626   1.033   2.280   0.862
 3576SOL    HW111627   1.071   2.195   0.899
 3576SOL    HW211628   1.000   2.337   0.937
 3577SOL     OW11629   2.023   2.496   5.523
 3577SOL    HW111630   2.068   2.580   5.493
 3577SOL    HW211631   2.081   2.418   5.502
 3578SOL     OW11632   3.171   2.732   6.448
 3578SOL    HW111633   3.205   2.648   6.489
 3578SOL    HW211634   3.163   2.803   6.518
 3579SOL     OW11635   0.735   3.443   1.888
 3579SOL    HW111636   0.700   3.356   1.923
 3579SOL    HW211637   0.789   3.426   1.806
 3580SOL     OW11638   0.785   4.370   2.056
 3580SOL    HW111639   0.776   4.365   1.957
 3580SOL    HW211640   0.698   4.398   2.096
 3581SOL     OW11641   1.284   0.425   2.608
 3581SOL    HW111642   1.320   0.359   2.674
 3581SOL    HW211643   1.191   0.399   2.582
 3582SOL     OW11644   4.406   5.121   6.464
 3582SOL    HW111645   4.354   5.199   6.499
 3582SOL    HW211646   4.385   5.107   6.368
 3583SOL     OW11647   1.219   4.796   1.061
 3583SOL    HW111648   1.185   4.768   0.971
 3583SOL    HW211649   1.141   4.814   1.121
 3584SOL     OW11650   6.552   5.018   4.892
 3584SOL    HW111651   6.530   5.114   4.880
 3584SOL    HW211652   6.585   5.003   4.985
 3585SOL     OW11653   3.348   1.468   3.206
 3585SOL    HW111654   3.296   1.422   3.134
 3585SOL    HW211655   3.287   1.495   3.280
 3586SOL     OW11656   0.159   2.452   5.121
 3586SOL    HW111657   0.224   2.519   5.086
 3586SOL    HW211658   0.209   2.376   5.164
 3587SOL     OW11659   2.967   6.966   6.412
 3587SOL    HW111660   3.039   6.944   6.478
 3587SOL    HW211661   2.975   6.906   6.332
 3588SOL     OW11662   6.157   5.071   4.687
 3588SOL    HW111663   6.102   5.138   4.638
 3588SOL    HW211664   6.253   5.096   4.681
 3589SOL     OW11665   0.060   0.504   5.532
 3589SOL    HW111666   0.004   0.424   5.513
 3589SOL    HW211667   0.141   0.476   5.584
 3590SOL     OW11668   0.062   5.428   6.917
 3590SOL    HW111669   0.090   5.468   7.005
 3590SOL    HW211670   6.994   5.469   6.887
 3591SOL     OW11671   6.191   1.236   6.909
 3591SOL    HW111672   6.111   1.216   6.964
 3591SOL    HW211673   6.173   1.316   6.851
 3592SOL     OW11674   1.602   6.177   1.511
 3592SOL    HW111675   1.639   6.087   1.534
 3592SOL    HW211676   1.550   6.212   1.589
 3593SOL     OW11677   3.945   3.107   5.325
 3593SOL    HW111678   3.925   3.013   5.353
 3593SOL    HW211679   3.904   3.125   5.235
 3594SOL     OW11680   4.357   4.802   5.061
 3594SOL    HW111681   4.338   4.704   5.051
 3594SOL    HW211682   4.425   4.816   5.133
 3595SOL     OW11683   5.210   6.097   4.436
 3595SOL    HW111684   5.186   6.194   4.430
 3595SOL    HW211685   5.149   6.052   4.502
 3596SOL     OW11686   4.029   1.660   3.357
 3596SOL    HW111687   3.930   1.645   3.358
 3596SOL    HW211688   4.076   1.573   3.374
 3597SOL     OW11689   2.893   3.341   5.635
 3597SOL    HW111690   2.854   3.432   5.644
 3597SOL    HW211691   2.821   3.276   5.609
 3598SOL     OW11692   0.659   5.911   4.989
 3598SOL    HW111693   0.636   5.985   5.053
 3598SOL    HW211694   0.739   5.861   5.024
 3599SOL     OW11695   3.300   1.192   5.241
 3599SOL    HW111696   3.274   1.096   5.241
 3599SOL    HW211697   3.299   1.227   5.147
 3600SOL     OW11698   3.280   3.403   6.974
 3600SOL    HW111699   3.340   3.443   0.026
 3600SOL    HW211700   3.237   3.476   6.921
 3601SOL     OW11701   4.702   0.838   5.048
 3601SOL    HW111702   4.748   0.797   5.127
 3601SOL    HW211703   4.759   0.911   5.011
 3602SOL     OW11704   2.074   1.565   1.196
 3602SOL    HW111705   2.017   1.499   1.148
 3602SOL    HW211706   2.023   1.605   1.273
 3603SOL     OW11707   2.507   0.188   5.503
 3603SOL    HW111708   2.604   0.213   5.499
 3603SOL    HW211709   2.483   0.163   5.597
 3604SOL     OW11710   0.041   0.598   3.478
 3604SOL    HW111711   0.077   0.551   3.559
 3604SOL    HW211712   7.017   0.684   3.506
 3605SOL     OW11713   1.096   6.838   3.990
 3605SOL    HW111714   1.016   6.785   4.016
 3605SOL    HW211715   1.101   6.921   4.046
 3606SOL     OW11716   2.450   0.165   2.445
 3606SOL    HW111717   2.409   0.168   2.537
 3606SOL    HW211718   2.421   0.081   2.399
 3607SOL     OW11719   6.060   1.665   3.196
 3607SOL    HW111720   6.098   1.588   3.145
 3607SOL    HW211721   6.004   1.630   3.271
 3608SOL     OW11722   2.767   1.905   5.686
 3608SOL    HW111723   2.814   1.890   5.599
 3608SOL    HW211724   2.681   1.954   5.670
 3609SOL     OW11725   3.658   0.655   5.085
 3609SOL    HW111726   3.583   0.698   5.034
 3609SOL    HW211727   3.744   0.698   5.059
 3610SOL     OW11728   1.465   0.730   5.756
 3610SOL    HW111729   1.434   0.735   5.660
 3610SOL    HW211730   1.487   0.635   5.778
 3611SOL     OW11731   5.458   4.634   3.168
 3611SOL    HW111732   5.421   4.613   3.259
 3611SOL    HW211733   5.400   4.593   3.098
 3612SOL     OW11734   5.644   1.046   0.256
 3612SOL    HW111735   5.631   1.062   0.354
 3612SOL    HW211736   5.669   1.132   0.211
 3613SOL     OW11737   4.185   6.544   2.224
 3613SOL    HW111738   4.174   6.523   2.127
 3613SOL    HW211739   4.258   6.612   2.235
 3614SOL     OW11740   3.712   5.582   6.840
 3614SOL    HW111741   3.705   5.507   6.906
 3614SOL    HW211742   3.765   5.656   6.880
 3615SOL     OW11743   5.657   2.023   5.845
 3615SOL    HW111744   5.642   2.122   5.848
 3615SOL    HW211745   5.688   1.990   5.934
 3616SOL     OW11746   1.142   2.281   0.301
 3616SOL    HW111747   1.050   2.291   0.262
 3616SOL    HW211748   1.136   2.228   0.386
 3617SOL     OW11749   3.566   5.929   5.418
 3617SOL    HW111750   3.550   6.013   5.367
 3617SOL    HW211751   3.486   5.870   5.411
 3618SOL     OW11752   1.023   5.039   4.199
 3618SOL    HW111753   0.925   5.020   4.212
 3618SOL    HW211754   1.074   5.011   4.280
 3619SOL     OW11755   6.099   3.257   2.043
 3619SOL    HW111756   6.115   3.184   1.977
 3619SOL    HW211757   6.021   3.234   2.100
 3620SOL     OW11758   5.779   5.838   4.535
 3620SOL    HW111759   5.709   5.895   4.492
 3620SOL    HW211760   5.752   5.742   4.529
 3621SOL     OW11761   4.003   3.250   3.483
 3621SOL    HW111762   4.001   3.167   3.427
 3621SOL    HW211763   3.921   3.304   3.465
 3622SOL     OW11764   1.607   6.236   5.777
 3622SOL    HW111765   1.599   6.325   5.823
 3622SOL    HW211766   1.644   6.169   5.840
 3623SOL     OW11767   0.963   5.809   6.431
 3623SOL    HW111768   0.973   5.831   6.334
 3623SOL    HW211769   0.939   5.713   6.441
 3624SOL     OW11770   2.393   2.200   1.604
 3624SOL    HW111771   2.429   2.147   1.528
 3624SOL    HW211772   2.443   2.286   1.612
 3625SOL     OW11773   6.778   2.496   0.906
 3625SOL    HW111774   6.839   2.456   0.974
 3625SOL    HW211775   6.706   2.430   0.884
 3626SOL     OW11776   1.977   3.166   5.384
 3626SOL    HW111777   2.069   3.197   5.407
 3626SOL    HW211778   1.957   3.189   5.289
 3627SOL     OW11779   3.613   1.987   2.098
 3627SOL    HW111780   3.650   2.064   2.046
 3627SOL    HW211781   3.617   2.007   2.195
 3628SOL     OW11782   6.560   1.955   1.873
 3628SOL    HW111783   6.595   2.020   1.805
 3628SOL    HW211784   6.487   1.900   1.832
 3629SOL     OW11785   1.635   1.514   4.816
 3629SOL    HW111786   1.662   1.607   4.838
 3629SOL    HW211787   1.589   1.473   4.895
 3630SOL     OW11788   6.996   1.931   1.288
 3630SOL    HW111789   6.955   1.918   1.379
 3630SOL    HW211790   6.924   1.928   1.219
 3631SOL     OW11791   2.036   6.708   1.961
 3631SOL    HW111792   2.110   6.695   1.895
 3631SOL    HW211793   2.007   6.804   1.959
 3632SOL     OW11794   4.502   3.791   1.675
 3632SOL    HW111795   4.529   3.697   1.657
 3632SOL    HW211796   4.403   3.795   1.690
 3633SOL     OW11797   3.953   4.550   0.131
 3633SOL    HW111798   4.015   4.540   0.053
 3633SOL    HW211799   3.956   4.644   0.164
 3634SOL     OW11800   2.949   5.339   6.573
 3634SOL    HW111801   2.873   5.383   6.526
 3634SOL    HW211802   2.914   5.273   6.639
 3635SOL     OW11803   1.106   6.101   2.159
 3635SOL    HW111804   1.007   6.098   2.142
 3635SOL    HW211805   1.123   6.139   2.250
 3636SOL     OW11806   0.647   5.258   6.164
 3636SOL    HW111807   0.695   5.229   6.082
 3636SOL    HW211808   0.549   5.263   6.146
 3637SOL     OW11809   6.005   2.983   0.161
 3637SOL    HW111810   6.081   3.047   0.148
 3637SOL    HW211811   6.010   2.944   0.254
 3638SOL     OW11812   6.909   3.186   3.665
 3638SOL    HW111813   6.932   3.099   3.708
 3638SOL    HW211814   6.823   3.175   3.614
 3639SOL     OW11815   4.137   3.377   4.039
 3639SOL    HW111816   4.101   3.341   3.952
 3639SOL    HW211817   4.147   3.302   4.104
 3640SOL     OW11818   4.312   2.095   1.593
 3640SOL    HW111819   4.214   2.081   1.581
 3640SOL    HW211820   4.349   2.145   1.515
 3641SOL     OW11821   5.988   3.880   2.261
 3641SOL    HW111822   6.068   3.940   2.264
 3641SOL    HW211823   5.945   3.876   2.351
 3642SOL     OW11824   5.089   3.345   6.231
 3642SOL    HW111825   5.158   3.324   6.300
 3642SOL    HW211826   5.077   3.268   6.169
 3643SOL     OW11827   4.064   5.759   4.828
 3643SOL    HW111828   3.990   5.799   4.773
 3643SOL    HW211829   4.037   5.668   4.859
 3644SOL     OW11830   2.944   0.363   1.585
 3644SOL    HW111831   2.950   0.425   1.664
 3644SOL    HW211832   2.935   0.417   1.501
 3645SOL     OW11833   1.406   3.711   3.793
 3645SOL    HW111834   1.464   3.688   3.871
 3645SOL    HW211835   1.458   3.703   3.708
 3646SOL     OW11836   1.603   4.935   5.969
 3646SOL    HW111837   1.515   4.914   5.926
 3646SOL    HW211838   1.669   4.864   5.945
 3647SOL     OW11839   2.371   6.785   6.814
 3647SOL    HW111840   2.396   6.876   6.845
 3647SOL    HW211841   2.323   6.737   6.888
 3648SOL     OW11842   4.717   5.375   3.366
 3648SOL    HW111843   4.647   5.421   3.421
 3648SOL    HW211844   4.770   5.443   3.315
 3649SOL     OW11845   5.621   2.282   0.560
 3649SOL    HW111846   5.674   2.199   0.571
 3649SOL    HW211847   5.681   2.362   0.572
 3650SOL     OW11848   5.470   6.116   6.125
 3650SOL    HW111849   5.421   6.052   6.184
 3650SOL    HW211850   5.507   6.066   6.046
 3651SOL     OW11851   1.029   1.892   5.804
 3651SOL    HW111852   1.045   1.984   5.840
 3651SOL    HW211853   1.115   1.854   5.770
 3652SOL     OW11854   4.422   1.838   1.552
 3652SOL    HW111855   4.382   1.820   1.462
 3652SOL    HW211856   4.358   1.892   1.607
 3653SOL     OW11857   1.733   1.761   0.847
 3653SOL    HW111858   1.713   1.672   0.888
 3653SOL    HW211859   1.795   1.812   0.906
 3654SOL     OW11860   4.634   6.486   1.686
 3654SOL    HW111861   4.688   6.570   1.685
 3654SOL    HW211862   4.633   6.446   1.594
 3655SOL     OW11863   0.778   0.979   4.100
 3655SOL    HW111864   0.864   0.991   4.150
 3655SOL    HW211865   0.789   0.907   4.032
 3656SOL     OW11866   0.433   0.380   1.316
 3656SOL    HW111867   0.345   0.372   1.364
 3656SOL    HW211868   0.451   0.476   1.295
 3657SOL     OW11869   5.548   5.495   6.374
 3657SOL    HW111870   5.623   5.491   6.439
 3657SOL    HW211871   5.581   5.471   6.283
 3658SOL     OW11872   1.958   4.562   5.629
 3658SOL    HW111873   1.859   4.573   5.642
 3658SOL    HW211874   2.005   4.583   5.715
 3659SOL     OW11875   0.412   2.584   6.540
 3659SOL    HW111876   0.385   2.677   6.564
 3659SOL    HW211877   0.511   2.579   6.529
 3660SOL     OW11878   4.603   5.901   5.430
 3660SOL    HW111879   4.699   5.929   5.424
 3660SOL    HW211880   4.597   5.813   5.476
 3661SOL     OW11881   0.154   1.380   4.571
 3661SOL    HW111882   0.235   1.340   4.615
 3661SOL    HW211883   0.182   1.453   4.510
 3662SOL     OW11884   3.158   1.996   5.885
 3662SOL    HW111885   3.103   2.071   5.847
 3662SOL    HW211886   3.179   1.931   5.813
 3663SOL     OW11887   2.330   2.512   6.729
 3663SOL    HW111888   2.347   2.456   6.648
 3663SOL    HW211889   2.245   2.564   6.717
 3664SOL     OW11890   3.272   2.074   1.092
 3664SOL    HW111891   3.195   2.083   1.029
 3664SOL    HW211892   3.357   2.086   1.043
 3665SOL     OW11893   0.600   5.459   5.920
 3665SOL    HW111894   0.535   5.400   5.874
 3665SOL    HW211895   0.579   5.461   6.018
 3666SOL     OW11896   2.216   3.148   4.124
 3666SOL    HW111897   2.278   3.176   4.050
 3666SOL    HW211898   2.174   3.060   4.102
 3667SOL     OW11899   1.816   6.868   1.096
 3667SOL    HW111900   1.868   6.837   1.017
 3667SOL    HW211901   1.780   6.789   1.145
 3668SOL     OW11902   6.242   1.171   0.852
 3668SOL    HW111903   6.279   1.232   0.922
 3668SOL    HW211904   6.286   1.190   0.764
 3669SOL     OW11905   0.739   0.762   3.297
 3669SOL    HW111906   0.838   0.747   3.291
 3669SOL    HW211907   0.718   0.855   3.268
 3670SOL     OW11908   2.549   0.543   1.939
 3670SOL    HW111909   2.465   0.594   1.921
 3670SOL    HW211910   2.622   0.578   1.881
 3671SOL     OW11911   0.070   0.893   4.639
 3671SOL    HW111912   0.121   0.809   4.657
 3671SOL    HW211913   0.013   0.914   4.718
 3672SOL     OW11914   3.618   0.127   3.665
 3672SOL    HW111915   3.616   0.200   3.596
 3672SOL    HW211916   3.687   0.148   3.734
 3673SOL     OW11917   3.289   0.204   1.277
 3673SOL    HW111918   3.256   0.111   1.263
 3673SOL    HW211919   3.384   0.210   1.245
 3674SOL     OW11920   0.384   4.621   6.977
 3674SOL    HW111921   0.318   4.657   0.026
 3674SOL    HW211922   0.355   4.644   6.885
 3675SOL     OW11923   0.283   1.010   4.012
 3675SOL    HW111924   0.257   0.918   4.040
 3675SOL    HW211925   0.203   1.059   3.978
 3676SOL     OW11926   3.541   1.177   5.375
 3676SOL    HW111927   3.537   1.092   5.427
 3676SOL    HW211928   3.451   1.196   5.335
 3677SOL     OW11929   1.363   1.247   4.636
 3677SOL    HW111930   1.394   1.340   4.616
 3677SOL    HW211931   1.311   1.212   4.558
 3678SOL     OW11932   1.959   0.780   3.456
 3678SOL    HW111933   1.864   0.806   3.478
 3678SOL    HW211934   2.022   0.836   3.510
 3679SOL     OW11935   3.744   0.154   2.467
 3679SOL    HW111936   3.832   0.120   2.501
 3679SOL    HW211937   3.685   0.076   2.443
 3680SOL     OW11938   3.281   2.052   4.569
 3680SOL    HW111939   3.254   2.109   4.491
 3680SOL    HW211940   3.266   2.102   4.654
 3681SOL     OW11941   0.945   6.587   4.079
 3681SOL    HW111942   0.935   6.522   4.154
 3681SOL    HW211943   0.858   6.597   4.032
 3682SOL     OW11944   5.047   2.225   0.830
 3682SOL    HW111945   5.041   2.311   0.882
 3682SOL    HW211946   5.113   2.236   0.756
 3683SOL     OW11947   6.782   1.360   0.619
 3683SOL    HW111948   6.838   1.439   0.642
 3683SOL    HW211949   6.723   1.337   0.697
 3684SOL     OW11950   2.760   6.087   5.236
 3684SOL    HW111951   2.666   6.113   5.257
 3684SOL    HW211952   2.767   5.987   5.233
 3685SOL     OW11953   1.850   6.100   4.373
 3685SOL    HW111954   1.792   6.171   4.333
 3685SOL    HW211955   1.843   6.104   4.473
 3686SOL     OW11956   0.077   3.875   0.763
 3686SOL    HW111957   0.063   3.830   0.675
 3686SOL    HW211958   0.005   3.848   0.826
 3687SOL     OW11959   5.861   4.525   4.277
 3687SOL    HW111960   5.958   4.548   4.274
 3687SOL    HW211961   5.807   4.609   4.278
 3688SOL     OW11962   6.757   2.705   1.400
 3688SOL    HW111963   6.691   2.753   1.343
 3688SOL    HW211964   6.824   2.658   1.343
 3689SOL     OW11965   0.842   0.769   6.351
 3689SOL    HW111966   0.901   0.689   6.339
 3689SOL    HW211967   0.747   0.739   6.365
 3690SOL     OW11968   5.664   5.120   1.767
 3690SOL    HW111969   5.622   5.189   1.826
 3690SOL    HW211970   5.702   5.047   1.824
 3691SOL     OW11971   1.590   2.630   0.454
 3691SOL    HW111972   1.511   2.580   0.419
 3691SOL    HW211973   1.564   2.680   0.537
 3692SOL     OW11974   1.250   3.210   5.306
 3692SOL    HW111975   1.168   3.166   5.270
 3692SOL    HW211976   1.260   3.186   5.403
 3693SOL     OW11977   0.428   1.586   2.838
 3693SOL    HW111978   0.373   1.662   2.871
 3693SOL    HW211979   0.392   1.555   2.750
 3694SOL     OW11980   6.336   0.185   3.089
 3694SOL    HW111981   6.433   0.167   3.071
 3694SOL    HW211982   6.281   0.148   3.014
 3695SOL     OW11983   5.995   3.571   3.446
 3695SOL    HW111984   6.050   3.648   3.413
 3695SOL    HW211985   6.022   3.549   3.540
 3696SOL     OW11986   4.154   0.774   4.158
 3696SOL    HW111987   4.101   0.689   4.162
 3696SOL    HW211988   4.249   0.752   4.132
 3697SOL     OW11989   6.681   6.138   2.989
 3697SOL    HW111990   6.713   6.229   3.016
 3697SOL    HW211991   6.596   6.117   3.038
 3698SOL     OW11992   1.840   0.252   3.592
 3698SOL    HW111993   1.917   0.315   3.592
 3698SOL    HW211994   1.852   0.184   3.665
 3699SOL     OW11995   2.485   2.619   3.482
 3699SOL    HW111996   2.567   2.569   3.453
 3699SOL    HW211997   2.438   2.656   3.402
 3700SOL     OW11998   1.024   4.774   5.088
 3700SOL    HW111999   1.118   4.787   5.057
 3700SOL    HW212000   1.008   4.677   5.107
 3701SOL     OW12001   0.259   1.297   2.509
 3701SOL    HW112002   0.235   1.366   2.577
 3701SOL    HW212003   0.352   1.313   2.476
 3702SOL     OW12004   6.333   3.844   3.805
 3702SOL    HW112005   6.405   3.830   3.738
 3702SOL    HW212006   6.244   3.821   3.765
 3703SOL     OW12007   1.461   1.493   3.444
 3703SOL    HW112008   1.522   1.548   3.501
 3703SOL    HW212009   1.515   1.426   3.393
 3704SOL     OW12010   6.089   0.697   0.813
 3704SOL    HW112011   6.013   0.745   0.770
 3704SOL    HW212012   6.140   0.646   0.744
 3705SOL     OW12013   5.775   4.202   3.633
 3705SOL    HW112014   5.713   4.269   3.673
 3705SOL    HW212015   5.738   4.170   3.546
 3706SOL     OW12016   1.235   5.074   6.591
 3706SOL    HW112017   1.213   5.112   6.681
 3706SOL    HW212018   1.313   5.123   6.552
 3707SOL     OW12019   1.340   4.431   3.718
 3707SOL    HW112020   1.347   4.508   3.654
 3707SOL    HW212021   1.244   4.404   3.728
 3708SOL     OW12022   1.918   6.325   0.900
 3708SOL    HW112023   1.882   6.342   0.992
 3708SOL    HW212024   1.866   6.376   0.833
 3709SOL     OW12025   0.992   1.285   1.973
 3709SOL    HW112026   1.006   1.383   1.959
 3709SOL    HW212027   0.970   1.242   1.885
 3710SOL     OW12028   1.553   3.758   5.083
 3710SOL    HW112029   1.560   3.658   5.090
 3710SOL    HW212030   1.642   3.796   5.058
 3711SOL     OW12031   1.373   5.636   4.751
 3711SOL    HW112032   1.444   5.612   4.684
 3711SOL    HW212033   1.410   5.625   4.844
 3712SOL     OW12034   3.008   5.409   4.645
 3712SOL    HW112035   2.932   5.445   4.699
 3712SOL    HW212036   3.092   5.457   4.670
 3713SOL     OW12037   5.930   0.664   4.972
 3713SOL    HW112038   5.889   0.751   4.944
 3713SOL    HW212039   5.861   0.607   5.016
 3714SOL     OW12040   0.362   4.176   0.118
 3714SOL    HW112041   0.456   4.197   0.145
 3714SOL    HW212042   0.320   4.116   0.186
 3715SOL     OW12043   6.153   4.521   3.410
 3715SOL    HW112044   6.078   4.525   3.475
 3715SOL    HW212045   6.165   4.426   3.379
 3716SOL     OW12046   5.389   5.781   5.142
 3716SOL    HW112047   5.319   5.790   5.071
 3716SOL    HW212048   5.352   5.811   5.230
 3717SOL     OW12049   4.350   0.777   0.431
 3717SOL    HW112050   4.286   0.840   0.475
 3717SOL    HW212051   4.440   0.784   0.475
 3718SOL     OW12052   6.217   6.650   6.326
 3718SOL    HW112053   6.210   6.705   6.242
 3718SOL    HW212054   6.138   6.669   6.385
 3719SOL     OW12055   3.097   4.237   0.346
 3719SOL    HW112056   3.111   4.323   0.297
 3719SOL    HW212057   3.179   4.214   0.398
 3720SOL     OW12058   0.075   2.847   1.151
 3720SOL    HW112059   7.014   2.834   1.091
 3720SOL    HW212060   0.088   2.944   1.169
 3721SOL     OW12061   6.326   0.446   5.610
 3721SOL    HW112062   6.399   0.500   5.569
 3721SOL    HW212063   6.264   0.505   5.661
 3722SOL     OW12064   5.591   6.376   1.904
 3722SOL    HW112065   5.591   6.455   1.964
 3722SOL    HW212066   5.684   6.339   1.898
 3723SOL     OW12067   4.719   3.775   6.353
 3723SOL    HW112068   4.683   3.856   6.399
 3723SOL    HW212069   4.812   3.793   6.323
 3724SOL     OW12070   0.619   3.944   4.394
 3724SOL    HW112071   0.593   3.986   4.307
 3724SOL    HW212072   0.716   3.920   4.391
 3725SOL     OW12073   1.200   6.220   0.183
 3725SOL    HW112074   1.117   6.167   0.201
 3725SOL    HW212075   1.175   6.307   0.140
 3726SOL     OW12076   6.097   4.045   5.706
 3726SOL    HW112077   6.197   4.050   5.713
 3726SOL    HW212078   6.071   4.033   5.611
 3727SOL     OW12079   6.637   2.550   3.964
 3727SOL    HW112080   6.576   2.478   3.932
 3727SOL    HW212081   6.584   2.619   4.013
 3728SOL     OW12082   2.565   4.592   0.889
 3728SOL    HW112083   2.521   4.545   0.966
 3728SOL    HW212084   2.632   4.531   0.847
 3729SOL     OW12085   7.005   0.295   5.822
 3729SOL    HW112086   6.941   0.302   5.746
 3729SOL    HW212087   0.050   0.219   5.806
 3730SOL     OW12088   4.869   5.174   4.721
 3730SOL    HW112089   4.780   5.190   4.763
 3730SOL    HW212090   4.902   5.257   4.678
 3731SOL     OW12091   0.265   2.134   0.778
 3731SOL    HW112092   0.292   2.170   0.689
 3731SOL    HW212093   0.184   2.184   0.810
 3732SOL     OW12094   3.728   3.306   6.866
 3732SOL    HW112095   3.803   3.240   6.858
 3732SOL    HW212096   3.641   3.262   6.845
 3733SOL     OW12097   1.139   0.429   3.655
 3733SOL    HW112098   1.226   0.480   3.653
 3733SOL    HW212099   1.131   0.379   3.741
 3734SOL     OW12100   3.593   0.105   1.357
 3734SOL    HW112101   3.587   0.107   1.257
 3734SOL    HW212102   3.534   0.033   1.393
 3735SOL     OW12103   4.701   0.155   2.628
 3735SOL    HW112104   4.649   0.071   2.643
 3735SOL    HW212105   4.774   0.162   2.696
 3736SOL     OW12106   6.932   1.218   0.084
 3736SOL    HW112107   6.986   1.133   0.087
 3736SOL    HW212108   6.923   1.248   7.007
 3737SOL     OW12109   5.986   2.012   2.818
 3737SOL    HW112110   5.967   2.004   2.720
 3737SOL    HW212111   6.065   1.956   2.842
 3738SOL     OW12112   0.413   0.684   1.267
 3738SOL    HW112113   0.405   0.772   1.221
 3738SOL    HW212114   0.492   0.685   1.327
 3739SOL     OW12115   3.022   4.267   6.558
 3739SOL    HW112116   3.018   4.238   6.654
 3739SOL    HW212117   3.117   4.285   6.532
 3740SOL     OW12118   5.337   6.071   6.584
 3740SOL    HW112119   5.337   5.999   6.653
 3740SOL    HW212120   5.349   6.160   6.629
 3741SOL     OW12121   5.298   3.662   0.301
 3741SOL    HW112122   5.200   3.662   0.277
 3741SOL    HW212123   5.347   3.604   0.236
 3742SOL     OW12124   4.574   5.624   1.015
 3742SOL    HW112125   4.478   5.651   1.027
 3742SOL    HW212126   4.624   5.699   0.972
 3743SOL     OW12127   3.301   4.385   0.705
 3743SOL    HW112128   3.390   4.398   0.750
 3743SOL    HW212129   3.228   4.391   0.773
 3744SOL     OW12130   6.515   6.666   2.629
 3744SOL    HW112131   6.584   6.717   2.578
 3744SOL    HW212132   6.525   6.568   2.611
 3745SOL     OW12133   4.715   2.844   2.667
 3745SOL    HW112134   4.632   2.806   2.627
 3745SOL    HW212135   4.788   2.843   2.598
 3746SOL     OW12136   6.279   0.291   4.587
 3746SOL    HW112137   6.193   0.337   4.610
 3746SOL    HW212138   6.301   0.224   4.658
 3747SOL     OW12139   3.202   5.835   5.194
 3747SOL    HW112140   3.197   5.934   5.203
 3747SOL    HW212141   3.115   5.795   5.223
 3748SOL     OW12142   5.221   2.316   4.046
 3748SOL    HW112143   5.198   2.382   3.975
 3748SOL    HW212144   5.143   2.255   4.061
 3749SOL     OW12145   6.584   6.412   2.331
 3749SOL    HW112146   6.581   6.337   2.266
 3749SOL    HW212147   6.527   6.389   2.410
 3750SOL     OW12148   5.324   3.942   1.234
 3750SOL    HW112149   5.248   3.968   1.174
 3750SOL    HW212150   5.342   4.016   1.298
 3751SOL     OW12151   0.904   4.205   1.794
 3751SOL    HW112152   0.961   4.195   1.712
 3751SOL    HW212153   0.944   4.153   1.869
 3752SOL     OW12154   0.517   6.499   5.988
 3752SOL    HW112155   0.512   6.551   5.903
 3752SOL    HW212156   0.453   6.539   6.054
 3753SOL     OW12157   6.821   0.924   5.098
 3753SOL    HW112158   6.725   0.921   5.125
 3753SOL    HW212159   6.878   0.941   5.178
 3754SOL     OW12160   6.703   5.887   1.423
 3754SOL    HW112161   6.688   5.952   1.497
 3754SOL    HW212162   6.648   5.805   1.438
 3755SOL     OW12163   4.872   2.863   2.441
 3755SOL    HW112164   4.833   2.894   2.354
 3755SOL    HW212165   4.963   2.902   2.452
 3756SOL     OW12166   3.296   0.296   6.717
 3756SOL    HW112167   3.379   0.347   6.742
 3756SOL    HW212168   3.307   0.200   6.743
 3757SOL     OW12169   3.995   4.593   6.629
 3757SOL    HW112170   3.982   4.600   6.728
 3757SOL    HW212171   3.906   4.602   6.583
 3758SOL     OW12172   0.296   0.179   2.850
 3758SOL    HW112173   0.306   0.125   2.934
 3758SOL    HW212174   0.331   0.271   2.866
 3759SOL     OW12175   5.151   5.211   0.640
 3759SOL    HW112176   5.082   5.277   0.610
 3759SOL    HW212177   5.130   5.181   0.733
 3760SOL     OW12178   2.186   2.021   5.884
 3760SOL    HW112179   2.131   2.098   5.917
 3760SOL    HW212180   2.186   2.021   5.784
 3761SOL     OW12181   0.338   6.592   4.427
 3761SOL    HW112182   0.277   6.520   4.395
 3761SOL    HW212183   0.283   6.670   4.457
 3762SOL     OW12184   0.424   3.904   6.661
 3762SOL    HW112185   0.414   3.958   6.577
 3762SOL    HW212186   0.491   3.831   6.646
 3763SOL     OW12187   6.483   3.754   5.765
 3763SOL    HW112188   6.543   3.829   5.794
 3763SOL    HW212189   6.470   3.759   5.666
 3764SOL     OW12190   2.820   6.743   4.230
 3764SOL    HW112191   2.745   6.805   4.255
 3764SOL    HW212192   2.810   6.716   4.135
 3765SOL     OW12193   6.041   1.575   3.775
 3765SOL    HW112194   6.038   1.526   3.862
 3765SOL    HW212195   5.955   1.626   3.762
 3766SOL     OW12196   1.698   0.154   4.894
 3766SOL    HW112197   1.612   0.184   4.934
 3766SOL    HW212198   1.725   0.066   4.933
 3767SOL     OW12199   1.276   4.814   0.429
 3767SOL    HW112200   1.257   4.857   0.517
 3767SOL    HW212201   1.282   4.715   0.440
 3768SOL     OW12202   4.249   6.710   1.058
 3768SOL    HW112203   4.234   6.714   0.959
 3768SOL    HW212204   4.347   6.704   1.077
 3769SOL     OW12205   4.420   6.548   4.914
 3769SOL    HW112206   4.446   6.514   5.004
 3769SOL    HW212207   4.470   6.632   4.895
 3770SOL     OW12208   2.134   1.926   0.286
 3770SOL    HW112209   2.171   1.938   0.193
 3770SOL    HW212210   2.186   1.982   0.350
 3771SOL     OW12211   4.679   1.219   5.027
 3771SOL    HW112212   4.608   1.265   4.975
 3771SOL    HW212213   4.638   1.168   5.102
 3772SOL     OW12214   4.441   0.682   2.512
 3772SOL    HW112215   4.426   0.590   2.547
 3772SOL    HW212216   4.431   0.749   2.586
 3773SOL     OW12217   6.848   2.002   0.512
 3773SOL    HW112218   6.882   2.090   0.479
 3773SOL    HW212219   6.791   2.016   0.593
 3774SOL     OW12220   1.006   2.246   2.251
 3774SOL    HW112221   0.951   2.328   2.236
 3774SOL    HW212222   0.947   2.170   2.278
 3775SOL     OW12223   5.769   2.994   3.577
 3775SOL    HW112224   5.857   2.970   3.537
 3775SOL    HW212225   5.736   3.079   3.536
 3776SOL     OW12226   2.795   3.242   6.864
 3776SOL    HW112227   2.717   3.248   6.926
 3776SOL    HW212228   2.869   3.191   6.908
 3777SOL     OW12229   1.594   3.852   3.446
 3777SOL    HW112230   1.591   3.917   3.523
 3777SOL    HW212231   1.671   3.875   3.387
 3778SOL     OW12232   2.339   6.446   2.103
 3778SOL    HW112233   2.421   6.498   2.129
 3778SOL    HW212234   2.367   6.361   2.059
 3779SOL     OW12235   2.407   4.875   6.865
 3779SOL    HW112236   2.351   4.804   6.821
 3779SOL    HW212237   2.503   4.863   6.837
 3780SOL     OW12238   2.532   6.899   4.202
 3780SOL    HW112239   2.510   6.969   4.134
 3780SOL    HW212240   2.470   6.908   4.280
 3781SOL     OW12241   2.332   5.339   4.794
 3781SOL    HW112242   2.332   5.324   4.695
 3781SOL    HW212243   2.419   5.305   4.832
 3782SOL     OW12244   2.042   1.268   2.949
 3782SOL    HW112245   2.095   1.190   2.914
 3782SOL    HW212246   1.982   1.236   3.022
 3783SOL     OW12247   4.990   6.145   5.551
 3783SOL    HW112248   5.087   6.168   5.541
 3783SOL    HW212249   4.935   6.209   5.497
 3784SOL     OW12250   5.156   1.917   3.914
 3784SOL    HW112251   5.109   1.877   3.993
 3784SOL    HW212252   5.246   1.950   3.942
 3785SOL     OW12253   1.542   1.814   1.919
 3785SOL    HW112254   1.600   1.864   1.854
 3785SOL    HW212255   1.578   1.824   2.011
 3786SOL     OW12256   3.218   5.914   2.600
 3786SOL    HW112257   3.278   5.935   2.522
 3786SOL    HW212258   3.122   5.922   2.571
 3787SOL     OW12259   4.234   1.135   4.511
 3787SOL    HW112260   4.248   1.129   4.610
 3787SOL    HW212261   4.234   1.043   4.471
 3788SOL     OW12262   6.241   3.846   2.065
 3788SOL    HW112263   6.230   3.770   2.130
 3788SOL    HW212264   6.229   3.933   2.112
 3789SOL     OW12265   1.317   5.593   2.624
 3789SOL    HW112266   1.265   5.638   2.552
 3789SOL    HW212267   1.331   5.497   2.599
 3790SOL     OW12268   2.013   2.769   3.433
 3790SOL    HW112269   2.100   2.749   3.387
 3790SOL    HW212270   2.026   2.846   3.495
 3791SOL     OW12271   6.153   0.369   2.367
 3791SOL    HW112272   6.131   0.424   2.286
 3791SOL    HW212273   6.251   0.374   2.385
 3792SOL     OW12274   7.016   0.089   6.132
 3792SOL    HW112275   0.053   0.075   6.215
 3792SOL    HW212276   0.057   0.084   6.052
 3793SOL     OW12277   1.620   6.447   2.850
 3793SOL    HW112278   1.708   6.403   2.864
 3793SOL    HW212279   1.552   6.379   2.824
 3794SOL     OW12280   4.005   6.223   2.806
 3794SOL    HW112281   3.931   6.255   2.866
 3794SOL    HW212282   3.993   6.262   2.715
 3795SOL     OW12283   4.808   0.372   0.921
 3795SOL    HW112284   4.851   0.459   0.897
 3795SOL    HW212285   4.869   0.297   0.895
 3796SOL     OW12286   1.439   3.011   0.940
 3796SOL    HW112287   1.416   2.916   0.919
 3796SOL    HW212288   1.492   3.049   0.864
 3797SOL     OW12289   0.393   5.365   2.291
 3797SOL    HW112290   0.364   5.281   2.338
 3797SOL    HW212291   0.409   5.345   2.194
 3798SOL     OW12292   0.947   4.116   1.314
 3798SOL    HW112293   1.031   4.102   1.263
 3798SOL    HW212294   0.932   4.213   1.331
 3799SOL     OW12295   1.141   0.444   5.453
 3799SOL    HW112296   1.097   0.533   5.438
 3799SOL    HW212297   1.124   0.413   5.547
 3800SOL     OW12298   5.328   2.391   5.051
 3800SOL    HW112299   5.387   2.326   5.099
 3800SOL    HW212300   5.253   2.419   5.111
 3801SOL     OW12301   0.261   0.228   6.752
 3801SOL    HW112302   0.181   0.170   6.769
 3801SOL    HW212303   0.235   0.324   6.757
 3802SOL     OW12304   1.085   2.356   5.872
 3802SOL    HW112305   1.167   2.409   5.852
 3802SOL    HW212306   1.074   2.284   5.803
 3803SOL     OW12307   3.717   1.084   1.050
 3803SOL    HW112308   3.791   1.092   0.983
 3803SOL    HW212309   3.753   1.103   1.141
 3804SOL     OW12310   4.490   2.833   5.321
 3804SOL    HW112311   4.562   2.888   5.279
 3804SOL    HW212312   4.508   2.736   5.308
 3805SOL     OW12313   2.106   3.868   1.759
 3805SOL    HW112314   2.196   3.825   1.754
 3805SOL    HW212315   2.079   3.876   1.855
 3806SOL     OW12316   3.491   1.393   1.021
 3806SOL    HW112317   3.448   1.457   1.085
 3806SOL    HW212318   3.422   1.360   0.956
 3807SOL     OW12319   1.877   6.881   2.862
 3807SOL    HW112320   1.929   6.966   2.862
 3807SOL    HW212321   1.781   6.900   2.885
 3808SOL     OW12322   3.391   0.626   0.579
 3808SOL    HW112323   3.356   0.565   0.507
 3808SOL    HW212324   3.356   0.718   0.564
 3809SOL     OW12325   4.417   0.153   6.547
 3809SOL    HW112326   4.372   0.220   6.488
 3809SOL    HW212327   4.452   0.078   6.491
 3810SOL     OW12328   2.586   2.938   6.175
 3810SOL    HW112329   2.614   3.033   6.190
 3810SOL    HW212330   2.577   2.892   6.263
 3811SOL     OW12331   0.612   0.637   6.095
 3811SOL    HW112332   0.594   0.728   6.057
 3811SOL    HW212333   0.620   0.571   6.020
 3812SOL     OW12334   5.216   1.451   5.688
 3812SOL    HW112335   5.309   1.488   5.679
 3812SOL    HW212336   5.167   1.463   5.602
 3813SOL     OW12337   4.170   4.707   2.114
 3813SOL    HW112338   4.103   4.641   2.081
 3813SOL    HW212339   4.123   4.782   2.160
 3814SOL     OW12340   1.716   6.817   2.505
 3814SOL    HW112341   1.805   6.779   2.480
 3814SOL    HW212342   1.663   6.749   2.557
 3815SOL     OW12343   5.318   2.217   1.523
 3815SOL    HW112344   5.366   2.136   1.556
 3815SOL    HW212345   5.368   2.299   1.551
 3816SOL     OW12346   0.220   6.534   1.068
 3816SOL    HW112347   0.198   6.454   1.012
 3816SOL    HW212348   0.165   6.533   1.151
 3817SOL     OW12349   4.630   1.334   5.755
 3817SOL    HW112350   4.644   1.247   5.708
 3817SOL    HW212351   4.675   1.407   5.703
 3818SOL     OW12352   4.715   5.668   2.985
 3818SOL    HW112353   4.754   5.742   2.930
 3818SOL    HW212354   4.775   5.588   2.982
 3819SOL     OW12355   5.659   4.545   6.152
 3819SOL    HW112356   5.728   4.512   6.216
 3819SOL    HW212357   5.605   4.467   6.119
 3820SOL     OW12358   5.052   6.262   4.107
 3820SOL    HW112359   4.986   6.276   4.033
 3820SOL    HW212360   5.140   6.304   4.082
 3821SOL     OW12361   0.694   4.341   1.149
 3821SOL    HW112362   0.728   4.257   1.107
 3821SOL    HW212363   0.765   4.379   1.208
 3822SOL     OW12364   1.174   4.888   1.650
 3822SOL    HW112365   1.237   4.957   1.613
 3822SOL    HW212366   1.208   4.858   1.739
 3823SOL     OW12367   2.471   2.849   5.605
 3823SOL    HW112368   2.471   2.949   5.606
 3823SOL    HW212369   2.380   2.816   5.632
 3824SOL     OW12370   6.726   2.112   6.740
 3824SOL    HW112371   6.782   2.030   6.748
 3824SOL    HW212372   6.647   2.093   6.682
 3825SOL     OW12373   6.558   6.659   5.984
 3825SOL    HW112374   6.520   6.686   5.895
 3825SOL    HW212375   6.576   6.740   6.039
 3826SOL     OW12376   6.846   2.049   0.898
 3826SOL    HW112377   6.793   2.019   0.819
 3826SOL    HW212378   6.898   1.971   0.935
 3827SOL     OW12379   5.486   2.560   1.015
 3827SOL    HW112380   5.556   2.583   1.082
 3827SOL    HW212381   5.441   2.475   1.043
 3828SOL     OW12382   3.859   1.089   1.272
 3828SOL    HW112383   3.852   1.186   1.294
 3828SOL    HW212384   3.954   1.067   1.251
 3829SOL     OW12385   0.638   5.179   3.604
 3829SOL    HW112386   0.734   5.177   3.576
 3829SOL    HW212387   0.610   5.088   3.632
 3830SOL     OW12388   2.944   0.655   5.755
 3830SOL    HW112389   2.946   0.555   5.752
 3830SOL    HW212390   2.948   0.691   5.662
 3831SOL     OW12391   4.577   2.079   2.223
 3831SOL    HW112392   4.630   2.164   2.215
 3831SOL    HW212393   4.559   2.059   2.319
 3832SOL     OW12394   5.144   0.288   2.464
 3832SOL    HW112395   5.156   0.211   2.401
 3832SOL    HW212396   5.185   0.265   2.552
 3833SOL     OW12397   1.910   6.052   1.352
 3833SOL    HW112398   1.931   6.012   1.263
 3833SOL    HW212399   1.848   5.992   1.402
 3834SOL     OW12400   2.393   2.550   0.984
 3834SOL    HW112401   2.461   2.477   0.990
 3834SOL    HW212402   2.331   2.544   1.062
 3835SOL     OW12403   3.422   5.806   3.835
 3835SOL    HW112404   3.354   5.737   3.809
 3835SOL    HW212405   3.473   5.835   3.754
 3836SOL     OW12406   1.721   2.880   5.223
 3836SOL    HW112407   1.795   2.940   5.193
 3836SOL    HW212408   1.733   2.788   5.185
 3837SOL     OW12409   3.050   3.578   6.895
 3837SOL    HW112410   3.040   3.677   6.885
 3837SOL    HW212411   3.015   3.550   6.985
 3838SOL     OW12412   5.850   2.998   5.090
 3838SOL    HW112413   5.885   3.020   4.999
 3838SOL    HW212414   5.913   2.936   5.136
 3839SOL     OW12415   6.776   5.968   6.040
 3839SOL    HW112416   6.809   5.942   6.131
 3839SOL    HW212417   6.688   6.014   6.049
 3840SOL     OW12418   2.432   0.928   3.731
 3840SOL    HW112419   2.515   0.876   3.710
 3840SOL    HW212420   2.357   0.864   3.751
 3841SOL     OW12421   1.191   3.587   4.778
 3841SOL    HW112422   1.239   3.503   4.803
 3841SOL    HW212423   1.257   3.653   4.741
 3842SOL     OW12424   1.808   5.135   6.684
 3842SOL    HW112425   1.750   5.063   6.645
 3842SOL    HW212426   1.873   5.094   6.747
 3843SOL     OW12427   5.849   4.083   0.202
 3843SOL    HW112428   5.851   4.089   0.302
 3843SOL    HW212429   5.937   4.114   0.165
 3844SOL     OW12430   2.466   4.019   5.716
 3844SOL    HW112431   2.419   4.066   5.791
 3844SOL    HW212432   2.424   4.045   5.629
 3845SOL     OW12433   3.236   3.376   3.595
 3845SOL    HW112434   3.287   3.457   3.566
 3845SOL    HW212435   3.138   3.394   3.589
 3846SOL     OW12436   0.016   4.204   4.005
 3846SOL    HW112437   0.043   4.111   4.032
 3846SOL    HW212438   6.940   4.201   3.971
 3847SOL     OW12439   0.782   6.813   0.842
 3847SOL    HW112440   0.778   6.786   0.745
 3847SOL    HW212441   0.693   6.799   0.884
 3848SOL     OW12442   2.913   5.386   1.132
 3848SOL    HW112443   2.845   5.313   1.141
 3848SOL    HW212444   2.947   5.389   1.039
 3849SOL     OW12445   2.652   1.751   6.245
 3849SOL    HW112446   2.745   1.722   6.220
 3849SOL    HW212447   2.658   1.834   6.301
 3850SOL     OW12448   2.170   4.118   1.309
 3850SOL    HW112449   2.170   4.214   1.337
 3850SOL    HW212450   2.255   4.098   1.260
 3851SOL     OW12451   2.160   2.770   1.267
 3851SOL    HW112452   2.186   2.688   1.317
 3851SOL    HW212453   2.225   2.786   1.192
 3852SOL     OW12454   4.810   0.665   5.254
 3852SOL    HW112455   4.905   0.682   5.283
 3852SOL    HW212456   4.810   0.609   5.172
 3853SOL     OW12457   1.076   2.970   1.979
 3853SOL    HW112458   1.078   2.904   2.054
 3853SOL    HW212459   1.034   2.927   1.899
 3854SOL     OW12460   1.875   3.033   5.079
 3854SOL    HW112461   1.822   3.068   5.001
 3854SOL    HW212462   1.968   3.070   5.074
 3855SOL     OW12463   6.951   2.112   5.290
 3855SOL    HW112464   6.956   2.118   5.191
 3855SOL    HW212465   6.920   2.199   5.327
 3856SOL     OW12466   0.843   6.573   5.558
 3856SOL    HW112467   0.835   6.671   5.574
 3856SOL    HW212468   0.813   6.523   5.639
 3857SOL     OW12469   1.037   0.000   6.740
 3857SOL    HW112470   0.958   0.036   6.792
 3857SOL    HW212471   1.079   0.075   6.689
 3858SOL     OW12472   2.399   5.130   6.946
 3858SOL    HW112473   2.448   5.047   6.919
 3858SOL    HW212474   2.306   5.105   6.974
 3859SOL     OW12475   6.367   2.732   1.463
 3859SOL    HW112476   6.332   2.697   1.376
 3859SOL    HW212477   6.438   2.801   1.445
 3860SOL     OW12478   2.208   6.160   5.118
 3860SOL    HW112479   2.146   6.086   5.143
 3860SOL    HW212480   2.240   6.147   5.024
 3861SOL     OW12481   4.092   4.584   6.918
 3861SOL    HW112482   4.057   4.658   6.861
 3861SOL    HW212483   4.160   4.621   6.981
 3862SOL     OW12484   0.892   5.589   5.696
 3862SOL    HW112485   0.909   5.501   5.741
 3862SOL    HW212486   0.876   5.659   5.765
 3863SOL     OW12487   2.905   3.786   0.405
 3863SOL    HW112488   2.931   3.868   0.456
 3863SOL    HW212489   2.806   3.770   0.414
 3864SOL     OW12490   3.035   1.287   0.477
 3864SOL    HW112491   3.111   1.287   0.412
 3864SOL    HW212492   2.964   1.350   0.446
 3865SOL     OW12493   4.129   0.580   2.266
 3865SOL    HW112494   4.060   0.639   2.309
 3865SOL    HW212495   4.202   0.637   2.229
 3866SOL     OW12496   3.060   6.506   6.278
 3866SOL    HW112497   3.036   6.552   6.192
 3866SOL    HW212498   2.978   6.494   6.333
 3867SOL     OW12499   2.009   4.206   3.252
 3867SOL    HW112500   1.984   4.265   3.329
 3867SOL    HW212501   2.021   4.262   3.170
 3868SOL     OW12502   2.703   5.420   2.804
 3868SOL    HW112503   2.673   5.343   2.860
 3868SOL    HW212504   2.803   5.419   2.798
 3869SOL     OW12505   0.379   1.516   3.927
 3869SOL    HW112506   0.315   1.457   3.879
 3869SOL    HW212507   0.467   1.516   3.880
 3870SOL     OW12508   3.900   4.143   0.574
 3870SOL    HW112509   3.892   4.096   0.486
 3870SOL    HW212510   3.894   4.242   0.559
 3871SOL     OW12511   3.310   1.138   4.973
 3871SOL    HW112512   3.311   1.201   4.895
 3871SOL    HW212513   3.398   1.090   4.978
 3872SOL     OW12514   4.289   4.358   0.392
 3872SOL    HW112515   4.251   4.344   0.483
 3872SOL    HW212516   4.286   4.272   0.341
 3873SOL     OW12517   5.268   4.699   1.866
 3873SOL    HW112518   5.339   4.769   1.854
 3873SOL    HW212519   5.310   4.608   1.863
 3874SOL     OW12520   4.673   5.921   5.887
 3874SOL    HW112521   4.624   5.851   5.836
 3874SOL    HW212522   4.717   5.985   5.824
 3875SOL     OW12523   1.949   4.284   0.478
 3875SOL    HW112524   1.922   4.193   0.512
 3875SOL    HW212525   2.047   4.285   0.459
 3876SOL     OW12526   5.589   3.632   2.211
 3876SOL    HW112527   5.681   3.654   2.179
 3876SOL    HW212528   5.549   3.561   2.153
 3877SOL     OW12529   4.727   1.777   2.033
 3877SOL    HW112530   4.685   1.861   1.997
 3877SOL    HW212531   4.822   1.797   2.060
 3878SOL     OW12532   4.615   6.347   4.469
 3878SOL    HW112533   4.706   6.307   4.460
 3878SOL    HW212534   4.584   6.340   4.564
 3879SOL     OW12535   2.512   5.897   1.072
 3879SOL    HW112536   2.589   5.848   1.032
 3879SOL    HW212537   2.445   5.917   1.001
 3880SOL     OW12538   5.740   1.505   3.882
 3880SOL    HW112539   5.654   1.512   3.933
 3880SOL    HW212540   5.741   1.571   3.807
 3881SOL     OW12541   0.673   5.713   0.689
 3881SOL    HW112542   0.751   5.775   0.698
 3881SOL    HW212543   0.682   5.639   0.755
 3882SOL     OW12544   0.155   5.978   6.807
 3882SOL    HW112545   0.227   6.033   6.765
 3882SOL    HW212546   0.068   6.027   6.802
 3883SOL     OW12547   3.460   2.108   6.994
 3883SOL    HW112548   3.499   2.130   6.905
 3883SOL    HW212549   3.361   2.094   6.985
 3884SOL     OW12550   1.799   4.913   5.535
 3884SOL    HW112551   1.797   5.008   5.567
 3884SOL    HW212552   1.771   4.852   5.609
 3885SOL     OW12553   6.795   1.313   4.836
 3885SOL    HW112554   6.827   1.402   4.806
 3885SOL    HW212555   6.697   1.304   4.820
 3886SOL     OW12556   0.167   6.120   5.481
 3886SOL    HW112557   0.142   6.030   5.515
 3886SOL    HW212558   0.223   6.168   5.550
 3887SOL     OW12559   5.633   2.898   4.599
 3887SOL    HW112560   5.664   2.826   4.660
 3887SOL    HW212561   5.562   2.862   4.538
 3888SOL     OW12562   5.687   1.999   2.302
 3888SOL    HW112563   5.621   1.925   2.312
 3888SOL    HW212564   5.759   1.971   2.238
 3889SOL     OW12565   6.687   5.956   6.467
 3889SOL    HW112566   6.617   5.885   6.476
 3889SOL    HW212567   6.654   6.041   6.510
 3890SOL     OW12568   6.967   3.371   2.860
 3890SOL    HW112569   7.010   3.334   2.777
 3890SOL    HW212570   6.874   3.336   2.868
 3891SOL     OW12571   5.051   5.512   5.806
 3891SOL    HW112572   4.980   5.494   5.739
 3891SOL    HW212573   5.032   5.460   5.890
 3892SOL     OW12574   5.598   5.699   3.934
 3892SOL    HW112575   5.525   5.763   3.958
 3892SOL    HW212576   5.620   5.642   4.014
 3893SOL     OW12577   2.768   6.585   4.475
 3893SOL    HW112578   2.801   6.491   4.487
 3893SOL    HW212579   2.822   6.630   4.404
 3894SOL     OW12580   5.435   5.412   6.863
 3894SOL    HW112581   5.453   5.479   6.934
 3894SOL    HW212582   5.454   5.320   6.898
 3895SOL     OW12583   1.782   1.793   5.668
 3895SOL    HW112584   1.810   1.723   5.732
 3895SOL    HW212585   1.827   1.880   5.690
 3896SOL     OW12586   6.076   3.421   0.004
 3896SOL    HW112587   6.040   3.332   0.033
 3896SOL    HW212588   6.146   3.451   0.069
 3897SOL     OW12589   3.399   6.474   3.593
 3897SOL    HW112590   3.409   6.547   3.526
 3897SOL    HW212591   3.450   6.393   3.563
 3898SOL     OW12592   2.931   3.242   4.243
 3898SOL    HW112593   2.990   3.172   4.202
 3898SOL    HW212594   2.848   3.253   4.189
 3899SOL     OW12595   4.193   2.029   6.332
 3899SOL    HW112596   4.265   2.086   6.293
 3899SOL    HW212597   4.187   1.943   6.282
 3900SOL     OW12598   0.565   2.774   3.880
 3900SOL    HW112599   0.550   2.839   3.805
 3900SOL    HW212600   0.500   2.698   3.871
 3901SOL     OW12601   2.826   5.402   5.554
 3901SOL    HW112602   2.919   5.430   5.528
 3901SOL    HW212603   2.818   5.303   5.546
 3902SOL     OW12604   4.445   5.056   3.282
 3902SOL    HW112605   4.372   5.031   3.345
 3902SOL    HW212606   4.533   5.050   3.329
 3903SOL     OW12607   3.609   3.821   6.210
 3903SOL    HW112608   3.608   3.722   6.194
 3903SOL    HW212609   3.528   3.862   6.168
 3904SOL     OW12610   2.175   6.898   0.353
 3904SOL    HW112611   2.123   6.883   0.437
 3904SOL    HW212612   2.113   6.924   0.279
 3905SOL     OW12613   5.162   0.150   6.194
 3905SOL    HW112614   5.129   0.214   6.263
 3905SOL    HW212615   5.132   0.057   6.216
 3906SOL     OW12616   6.790   5.866   4.717
 3906SOL    HW112617   6.702   5.822   4.700
 3906SOL    HW212618   6.816   5.919   4.636
 3907SOL     OW12619   0.442   1.693   4.695
 3907SOL    HW112620   0.485   1.670   4.607
 3907SOL    HW212621   0.373   1.764   4.680
 3908SOL     OW12622   2.070   0.892   4.928
 3908SOL    HW112623   2.028   0.964   4.873
 3908SOL    HW212624   2.155   0.861   4.884
 3909SOL     OW12625   5.237   3.662   1.912
 3909SOL    HW112626   5.210   3.637   2.006
 3909SOL    HW212627   5.335   3.647   1.901
 3910SOL     OW12628   2.571   2.697   1.260
 3910SOL    HW112629   2.539   2.613   1.215
 3910SOL    HW212630   2.494   2.745   1.300
 3911SOL     OW12631   0.076   1.058   1.304
 3911SOL    HW112632   7.017   1.120   1.291
 3911SOL    HW212633   0.106   1.022   1.215
 3912SOL     OW12634   4.717   4.255   0.042
 3912SOL    HW112635   4.731   4.282   0.137
 3912SOL    HW212636   4.623   4.273   0.015
 3913SOL     OW12637   3.955   5.183   1.777
 3913SOL    HW112638   3.987   5.248   1.708
 3913SOL    HW212639   3.881   5.225   1.830
 3914SOL     OW12640   0.041   1.317   0.442
 3914SOL    HW112641   0.098   1.388   0.484
 3914SOL    HW212642   6.989   1.361   0.385
 3915SOL     OW12643   5.941   0.676   5.361
 3915SOL    HW112644   6.008   0.688   5.288
 3915SOL    HW212645   5.854   0.645   5.322
 3916SOL     OW12646   1.621   2.196   2.279
 3916SOL    HW112647   1.718   2.190   2.255
 3916SOL    HW212648   1.600   2.129   2.350
 3917SOL     OW12649   4.354   4.951   2.381
 3917SOL    HW112650   4.348   4.969   2.479
 3917SOL    HW212651   4.386   4.857   2.366
 3918SOL     OW12652   4.706   0.144   0.614
 3918SOL    HW112653   4.727   0.108   0.523
 3918SOL    HW212654   4.789   0.185   0.653
 3919SOL     OW12655   5.160   5.516   3.259
 3919SOL    HW112656   5.195   5.423   3.265
 3919SOL    HW212657   5.113   5.540   3.344
 3920SOL     OW12658   3.562   1.684   5.510
 3920SOL    HW112659   3.639   1.646   5.458
 3920SOL    HW212660   3.476   1.649   5.472
 3921SOL     OW12661   1.216   3.416   6.099
 3921SOL    HW112662   1.313   3.415   6.122
 3921SOL    HW212663   1.198   3.490   6.034
 3922SOL     OW12664   5.058   2.658   4.166
 3922SOL    HW112665   5.140   2.631   4.217
 3922SOL    HW212666   4.981   2.666   4.230
 3923SOL     OW12667   5.643   1.197   1.611
 3923SOL    HW112668   5.618   1.190   1.708
 3923SOL    HW212669   5.584   1.138   1.557
 3924SOL     OW12670   5.216   4.633   4.287
 3924SOL    HW112671   5.313   4.611   4.301
 3924SOL    HW212672   5.208   4.729   4.260
 3925SOL     OW12673   4.181   5.757   1.598
 3925SOL    HW112674   4.193   5.786   1.693
 3925SOL    HW212675   4.270   5.736   1.558
 3926SOL     OW12676   0.667   5.941   5.336
 3926SOL    HW112677   0.688   5.874   5.264
 3926SOL    HW212678   0.623   5.895   5.413
 3927SOL     OW12679   6.005   0.338   5.374
 3927SOL    HW112680   5.977   0.415   5.432
 3927SOL    HW212681   5.987   0.252   5.422
 3928SOL     OW12682   4.575   6.151   2.522
 3928SOL    HW112683   4.537   6.059   2.520
 3928SOL    HW212684   4.603   6.174   2.615
 3929SOL     OW12685   1.093   0.902   5.706
 3929SOL    HW112686   1.094   1.000   5.688
 3929SOL    HW212687   1.151   0.882   5.786
 3930SOL     OW12688   1.588   6.149   4.221
 3930SOL    HW112689   1.636   6.157   4.133
 3930SOL    HW212690   1.536   6.063   4.222
 3931SOL     OW12691   0.554   2.172   0.280
 3931SOL    HW112692   0.516   2.189   0.370
 3931SOL    HW212693   0.483   2.135   0.220
 3932SOL     OW12694   2.153   4.170   2.626
 3932SOL    HW112695   2.247   4.162   2.594
 3932SOL    HW212696   2.104   4.237   2.570
 3933SOL     OW12697   1.969   6.236   1.522
 3933SOL    HW112698   1.935   6.160   1.466
 3933SOL    HW212699   2.061   6.261   1.493
 3934SOL     OW12700   2.213   6.360   1.718
 3934SOL    HW112701   2.208   6.282   1.781
 3934SOL    HW212702   2.122   6.401   1.710
 3935SOL     OW12703   0.418   2.546   4.689
 3935SOL    HW112704   0.433   2.587   4.599
 3935SOL    HW212705   0.494   2.486   4.711
 3936SOL     OW12706   0.388   4.361   4.038
 3936SOL    HW112707   0.464   4.344   3.975
 3936SOL    HW212708   0.308   4.311   4.007
 3937SOL     OW12709   0.886   6.409   0.210
 3937SOL    HW112710   0.807   6.356   0.242
 3937SOL    HW212711   0.856   6.477   0.144
 3938SOL     OW12712   0.632   4.005   0.129
 3938SOL    HW112713   0.714   3.952   0.107
 3938SOL    HW212714   0.569   4.002   0.051
 3939SOL     OW12715   1.665   6.481   3.837
 3939SOL    HW112716   1.580   6.526   3.864
 3939SOL    HW212717   1.655   6.443   3.745
 3940SOL     OW12718   2.358   5.980   6.415
 3940SOL    HW112719   2.401   6.033   6.489
 3940SOL    HW212720   2.309   5.902   6.455
 3941SOL     OW12721   5.528   5.680   2.481
 3941SOL    HW112722   5.473   5.597   2.494
 3941SOL    HW212723   5.615   5.656   2.438
 3942SOL     OW12724   6.662   6.820   6.528
 3942SOL    HW112725   6.693   6.908   6.564
 3942SOL    HW212726   6.570   6.799   6.562
 3943SOL     OW12727   1.655   3.608   6.992
 3943SOL    HW112728   1.605   3.661   0.043
 3943SOL    HW212729   1.595   3.539   6.954
 3944SOL     OW12730   4.752   3.487   6.408
 3944SOL    HW112731   4.738   3.582   6.378
 3944SOL    HW212732   4.846   3.459   6.387
 3945SOL     OW12733   6.605   0.697   3.268
 3945SOL    HW112734   6.697   0.657   3.269
 3945SOL    HW212735   6.598   0.762   3.191
 3946SOL     OW12736   6.373   2.757   0.764
 3946SOL    HW112737   6.455   2.748   0.821
 3946SOL    HW212738   6.339   2.851   0.770
 3947SOL     OW12739   5.657   6.421   2.192
 3947SOL    HW112740   5.730   6.353   2.183
 3947SOL    HW212741   5.568   6.375   2.192
 3948SOL     OW12742   2.116   1.113   5.172
 3948SOL    HW112743   2.156   1.052   5.104
 3948SOL    HW212744   2.126   1.072   5.263
 3949SOL     OW12745   5.880   0.110   2.165
 3949SOL    HW112746   5.806   0.174   2.184
 3949SOL    HW212747   5.944   0.109   2.242
 3950SOL     OW12748   2.882   4.595   1.621
 3950SOL    HW112749   2.881   4.559   1.714
 3950SOL    HW212750   2.810   4.664   1.611
 3951SOL     OW12751   6.908   2.644   3.519
 3951SOL    HW112752   6.922   2.721   3.458
 3951SOL    HW212753   6.992   2.627   3.571
 3952SOL     OW12754   5.732   4.507   6.871
 3952SOL    HW112755   5.731   4.601   6.906
 3952SOL    HW212756   5.705   4.444   6.944
 3953SOL     OW12757   3.538   4.022   5.676
 3953SOL    HW112758   3.458   4.036   5.617
 3953SOL    HW212759   3.569   3.927   5.668
 3954SOL     OW12760   1.304   3.467   5.196
 3954SOL    HW112761   1.276   3.380   5.237
 3954SOL    HW212762   1.399   3.486   5.222
 3955SOL     OW12763   6.115   3.323   0.374
 3955SOL    HW112764   6.104   3.367   0.464
 3955SOL    HW212765   6.025   3.300   0.337
 3956SOL     OW12766   6.886   2.749   5.437
 3956SOL    HW112767   6.950   2.693   5.385
 3956SOL    HW212768   6.925   2.771   5.526
 3957SOL     OW12769   0.851   2.119   1.787
 3957SOL    HW112770   0.924   2.184   1.765
 3957SOL    HW212771   0.816   2.138   1.879
 3958SOL     OW12772   5.706   6.137   1.182
 3958SOL    HW112773   5.652   6.209   1.227
 3958SOL    HW212774   5.658   6.049   1.191
 3959SOL     OW12775   2.452   4.807   1.916
 3959SOL    HW112776   2.421   4.840   2.005
 3959SOL    HW212777   2.512   4.728   1.929
 3960SOL     OW12778   5.633   2.968   0.595
 3960SOL    HW112779   5.670   3.060   0.582
 3960SOL    HW212780   5.578   2.943   0.515
 3961SOL     OW12781   6.817   1.116   1.425
 3961SOL    HW112782   6.725   1.135   1.461
 3961SOL    HW212783   6.820   1.023   1.390
 3962SOL     OW12784   0.327   0.419   6.133
 3962SOL    HW112785   0.231   0.393   6.126
 3962SOL    HW212786   0.340   0.477   6.214
 3963SOL     OW12787   5.089   4.083   4.205
 3963SOL    HW112788   5.101   4.112   4.110
 3963SOL    HW212789   5.178   4.071   4.248
 3964SOL     OW12790   5.786   4.662   0.108
 3964SOL    HW112791   5.687   4.663   0.095
 3964SOL    HW212792   5.820   4.756   0.108
 3965SOL     OW12793   3.527   3.889   1.152
 3965SOL    HW112794   3.540   3.835   1.235
 3965SOL    HW212795   3.432   3.918   1.144
 3966SOL     OW12796   6.842   3.711   5.775
 3966SOL    HW112797   6.936   3.684   5.754
 3966SOL    HW212798   6.779   3.641   5.740
 3967SOL     OW12799   2.420   6.776   0.226
 3967SOL    HW112800   2.433   6.701   0.161
 3967SOL    HW212801   2.322   6.792   0.240
 3968SOL     OW12802   4.698   2.462   0.773
 3968SOL    HW112803   4.759   2.541   0.759
 3968SOL    HW212804   4.631   2.459   0.699
 3969SOL     OW12805   0.107   6.374   0.855
 3969SOL    HW112806   0.056   6.293   0.883
 3969SOL    HW212807   0.044   6.450   0.840
 3970SOL     OW12808   5.624   4.441   3.703
 3970SOL    HW112809   5.642   4.500   3.781
 3970SOL    HW212810   5.634   4.494   3.618
 3971SOL     OW12811   0.187   5.919   3.793
 3971SOL    HW112812   0.256   5.923   3.720
 3971SOL    HW212813   0.106   5.971   3.765
 3972SOL     OW12814   1.241   0.083   6.074
 3972SOL    HW112815   1.234   0.077   5.974
 3972SOL    HW212816   1.182   0.156   6.107
 3973SOL     OW12817   4.118   3.578   2.575
 3973SOL    HW112818   4.081   3.573   2.667
 3973SOL    HW212819   4.099   3.492   2.527
 3974SOL     OW12820   4.911   0.600   6.382
 3974SOL    HW112821   4.879   0.554   6.299
 3974SOL    HW212822   4.956   0.686   6.357
 3975SOL     OW12823   0.326   0.229   4.587
 3975SOL    HW112824   0.275   0.315   4.583
 3975SOL    HW212825   0.321   0.183   4.498
 3976SOL     OW12826   0.962   3.020   5.938
 3976SOL    HW112827   1.051   3.052   5.972
 3976SOL    HW212828   0.977   2.957   5.863
 3977SOL     OW12829   3.457   5.343   5.082
 3977SOL    HW112830   3.384   5.325   5.018
 3977SOL    HW212831   3.541   5.299   5.051
 3978SOL     OW12832   5.704   3.446   6.231
 3978SOL    HW112833   5.758   3.397   6.162
 3978SOL    HW212834   5.760   3.519   6.270
 3979SOL     OW12835   0.795   6.047   3.134
 3979SOL    HW112836   0.859   6.094   3.073
 3979SOL    HW212837   0.737   6.115   3.180
 3980SOL     OW12838   5.325   3.800   4.153
 3980SOL    HW112839   5.409   3.754   4.125
 3980SOL    HW212840   5.268   3.817   4.072
 3981SOL     OW12841   7.005   1.160   6.316
 3981SOL    HW112842   0.007   1.209   6.401
 3981SOL    HW212843   6.963   1.223   6.250
 3982SOL     OW12844   2.318   2.849   4.460
 3982SOL    HW112845   2.273   2.935   4.436
 3982SOL    HW212846   2.385   2.866   4.532
 3983SOL     OW12847   3.161   0.737   3.617
 3983SOL    HW112848   3.185   0.645   3.586
 3983SOL    HW212849   3.133   0.734   3.713
 3984SOL     OW12850   1.657   5.741   2.144
 3984SOL    HW112851   1.710   5.657   2.158
 3984SOL    HW212852   1.604   5.761   2.226
 3985SOL     OW12853   1.891   2.203   1.192
 3985SOL    HW112854   1.946   2.170   1.269
 3985SOL    HW212855   1.905   2.301   1.181
 3986SOL     OW12856   0.578   2.329   2.284
 3986SOL    HW112857   0.676   2.339   2.267
 3986SOL    HW212858   0.533   2.418   2.274
 3987SOL     OW12859   1.584   4.375   4.928
 3987SOL    HW112860   1.589   4.369   5.028
 3987SOL    HW212861   1.656   4.318   4.888
 3988SOL     OW12862   4.947   0.053   1.625
 3988SOL    HW112863   4.869   0.074   1.683
 3988SOL    HW212864   4.918   0.049   1.529
 3989SOL     OW12865   4.000   0.722   5.680
 3989SOL    HW112866   3.985   0.663   5.600
 3989SOL    HW212867   4.022   0.814   5.649
 3990SOL     OW12868   6.246   1.567   3.596
 3990SOL    HW112869   6.329   1.558   3.651
 3990SOL    HW212870   6.166   1.572   3.657
 3991SOL     OW12871   0.166   1.862   3.188
 3991SOL    HW112872   0.209   1.915   3.262
 3991SOL    HW212873   0.091   1.808   3.226
 3992SOL     OW12874   5.293   3.496   6.440
 3992SOL    HW112875   5.295   3.396   6.438
 3992SOL    HW212876   5.339   3.532   6.359
 3993SOL     OW12877   1.675   0.605   4.047
 3993SOL    HW112878   1.597   0.601   4.110
 3993SOL    HW212879   1.754   0.645   4.093
 3994SOL     OW12880   3.470   2.080   3.586
 3994SOL    HW112881   3.568   2.068   3.570
 3994SOL    HW212882   3.421   1.998   3.555
 3995SOL     OW12883   1.464   3.465   2.518
 3995SOL    HW112884   1.381   3.434   2.565
 3995SOL    HW212885   1.449   3.462   2.419
 3996SOL     OW12886   6.442   6.429   5.070
 3996SOL    HW112887   6.457   6.477   5.157
 3996SOL    HW212888   6.419   6.495   4.999
 3997SOL     OW12889   5.543   3.661   4.078
 3997SOL    HW112890   5.544   3.566   4.109
 3997SOL    HW212891   5.637   3.694   4.066
 3998SOL     OW12892   4.782   2.187   3.632
 3998SOL    HW112893   4.836   2.138   3.701
 3998SOL    HW212894   4.783   2.285   3.652
 3999SOL     OW12895   4.888   3.266   0.625
 3999SOL    HW112896   4.948   3.321   0.567
 3999SOL    HW212897   4.934   3.246   0.711
 4000SOL     OW12898   2.411   4.810   3.268
 4000SOL    HW112899   2.423   4.836   3.364
 4000SOL    HW212900   2.468   4.729   3.249
 4001SOL     OW12901   0.314   6.050   4.378
 4001SOL    HW112902   0.306   5.970   4.320
 4001SOL    HW212903   0.232   6.058   4.435
 4002SOL     OW12904   4.127   3.711   4.912
 4002SOL    HW112905   4.224   3.689   4.899
 4002SOL    HW212906   4.072   3.655   4.850
 4003SOL     OW12907   1.999   1.114   4.786
 4003SOL    HW112908   1.951   1.098   4.700
 4003SOL    HW212909   2.070   1.183   4.773
 4004SOL     OW12910   1.877   4.788   4.911
 4004SOL    HW112911   1.916   4.734   4.986
 4004SOL    HW212912   1.875   4.884   4.937
 4005SOL     OW12913   5.026   2.987   0.375
 4005SOL    HW112914   4.944   2.987   0.432
 4005SOL    HW212915   5.010   3.041   0.293
 4006SOL     OW12916   6.688   5.323   1.962
 4006SOL    HW112917   6.716   5.227   1.972
 4006SOL    HW212918   6.761   5.373   1.915
 4007SOL     OW12919   0.660   0.901   1.758
 4007SOL    HW112920   0.654   0.982   1.699
 4007SOL    HW212921   0.744   0.851   1.737
 4008SOL     OW12922   2.905   1.183   1.364
 4008SOL    HW112923   2.868   1.244   1.294
 4008SOL    HW212924   2.968   1.233   1.423
 4009SOL     OW12925   4.100   2.462   0.539
 4009SOL    HW112926   4.095   2.551   0.584
 4009SOL    HW212927   4.012   2.415   0.549
 4010SOL     OW12928   1.762   3.980   1.002
 4010SOL    HW112929   1.842   4.036   1.019
 4010SOL    HW212930   1.789   3.894   0.958
 4011SOL     OW12931   6.234   6.777   6.060
 4011SOL    HW112932   6.327   6.811   6.048
 4011SOL    HW212933   6.221   6.693   6.007
 4012SOL     OW12934   5.959   5.909   2.569
 4012SOL    HW112935   5.957   5.843   2.494
 4012SOL    HW212936   6.050   5.949   2.575
 4013SOL     OW12937   6.824   1.435   6.850
 4013SOL    HW112938   6.725   1.449   6.856
 4013SOL    HW212939   6.871   1.524   6.855
 4014SOL     OW12940   3.863   5.568   2.401
 4014SOL    HW112941   3.802   5.626   2.456
 4014SOL    HW212942   3.954   5.609   2.398
 4015SOL     OW12943   4.496   5.486   5.861
 4015SOL    HW112944   4.468   5.534   5.944
 4015SOL    HW212945   4.594   5.464   5.867
 4016SOL     OW12946   5.009   4.958   4.627
 4016SOL    HW112947   5.104   4.981   4.647
 4016SOL    HW212948   4.950   5.033   4.657
 4017SOL     OW12949   1.791   5.831   5.330
 4017SOL    HW112950   1.873   5.885   5.352
 4017SOL    HW212951   1.814   5.762   5.261
 4018SOL     OW12952   4.080   5.534   1.356
 4018SOL    HW112953   4.127   5.588   1.425
 4018SOL    HW212954   3.990   5.575   1.338
 4019SOL     OW12955   6.776   3.433   2.284
 4019SOL    HW112956   6.800   3.380   2.203
 4019SOL    HW212957   6.824   3.521   2.283
 4020SOL     OW12958   6.818   5.543   4.533
 4020SOL    HW112959   6.902   5.508   4.575
 4020SOL    HW212960   6.839   5.627   4.483
 4021SOL     OW12961   4.364   5.086   6.158
 4021SOL    HW112962   4.443   5.073   6.098
 4021SOL    HW212963   4.313   5.167   6.128
 4022SOL     OW12964   2.739   6.006   1.305
 4022SOL    HW112965   2.682   5.931   1.272
 4022SOL    HW212966   2.682   6.081   1.338
 4023SOL     OW12967   0.307   1.540   4.413
 4023SOL    HW112968   0.291   1.541   4.314
 4023SOL    HW212969   0.399   1.506   4.432
 4024SOL     OW12970   0.062   6.566   5.300
 4024SOL    HW112971   0.083   6.468   5.299
 4024SOL    HW212972   6.993   6.581   5.346
 4025SOL     OW12973   6.799   4.947   3.736
 4025SOL    HW112974   6.743   4.894   3.673
 4025SOL    HW212975   6.792   4.908   3.828
 4026SOL     OW12976   0.367   6.660   3.910
 4026SOL    HW112977   0.421   6.683   3.991
 4026SOL    HW212978   0.372   6.561   3.893
 4027SOL     OW12979   3.454   4.956   5.000
 4027SOL    HW112980   3.532   4.982   5.058
 4027SOL    HW212981   3.401   4.886   5.046
 4028SOL     OW12982   5.105   1.225   3.882
 4028SOL    HW112983   5.176   1.190   3.943
 4028SOL    HW212984   5.016   1.194   3.914
 4029SOL     OW12985   1.373   6.434   0.763
 4029SOL    HW112986   1.460   6.398   0.797
 4029SOL    HW212987   1.306   6.436   0.837
 4030SOL     OW12988   0.421   1.579   2.439
 4030SOL    HW112989   0.511   1.609   2.409
 4030SOL    HW212990   0.365   1.555   2.360
 4031SOL     OW12991   5.685   6.143   0.229
 4031SOL    HW112992   5.690   6.218   0.294
 4031SOL    HW212993   5.623   6.072   0.263
 4032SOL     OW12994   5.093   0.921   2.669
 4032SOL    HW112995   5.068   0.949   2.762
 4032SOL    HW212996   5.158   0.846   2.673
 4033SOL     OW12997   2.397   2.608   2.973
 4033SOL    HW112998   2.445   2.608   2.886
 4033SOL    HW212999   2.456   2.569   3.044
 4034SOL     OW13000   1.354   2.582   4.608
 4034SOL    HW113001   1.295   2.529   4.546
 4034SOL    HW213002   1.412   2.642   4.554
 4035SOL     OW13003   4.670   2.088   1.925
 4035SOL    HW113004   4.621   2.102   2.011
 4035SOL    HW213005   4.638   2.153   1.857
 4036SOL     OW13006   3.130   5.683   3.415
 4036SOL    HW113007   3.149   5.777   3.387
 4036SOL    HW213008   3.194   5.621   3.369
 4037SOL     OW13009   2.156   2.059   6.337
 4037SOL    HW113010   2.060   2.050   6.363
 4037SOL    HW213011   2.165   2.043   6.239
 4038SOL     OW13012   3.597   4.939   5.712
 4038SOL    HW113013   3.521   4.910   5.770
 4038SOL    HW213014   3.649   5.010   5.760
 4039SOL     OW13015   5.541   4.905   1.593
 4039SOL    HW113016   5.620   4.855   1.628
 4039SOL    HW213017   5.532   4.992   1.641
 4040SOL     OW13018   3.330   0.440   5.125
 4040SOL    HW113019   3.322   0.498   5.205
 4040SOL    HW213020   3.306   0.346   5.149
 4041SOL     OW13021   1.557   5.430   1.919
 4041SOL    HW113022   1.510   5.392   1.999
 4041SOL    HW213023   1.508   5.511   1.887
 4042SOL     OW13024   0.293   1.873   2.812
 4042SOL    HW113025   0.343   1.835   2.734
 4042SOL    HW213026   0.228   1.942   2.781
 4043SOL     OW13027   4.976   3.166   6.038
 4043SOL    HW113028   4.883   3.161   6.074
 4043SOL    HW213029   5.008   3.074   6.015
 4044SOL     OW13030   4.715   4.120   3.188
 4044SOL    HW113031   4.695   4.054   3.116
 4044SOL    HW213032   4.764   4.074   3.262
 4045SOL     OW13033   4.578   1.119   5.570
 4045SOL    HW113034   4.497   1.062   5.577
 4045SOL    HW213035   4.660   1.061   5.572
 4046SOL     OW13036   5.183   1.675   3.549
 4046SOL    HW113037   5.264   1.642   3.595
 4046SOL    HW213038   5.129   1.598   3.515
 4047SOL     OW13039   3.302   2.928   6.687
 4047SOL    HW113040   3.337   2.953   6.777
 4047SOL    HW213041   3.209   2.893   6.697
 4048SOL     OW13042   4.831   1.922   2.561
 4048SOL    HW113043   4.893   1.878   2.496
 4048SOL    HW213044   4.782   1.852   2.613
 4049SOL     OW13045   4.014   3.967   0.735
 4049SOL    HW113046   3.937   3.947   0.796
 4049SOL    HW213047   3.981   4.021   0.658
 4050SOL     OW13048   0.363   5.208   2.663
 4050SOL    HW113049   0.436   5.233   2.600
 4050SOL    HW213050   0.295   5.282   2.668
 4051SOL     OW13051   5.533   0.841   5.543
 4051SOL    HW113052   5.579   0.878   5.624
 4051SOL    HW213053   5.458   0.903   5.517
 4052SOL     OW13054   5.369   1.903   3.494
 4052SOL    HW113055   5.323   1.978   3.446
 4052SOL    HW213056   5.312   1.821   3.490
 4053SOL     OW13057   0.900   4.824   3.907
 4053SOL    HW113058   0.966   4.775   3.963
 4053SOL    HW213059   0.839   4.878   3.965
 4054SOL     OW13060   4.260   3.955   0.844
 4054SOL    HW113061   4.277   3.863   0.880
 4054SOL    HW213062   4.166   3.959   0.808
 4055SOL     OW13063   0.241   4.060   0.351
 4055SOL    HW113064   0.303   4.059   0.429
 4055SOL    HW213065   0.150   4.031   0.380
 4056SOL     OW13066   4.752   3.368   6.814
 4056SOL    HW113067   4.680   3.382   6.746
 4056SOL    HW213068   4.726   3.413   6.900
 4057SOL     OW13069   0.111   3.713   0.518
 4057SOL    HW113070   0.065   3.705   0.429
 4057SOL    HW213071   0.209   3.699   0.506
 4058SOL     OW13072   2.589   0.555   4.865
 4058SOL    HW113073   2.638   0.573   4.780
 4058SOL    HW213074   2.624   0.471   4.907
 4059SOL     OW13075   0.104   1.480   3.583
 4059SOL    HW113076   0.106   1.434   3.672
 4059SOL    HW213077   0.195   1.474   3.541
 4060SOL     OW13078   6.914   6.217   4.571
 4060SOL    HW113079   6.961   6.293   4.525
 4060SOL    HW213080   6.823   6.206   4.533
 4061SOL     OW13081   1.376   4.753   1.298
 4061SOL    HW113082   1.376   4.780   1.202
 4061SOL    HW213083   1.285   4.767   1.337
 4062SOL     OW13084   1.706   3.696   0.845
 4062SOL    HW113085   1.704   3.686   0.944
 4062SOL    HW213086   1.691   3.607   0.802
 4063SOL     OW13087   4.238   0.398   0.487
 4063SOL    HW113088   4.332   0.377   0.515
 4063SOL    HW213089   4.197   0.317   0.446
 4064SOL     OW13090   2.025   1.095   5.908
 4064SOL    HW113091   2.060   1.001   5.913
 4064SOL    HW213092   1.925   1.093   5.898
 4065SOL     OW13093   2.363   0.317   1.107
 4065SOL    HW113094   2.394   0.272   1.023
 4065SOL    HW213095   2.297   0.258   1.154
 4066SOL     OW13096   0.940   3.816   3.613
 4066SOL    HW113097   0.970   3.746   3.548
 4066SOL    HW213098   0.997   3.811   3.696
 4067SOL     OW13099   5.603   5.161   0.813
 4067SOL    HW113100   5.554   5.205   0.738
 4067SOL    HW213101   5.700   5.185   0.807
 4068SOL     OW13102   2.261   2.776   5.028
 4068SOL    HW113103   2.307   2.865   5.029
 4068SOL    HW213104   2.330   2.703   5.025
 4069SOL     OW13105   4.983   6.474   6.523
 4069SOL    HW113106   4.997   6.381   6.558
 4069SOL    HW213107   4.893   6.480   6.480
 4070SOL     OW13108   1.237   3.431   3.679
 4070SOL    HW113109   1.212   3.417   3.775
 4070SOL    HW213110   1.261   3.526   3.664
 4071SOL     OW13111   1.007   0.713   5.097
 4071SOL    HW113112   0.992   0.653   5.018
 4071SOL    HW213113   1.100   0.750   5.093
 4072SOL     OW13114   2.665   5.954   3.128
 4072SOL    HW113115   2.655   5.987   3.222
 4072SOL    HW213116   2.602   5.878   3.113
 4073SOL     OW13117   4.673   4.961   6.799
 4073SOL    HW113118   4.695   5.026   6.726
 4073SOL    HW213119   4.574   4.956   6.810
 4074SOL     OW13120   1.664   5.789   2.700
 4074SOL    HW113121   1.594   5.860   2.694
 4074SOL    HW213122   1.726   5.797   2.622
 4075SOL     OW13123   6.592   0.490   0.843
 4075SOL    HW113124   6.545   0.404   0.821
 4075SOL    HW213125   6.649   0.477   0.924
 4076SOL     OW13126   2.139   5.006   4.236
 4076SOL    HW113127   2.190   5.081   4.193
 4076SOL    HW213128   2.143   5.015   4.335
 4077SOL     OW13129   3.030   0.535   2.318
 4077SOL    HW113130   2.931   0.542   2.328
 4077SOL    HW213131   3.052   0.459   2.257
 4078SOL     OW13132   3.540   4.908   2.309
 4078SOL    HW113133   3.470   4.978   2.315
 4078SOL    HW213134   3.519   4.845   2.234
 4079SOL     OW13135   0.420   2.203   3.708
 4079SOL    HW113136   0.484   2.247   3.772
 4079SOL    HW213137   0.394   2.113   3.744
 4080SOL     OW13138   6.883   2.366   5.454
 4080SOL    HW113139   6.855   2.355   5.549
 4080SOL    HW213140   6.803   2.389   5.398
 4081SOL     OW13141   1.451   3.266   3.783
 4081SOL    HW113142   1.514   3.315   3.722
 4081SOL    HW213143   1.359   3.306   3.775
 4082SOL     OW13144   0.560   3.552   0.782
 4082SOL    HW113145   0.545   3.646   0.813
 4082SOL    HW213146   0.611   3.502   0.853
 4083SOL     OW13147   6.223   2.855   4.707
 4083SOL    HW113148   6.236   2.758   4.683
 4083SOL    HW213149   6.311   2.894   4.734
 4084SOL     OW13150   6.747   1.622   4.183
 4084SOL    HW113151   6.808   1.615   4.262
 4084SOL    HW213152   6.689   1.703   4.192
 4085SOL     OW13153   2.460   6.337   0.389
 4085SOL    HW113154   2.460   6.427   0.433
 4085SOL    HW213155   2.368   6.299   0.392
 4086SOL     OW13156   1.088   4.430   0.644
 4086SOL    HW113157   1.039   4.373   0.579
 4086SOL    HW213158   1.185   4.405   0.644
 4087SOL     OW13159   2.676   1.694   2.853
 4087SOL    HW113160   2.672   1.738   2.763
 4087SOL    HW213161   2.588   1.705   2.900
 4088SOL     OW13162   6.325   2.021   0.690
 4088SOL    HW113163   6.250   1.978   0.740
 4088SOL    HW213164   6.318   1.998   0.593
 4089SOL     OW13165   1.458   1.481   5.681
 4089SOL    HW113166   1.378   1.436   5.642
 4089SOL    HW213167   1.467   1.573   5.644
 4090SOL     OW13168   1.876   4.618   6.315
 4090SOL    HW113169   1.965   4.620   6.271
 4090SOL    HW213170   1.877   4.554   6.391
 4091SOL     OW13171   3.853   6.928   0.500
 4091SOL    HW113172   3.944   6.887   0.490
 4091SOL    HW213173   3.854   0.005   0.469
 4092SOL     OW13174   6.908   2.003   4.789
 4092SOL    HW113175   6.931   2.069   4.718
 4092SOL    HW213176   6.812   1.978   4.782
 4093SOL     OW13177   5.807   6.802   4.774
 4093SOL    HW113178   5.728   6.859   4.753
 4093SOL    HW213179   5.795   6.759   4.863
 4094SOL     OW13180   2.896   4.345   5.354
 4094SOL    HW113181   2.876   4.421   5.291
 4094SOL    HW213182   2.980   4.300   5.326
 4095SOL     OW13183   1.748   4.037   5.843
 4095SOL    HW113184   1.682   3.963   5.859
 4095SOL    HW213185   1.834   3.997   5.812
 4096SOL     OW13186   4.417   4.649   2.250
 4096SOL    HW113187   4.333   4.656   2.197
 4096SOL    HW213188   4.475   4.576   2.212
 4097SOL     OW13189   2.874   3.578   3.925
 4097SOL    HW113190   2.842   3.621   3.840
 4097SOL    HW213191   2.897   3.649   3.992
 4098SOL     OW13192   0.441   2.621   2.336
 4098SOL    HW113193   0.489   2.698   2.377
 4098SOL    HW213194   0.383   2.653   2.261
 4099SOL     OW13195   3.097   6.300   1.864
 4099SOL    HW113196   3.024   6.236   1.887
 4099SOL    HW213197   3.110   6.302   1.765
 4100SOL     OW13198   3.589   6.472   3.036
 4100SOL    HW113199   3.502   6.506   3.000
 4100SOL    HW213200   3.582   6.374   3.054
 4101SOL     OW13201   4.378   1.008   6.829
 4101SOL    HW113202   4.305   0.999   6.897
 4101SOL    HW213203   4.369   1.095   6.782
 4102SOL     OW13204   5.493   1.335   0.467
 4102SOL    HW113205   5.542   1.250   0.486
 4102SOL    HW213206   5.402   1.314   0.431
 4103SOL     OW13207   0.256   0.383   2.310
 4103SOL    HW113208   0.185   0.318   2.337
 4103SOL    HW213209   0.248   0.466   2.365
 4104SOL     OW13210   1.648   4.974   2.588
 4104SOL    HW113211   1.621   4.965   2.684
 4104SOL    HW213212   1.725   4.912   2.569
 4105SOL     OW13213   5.525   5.138   0.373
 4105SOL    HW113214   5.503   5.172   0.282
 4105SOL    HW213215   5.620   5.161   0.395
 4106SOL     OW13216   0.150   3.685   5.287
 4106SOL    HW113217   0.096   3.741   5.225
 4106SOL    HW213218   0.097   3.604   5.313
 4107SOL     OW13219   0.021   1.250   1.106
 4107SOL    HW113220   0.087   1.318   1.073
 4107SOL    HW213221   0.039   1.162   1.064
 4108SOL     OW13222   6.395   2.964   5.278
 4108SOL    HW113223   6.380   3.063   5.272
 4108SOL    HW213224   6.370   2.932   5.369
 4109SOL     OW13225   2.940   6.566   3.430
 4109SOL    HW113226   2.998   6.571   3.512
 4109SOL    HW213227   2.870   6.496   3.443
 4110SOL     OW13228   4.316   3.274   5.310
 4110SOL    HW113229   4.303   3.277   5.409
 4110SOL    HW213230   4.262   3.199   5.272
 4111SOL     OW13231   4.594   3.403   6.599
 4111SOL    HW113232   4.523   3.466   6.567
 4111SOL    HW213233   4.666   3.397   6.530
 4112SOL     OW13234   3.710   0.712   4.582
 4112SOL    HW113235   3.712   0.808   4.553
 4112SOL    HW213236   3.627   0.668   4.547
 4113SOL     OW13237   3.940   5.458   4.555
 4113SOL    HW113238   3.864   5.415   4.605
 4113SOL    HW213239   3.907   5.539   4.507
 4114SOL     OW13240   2.967   2.137   2.913
 4114SOL    HW113241   3.020   2.054   2.898
 4114SOL    HW213242   2.942   2.177   2.825
 4115SOL     OW13243   5.247   4.947   2.217
 4115SOL    HW113244   5.194   4.984   2.294
 4115SOL    HW213245   5.258   5.018   2.148
 4116SOL     OW13246   3.217   1.065   2.430
 4116SOL    HW113247   3.148   1.049   2.501
 4116SOL    HW213248   3.171   1.081   2.343
 4117SOL     OW13249   0.930   5.543   2.082
 4117SOL    HW113250   0.849   5.530   2.138
 4117SOL    HW213251   0.964   5.455   2.050
 4118SOL     OW13252   2.606   6.640   0.582
 4118SOL    HW113253   2.631   6.664   0.676
 4118SOL    HW213254   2.617   6.721   0.524
 4119SOL     OW13255   4.653   0.949   3.394
 4119SOL    HW113256   4.703   0.962   3.480
 4119SOL    HW213257   4.681   0.862   3.353
 4120SOL     OW13258   3.495   1.003   2.330
 4120SOL    HW113259   3.465   0.976   2.239
 4120SOL    HW213260   3.416   1.018   2.389
 4121SOL     OW13261   6.377   3.148   4.730
 4121SOL    HW113262   6.430   3.074   4.771
 4121SOL    HW213263   6.376   3.227   4.792
 4122SOL     OW13264   1.793   5.594   6.602
 4122SOL    HW113265   1.775   5.579   6.505
 4122SOL    HW213266   1.707   5.607   6.651
 4123SOL     OW13267   4.799   4.110   6.061
 4123SOL    HW113268   4.831   4.190   6.010
 4123SOL    HW213269   4.702   4.096   6.042
 4124SOL     OW13270   4.598   6.569   3.823
 4124SOL    HW113271   4.543   6.648   3.795
 4124SOL    HW213272   4.543   6.486   3.813
 4125SOL     OW13273   5.034   1.282   0.863
 4125SOL    HW113274   5.089   1.279   0.947
 4125SOL    HW213275   4.986   1.369   0.858
 4126SOL     OW13276   1.852   4.802   4.367
 4126SOL    HW113277   1.862   4.823   4.270
 4126SOL    HW213278   1.785   4.729   4.379
 4127SOL     OW13279   6.168   4.019   4.830
 4127SOL    HW113280   6.207   3.995   4.919
 4127SOL    HW213281   6.083   4.070   4.844
 4128SOL     OW13282   1.203   1.901   2.358
 4128SOL    HW113283   1.169   1.843   2.432
 4128SOL    HW213284   1.273   1.852   2.307
 4129SOL     OW13285   5.647   2.114   6.242
 4129SOL    HW113286   5.726   2.110   6.181
 4129SOL    HW213287   5.678   2.103   6.337
 4130SOL     OW13288   5.933   3.563   1.235
 4130SOL    HW113289   5.898   3.572   1.329
 4130SOL    HW213290   5.874   3.502   1.183
 4131SOL     OW13291   6.836   3.907   3.423
 4131SOL    HW113292   6.928   3.873   3.406
 4131SOL    HW213293   6.818   3.907   3.521
 4132SOL     OW13294   5.101   2.259   4.457
 4132SOL    HW113295   5.157   2.342   4.465
 4132SOL    HW213296   5.012   2.275   4.501
 4133SOL     OW13297   2.648   2.107   1.112
 4133SOL    HW113298   2.617   2.132   1.204
 4133SOL    HW213299   2.747   2.099   1.111
 4134SOL     OW13300   1.221   1.590   6.781
 4134SOL    HW113301   1.157   1.572   6.707
 4134SOL    HW213302   1.198   1.531   6.859
 4135SOL     OW13303   1.260   0.600   1.056
 4135SOL    HW113304   1.317   0.569   1.132
 4135SOL    HW213305   1.195   0.527   1.031
 4136SOL     OW13306   0.969   1.563   3.380
 4136SOL    HW113307   0.924   1.496   3.438
 4136SOL    HW213308   0.964   1.654   3.423
 4137SOL     OW13309   3.673   3.808   5.382
 4137SOL    HW113310   3.690   3.906   5.389
 4137SOL    HW213311   3.712   3.774   5.296
 4138SOL     OW13312   4.145   5.319   2.926
 4138SOL    HW113313   4.232   5.270   2.918
 4138SOL    HW213314   4.071   5.254   2.939
 4139SOL     OW13315   2.086   0.866   0.276
 4139SOL    HW113316   2.119   0.903   0.189
 4139SOL    HW213317   2.162   0.823   0.324
 4140SOL     OW13318   4.663   1.530   5.322
 4140SOL    HW113319   4.588   1.490   5.373
 4140SOL    HW213320   4.702   1.607   5.374
 4141SOL     OW13321   5.562   5.529   0.922
 4141SOL    HW113322   5.464   5.524   0.941
 4141SOL    HW213323   5.613   5.504   1.005
 4142SOL     OW13324   6.441   2.644   1.877
 4142SOL    HW113325   6.388   2.606   1.953
 4142SOL    HW213326   6.433   2.583   1.798
 4143SOL     OW13327   0.578   2.120   1.544
 4143SOL    HW113328   0.570   2.049   1.613
 4143SOL    HW213329   0.496   2.121   1.488
 4144SOL     OW13330   4.564   0.781   2.300
 4144SOL    HW113331   4.506   0.739   2.370
 4144SOL    HW213332   4.551   0.880   2.301
 4145SOL     OW13333   2.937   0.082   2.776
 4145SOL    HW113334   3.012   0.135   2.736
 4145SOL    HW213335   2.963   7.004   2.781
 4146SOL     OW13336   5.098   5.652   0.270
 4146SOL    HW113337   5.075   5.561   0.234
 4146SOL    HW213338   5.016   5.709   0.270
 4147SOL     OW13339   3.181   2.378   5.571
 4147SOL    HW113340   3.130   2.443   5.514
 4147SOL    HW213341   3.154   2.388   5.666
 4148SOL     OW13342   5.794   0.090   2.843
 4148SOL    HW113343   5.706   0.108   2.888
 4148SOL    HW213344   5.850   0.031   2.901
 4149SOL     OW13345   5.209   4.322   1.595
 4149SOL    HW113346   5.141   4.275   1.651
 4149SOL    HW213347   5.173   4.412   1.568
 4150SOL     OW13348   5.015   0.477   5.742
 4150SOL    HW113349   5.066   0.551   5.786
 4150SOL    HW213350   5.011   0.398   5.803
 4151SOL     OW13351   0.262   5.299   0.581
 4151SOL    HW113352   0.306   5.336   0.499
 4151SOL    HW213353   0.165   5.322   0.579
 4152SOL     OW13354   3.816   4.371   1.509
 4152SOL    HW113355   3.721   4.396   1.529
 4152SOL    HW213356   3.818   4.288   1.454
 4153SOL     OW13357   6.185   5.575   6.103
 4153SOL    HW113358   6.162   5.485   6.067
 4153SOL    HW213359   6.279   5.598   6.078
 4154SOL     OW13360   4.751   2.746   5.610
 4154SOL    HW113361   4.714   2.664   5.653
 4154SOL    HW213362   4.770   2.728   5.514
 4155SOL     OW13363   1.303   2.805   1.354
 4155SOL    HW113364   1.255   2.875   1.302
 4155SOL    HW213365   1.267   2.801   1.447
 4156SOL     OW13366   6.354   6.908   5.461
 4156SOL    HW113367   6.353   6.821   5.511
 4156SOL    HW213368   6.427   6.907   5.393
 4157SOL     OW13369   3.467   0.613   4.513
 4157SOL    HW113370   3.379   0.642   4.549
 4157SOL    HW213371   3.454   0.568   4.424
 4158SOL     OW13372   0.883   6.972   4.248
 4158SOL    HW113373   0.847   6.930   4.164
 4158SOL    HW213374   0.810   0.007   4.292
 4159SOL     OW13375   0.810   3.347   5.556
 4159SOL    HW113376   0.719   3.338   5.595
 4159SOL    HW213377   0.804   3.358   5.457
 4160SOL     OW13378   1.384   1.156   0.815
 4160SOL    HW113379   1.401   1.198   0.725
 4160SOL    HW213380   1.433   1.069   0.821
 4161SOL     OW13381   6.137   1.919   0.476
 4161SOL    HW113382   6.101   2.001   0.522
 4161SOL    HW213383   6.080   1.840   0.500
 4162SOL     OW13384   6.957   6.992   5.220
 4162SOL    HW113385   0.019   6.955   5.173
 4162SOL    HW213386   6.967   0.073   5.232
 4163SOL     OW13387   6.301   0.977   4.116
 4163SOL    HW113388   6.365   0.901   4.127
 4163SOL    HW213389   6.218   0.945   4.071
 4164SOL     OW13390   2.522   6.793   6.504
 4164SOL    HW113391   2.510   6.867   6.570
 4164SOL    HW213392   2.487   6.708   6.543
 4165SOL     OW13393   2.837   5.773   2.693
 4165SOL    HW113394   2.883   5.839   2.753
 4165SOL    HW213395   2.752   5.743   2.736
 4166SOL     OW13396   6.055   2.758   1.215
 4166SOL    HW113397   6.060   2.845   1.263
 4166SOL    HW213398   6.138   2.745   1.160
 4167SOL     OW13399   2.505   3.221   1.157
 4167SOL    HW113400   2.484   3.306   1.205
 4167SOL    HW213401   2.420   3.172   1.138
 4168SOL     OW13402   1.638   4.562   1.131
 4168SOL    HW113403   1.554   4.530   1.086
 4168SOL    HW213404   1.702   4.486   1.141
 4169SOL     OW13405   6.363   3.699   4.551
 4169SOL    HW113406   6.386   3.701   4.649
 4169SOL    HW213407   6.283   3.641   4.537
 4170SOL     OW13408   4.208   2.342   5.357
 4170SOL    HW113409   4.211   2.417   5.291
 4170SOL    HW213410   4.296   2.295   5.357
 4171SOL     OW13411   5.489   3.646   1.442
 4171SOL    HW113412   5.473   3.548   1.452
 4171SOL    HW213413   5.585   3.666   1.460
 4172SOL     OW13414   2.583   1.082   0.121
 4172SOL    HW113415   2.486   1.105   0.125
 4172SOL    HW213416   2.627   1.109   0.206
 4173SOL     OW13417   5.743   3.426   5.420
 4173SOL    HW113418   5.785   3.459   5.504
 4173SOL    HW213419   5.661   3.480   5.400
 4174SOL     OW13420   5.172   0.606   4.329
 4174SOL    HW113421   5.211   0.609   4.421
 4174SOL    HW213422   5.234   0.652   4.265
 4175SOL     OW13423   3.658   1.781   3.498
 4175SOL    HW113424   3.688   1.876   3.489
 4175SOL    HW213425   3.560   1.780   3.521
 4176SOL     OW13426   6.265   5.526   2.979
 4176SOL    HW113427   6.237   5.436   2.947
 4176SOL    HW213428   6.271   5.589   2.902
 4177SOL     OW13429   6.750   5.046   2.920
 4177SOL    HW113430   6.775   5.113   2.850
 4177SOL    HW213431   6.650   5.041   2.927
 4178SOL     OW13432   3.922   2.735   6.074
 4178SOL    HW113433   3.958   2.729   5.981
 4178SOL    HW213434   3.982   2.685   6.137
 4179SOL     OW13435   6.253   2.968   6.484
 4179SOL    HW113436   6.154   2.981   6.491
 4179SOL    HW213437   6.289   2.937   6.573
 4180SOL     OW13438   4.218   3.591   1.151
 4180SOL    HW113439   4.132   3.592   1.100
 4180SOL    HW213440   4.232   3.679   1.196
 4181SOL     OW13441   0.033   1.049   0.407
 4181SOL    HW113442   0.015   1.147   0.412
 4181SOL    HW213443   7.005   1.010   0.327
 4182SOL     OW13444   5.651   1.246   3.791
 4182SOL    HW113445   5.557   1.268   3.764
 4182SOL    HW213446   5.715   1.300   3.736
 4183SOL     OW13447   1.734   1.789   1.257
 4183SOL    HW113448   1.810   1.739   1.299
 4183SOL    HW213449   1.769   1.847   1.183
 4184SOL     OW13450   3.917   5.316   6.913
 4184SOL    HW113451   3.964   5.246   6.968
 4184SOL    HW213452   3.838   5.349   6.963
 4185SOL     OW13453   0.009   6.747   4.183
 4185SOL    HW113454   0.059   6.774   4.101
 4185SOL    HW213455   6.999   6.651   4.175
 4186SOL     OW13456   3.600   4.187   1.918
 4186SOL    HW113457   3.623   4.162   2.012
 4186SOL    HW213458   3.663   4.141   1.855
 4187SOL     OW13459   4.272   4.865   6.398
 4187SOL    HW113460   4.322   4.935   6.447
 4187SOL    HW213461   4.335   4.811   6.343
 4188SOL     OW13462   5.270   6.340   4.915
 4188SOL    HW113463   5.227   6.254   4.886
 4188SOL    HW213464   5.244   6.413   4.852
 4189SOL     OW13465   1.620   3.189   3.179
 4189SOL    HW113466   1.688   3.131   3.133
 4189SOL    HW213467   1.639   3.191   3.277
 4190SOL     OW13468   3.436   6.959   1.531
 4190SOL    HW113469   3.340   6.935   1.543
 4190SOL    HW213470   3.492   6.876   1.531
 4191SOL     OW13471   0.104   2.789   1.994
 4191SOL    HW113472   0.029   2.725   1.982
 4191SOL    HW213473   0.070   2.883   1.984
 4192SOL     OW13474   5.889   1.066   2.733
 4192SOL    HW113475   5.804   1.112   2.708
 4192SOL    HW213476   5.884   1.037   2.829
 4193SOL     OW13477   1.959   6.511   2.485
 4193SOL    HW113478   2.044   6.563   2.471
 4193SOL    HW213479   1.951   6.441   2.414
 4194SOL     OW13480   6.408   1.236   3.415
 4194SOL    HW113481   6.438   1.142   3.397
 4194SOL    HW213482   6.422   1.257   3.512
 4195SOL     OW13483   5.079   0.987   2.965
 4195SOL    HW113484   5.070   0.891   2.990
 4195SOL    HW213485   5.142   1.032   3.028
 4196SOL     OW13486   4.530   2.262   3.205
 4196SOL    HW113487   4.627   2.236   3.212
 4196SOL    HW213488   4.518   2.327   3.130
 4197SOL     OW13489   4.851   3.969   4.654
 4197SOL    HW113490   4.842   3.918   4.568
 4197SOL    HW213491   4.860   3.905   4.730
 4198SOL     OW13492   5.526   4.319   6.084
 4198SOL    HW113493   5.475   4.279   6.008
 4198SOL    HW213494   5.585   4.249   6.124
 4199SOL     OW13495   3.181   3.711   5.020
 4199SOL    HW113496   3.126   3.673   4.945
 4199SOL    HW213497   3.172   3.652   5.101
 4200SOL     OW13498   2.540   0.045   6.141
 4200SOL    HW113499   2.573   0.068   6.232
 4200SOL    HW213500   2.448   0.083   6.128
 4201SOL     OW13501   6.064   6.893   4.798
 4201SOL    HW113502   6.108   6.851   4.719
 4201SOL    HW213503   5.972   6.857   4.809
 4202SOL     OW13504   5.635   3.699   4.910
 4202SOL    HW113505   5.698   3.622   4.905
 4202SOL    HW213506   5.541   3.666   4.911
 4203SOL     OW13507   4.973   5.129   4.140
 4203SOL    HW113508   5.025   5.212   4.123
 4203SOL    HW213509   4.889   5.152   4.189
 4204SOL     OW13510   2.172   4.287   0.888
 4204SOL    HW113511   2.238   4.317   0.957
 4204SOL    HW213512   2.220   4.266   0.803
 4205SOL     OW13513   2.882   5.596   3.318
 4205SOL    HW113514   2.975   5.621   3.344
 4205SOL    HW213515   2.857   5.644   3.234
 4206SOL     OW13516   5.855   6.643   4.555
 4206SOL    HW113517   5.841   6.666   4.651
 4206SOL    HW213518   5.911   6.714   4.512
 4207SOL     OW13519   0.866   0.738   0.831
 4207SOL    HW113520   0.847   0.641   0.815
 4207SOL    HW213521   0.959   0.759   0.802
 4208SOL     OW13522   0.998   2.874   0.481
 4208SOL    HW113523   1.047   2.959   0.460
 4208SOL    HW213524   0.909   2.875   0.435
 4209SOL     OW13525   2.670   0.811   5.111
 4209SOL    HW113526   2.579   0.782   5.082
 4209SOL    HW213527   2.729   0.820   5.031
 4210SOL     OW13528   5.045   2.442   0.012
 4210SOL    HW113529   5.001   2.477   0.094
 4210SOL    HW213530   5.139   2.476   0.007
 4211SOL     OW13531   5.096   3.502   3.949
 4211SOL    HW113532   5.015   3.448   3.973
 4211SOL    HW213533   5.152   3.515   4.031
 4212SOL     OW13534   6.277   6.685   2.808
 4212SOL    HW113535   6.278   6.738   2.893
 4212SOL    HW213536   6.356   6.709   2.752
 4213SOL     OW13537   1.071   6.847   1.670
 4213SOL    HW113538   1.069   6.943   1.642
 4213SOL    HW213539   1.148   6.801   1.626
 4214SOL     OW13540   2.278   5.014   4.801
 4214SOL    HW113541   2.344   4.950   4.840
 4214SOL    HW213542   2.255   4.985   4.708
 4215SOL     OW13543   0.620   5.348   5.263
 4215SOL    HW113544   0.574   5.319   5.346
 4215SOL    HW213545   0.715   5.372   5.283
 4216SOL     OW13546   2.770   3.111   5.534
 4216SOL    HW113547   2.739   3.039   5.471
 4216SOL    HW213548   2.837   3.072   5.598
 4217SOL     OW13549   6.919   0.978   2.840
 4217SOL    HW113550   6.863   0.908   2.795
 4217SOL    HW213551   6.979   0.935   2.907
 4218SOL     OW13552   3.040   6.438   2.225
 4218SOL    HW113553   3.027   6.520   2.280
 4218SOL    HW213554   3.108   6.379   2.268
 4219SOL     OW13555   5.042   0.074   3.085
 4219SOL    HW113556   4.955   0.034   3.113
 4219SOL    HW213557   5.044   0.171   3.107
 4220SOL     OW13558   0.809   4.047   3.468
 4220SOL    HW113559   0.854   4.136   3.463
 4220SOL    HW213560   0.866   3.983   3.519
 4221SOL     OW13561   5.556   5.985   5.898
 4221SOL    HW113562   5.613   5.973   5.817
 4221SOL    HW213563   5.465   6.014   5.870
 4222SOL     OW13564   3.119   2.904   6.970
 4222SOL    HW113565   3.069   2.990   6.984
 4222SOL    HW213566   3.174   2.883   0.033
 4223SOL     OW13567   2.866   3.519   2.443
 4223SOL    HW113568   2.857   3.603   2.496
 4223SOL    HW213569   2.868   3.541   2.345
 4224SOL     OW13570   4.033   2.095   5.892
 4224SOL    HW113571   3.987   2.089   5.803
 4224SOL    HW213572   3.967   2.122   5.962
 4225SOL     OW13573   5.168   0.342   4.588
 4225SOL    HW113574   5.244   0.316   4.529
 4225SOL    HW213575   5.102   0.267   4.592
 4226SOL     OW13576   1.889   1.205   3.174
 4226SOL    HW113577   1.944   1.251   3.243
 4226SOL    HW213578   1.822   1.269   3.136
 4227SOL     OW13579   5.802   3.875   6.840
 4227SOL    HW113580   5.794   3.861   6.741
 4227SOL    HW213581   5.873   3.814   6.876
 4228SOL     OW13582   5.525   5.465   3.054
 4228SOL    HW113583   5.494   5.439   2.962
 4228SOL    HW213584   5.558   5.559   3.052
 4229SOL     OW13585   4.478   4.797   5.335
 4229SOL    HW113586   4.401   4.861   5.335
 4229SOL    HW213587   4.489   4.758   5.426
 4230SOL     OW13588   3.145   0.421   4.818
 4230SOL    HW113589   3.116   0.513   4.843
 4230SOL    HW213590   3.166   0.369   4.901
 4231SOL     OW13591   3.776   6.303   5.478
 4231SOL    HW113592   3.736   6.393   5.496
 4231SOL    HW213593   3.751   6.240   5.551
 4232SOL     OW13594   2.330   4.385   1.447
 4232SOL    HW113595   2.365   4.478   1.446
 4232SOL    HW213596   2.395   4.323   1.402
 4233SOL     OW13597   5.605   6.759   1.119
 4233SOL    HW113598   5.667   6.819   1.168
 4233SOL    HW213599   5.648   6.669   1.106
 4234SOL     OW13600   3.148   3.748   5.449
 4234SOL    HW113601   3.095   3.812   5.394
 4234SOL    HW213602   3.161   3.663   5.398
 4235SOL     OW13603   0.432   3.678   5.243
 4235SOL    HW113604   0.333   3.668   5.254
 4235SOL    HW213605   0.466   3.743   5.311
 4236SOL     OW13606   0.909   3.933   4.781
 4236SOL    HW113607   0.931   3.861   4.847
 4236SOL    HW213608   0.810   3.944   4.774
 4237SOL     OW13609   5.323   4.588   5.367
 4237SOL    HW113610   5.413   4.607   5.326
 4237SOL    HW213611   5.329   4.504   5.421
 4238SOL     OW13612   4.620   4.426   4.638
 4238SOL    HW113613   4.631   4.406   4.541
 4238SOL    HW213614   4.677   4.364   4.692
 4239SOL     OW13615   5.570   5.698   5.949
 4239SOL    HW113616   5.503   5.625   5.933
 4239SOL    HW213617   5.529   5.786   5.927
 4240SOL     OW13618   2.517   4.924   6.152
 4240SOL    HW113619   2.479   4.951   6.064
 4240SOL    HW213620   2.492   4.990   6.222
 4241SOL     OW13621   4.160   1.445   0.120
 4241SOL    HW113622   4.136   1.507   0.195
 4241SOL    HW213623   4.255   1.417   0.129
 4242SOL     OW13624   1.465   0.484   2.430
 4242SOL    HW113625   1.402   0.444   2.496
 4242SOL    HW213626   1.437   0.577   2.409
 4243SOL     OW13627   1.370   2.619   2.827
 4243SOL    HW113628   1.345   2.716   2.826
 4243SOL    HW213629   1.468   2.609   2.809
 4244SOL     OW13630   3.082   0.137   0.764
 4244SOL    HW113631   3.057   0.229   0.793
 4244SOL    HW213632   3.029   0.112   0.682
 4245SOL     OW13633   6.672   2.187   1.025
 4245SOL    HW113634   6.705   2.256   1.089
 4245SOL    HW213635   6.749   2.137   0.986
 4246SOL     OW13636   4.788   2.921   3.855
 4246SOL    HW113637   4.722   2.933   3.781
 4246SOL    HW213638   4.770   2.836   3.903
 4247SOL     OW13639   1.773   4.437   6.902
 4247SOL    HW113640   1.789   4.430   6.803
 4247SOL    HW213641   1.808   4.355   6.947
 4248SOL     OW13642   2.216   0.743   3.292
 4248SOL    HW113643   2.256   0.798   3.365
 4248SOL    HW213644   2.126   0.780   3.267
 4249SOL     OW13645   5.870   0.460   6.007
 4249SOL    HW113646   5.862   0.453   6.107
 4249SOL    HW213647   5.883   0.556   5.982
 4250SOL     OW13648   6.897   6.076   4.964
 4250SOL    HW113649   6.830   6.046   5.031
 4250SOL    HW213650   6.893   6.017   4.883
 4251SOL     OW13651   4.721   2.273   5.533
 4251SOL    HW113652   4.678   2.205   5.592
 4251SOL    HW213653   4.798   2.315   5.582
 4252SOL     OW13654   0.063   0.071   6.828
 4252SOL    HW113655   7.014   0.098   6.759
 4252SOL    HW213656   0.087   6.992   6.815
 4253SOL     OW13657   4.427   6.334   2.809
 4253SOL    HW113658   4.489   6.257   2.825
 4253SOL    HW213659   4.461   6.415   2.856
 4254SOL     OW13660   1.515   2.142   6.082
 4254SOL    HW113661   1.427   2.183   6.107
 4254SOL    HW213662   1.521   2.136   5.982
 4255SOL     OW13663   0.991   2.579   3.058
 4255SOL    HW113664   1.071   2.536   3.016
 4255SOL    HW213665   0.911   2.520   3.046
 4256SOL     OW13666   6.540   5.878   0.763
 4256SOL    HW113667   6.526   5.816   0.685
 4256SOL    HW213668   6.467   5.947   0.763
 4257SOL     OW13669   6.194   0.834   3.504
 4257SOL    HW113670   6.166   0.812   3.598
 4257SOL    HW213671   6.210   0.749   3.454
 4258SOL     OW13672   2.697   5.737   0.921
 4258SOL    HW113673   2.663   5.668   0.985
 4258SOL    HW213674   2.797   5.743   0.929
 4259SOL     OW13675   1.316   0.159   0.551
 4259SOL    HW113676   1.407   0.195   0.570
 4259SOL    HW213677   1.299   0.159   0.453
 4260SOL     OW13678   6.036   0.441   4.848
 4260SOL    HW113679   6.004   0.525   4.890
 4260SOL    HW213680   6.086   0.386   4.915
 4261SOL     OW13681   2.177   6.169   4.479
 4261SOL    HW113682   2.219   6.208   4.397
 4261SOL    HW213683   2.080   6.193   4.481
 4262SOL     OW13684   1.747   4.973   5.259
 4262SOL    HW113685   1.799   4.924   5.329
 4262SOL    HW213686   1.805   4.991   5.180
 4263SOL     OW13687   2.656   1.690   3.322
 4263SOL    HW113688   2.573   1.720   3.274
 4263SOL    HW213689   2.736   1.733   3.280
 4264SOL     OW13690   4.531   2.109   5.880
 4264SOL    HW113691   4.543   2.032   5.943
 4264SOL    HW213692   4.442   2.151   5.895
 4265SOL     OW13693   2.630   6.488   6.234
 4265SOL    HW113694   2.562   6.421   6.204
 4265SOL    HW213695   2.653   6.548   6.157
 4266SOL     OW13696   1.204   5.193   1.870
 4266SOL    HW113697   1.303   5.188   1.886
 4266SOL    HW213698   1.187   5.236   1.781
 4267SOL     OW13699   1.064   3.587   4.418
 4267SOL    HW113700   1.099   3.643   4.493
 4267SOL    HW213701   1.081   3.632   4.331
 4268SOL     OW13702   1.190   4.660   5.946
 4268SOL    HW113703   1.128   4.728   5.908
 4268SOL    HW213704   1.282   4.675   5.909
 4269SOL     OW13705   3.163   1.472   4.342
 4269SOL    HW113706   3.175   1.568   4.366
 4269SOL    HW213707   3.082   1.436   4.388
 4270SOL     OW13708   4.179   4.107   0.348
 4270SOL    HW113709   4.110   4.179   0.334
 4270SOL    HW213710   4.158   4.030   0.289
 4271SOL     OW13711   0.039   0.267   1.105
 4271SOL    HW113712   6.964   0.303   1.091
 4271SOL    HW213713   0.101   0.310   1.039
 4272SOL     OW13714   6.917   1.626   5.804
 4272SOL    HW113715   6.883   1.615   5.711
 4272SOL    HW213716   6.947   1.538   5.840
 4273SOL     OW13717   2.805   5.898   3.888
 4273SOL    HW113718   2.711   5.886   3.856
 4273SOL    HW213719   2.820   5.995   3.910
 4274SOL     OW13720   0.892   1.206   1.736
 4274SOL    HW113721   0.795   1.188   1.724
 4274SOL    HW213722   0.924   1.266   1.662
 4275SOL     OW13723   6.909   2.502   3.917
 4275SOL    HW113724   6.916   2.479   4.014
 4275SOL    HW213725   6.824   2.551   3.900
 4276SOL     OW13726   1.231   6.485   2.726
 4276SOL    HW113727   1.250   6.581   2.744
 4276SOL    HW213728   1.300   6.429   2.771
 4277SOL     OW13729   6.643   5.378   3.047
 4277SOL    HW113730   6.617   5.350   2.955
 4277SOL    HW213731   6.721   5.325   3.078
 4278SOL     OW13732   1.043   6.676   1.185
 4278SOL    HW113733   0.952   6.714   1.198
 4278SOL    HW213734   1.061   6.608   1.256
 4279SOL     OW13735   0.903   2.327   3.272
 4279SOL    HW113736   0.855   2.248   3.232
 4279SOL    HW213737   0.840   2.404   3.278
 4280SOL     OW13738   1.999   5.998   6.270
 4280SOL    HW113739   2.023   5.914   6.319
 4280SOL    HW213740   1.903   5.994   6.243
 4281SOL     OW13741   6.147   6.084   3.335
 4281SOL    HW113742   6.193   6.139   3.266
 4281SOL    HW213743   6.121   6.142   3.412
 4282SOL     OW13744   5.383   5.554   2.080
 4282SOL    HW113745   5.307   5.582   2.139
 4282SOL    HW213746   5.457   5.517   2.136
 4283SOL     OW13747   5.843   0.894   4.871
 4283SOL    HW113748   5.923   0.926   4.821
 4283SOL    HW213749   5.803   0.970   4.922
 4284SOL     OW13750   4.806   6.036   6.933
 4284SOL    HW113751   4.753   5.955   6.957
 4284SOL    HW213752   4.804   6.049   6.834
 4285SOL     OW13753   3.134   1.598   6.258
 4285SOL    HW113754   3.182   1.520   6.217
 4285SOL    HW213755   3.201   1.668   6.284
 4286SOL     OW13756   5.062   0.081   6.957
 4286SOL    HW113757   5.079   7.005   6.984
 4286SOL    HW213758   5.121   0.142   7.010
 4287SOL     OW13759   3.159   0.941   1.417
 4287SOL    HW113760   3.137   0.858   1.469
 4287SOL    HW213761   3.126   1.021   1.467
 4288SOL     OW13762   6.937   5.902   2.060
 4288SOL    HW113763   6.933   5.912   2.159
 4288SOL    HW213764   0.014   5.889   2.031
 4289SOL     OW13765   6.906   4.498   5.274
 4289SOL    HW113766   6.912   4.400   5.254
 4289SOL    HW213767   6.814   4.520   5.304
 4290SOL     OW13768   6.837   1.882   3.208
 4290SOL    HW113769   6.741   1.877   3.178
 4290SOL    HW213770   6.883   1.797   3.187
 4291SOL     OW13771   4.525   4.670   6.704
 4291SOL    HW113772   4.546   4.725   6.622
 4291SOL    HW213773   4.569   4.581   6.697
 4292SOL     OW13774   6.454   1.012   1.600
 4292SOL    HW113775   6.440   1.054   1.689
 4292SOL    HW213776   6.493   0.920   1.613
 4293SOL     OW13777   3.704   3.135   0.110
 4293SOL    HW113778   3.788   3.131   0.056
 4293SOL    HW213779   3.669   3.229   0.111
 4294SOL     OW13780   2.863   1.718   6.556
 4294SOL    HW113781   2.948   1.719   6.609
 4294SOL    HW213782   2.877   1.767   6.470
 4295SOL     OW13783   4.797   6.435   3.085
 4295SOL    HW113784   4.820   6.486   3.168
 4295SOL    HW213785   4.776   6.340   3.109
 4296SOL     OW13786   2.067   6.442   2.016
 4296SOL    HW113787   2.165   6.442   1.996
 4296SOL    HW213788   2.032   6.535   2.007
 4297SOL     OW13789   5.097   5.424   0.143
 4297SOL    HW113790   5.132   5.348   0.198
 4297SOL    HW213791   5.009   5.398   0.103
 4298SOL     OW13792   1.561   0.217   0.740
 4298SOL    HW113793   1.484   0.157   0.758
 4298SOL    HW213794   1.647   0.169   0.760
 4299SOL     OW13795   0.802   3.187   6.407
 4299SOL    HW113796   0.811   3.286   6.416
 4299SOL    HW213797   0.725   3.166   6.346
 4300SOL     OW13798   3.126   0.796   2.273
 4300SOL    HW113799   3.108   0.698   2.276
 4300SOL    HW213800   3.060   0.840   2.213
 4301SOL     OW13801   2.388   6.064   5.863
 4301SOL    HW113802   2.405   5.980   5.915
 4301SOL    HW213803   2.395   6.044   5.765
 4302SOL     OW13804   3.533   5.052   6.098
 4302SOL    HW113805   3.556   5.104   6.181
 4302SOL    HW213806   3.516   4.957   6.123
 4303SOL     OW13807   4.063   5.612   3.557
 4303SOL    HW113808   3.971   5.644   3.536
 4303SOL    HW213809   4.103   5.669   3.629
 4304SOL     OW13810   3.043   3.982   1.798
 4304SOL    HW113811   3.049   4.078   1.769
 4304SOL    HW213812   3.042   3.977   1.898
 4305SOL     OW13813   0.601   6.056   6.080
 4305SOL    HW113814   0.588   5.962   6.112
 4305SOL    HW213815   0.699   6.074   6.070
 4306SOL     OW13816   5.880   3.159   4.825
 4306SOL    HW113817   5.816   3.209   4.883
 4306SOL    HW213818   5.953   3.221   4.796
 4307SOL     OW13819   6.681   1.170   5.365
 4307SOL    HW113820   6.655   1.178   5.462
 4307SOL    HW213821   6.745   1.242   5.342
 4308SOL     OW13822   4.090   5.748   6.234
 4308SOL    HW113823   4.141   5.793   6.307
 4308SOL    HW213824   4.150   5.683   6.187
 4309SOL     OW13825   2.040   1.441   0.746
 4309SOL    HW113826   2.114   1.457   0.680
 4309SOL    HW213827   1.955   1.480   0.711
 4310SOL     OW13828   5.984   2.191   3.118
 4310SOL    HW113829   5.982   2.220   3.022
 4310SOL    HW213830   5.993   2.092   3.123
 4311SOL     OW13831   0.747   6.993   1.686
 4311SOL    HW113832   0.817   0.041   1.717
 4311SOL    HW213833   0.764   6.905   1.729
 4312SOL     OW13834   0.027   3.866   2.067
 4312SOL    HW113835   6.984   3.938   2.034
 4312SOL    HW213836   0.075   3.825   1.990
 4313SOL     OW13837   1.337   3.988   6.985
 4313SOL    HW113838   1.344   3.942   6.897
 4313SOL    HW213839   1.314   3.920   0.038
 4314SOL     OW13840   1.463   1.127   5.400
 4314SOL    HW113841   1.520   1.109   5.320
 4314SOL    HW213842   1.496   1.073   5.477
 4315SOL     OW13843   2.473   2.242   5.658
 4315SOL    HW113844   2.558   2.286   5.689
 4315SOL    HW213845   2.477   2.144   5.678
 4316SOL     OW13846   4.460   5.627   2.010
 4316SOL    HW113847   4.505   5.699   2.063
 4316SOL    HW213848   4.462   5.541   2.060
 4317SOL     OW13849   5.331   0.451   5.135
 4317SOL    HW113850   5.318   0.381   5.065
 4317SOL    HW213851   5.260   0.520   5.128
 4318SOL     OW13852   1.428   6.358   4.323
 4318SOL    HW113853   1.428   6.313   4.412
 4318SOL    HW213854   1.502   6.321   4.267
 4319SOL     OW13855   1.280   4.410   2.563
 4319SOL    HW113856   1.251   4.425   2.468
 4319SOL    HW213857   1.321   4.319   2.571
 4320SOL     OW13858   3.413   0.294   0.782
 4320SOL    HW113859   3.404   0.303   0.882
 4320SOL    HW213860   3.322   0.285   0.742
 4321SOL     OW13861   6.705   6.414   3.100
 4321SOL    HW113862   6.763   6.493   3.081
 4321SOL    HW213863   6.752   6.352   3.163
 4322SOL     OW13864   2.143   2.140   4.286
 4322SOL    HW113865   2.096   2.143   4.198
 4322SOL    HW213866   2.213   2.069   4.285
 4323SOL     OW13867   4.589   4.802   0.372
 4323SOL    HW113868   4.636   4.723   0.412
 4323SOL    HW213869   4.495   4.805   0.406
 4324SOL     OW13870   0.354   4.631   5.764
 4324SOL    HW113871   0.314   4.564   5.826
 4324SOL    HW213872   0.454   4.621   5.763
 4325SOL     OW13873   1.684   6.953   1.644
 4325SOL    HW113874   1.696   6.943   1.743
 4325SOL    HW213875   1.768   6.928   1.597
 4326SOL     OW13876   4.769   2.554   2.529
 4326SOL    HW113877   4.854   2.523   2.570
 4326SOL    HW213878   4.698   2.485   2.543
 4327SOL     OW13879   2.504   5.870   3.739
 4327SOL    HW113880   2.492   5.969   3.744
 4327SOL    HW213881   2.419   5.827   3.709
 4328SOL     OW13882   5.842   0.242   3.363
 4328SOL    HW113883   5.760   0.194   3.333
 4328SOL    HW213884   5.914   0.230   3.294
 4329SOL     OW13885   6.182   3.850   6.796
 4329SOL    HW113886   6.255   3.808   6.848
 4329SOL    HW213887   6.180   3.948   6.815
 4330SOL     OW13888   2.534   4.617   4.424
 4330SOL    HW113889   2.514   4.634   4.521
 4330SOL    HW213890   2.462   4.558   4.386
 4331SOL     OW13891   5.932   1.981   2.525
 4331SOL    HW113892   5.931   1.975   2.426
 4331SOL    HW213893   5.842   1.956   2.561
 4332SOL     OW13894   6.952   5.787   1.418
 4332SOL    HW113895   6.866   5.838   1.420
 4332SOL    HW213896   6.970   5.755   1.325
 4333SOL     OW13897   3.592   3.043   6.202
 4333SOL    HW113898   3.653   3.064   6.126
 4333SOL    HW213899   3.611   2.951   6.235
 4334SOL     OW13900   6.963   2.929   3.743
 4334SOL    HW113901   0.023   2.880   3.703
 4334SOL    HW213902   6.970   2.928   3.842
 4335SOL     OW13903   2.253   4.377   1.750
 4335SOL    HW113904   2.282   4.387   1.654
 4335SOL    HW213905   2.238   4.281   1.771
 4336SOL     OW13906   2.670   5.591   5.428
 4336SOL    HW113907   2.719   5.517   5.475
 4336SOL    HW213908   2.639   5.558   5.339
 4337SOL     OW13909   6.884   4.409   3.447
 4337SOL    HW113910   6.820   4.474   3.488
 4337SOL    HW213911   6.924   4.450   3.364
 4338SOL     OW13912   3.113   2.310   6.492
 4338SOL    HW113913   3.127   2.394   6.440
 4338SOL    HW213914   3.034   2.321   6.553
 4339SOL     OW13915   4.144   4.989   5.055
 4339SOL    HW113916   4.226   4.931   5.050
 4339SOL    HW213917   4.066   4.934   5.082
 4340SOL     OW13918   0.315   4.242   1.104
 4340SOL    HW113919   0.282   4.333   1.080
 4340SOL    HW213920   0.253   4.173   1.068
 4341SOL     OW13921   6.103   5.786   1.444
 4341SOL    HW113922   6.131   5.829   1.357
 4341SOL    HW213923   6.184   5.749   1.490
 4342SOL     OW13924   5.396   3.032   2.700
 4342SOL    HW113925   5.458   3.054   2.625
 4342SOL    HW213926   5.398   2.933   2.717
 4343SOL     OW13927   3.656   0.498   6.395
 4343SOL    HW113928   3.728   0.429   6.389
 4343SOL    HW213929   3.684   0.580   6.344
 4344SOL     OW13930   0.726   4.136   2.932
 4344SOL    HW113931   0.662   4.069   2.968
 4344SOL    HW213932   0.819   4.111   2.957
 4345SOL     OW13933   3.886   3.908   2.765
 4345SOL    HW113934   3.875   3.859   2.679
 4345SOL    HW213935   3.966   3.873   2.814
 4346SOL     OW13936   0.853   2.923   2.833
 4346SOL    HW113937   0.911   2.955   2.758
 4346SOL    HW213938   0.779   2.988   2.848
 4347SOL     OW13939   6.445   5.045   0.557
 4347SOL    HW113940   6.350   5.056   0.527
 4347SOL    HW213941   6.448   4.992   0.641
 4348SOL     OW13942   5.890   4.868   5.512
 4348SOL    HW113943   5.791   4.866   5.521
 4348SOL    HW213944   5.932   4.860   5.603
 4349SOL     OW13945   0.976   3.595   3.950
 4349SOL    HW113946   0.948   3.560   3.860
 4349SOL    HW213947   0.965   3.523   4.018
 4350SOL     OW13948   4.212   1.029   4.041
 4350SOL    HW113949   4.164   0.942   4.057
 4350SOL    HW213950   4.146   1.098   4.012
 4351SOL     OW13951   0.081   5.736   1.152
 4351SOL    HW113952   0.165   5.789   1.163
 4351SOL    HW213953   0.048   5.746   1.058
 4352SOL     OW13954   3.722   4.933   1.937
 4352SOL    HW113955   3.646   4.871   1.960
 4352SOL    HW213956   3.726   4.946   1.838
 4353SOL     OW13957   2.956   3.644   0.782
 4353SOL    HW113958   3.048   3.618   0.753
 4353SOL    HW213959   2.909   3.692   0.707
 4354SOL     OW13960   5.782   5.964   2.196
 4354SOL    HW113961   5.798   5.895   2.266
 4354SOL    HW213962   5.799   5.924   2.106
 4355SOL     OW13963   2.056   4.871   2.979
 4355SOL    HW113964   2.091   4.895   3.070
 4355SOL    HW213965   2.095   4.933   2.911
 4356SOL     OW13966   6.092   2.837   5.408
 4356SOL    HW113967   6.058   2.918   5.455
 4356SOL    HW213968   6.063   2.839   5.313
 4357SOL     OW13969   5.411   6.741   1.891
 4357SOL    HW113970   5.347   6.726   1.967
 4357SOL    HW213971   5.505   6.733   1.924
 4358SOL     OW13972   2.821   1.147   0.260
 4358SOL    HW113973   2.877   1.067   0.281
 4358SOL    HW213974   2.879   1.226   0.244
 4359SOL     OW13975   2.356   2.036   1.178
 4359SOL    HW113976   2.357   2.106   1.106
 4359SOL    HW213977   2.424   2.059   1.248
 4360SOL     OW13978   2.222   5.494   4.379
 4360SOL    HW113979   2.194   5.398   4.382
 4360SOL    HW213980   2.321   5.500   4.368
 4361SOL     OW13981   0.881   2.043   0.135
 4361SOL    HW113982   0.877   2.140   0.160
 4361SOL    HW213983   0.837   2.029   0.046
 4362SOL     OW13984   1.128   5.028   3.217
 4362SOL    HW113985   1.111   4.993   3.310
 4362SOL    HW213986   1.104   4.958   3.150
 4363SOL     OW13987   3.789   0.742   1.903
 4363SOL    HW113988   3.875   0.735   1.853
 4363SOL    HW213989   3.801   0.804   1.981
 4364SOL     OW13990   2.928   3.749   2.675
 4364SOL    HW113991   3.001   3.710   2.620
 4364SOL    HW213992   2.913   3.844   2.648
 4365SOL     OW13993   2.177   0.953   1.079
 4365SOL    HW113994   2.112   1.011   1.031
 4365SOL    HW213995   2.131   0.906   1.155
 4366SOL     OW13996   5.142   6.389   4.428
 4366SOL    HW113997   5.218   6.445   4.394
 4366SOL    HW213998   5.083   6.445   4.486
 4367SOL     OW13999   2.219   6.147   2.245
 4367SOL    HW114000   2.189   6.059   2.283
 4367SOL    HW214001   2.142   6.210   2.241
 4368SOL     OW14002   4.907   3.876   4.196
 4368SOL    HW114003   4.980   3.944   4.185
 4368SOL    HW214004   4.912   3.836   4.287
 4369SOL     OW14005   5.541   3.911   3.701
 4369SOL    HW114006   5.467   3.844   3.704
 4369SOL    HW214007   5.524   3.983   3.770
 4370SOL     OW14008   4.174   5.049   0.775
 4370SOL    HW114009   4.222   5.108   0.841
 4370SOL    HW214010   4.126   4.977   0.823
 4371SOL     OW14011   3.365   1.065   2.798
 4371SOL    HW114012   3.291   1.056   2.732
 4371SOL    HW214013   3.386   0.975   2.838
 4372SOL     OW14014   1.922   4.385   4.440
 4372SOL    HW114015   1.860   4.308   4.424
 4372SOL    HW214016   1.902   4.427   4.529
 4373SOL     OW14017   4.691   0.785   0.170
 4373SOL    HW114018   4.705   0.731   0.253
 4373SOL    HW214019   4.626   0.737   0.111
 4374SOL     OW14020   2.636   6.817   0.372
 4374SOL    HW114021   2.547   6.805   0.329
 4374SOL    HW214022   2.707   6.778   0.314
 4375SOL     OW14023   3.952   1.393   5.890
 4375SOL    HW114024   4.024   1.462   5.883
 4375SOL    HW214025   3.992   1.307   5.921
 4376SOL     OW14026   2.096   5.390   0.185
 4376SOL    HW114027   2.112   5.292   0.191
 4376SOL    HW214028   2.183   5.438   0.193
 4377SOL     OW14029   5.359   6.013   0.077
 4377SOL    HW114030   5.286   5.963   0.030
 4377SOL    HW214031   5.337   6.111   0.079
 4378SOL     OW14032   2.791   4.703   2.701
 4378SOL    HW114033   2.735   4.712   2.784
 4378SOL    HW214034   2.887   4.694   2.727
 4379SOL     OW14035   0.516   6.664   1.577
 4379SOL    HW114036   0.481   6.590   1.519
 4379SOL    HW214037   0.561   6.625   1.657
 4380SOL     OW14038   1.838   5.337   4.300
 4380SOL    HW114039   1.805   5.272   4.232
 4380SOL    HW214040   1.859   5.424   4.256
 4381SOL     OW14041   4.677   5.769   4.959
 4381SOL    HW114042   4.762   5.724   4.985
 4381SOL    HW214043   4.600   5.714   4.991
 4382SOL     OW14044   5.407   3.829   3.139
 4382SOL    HW114045   5.444   3.917   3.169
 4382SOL    HW214046   5.406   3.826   3.039
 4383SOL     OW14047   1.210   1.681   0.334
 4383SOL    HW114048   1.232   1.778   0.322
 4383SOL    HW214049   1.289   1.626   0.305
 4384SOL     OW14050   4.143   6.543   1.297
 4384SOL    HW114051   4.144   6.606   1.219
 4384SOL    HW214052   4.063   6.484   1.290
 4385SOL     OW14053   6.082   2.704   2.478
 4385SOL    HW114054   6.152   2.665   2.537
 4385SOL    HW214055   6.125   2.750   2.400
 4386SOL     OW14056   1.736   4.110   6.877
 4386SOL    HW114057   1.739   4.013   6.898
 4386SOL    HW214058   1.798   4.160   6.937
 4387SOL     OW14059   6.716   2.694   1.683
 4387SOL    HW114060   6.620   2.674   1.702
 4387SOL    HW214061   6.725   2.732   1.591
 4388SOL     OW14062   3.411   2.000   5.673
 4388SOL    HW114063   3.503   1.964   5.690
 4388SOL    HW214064   3.343   1.936   5.708
 4389SOL     OW14065   5.863   2.255   2.547
 4389SOL    HW114066   5.822   2.315   2.478
 4389SOL    HW214067   5.871   2.162   2.510
 4390SOL     OW14068   4.194   2.512   1.510
 4390SOL    HW114069   4.140   2.570   1.450
 4390SOL    HW214070   4.257   2.568   1.564
 4391SOL     OW14071   0.216   6.671   0.690
 4391SOL    HW114072   0.277   6.592   0.695
 4391SOL    HW214073   0.264   6.748   0.648
 4392SOL     OW14074   5.468   4.205   4.905
 4392SOL    HW114075   5.415   4.236   4.826
 4392SOL    HW214076   5.420   4.130   4.950
 4393SOL     OW14077   5.542   6.211   3.459
 4393SOL    HW114078   5.487   6.289   3.429
 4393SOL    HW214079   5.503   6.174   3.543
 4394SOL     OW14080   4.465   1.082   2.603
 4394SOL    HW114081   4.442   1.090   2.506
 4394SOL    HW214082   4.401   1.019   2.647
 4395SOL     OW14083   5.234   1.754   1.343
 4395SOL    HW114084   5.148   1.806   1.339
 4395SOL    HW214085   5.224   1.671   1.287
 4396SOL     OW14086   1.539   1.312   3.706
 4396SOL    HW114087   1.557   1.295   3.610
 4396SOL    HW214088   1.621   1.291   3.760
 4397SOL     OW14089   5.561   0.268   6.315
 4397SOL    HW114090   5.540   0.229   6.405
 4397SOL    HW214091   5.579   0.366   6.324
 4398SOL     OW14092   0.196   5.520   4.203
 4398SOL    HW114093   0.243   5.565   4.279
 4398SOL    HW214094   0.118   5.575   4.174
 4399SOL     OW14095   2.986   1.177   2.246
 4399SOL    HW114096   3.040   1.257   2.217
 4399SOL    HW214097   2.906   1.208   2.297
 4400SOL     OW14098   3.847   6.019   3.520
 4400SOL    HW114099   3.758   6.053   3.550
 4400SOL    HW214100   3.849   6.014   3.420
 4401SOL     OW14101   5.861   6.030   4.985
 4401SOL    HW114102   5.763   6.040   5.002
 4401SOL    HW214103   5.879   6.043   4.887
 4402SOL     OW14104   6.744   6.740   2.793
 4402SOL    HW114105   6.769   6.794   2.712
 4402SOL    HW214106   6.661   6.688   2.775
 4403SOL     OW14107   0.126   0.745   2.769
 4403SOL    HW114108   0.169   0.799   2.697
 4403SOL    HW214109   0.125   0.798   2.854
 4404SOL     OW14110   2.158   4.606   3.017
 4404SOL    HW114111   2.097   4.685   3.012
 4404SOL    HW214112   2.208   4.598   2.931
 4405SOL     OW14113   2.538   3.807   5.889
 4405SOL    HW114114   2.534   3.857   5.803
 4405SOL    HW214115   2.633   3.792   5.915
 4406SOL     OW14116   5.807   3.449   1.775
 4406SOL    HW114117   5.864   3.531   1.779
 4406SOL    HW214118   5.760   3.436   1.862
 4407SOL     OW14119   6.958   0.583   0.104
 4407SOL    HW114120   6.863   0.616   0.106
 4407SOL    HW214121   7.017   0.646   0.154
 4408SOL     OW14122   4.259   6.236   0.731
 4408SOL    HW114123   4.182   6.300   0.735
 4408SOL    HW214124   4.341   6.281   0.768
 4409SOL     OW14125   2.830   1.499   3.033
 4409SOL    HW114126   2.898   1.534   3.097
 4409SOL    HW214127   2.783   1.576   2.989
 4410SOL     OW14128   2.039   5.689   1.544
 4410SOL    HW114129   1.989   5.764   1.586
 4410SOL    HW214130   2.100   5.725   1.473
 4411SOL     OW14131   3.838   3.750   2.539
 4411SOL    HW114132   3.840   3.656   2.571
 4411SOL    HW214133   3.913   3.765   2.474
 4412SOL     OW14134   3.228   1.787   5.733
 4412SOL    HW114135   3.277   1.751   5.812
 4412SOL    HW214136   3.156   1.722   5.707
 4413SOL     OW14137   4.816   5.253   3.736
 4413SOL    HW114138   4.868   5.264   3.651
 4413SOL    HW214139   4.830   5.161   3.773
 4414SOL     OW14140   3.388   5.566   1.693
 4414SOL    HW114141   3.391   5.611   1.603
 4414SOL    HW214142   3.440   5.480   1.689
 4415SOL     OW14143   4.485   1.632   1.044
 4415SOL    HW114144   4.428   1.706   1.009
 4415SOL    HW214145   4.445   1.596   1.128
 4416SOL     OW14146   2.796   1.941   4.852
 4416SOL    HW114147   2.816   2.027   4.899
 4416SOL    HW214148   2.856   1.932   4.772
 4417SOL     OW14149   6.489   0.468   1.136
 4417SOL    HW114150   6.577   0.421   1.146
 4417SOL    HW214151   6.493   0.557   1.181
 4418SOL     OW14152   4.919   1.057   4.022
 4418SOL    HW114153   4.957   1.063   4.114
 4418SOL    HW214154   4.909   0.960   3.997
 4419SOL     OW14155   6.848   5.531   6.824
 4419SOL    HW114156   6.822   5.622   6.792
 4419SOL    HW214157   6.769   5.470   6.817
 4420SOL     OW14158   4.428   0.738   6.771
 4420SOL    HW114159   4.435   0.833   6.800
 4420SOL    HW214160   4.468   0.728   6.680
 4421SOL     OW14161   0.583   1.696   3.501
 4421SOL    HW114162   0.601   1.600   3.482
 4421SOL    HW214163   0.631   1.724   3.583
 4422SOL     OW14164   1.967   4.603   5.945
 4422SOL    HW114165   2.015   4.624   6.031
 4422SOL    HW214166   1.876   4.567   5.966
 4423SOL     OW14167   0.309   1.522   6.330
 4423SOL    HW114168   0.349   1.497   6.418
 4423SOL    HW214169   0.213   1.548   6.343
 4424SOL     OW14170   0.497   6.365   3.470
 4424SOL    HW114171   0.503   6.307   3.551
 4424SOL    HW214172   0.461   6.455   3.495
 4425SOL     OW14173   5.453   4.368   0.475
 4425SOL    HW114174   5.512   4.290   0.454
 4425SOL    HW214175   5.469   4.440   0.407
 4426SOL     OW14176   0.372   0.544   5.901
 4426SOL    HW114177   0.376   0.496   5.989
 4426SOL    HW214178   0.454   0.522   5.848
 4427SOL     OW14179   0.596   5.860   3.680
 4427SOL    HW114180   0.530   5.817   3.742
 4427SOL    HW214181   0.685   5.865   3.725
 4428SOL     OW14182   1.929   6.308   3.164
 4428SOL    HW114183   1.877   6.275   3.243
 4428SOL    HW214184   1.970   6.397   3.186
 4429SOL     OW14185   3.592   0.185   3.151
 4429SOL    HW114186   3.557   0.113   3.211
 4429SOL    HW214187   3.575   0.275   3.192
 4430SOL     OW14188   1.065   0.536   1.806
 4430SOL    HW114189   1.078   0.622   1.855
 4430SOL    HW214190   1.154   0.502   1.774
 4431SOL     OW14191   2.640   2.107   3.432
 4431SOL    HW114192   2.645   2.206   3.418
 4431SOL    HW214193   2.642   2.061   3.344
 4432SOL     OW14194   3.262   3.100   3.571
 4432SOL    HW114195   3.235   3.078   3.478
 4432SOL    HW214196   3.254   3.199   3.586
 4433SOL     OW14197   6.095   0.460   3.236
 4433SOL    HW114198   6.147   0.398   3.295
 4433SOL    HW214199   6.141   0.548   3.232
 4434SOL     OW14200   4.702   2.106   4.894
 4434SOL    HW114201   4.616   2.079   4.938
 4434SOL    HW214202   4.774   2.041   4.917
 4435SOL     OW14203   4.035   3.328   2.158
 4435SOL    HW114204   3.946   3.301   2.122
 4435SOL    HW214205   4.105   3.267   2.122
 4436SOL     OW14206   4.955   0.589   0.824
 4436SOL    HW114207   5.041   0.573   0.873
 4436SOL    HW214208   4.971   0.584   0.725
 4437SOL     OW14209   3.118   0.145   4.961
 4437SOL    HW114210   3.099   0.118   5.055
 4437SOL    HW214211   3.040   0.193   4.922
 4438SOL     OW14212   4.071   3.629   6.884
 4438SOL    HW114213   4.117   3.668   6.804
 4438SOL    HW214214   4.128   3.643   6.965
 4439SOL     OW14215   2.443   4.800   2.540
 4439SOL    HW114216   2.513   4.870   2.527
 4439SOL    HW214217   2.414   4.765   2.450
 4440SOL     OW14218   6.338   1.108   0.202
 4440SOL    HW114219   6.355   1.068   0.293
 4440SOL    HW214220   6.399   1.186   0.188
 4441SOL     OW14221   6.004   1.237   3.309
 4441SOL    HW114222   6.059   1.321   3.306
 4441SOL    HW214223   5.913   1.256   3.271
 4442SOL     OW14224   1.621   5.699   1.725
 4442SOL    HW114225   1.676   5.751   1.790
 4442SOL    HW214226   1.677   5.671   1.648
 4443SOL     OW14227   2.958   1.392   6.362
 4443SOL    HW114228   2.897   1.470   6.380
 4443SOL    HW214229   3.053   1.420   6.376
 4444SOL     OW14230   4.868   1.174   2.886
 4444SOL    HW114231   4.910   1.251   2.838
 4444SOL    HW214232   4.811   1.122   2.822
 4445SOL     OW14233   1.137   0.966   6.541
 4445SOL    HW114234   1.071   0.923   6.602
 4445SOL    HW214235   1.163   0.902   6.469
 4446SOL     OW14236   5.191   4.731   3.719
 4446SOL    HW114237   5.291   4.736   3.722
 4446SOL    HW214238   5.157   4.686   3.801
 4447SOL     OW14239   5.234   2.993   4.844
 4447SOL    HW114240   5.189   3.082   4.856
 4447SOL    HW214241   5.282   2.969   4.929
 4448SOL     OW14242   1.978   3.042   6.844
 4448SOL    HW114243   1.912   3.103   6.802
 4448SOL    HW214244   2.055   3.095   6.880
 4449SOL     OW14245   6.983   1.648   5.168
 4449SOL    HW114246   7.015   1.708   5.095
 4449SOL    HW214247   6.939   1.702   5.239
 4450SOL     OW14248   3.284   3.679   2.487
 4450SOL    HW114249   3.305   3.707   2.580
 4450SOL    HW214250   3.299   3.581   2.476
 4451SOL     OW14251   0.148   4.040   0.979
 4451SOL    HW114252   0.165   3.979   1.056
 4451SOL    HW214253   0.116   3.986   0.901
 4452SOL     OW14254   6.460   3.746   6.351
 4452SOL    HW114255   6.558   3.763   6.365
 4452SOL    HW214256   6.438   3.654   6.383
 4453SOL     OW14257   5.129   1.667   0.940
 4453SOL    HW114258   5.131   1.758   0.899
 4453SOL    HW214259   5.199   1.610   0.897
 4454SOL     OW14260   5.119   2.813   1.400
 4454SOL    HW114261   5.047   2.772   1.345
 4454SOL    HW214262   5.154   2.895   1.354
 4455SOL     OW14263   4.209   2.221   1.970
 4455SOL    HW114264   4.178   2.290   1.904
 4455SOL    HW214265   4.133   2.162   1.996
 4456SOL     OW14266   0.787   5.609   2.731
 4456SOL    HW114267   0.848   5.653   2.798
 4456SOL    HW214268   0.842   5.564   2.661
 4457SOL     OW14269   4.737   1.653   6.635
 4457SOL    HW114270   4.806   1.636   6.705
 4457SOL    HW214271   4.752   1.743   6.595
 4458SOL     OW14272   4.238   1.555   0.563
 4458SOL    HW114273   4.198   1.466   0.545
 4458SOL    HW214274   4.197   1.594   0.646
 4459SOL     OW14275   5.258   6.415   5.282
 4459SOL    HW114276   5.327   6.486   5.295
 4459SOL    HW214277   5.302   6.327   5.264
 4460SOL     OW14278   1.151   1.201   6.748
 4460SOL    HW114279   1.052   1.203   6.765
 4460SOL    HW214280   1.172   1.138   6.674
 4461SOL     OW14281   1.913   6.712   2.251
 4461SOL    HW114282   1.936   6.807   2.273
 4461SOL    HW214283   1.997   6.660   2.237
 4462SOL     OW14284   0.045   4.965   0.733
 4462SOL    HW114285   6.996   4.986   0.804
 4462SOL    HW214286   0.067   4.867   0.735
 4463SOL     OW14287   1.381   4.063   6.247
 4463SOL    HW114288   1.379   3.973   6.290
 4463SOL    HW214289   1.396   4.052   6.148
 4464SOL     OW14290   6.141   2.621   0.253
 4464SOL    HW114291   6.218   2.579   0.302
 4464SOL    HW214292   6.082   2.668   0.319
 4465SOL     OW14293   0.879   5.932   0.774
 4465SOL    HW114294   0.803   5.971   0.827
 4465SOL    HW214295   0.953   5.907   0.836
 4466SOL     OW14296   6.999   3.054   3.018
 4466SOL    HW114297   0.068   3.058   3.067
 4466SOL    HW214298   7.012   3.082   2.923
 4467SOL     OW14299   1.542   0.356   3.299
 4467SOL    HW114300   1.536   0.381   3.395
 4467SOL    HW214301   1.638   0.351   3.272
 4468SOL     OW14302   2.141   2.172   0.619
 4468SOL    HW114303   2.083   2.125   0.687
 4468SOL    HW214304   2.172   2.259   0.657
 4469SOL     OW14305   4.812   0.106   0.382
 4469SOL    HW114306   4.815   0.203   0.403
 4469SOL    HW214307   4.817   0.093   0.283
 4470SOL     OW14308   4.179   5.039   1.493
 4470SOL    HW114309   4.199   5.054   1.590
 4470SOL    HW214310   4.192   4.943   1.471
 4471SOL     OW14311   6.354   2.663   0.517
 4471SOL    HW114312   6.375   2.696   0.608
 4471SOL    HW214313   6.431   2.612   0.480
 4472SOL     OW14314   2.150   4.768   1.339
 4472SOL    HW114315   2.103   4.805   1.419
 4472SOL    HW214316   2.082   4.743   1.269
 4473SOL     OW14317   0.297   0.604   6.342
 4473SOL    HW114318   0.286   0.692   6.297
 4473SOL    HW214319   0.217   0.584   6.397
 4474SOL     OW14320   6.003   0.374   4.596
 4474SOL    HW114321   5.906   0.359   4.577
 4474SOL    HW214322   6.017   0.385   4.694
 4475SOL     OW14323   2.000   3.579   0.755
 4475SOL    HW114324   2.024   3.674   0.734
 4475SOL    HW214325   1.951   3.575   0.842
 4476SOL     OW14326   4.998   6.572   2.398
 4476SOL    HW114327   5.048   6.657   2.380
 4476SOL    HW214328   4.988   6.560   2.497
 4477SOL     OW14329   0.815   1.388   0.528
 4477SOL    HW114330   0.815   1.488   0.520
 4477SOL    HW214331   0.762   1.361   0.609
 4478SOL     OW14332   1.758   4.877   2.127
 4478SOL    HW114333   1.850   4.895   2.093
 4478SOL    HW214334   1.718   4.962   2.162
 4479SOL     OW14335   0.625   0.426   5.848
 4479SOL    HW114336   0.638   0.417   5.749
 4479SOL    HW214337   0.714   0.421   5.894
 4480SOL     OW14338   0.306   4.158   3.622
 4480SOL    HW114339   0.394   4.146   3.668
 4480SOL    HW214340   0.253   4.228   3.670
 4481SOL     OW14341   0.750   0.721   3.999
 4481SOL    HW114342   0.848   0.716   3.982
 4481SOL    HW214343   0.726   0.664   4.077
 4482SOL     OW14344   1.257   4.057   3.696
 4482SOL    HW114345   1.261   3.957   3.691
 4482SOL    HW214346   1.177   4.084   3.749
 4483SOL     OW14347   5.513   2.990   0.912
 4483SOL    HW114348   5.594   2.976   0.969
 4483SOL    HW214349   5.519   2.932   0.831
 4484SOL     OW14350   3.821   3.496   6.504
 4484SOL    HW114351   3.839   3.482   6.407
 4484SOL    HW214352   3.870   3.427   6.557
 4485SOL     OW14353   4.796   0.614   6.645
 4485SOL    HW114354   4.825   0.602   6.550
 4485SOL    HW214355   4.775   0.710   6.662
 4486SOL     OW14356   5.946   2.696   3.812
 4486SOL    HW114357   5.985   2.681   3.903
 4486SOL    HW214358   5.874   2.765   3.819
 4487SOL     OW14359   2.962   2.982   5.701
 4487SOL    HW114360   3.002   2.892   5.686
 4487SOL    HW214361   2.985   3.014   5.793
 4488SOL     OW14362   0.021   1.587   6.316
 4488SOL    HW114363   0.003   1.677   6.277
 4488SOL    HW214364   6.988   1.577   6.401
 4489SOL     OW14365   6.868   1.165   3.018
 4489SOL    HW114366   6.900   1.098   2.952
 4489SOL    HW214367   6.946   1.212   3.060
 4490SOL     OW14368   6.711   2.442   3.697
 4490SOL    HW114369   6.744   2.464   3.789
 4490SOL    HW214370   6.730   2.519   3.636
 4491SOL     OW14371   1.550   3.722   3.065
 4491SOL    HW114372   1.609   3.643   3.074
 4491SOL    HW214373   1.470   3.712   3.125
 4492SOL     OW14374   4.910   5.076   6.208
 4492SOL    HW114375   4.994   5.131   6.215
 4492SOL    HW214376   4.854   5.091   6.289
 4493SOL     OW14377   5.784   4.944   3.489
 4493SOL    HW114378   5.817   4.886   3.563
 4493SOL    HW214379   5.851   5.016   3.471
 4494SOL     OW14380   5.673   2.546   3.231
 4494SOL    HW114381   5.583   2.559   3.189
 4494SOL    HW214382   5.663   2.548   3.331
 4495SOL     OW14383   4.551   6.035   1.796
 4495SOL    HW114384   4.544   5.943   1.760
 4495SOL    HW214385   4.643   6.071   1.779
 4496SOL     OW14386   5.309   4.808   5.934
 4496SOL    HW114387   5.379   4.875   5.959
 4496SOL    HW214388   5.347   4.746   5.865
 4497SOL     OW14389   6.063   5.005   1.207
 4497SOL    HW114390   5.965   4.987   1.211
 4497SOL    HW214391   6.080   5.082   1.145
 4498SOL     OW14392   0.788   4.137   6.886
 4498SOL    HW114393   0.699   4.104   6.918
 4498SOL    HW214394   0.847   4.155   6.964
 4499SOL     OW14395   5.450   3.563   6.232
 4499SOL    HW114396   5.414   3.532   6.144
 4499SOL    HW214397   5.545   3.535   6.241
 4500SOL     OW14398   2.950   3.797   3.418
 4500SOL    HW114399   2.995   3.826   3.502
 4500SOL    HW214400   3.006   3.728   3.372
 4501SOL     OW14401   1.522   5.057   4.824
 4501SOL    HW114402   1.453   5.008   4.771
 4501SOL    HW214403   1.509   5.038   4.921
 4502SOL     OW14404   6.210   2.905   6.851
 4502SOL    HW114405   6.140   2.956   6.903
 4502SOL    HW214406   6.168   2.862   6.772
 4503SOL     OW14407   1.658   3.139   2.500
 4503SOL    HW114408   1.572   3.099   2.469
 4503SOL    HW214409   1.655   3.151   2.600
 4504SOL     OW14410   4.455   2.384   4.161
 4504SOL    HW114411   4.420   2.371   4.068
 4504SOL    HW214412   4.390   2.345   4.227
 4505SOL     OW14413   2.030   4.778   6.796
 4505SOL    HW114414   2.052   4.875   6.797
 4505SOL    HW214415   1.966   4.759   6.721
 4506SOL     OW14416   4.273   6.832   4.626
 4506SOL    HW114417   4.267   6.738   4.592
 4506SOL    HW214418   4.187   6.858   4.669
 4507SOL     OW14419   6.323   3.631   1.866
 4507SOL    HW114420   6.266   3.551   1.847
 4507SOL    HW214421   6.266   3.703   1.907
 4508SOL     OW14422   2.025   4.271   6.763
 4508SOL    HW114423   1.997   4.177   6.786
 4508SOL    HW214424   2.097   4.268   6.693
 4509SOL     OW14425   0.378   1.976   3.338
 4509SOL    HW114426   0.446   2.041   3.373
 4509SOL    HW214427   0.345   1.919   3.412
 4510SOL     OW14428   3.635   6.420   5.275
 4510SOL    HW114429   3.544   6.406   5.314
 4510SOL    HW214430   3.703   6.375   5.333
 4511SOL     OW14431   6.369   2.405   6.170
 4511SOL    HW114432   6.463   2.376   6.186
 4511SOL    HW214433   6.317   2.397   6.255
 4512SOL     OW14434   2.650   4.811   6.794
 4512SOL    HW114435   2.662   4.863   6.709
 4512SOL    HW214436   2.693   4.722   6.784
 4513SOL     OW14437   5.911   1.344   2.157
 4513SOL    HW114438   5.816   1.348   2.124
 4513SOL    HW214439   5.914   1.297   2.245
 4514SOL     OW14440   3.403   0.810   5.787
 4514SOL    HW114441   3.447   0.900   5.792
 4514SOL    HW214442   3.305   0.822   5.777
 4515SOL     OW14443   6.663   4.706   1.063
 4515SOL    HW114444   6.661   4.637   1.136
 4515SOL    HW214445   6.725   4.676   0.990
 4516SOL     OW14446   0.700   0.235   4.053
 4516SOL    HW114447   0.697   0.179   4.136
 4516SOL    HW214448   0.742   0.324   4.074
 4517SOL     OW14449   3.651   0.209   6.121
 4517SOL    HW114450   3.614   0.128   6.166
 4517SOL    HW214451   3.598   0.228   6.038
 4518SOL     OW14452   1.334   0.756   3.479
 4518SOL    HW114453   1.304   0.761   3.383
 4518SOL    HW214454   1.379   0.841   3.504
 4519SOL     OW14455   5.939   2.508   5.087
 4519SOL    HW114456   5.924   2.419   5.045
 4519SOL    HW214457   5.852   2.553   5.103
 4520SOL     OW14458   0.116   3.983   2.306
 4520SOL    HW114459   0.086   3.937   2.222
 4520SOL    HW214460   0.202   3.944   2.337
 4521SOL     OW14461   5.091   1.712   6.369
 4521SOL    HW114462   5.007   1.758   6.398
 4521SOL    HW214463   5.085   1.692   6.271
 4522SOL     OW14464   5.567   0.539   2.882
 4522SOL    HW114465   5.559   0.484   2.799
 4522SOL    HW214466   5.610   0.483   2.954
 4523SOL     OW14467   4.459   3.282   6.380
 4523SOL    HW114468   4.414   3.292   6.469
 4523SOL    HW214469   4.556   3.261   6.393
 4524SOL     OW14470   6.419   0.221   5.118
 4524SOL    HW114471   6.358   0.142   5.118
 4524SOL    HW214472   6.445   0.243   5.213
 4525SOL     OW14473   6.120   2.202   5.563
 4525SOL    HW114474   6.218   2.219   5.563
 4525SOL    HW214475   6.095   2.148   5.484
 4526SOL     OW14476   3.522   0.916   1.146
 4526SOL    HW114477   3.510   0.830   1.095
 4526SOL    HW214478   3.600   0.966   1.110
 4527SOL     OW14479   4.048   6.815   3.926
 4527SOL    HW114480   4.058   6.770   3.837
 4527SOL    HW214481   3.952   6.813   3.954
 4528SOL     OW14482   5.182   6.681   5.717
 4528SOL    HW114483   5.117   6.638   5.654
 4528SOL    HW214484   5.209   6.770   5.681
 4529SOL     OW14485   3.769   0.237   3.865
 4529SOL    HW114486   3.817   0.324   3.878
 4529SOL    HW214487   3.765   0.188   3.951
 4530SOL     OW14488   0.471   2.911   4.616
 4530SOL    HW114489   0.422   2.922   4.703
 4530SOL    HW214490   0.564   2.880   4.635
 4531SOL     OW14491   0.341   4.097   3.911
 4531SOL    HW114492   0.437   4.112   3.886
 4531SOL    HW214493   0.303   4.023   3.855
 4532SOL     OW14494   6.730   1.739   0.649
 4532SOL    HW114495   6.798   1.668   0.666
 4532SOL    HW214496   6.644   1.713   0.694
 4533SOL     OW14497   3.532   5.890   2.001
 4533SOL    HW114498   3.601   5.913   2.070
 4533SOL    HW214499   3.471   5.968   1.987
 4534SOL     OW14500   6.952   4.052   5.405
 4534SOL    HW114501   6.975   4.072   5.500
 4534SOL    HW214502   6.859   4.084   5.385
 4535SOL     OW14503   5.114   2.411   2.951
 4535SOL    HW114504   5.180   2.343   2.917
 4535SOL    HW214505   5.077   2.381   3.038
 4536SOL     OW14506   6.849   0.759   4.132
 4536SOL    HW114507   6.825   0.721   4.221
 4536SOL    HW214508   6.948   0.751   4.117
 4537SOL     OW14509   4.057   3.277   6.397
 4537SOL    HW114510   4.022   3.350   6.339
 4537SOL    HW214511   4.085   3.200   6.340
 4538SOL     OW14512   3.361   1.605   1.714
 4538SOL    HW114513   3.458   1.614   1.741
 4538SOL    HW214514   3.304   1.651   1.782
 4539SOL     OW14515   2.234   2.451   2.551
 4539SOL    HW114516   2.178   2.402   2.618
 4539SOL    HW214517   2.305   2.390   2.516
 4540SOL     OW14518   3.299   2.888   5.199
 4540SOL    HW114519   3.309   2.921   5.105
 4540SOL    HW214520   3.255   2.958   5.255
 4541SOL     OW14521   6.184   1.232   1.765
 4541SOL    HW114522   6.141   1.321   1.782
 4541SOL    HW214523   6.129   1.160   1.806
 4542SOL     OW14524   4.813   7.002   3.241
 4542SOL    HW114525   4.764   6.915   3.238
 4542SOL    HW214526   4.763   0.048   3.300
 4543SOL     OW14527   5.691   2.186   1.580
 4543SOL    HW114528   5.613   2.128   1.604
 4543SOL    HW214529   5.695   2.264   1.643
 4544SOL     OW14530   4.301   5.259   6.812
 4544SOL    HW114531   4.236   5.332   6.788
 4544SOL    HW214532   4.357   5.238   6.732
 4545SOL     OW14533   4.190   3.801   6.015
 4545SOL    HW114534   4.222   3.734   5.947
 4545SOL    HW214535   4.155   3.753   6.095
 4546SOL     OW14536   0.235   6.512   6.997
 4546SOL    HW114537   0.177   6.592   7.011
 4546SOL    HW214538   0.299   6.502   0.056
 4547SOL     OW14539   4.245   1.793   1.324
 4547SOL    HW114540   4.246   1.873   1.264
 4547SOL    HW214541   4.151   1.761   1.336
 4548SOL     OW14542   1.441   3.158   4.074
 4548SOL    HW114543   1.383   3.224   4.122
 4548SOL    HW214544   1.464   3.194   3.983
 4549SOL     OW14545   4.312   1.598   2.209
 4549SOL    HW114546   4.338   1.539   2.285
 4549SOL    HW214547   4.313   1.694   2.239
 4550SOL     OW14548   1.420   6.193   4.574
 4550SOL    HW114549   1.495   6.220   4.634
 4550SOL    HW214550   1.403   6.095   4.583
 4551SOL     OW14551   0.170   2.853   0.096
 4551SOL    HW114552   0.267   2.872   0.082
 4551SOL    HW214553   0.130   2.925   0.153
 4552SOL     OW14554   6.441   3.034   3.787
 4552SOL    HW114555   6.509   3.052   3.858
 4552SOL    HW214556   6.430   2.935   3.776
 4553SOL     OW14557   5.280   4.964   0.270
 4553SOL    HW114558   5.378   4.943   0.269
 4553SOL    HW214559   5.232   4.894   0.323
 4554SOL     OW14560   5.661   0.097   3.241
 4554SOL    HW114561   5.669   0.035   3.163
 4554SOL    HW214562   5.573   0.084   3.286
 4555SOL     OW14563   4.518   1.946   6.636
 4555SOL    HW114564   4.532   2.040   6.665
 4555SOL    HW214565   4.421   1.930   6.618
 4556SOL     OW14566   5.140   0.813   5.027
 4556SOL    HW114567   5.165   0.840   5.120
 4556SOL    HW214568   5.123   0.715   5.023
 4557SOL     OW14569   5.484   0.034   5.027
 4557SOL    HW114570   5.523   0.054   5.117
 4557SOL    HW214571   5.441   0.116   4.990
 4558SOL     OW14572   6.070   3.441   5.939
 4558SOL    HW114573   6.161   3.400   5.944
 4558SOL    HW214574   6.069   3.527   5.990
 4559SOL     OW14575   0.444   6.306   1.690
 4559SOL    HW114576   0.538   6.272   1.697
 4559SOL    HW214577   0.434   6.357   1.605
 4560SOL     OW14578   5.147   2.927   2.497
 4560SOL    HW114579   5.149   2.909   2.596
 4560SOL    HW214580   5.151   2.841   2.447
 4561SOL     OW14581   3.065   0.716   6.610
 4561SOL    HW114582   3.121   0.799   6.609
 4561SOL    HW214583   3.113   0.644   6.660
 4562SOL     OW14584   2.674   4.791   5.422
 4562SOL    HW114585   2.592   4.747   5.457
 4562SOL    HW214586   2.712   4.852   5.491
 4563SOL     OW14587   5.698   2.409   6.381
 4563SOL    HW114588   5.780   2.431   6.329
 4563SOL    HW214589   5.705   2.447   6.473
 4564SOL     OW14590   0.756   5.554   0.001
 4564SOL    HW114591   0.676   5.612   7.008
 4564SOL    HW214592   0.814   5.562   6.938
 4565SOL     OW14593   2.738   0.806   4.000
 4565SOL    HW114594   2.825   0.844   3.970
 4565SOL    HW214595   2.719   0.836   4.094
 4566SOL     OW14596   1.404   1.491   0.240
 4566SOL    HW114597   1.489   1.507   0.289
 4566SOL    HW214598   1.374   1.397   0.255
 4567SOL     OW14599   6.247   1.568   1.191
 4567SOL    HW114600   6.332   1.618   1.179
 4567SOL    HW214601   6.193   1.610   1.264
 4568SOL     OW14602   3.435   4.964   4.145
 4568SOL    HW114603   3.533   4.978   4.129
 4568SOL    HW214604   3.420   4.942   4.241
 4569SOL     OW14605   0.417   2.060   3.062
 4569SOL    HW114606   0.368   2.000   2.998
 4569SOL    HW214607   0.387   2.041   3.156
 4570SOL     OW14608   6.072   4.879   4.270
 4570SOL    HW114609   5.992   4.861   4.212
 4570SOL    HW214610   6.065   4.824   4.353
 4571SOL     OW14611   3.739   3.040   4.062
 4571SOL    HW114612   3.737   3.012   4.158
 4571SOL    HW214613   3.670   3.110   4.047
 4572SOL     OW14614   2.292   5.501   2.003
 4572SOL    HW114615   2.326   5.545   1.920
 4572SOL    HW214616   2.196   5.524   2.016
 4573SOL     OW14617   4.771   6.785   0.602
 4573SOL    HW114618   4.801   6.786   0.507
 4573SOL    HW214619   4.849   6.761   0.661
 4574SOL     OW14620   0.314   4.602   1.488
 4574SOL    HW114621   0.266   4.592   1.575
 4574SOL    HW214622   0.248   4.615   1.415
 4575SOL     OW14623   6.826   6.546   2.430
 4575SOL    HW114624   6.763   6.480   2.389
 4575SOL    HW214625   6.882   6.501   2.500
 4576SOL     OW14626   3.515   6.173   3.881
 4576SOL    HW114627   3.588   6.139   3.940
 4576SOL    HW214628   3.510   6.273   3.890
 4577SOL     OW14629   1.680   2.014   3.800
 4577SOL    HW114630   1.609   2.020   3.730
 4577SOL    HW214631   1.739   1.935   3.781
 4578SOL     OW14632   0.208   4.916   3.929
 4578SOL    HW114633   0.117   4.910   3.968
 4578SOL    HW214634   0.204   4.964   3.841
 4579SOL     OW14635   5.066   2.001   4.571
 4579SOL    HW114636   5.092   2.001   4.668
 4579SOL    HW214637   5.076   2.093   4.534
 4580SOL     OW14638   0.151   5.771   0.120
 4580SOL    HW114639   0.129   5.674   0.118
 4580SOL    HW214640   0.151   5.804   0.214
 4581SOL     OW14641   3.094   6.279   3.783
 4581SOL    HW114642   3.148   6.195   3.777
 4581SOL    HW214643   3.000   6.257   3.808
 4582SOL     OW14644   4.975   6.855   3.448
 4582SOL    HW114645   4.886   6.817   3.474
 4582SOL    HW214646   4.970   6.892   3.355
 4583SOL     OW14647   4.049   1.224   5.572
 4583SOL    HW114648   3.951   1.239   5.588
 4583SOL    HW214649   4.095   1.312   5.560
 4584SOL     OW14650   1.553   5.043   6.297
 4584SOL    HW114651   1.500   5.056   6.214
 4584SOL    HW214652   1.635   4.991   6.277
 4585SOL     OW14653   3.120   6.276   2.570
 4585SOL    HW114654   3.217   6.297   2.567
 4585SOL    HW214655   3.083   6.272   2.477
 4586SOL     OW14656   2.593   6.547   2.142
 4586SOL    HW114657   2.644   6.482   2.086
 4586SOL    HW214658   2.633   6.550   2.234
 4587SOL     OW14659   3.290   5.367   0.720
 4587SOL    HW114660   3.202   5.356   0.675
 4587SOL    HW214661   3.298   5.460   0.757
 4588SOL     OW14662   3.873   4.204   5.162
 4588SOL    HW114663   3.971   4.204   5.179
 4588SOL    HW214664   3.837   4.112   5.172
 4589SOL     OW14665   1.086   1.937   3.098
 4589SOL    HW114666   1.078   1.996   3.018
 4589SOL    HW214667   1.073   1.841   3.070
 4590SOL     OW14668   4.366   6.052   3.014
 4590SOL    HW114669   4.307   6.029   2.936
 4590SOL    HW214670   4.328   6.012   3.097
 4591SOL     OW14671   6.218   6.488   5.436
 4591SOL    HW114672   6.202   6.459   5.341
 4591SOL    HW214673   6.138   6.536   5.469
 4592SOL     OW14674   3.470   1.355   5.848
 4592SOL    HW114675   3.531   1.330   5.924
 4592SOL    HW214676   3.377   1.326   5.870
 4593SOL     OW14677   4.368   6.514   1.699
 4593SOL    HW114678   4.328   6.426   1.722
 4593SOL    HW214679   4.468   6.509   1.710
 4594SOL     OW14680   3.300   2.108   2.755
 4594SOL    HW114681   3.201   2.097   2.752
 4594SOL    HW214682   3.335   2.121   2.662
 4595SOL     OW14683   5.010   3.513   5.993
 4595SOL    HW114684   5.036   3.443   6.060
 4595SOL    HW214685   4.949   3.473   5.925
 4596SOL     OW14686   5.434   6.899   2.218
 4596SOL    HW114687   5.425   6.984   2.165
 4596SOL    HW214688   5.499   6.912   2.292
 4597SOL     OW14689   6.473   4.871   5.776
 4597SOL    HW114690   6.556   4.892   5.826
 4597SOL    HW214691   6.430   4.789   5.816
 4598SOL     OW14692   3.234   4.144   1.008
 4598SOL    HW114693   3.208   4.237   1.034
 4598SOL    HW214694   3.241   4.087   1.090
 4599SOL     OW14695   2.330   5.072   0.602
 4599SOL    HW114696   2.414   5.113   0.639
 4599SOL    HW214697   2.260   5.143   0.593
 4600SOL     OW14698   3.847   5.011   1.559
 4600SOL    HW114699   3.915   5.026   1.631
 4600SOL    HW214700   3.755   5.016   1.597
 4601SOL     OW14701   1.383   5.942   4.524
 4601SOL    HW114702   1.304   5.883   4.508
 4601SOL    HW214703   1.433   5.956   4.438
 4602SOL     OW14704   1.424   0.948   1.214
 4602SOL    HW114705   1.478   0.869   1.243
 4602SOL    HW214706   1.336   0.918   1.178
 4603SOL     OW14707   3.117   1.461   1.782
 4603SOL    HW114708   3.159   1.539   1.829
 4603SOL    HW214709   3.188   1.395   1.759
 4604SOL     OW14710   1.748   0.594   2.363
 4604SOL    HW114711   1.662   0.544   2.370
 4604SOL    HW214712   1.737   0.673   2.303
 4605SOL     OW14713   4.948   6.531   5.842
 4605SOL    HW114714   4.936   6.628   5.821
 4605SOL    HW214715   5.040   6.502   5.817
 4606SOL     OW14716   6.646   5.980   5.514
 4606SOL    HW114717   6.701   6.023   5.442
 4606SOL    HW214718   6.696   5.982   5.600
 4607SOL     OW14719   2.920   2.412   1.463
 4607SOL    HW114720   2.940   2.382   1.370
 4607SOL    HW214721   2.978   2.491   1.485
 4608SOL     OW14722   1.768   4.113   4.854
 4608SOL    HW114723   1.729   4.023   4.834
 4608SOL    HW214724   1.864   4.114   4.827
 4609SOL     OW14725   3.346   6.945   0.155
 4609SOL    HW114726   3.260   6.988   0.182
 4609SOL    HW214727   3.386   6.898   0.234
 4610SOL     OW14728   0.096   3.157   6.804
 4610SOL    HW114729   0.154   3.214   6.745
 4610SOL    HW214730   0.008   3.202   6.818
 4611SOL     OW14731   1.096   3.687   6.489
 4611SOL    HW114732   1.058   3.621   6.554
 4611SOL    HW214733   1.172   3.736   6.531
 4612SOL     OW14734   2.612   0.439   6.589
 4612SOL    HW114735   2.680   0.494   6.639
 4612SOL    HW214736   2.549   0.500   6.540
 4613SOL     OW14737   3.552   5.309   1.754
 4613SOL    HW114738   3.616   5.335   1.826
 4613SOL    HW214739   3.458   5.321   1.787
 4614SOL     OW14740   2.505   5.030   0.219
 4614SOL    HW114741   2.460   4.964   0.280
 4614SOL    HW214742   2.553   4.981   0.147
 4615SOL     OW14743   6.886   3.254   0.323
 4615SOL    HW114744   6.918   3.313   0.397
 4615SOL    HW214745   6.788   3.237   0.332
 4616SOL     OW14746   6.193   0.270   0.636
 4616SOL    HW114747   6.287   0.282   0.601
 4616SOL    HW214748   6.194   0.275   0.735
 4617SOL     OW14749   0.205   4.176   2.087
 4617SOL    HW114750   0.153   4.120   2.151
 4617SOL    HW214751   0.282   4.218   2.135
 4618SOL     OW14752   0.575   2.394   6.259
 4618SOL    HW114753   0.547   2.488   6.240
 4618SOL    HW214754   0.496   2.340   6.284
 4619SOL     OW14755   3.254   0.291   3.966
 4619SOL    HW114756   3.311   0.210   3.978
 4619SOL    HW214757   3.269   0.354   4.043
 4620SOL     OW14758   2.498   5.326   6.609
 4620SOL    HW114759   2.453   5.238   6.622
 4620SOL    HW214760   2.567   5.318   6.537
 4621SOL     OW14761   0.205   6.793   6.411
 4621SOL    HW114762   0.192   6.701   6.448
 4621SOL    HW214763   0.261   6.787   6.328
 4622SOL     OW14764   2.601   3.241   0.882
 4622SOL    HW114765   2.615   3.224   0.980
 4622SOL    HW214766   2.620   3.158   0.830
 4623SOL     OW14767   5.709   4.778   2.444
 4623SOL    HW114768   5.619   4.771   2.402
 4623SOL    HW214769   5.766   4.840   2.389
 4624SOL     OW14770   5.035   0.471   5.478
 4624SOL    HW114771   4.939   0.484   5.451
 4624SOL    HW214772   5.040   0.458   5.577
 4625SOL     OW14773   1.520   3.713   6.101
 4625SOL    HW114774   1.607   3.699   6.148
 4625SOL    HW214775   1.451   3.744   6.166
 4626SOL     OW14776   5.776   5.642   2.386
 4626SOL    HW114777   5.786   5.567   2.321
 4626SOL    HW214778   5.824   5.723   2.352
 4627SOL     OW14779   2.049   0.019   5.791
 4627SOL    HW114780   2.042   0.059   5.700
 4627SOL    HW214781   2.059   0.092   5.859
 4628SOL     OW14782   0.263   3.362   1.935
 4628SOL    HW114783   0.322   3.443   1.929
 4628SOL    HW214784   0.176   3.388   1.977
 4629SOL     OW14785   3.747   4.958   4.071
 4629SOL    HW114786   3.718   4.950   3.975
 4629SOL    HW214787   3.820   4.893   4.089
 4630SOL     OW14788   1.570   6.620   2.637
 4630SOL    HW114789   1.507   6.616   2.715
 4630SOL    HW214790   1.620   6.534   2.630
 4631SOL     OW14791   1.683   0.887   2.579
 4631SOL    HW114792   1.620   0.832   2.634
 4631SOL    HW214793   1.632   0.937   2.509
 4632SOL     OW14794   5.717   5.463   4.124
 4632SOL    HW114795   5.757   5.506   4.205
 4632SOL    HW214796   5.789   5.444   4.057
 4633SOL     OW14797   5.407   2.632   5.885
 4633SOL    HW114798   5.350   2.551   5.899
 4633SOL    HW214799   5.447   2.661   5.972
 4634SOL     OW14800   3.759   5.063   0.819
 4634SOL    HW114801   3.761   4.967   0.847
 4634SOL    HW214802   3.664   5.094   0.812
 4635SOL     OW14803   5.030   3.849   1.255
 4635SOL    HW114804   5.041   3.810   1.163
 4635SOL    HW214805   5.028   3.949   1.249
 4636SOL     OW14806   1.065   5.537   1.249
 4636SOL    HW114807   0.985   5.592   1.226
 4636SOL    HW214808   1.091   5.480   1.171
 4637SOL     OW14809   1.336   0.668   4.684
 4637SOL    HW114810   1.389   0.752   4.684
 4637SOL    HW214811   1.376   0.603   4.750
 4638SOL     OW14812   4.570   4.198   6.266
 4638SOL    HW114813   4.534   4.139   6.193
 4638SOL    HW214814   4.598   4.285   6.227
 4639SOL     OW14815   7.001   2.795   4.900
 4639SOL    HW114816   6.964   2.704   4.922
 4639SOL    HW214817   0.002   2.801   4.802
 4640SOL     OW14818   6.413   4.674   2.547
 4640SOL    HW114819   6.396   4.731   2.467
 4640SOL    HW214820   6.442   4.732   2.624
 4641SOL     OW14821   2.883   4.247   5.674
 4641SOL    HW114822   2.841   4.286   5.592
 4641SOL    HW214823   2.847   4.155   5.689
 4642SOL     OW14824   6.652   6.079   3.869
 4642SOL    HW114825   6.562   6.074   3.826
 4642SOL    HW214826   6.648   6.034   3.959
 4643SOL     OW14827   4.102   2.932   0.950
 4643SOL    HW114828   4.162   3.000   0.992
 4643SOL    HW214829   4.139   2.904   0.862
 4644SOL     OW14830   2.965   4.971   5.319
 4644SOL    HW114831   2.991   4.875   5.330
 4644SOL    HW214832   3.039   5.029   5.352
 4645SOL     OW14833   1.936   6.476   4.880
 4645SOL    HW114834   1.970   6.398   4.827
 4645SOL    HW214835   1.837   6.469   4.889
 4646SOL     OW14836   4.010   0.731   1.709
 4646SOL    HW114837   4.090   0.690   1.753
 4646SOL    HW214838   3.993   0.685   1.622
 4647SOL     OW14839   6.924   0.670   5.201
 4647SOL    HW114840   6.937   0.579   5.161
 4647SOL    HW214841   6.889   0.732   5.131
 4648SOL     OW14842   1.848   4.810   2.572
 4648SOL    HW114843   1.945   4.822   2.591
 4648SOL    HW214844   1.813   4.731   2.623
 4649SOL     OW14845   5.441   6.620   6.109
 4649SOL    HW114846   5.389   6.545   6.149
 4649SOL    HW214847   5.482   6.675   6.182
 4650SOL     OW14848   0.152   4.610   1.700
 4650SOL    HW114849   0.152   4.511   1.718
 4650SOL    HW214850   0.073   4.651   1.744
 4651SOL     OW14851   6.587   1.787   2.268
 4651SOL    HW114852   6.624   1.846   2.197
 4651SOL    HW214853   6.650   1.785   2.346
 4652SOL     OW14854   6.806   6.032   5.737
 4652SOL    HW114855   6.741   6.023   5.812
 4652SOL    HW214856   6.898   6.010   5.769
 4653SOL     OW14857   0.487   5.637   6.863
 4653SOL    HW114858   0.462   5.685   6.779
 4653SOL    HW214859   0.434   5.674   6.940
 4654SOL     OW14860   0.924   1.889   6.286
 4654SOL    HW114861   0.926   1.861   6.190
 4654SOL    HW214862   0.843   1.945   6.302
 4655SOL     OW14863   0.505   5.319   3.348
 4655SOL    HW114864   0.536   5.249   3.411
 4655SOL    HW214865   0.405   5.316   3.341
 4656SOL     OW14866   2.358   0.033   3.102
 4656SOL    HW114867   2.421   6.982   3.136
 4656SOL    HW214868   2.392   0.124   3.126
 4657SOL     OW14869   5.852   0.225   6.497
 4657SOL    HW114870   5.847   0.194   6.402
 4657SOL    HW214871   5.874   0.147   6.556
 4658SOL     OW14872   4.760   0.899   3.665
 4658SOL    HW114873   4.714   0.810   3.661
 4658SOL    HW214874   4.692   0.971   3.680
 4659SOL     OW14875   2.743   2.306   4.818
 4659SOL    HW114876   2.812   2.273   4.882
 4659SOL    HW214877   2.683   2.371   4.864
 4660SOL     OW14878   6.727   1.366   5.851
 4660SOL    HW114879   6.714   1.433   5.778
 4660SOL    HW214880   6.692   1.403   5.937
 4661SOL     OW14881   4.089   3.669   3.674
 4661SOL    HW114882   4.091   3.654   3.773
 4661SOL    HW214883   4.119   3.587   3.627
 4662SOL     OW14884   5.493   0.255   3.478
 4662SOL    HW114885   5.519   0.352   3.484
 4662SOL    HW214886   5.402   0.248   3.437
 4663SOL     OW14887   1.032   1.546   1.933
 4663SOL    HW114888   1.067   1.622   1.989
 4663SOL    HW214889   1.021   1.578   1.839
 4664SOL     OW14890   3.731   3.572   0.349
 4664SOL    HW114891   3.688   3.651   0.306
 4664SOL    HW214892   3.673   3.541   0.425
 4665SOL     OW14893   5.150   0.742   6.655
 4665SOL    HW114894   5.113   0.669   6.597
 4665SOL    HW214895   5.179   0.703   6.743
 4666SOL     OW14896   2.471   1.769   0.473
 4666SOL    HW114897   2.409   1.845   0.460
 4666SOL    HW214898   2.497   1.731   0.383
 4667SOL     OW14899   0.296   5.570   4.710
 4667SOL    HW114900   0.344   5.615   4.785
 4667SOL    HW214901   0.318   5.472   4.710
 4668SOL     OW14902   5.628   1.372   5.220
 4668SOL    HW114903   5.546   1.314   5.220
 4668SOL    HW214904   5.678   1.358   5.134
 4669SOL     OW14905   2.566   0.860   1.302
 4669SOL    HW114906   2.507   0.921   1.248
 4669SOL    HW214907   2.621   0.914   1.364
 4670SOL     OW14908   1.855   1.134   5.061
 4670SOL    HW114909   1.926   1.161   5.125
 4670SOL    HW214910   1.879   1.166   4.969
 4671SOL     OW14911   5.654   2.912   1.123
 4671SOL    HW114912   5.700   2.826   1.099
 4671SOL    HW214913   5.720   2.974   1.165
 4672SOL     OW14914   2.955   2.817   5.353
 4672SOL    HW114915   3.008   2.900   5.333
 4672SOL    HW214916   2.866   2.842   5.389
 4673SOL     OW14917   3.972   0.426   2.641
 4673SOL    HW114918   3.873   0.438   2.631
 4673SOL    HW214919   4.015   0.514   2.658
 4674SOL     OW14920   4.811   6.334   5.416
 4674SOL    HW114921   4.850   6.424   5.398
 4674SOL    HW214922   4.733   6.343   5.478
 4675SOL     OW14923   1.136   4.287   5.955
 4675SOL    HW114924   1.199   4.252   5.885
 4675SOL    HW214925   1.116   4.383   5.938
 4676SOL     OW14926   0.464   4.880   4.037
 4676SOL    HW114927   0.475   4.788   4.000
 4676SOL    HW214928   0.373   4.915   4.013
 4677SOL     OW14929   1.593   3.086   0.716
 4677SOL    HW114930   1.620   3.118   0.625
 4677SOL    HW214931   1.653   3.126   0.785
 4678SOL     OW14932   1.227   4.384   2.272
 4678SOL    HW114933   1.132   4.416   2.264
 4678SOL    HW214934   1.234   4.291   2.239
 4679SOL     OW14935   4.270   0.172   1.634
 4679SOL    HW114936   4.227   0.092   1.592
 4679SOL    HW214937   4.329   0.216   1.567
 4680SOL     OW14938   1.936   0.551   6.957
 4680SOL    HW114939   1.993   0.563   6.875
 4680SOL    HW214940   1.991   0.512   0.012
 4681SOL     OW14941   5.165   5.622   2.243
 4681SOL    HW114942   5.236   5.660   2.303
 4681SOL    HW214943   5.121   5.545   2.289
 4682SOL     OW14944   3.498   4.053   6.525
 4682SOL    HW114945   3.434   4.119   6.486
 4682SOL    HW214946   3.521   4.080   6.618
 4683SOL     OW14947   6.054   4.255   3.660
 4683SOL    HW114948   6.112   4.220   3.587
 4683SOL    HW214949   5.958   4.234   3.640
 4684SOL     OW14950   5.721   6.228   6.737
 4684SOL    HW114951   5.698   6.177   6.654
 4684SOL    HW214952   5.645   6.221   6.802
 4685SOL     OW14953   3.147   3.984   4.238
 4685SOL    HW114954   3.175   4.043   4.162
 4685SOL    HW214955   3.146   4.036   4.323
 4686SOL     OW14956   1.476   6.557   0.207
 4686SOL    HW114957   1.495   6.643   0.255
 4686SOL    HW214958   1.460   6.484   0.275
 4687SOL     OW14959   2.490   0.494   2.790
 4687SOL    HW114960   2.434   0.415   2.814
 4687SOL    HW214961   2.586   0.468   2.791
 4688SOL     OW14962   5.516   2.464   6.189
 4688SOL    HW114963   5.582   2.436   6.258
 4688SOL    HW214964   5.520   2.563   6.177
 4689SOL     OW14965   6.720   0.754   1.980
 4689SOL    HW114966   6.731   0.655   1.972
 4689SOL    HW214967   6.798   0.792   2.029
 4690SOL     OW14968   2.307   2.134   0.907
 4690SOL    HW114969   2.377   2.068   0.882
 4690SOL    HW214970   2.218   2.088   0.914
 4691SOL     OW14971   6.272   4.071   2.207
 4691SOL    HW114972   6.368   4.043   2.200
 4691SOL    HW214973   6.259   4.125   2.290
 4692SOL     OW14974   4.900   3.246   2.439
 4692SOL    HW114975   4.865   3.204   2.523
 4692SOL    HW214976   4.915   3.344   2.453
 4693SOL     OW14977   1.098   0.689   3.101
 4693SOL    HW114978   1.059   0.726   3.017
 4693SOL    HW214979   1.144   0.602   3.082
 4694SOL     OW14980   2.146   0.289   6.408
 4694SOL    HW114981   2.102   0.206   6.373
 4694SOL    HW214982   2.219   0.264   6.471
 4695SOL     OW14983   1.851   5.173   2.388
 4695SOL    HW114984   1.935   5.118   2.387
 4695SOL    HW214985   1.772   5.113   2.380
 4696SOL     OW14986   1.263   6.026   6.344
 4696SOL    HW114987   1.318   6.072   6.274
 4696SOL    HW214988   1.229   6.093   6.409
 4697SOL     OW14989   4.333   5.359   1.869
 4697SOL    HW114990   4.358   5.415   1.790
 4697SOL    HW214991   4.278   5.413   1.932
 4698SOL     OW14992   5.513   0.820   4.890
 4698SOL    HW114993   5.595   0.876   4.883
 4698SOL    HW214994   5.518   0.763   4.972
 4699SOL     OW14995   1.785   0.281   2.705
 4699SOL    HW114996   1.820   0.360   2.654
 4699SOL    HW214997   1.696   0.302   2.743
 4700SOL     OW14998   6.178   1.865   2.524
 4700SOL    HW114999   6.249   1.904   2.466
 4700SOL    HW215000   6.091   1.909   2.506
 4701SOL     OW15001   3.029   2.569   1.738
 4701SOL    HW115002   3.003   2.514   1.818
 4701SOL    HW215003   2.952   2.629   1.714
 4702SOL     OW15004   5.729   5.194   6.670
 4702SOL    HW115005   5.630   5.182   6.678
 4702SOL    HW215006   5.758   5.276   6.719
 4703SOL     OW15007   0.950   5.186   3.573
 4703SOL    HW115008   0.988   5.112   3.630
 4703SOL    HW215009   0.949   5.157   3.478
 4704SOL     OW15010   1.354   4.706   4.201
 4704SOL    HW115011   1.425   4.646   4.237
 4704SOL    HW215012   1.361   4.796   4.246
 4705SOL     OW15013   3.604   1.787   1.660
 4705SOL    HW115014   3.533   1.781   1.589
 4705SOL    HW215015   3.613   1.882   1.689
 4706SOL     OW15016   2.355   0.697   1.392
 4706SOL    HW115017   2.292   0.652   1.329
 4706SOL    HW215018   2.432   0.735   1.341
 4707SOL     OW15019   1.446   5.279   2.144
 4707SOL    HW115020   1.402   5.369   2.144
 4707SOL    HW215021   1.402   5.220   2.212
 4708SOL     OW15022   1.789   2.609   5.215
 4708SOL    HW115023   1.885   2.637   5.215
 4708SOL    HW215024   1.784   2.510   5.202
 4709SOL     OW15025   4.949   4.305   5.917
 4709SOL    HW115026   4.865   4.343   5.881
 4709SOL    HW215027   4.995   4.373   5.974
 4710SOL     OW15028   5.810   6.216   5.371
 4710SOL    HW115029   5.836   6.151   5.442
 4710SOL    HW215030   5.860   6.196   5.286
 4711SOL     OW15031   5.207   4.206   2.567
 4711SOL    HW115032   5.174   4.283   2.621
 4711SOL    HW215033   5.133   4.141   2.553
 4712SOL     OW15034   4.261   4.328   5.701
 4712SOL    HW115035   4.330   4.348   5.770
 4712SOL    HW215036   4.173   4.366   5.728
 4713SOL     OW15037   5.377   4.614   0.726
 4713SOL    HW115038   5.418   4.534   0.682
 4713SOL    HW215039   5.283   4.626   0.692
 4714SOL     OW15040   4.217   2.034   6.620
 4714SOL    HW115041   4.203   2.024   6.522
 4714SOL    HW215042   4.227   2.131   6.643
 4715SOL     OW15043   6.774   1.427   1.640
 4715SOL    HW115044   6.725   1.455   1.557
 4715SOL    HW215045   6.818   1.506   1.682
 4716SOL     OW15046   3.868   4.844   5.564
 4716SOL    HW115047   3.797   4.871   5.628
 4716SOL    HW215048   3.833   4.772   5.504
 4717SOL     OW15049   2.452   4.619   5.454
 4717SOL    HW115050   2.398   4.630   5.371
 4717SOL    HW215051   2.418   4.541   5.507
 4718SOL     OW15052   4.442   4.647   0.692
 4718SOL    HW115053   4.514   4.698   0.738
 4718SOL    HW215054   4.480   4.596   0.615
 4719SOL     OW15055   6.809   4.264   3.675
 4719SOL    HW115056   6.836   4.335   3.610
 4719SOL    HW215057   6.736   4.208   3.635
 4720SOL     OW15058   2.182   3.208   6.967
 4720SOL    HW115059   2.253   3.139   6.955
 4720SOL    HW215060   2.189   3.249   0.040
 4721SOL     OW15061   0.299   2.577   2.923
 4721SOL    HW115062   0.321   2.668   2.958
 4721SOL    HW215063   0.323   2.508   2.992
 4722SOL     OW15064   0.958   5.930   6.974
 4722SOL    HW115065   0.987   5.836   6.957
 4722SOL    HW215066   1.020   5.993   6.928
 4723SOL     OW15067   3.369   4.786   6.395
 4723SOL    HW115068   3.429   4.777   6.316
 4723SOL    HW215069   3.368   4.882   6.425
 4724SOL     OW15070   0.886   0.211   4.592
 4724SOL    HW115071   0.800   0.242   4.552
 4724SOL    HW215072   0.938   0.160   4.524
 4725SOL     OW15073   5.624   5.518   1.538
 4725SOL    HW115074   5.601   5.432   1.491
 4725SOL    HW215075   5.585   5.595   1.488
 4726SOL     OW15076   1.774   2.595   5.630
 4726SOL    HW115077   1.702   2.624   5.567
 4726SOL    HW215078   1.848   2.551   5.578
 4727SOL     OW15079   6.724   4.250   1.378
 4727SOL    HW115080   6.673   4.228   1.461
 4727SOL    HW215081   6.817   4.278   1.402
 4728SOL     OW15082   5.995   1.567   4.295
 4728SOL    HW115083   6.037   1.547   4.206
 4728SOL    HW215084   5.953   1.658   4.293
 4729SOL     OW15085   6.153   1.249   2.057
 4729SOL    HW115086   6.054   1.258   2.068
 4729SOL    HW215087   6.198   1.322   2.108
 4730SOL     OW15088   3.128   0.185   4.232
 4730SOL    HW115089   3.029   0.170   4.229
 4730SOL    HW215090   3.172   0.105   4.273
 4731SOL     OW15091   2.877   6.395   1.046
 4731SOL    HW115092   2.798   6.406   1.105
 4731SOL    HW215093   2.898   6.298   1.035
 4732SOL     OW15094   0.379   5.341   5.077
 4732SOL    HW115095   0.468   5.326   5.120
 4732SOL    HW215096   0.355   5.438   5.086
 4733SOL     OW15097   1.896   3.883   2.443
 4733SOL    HW115098   1.882   3.981   2.458
 4733SOL    HW215099   1.849   3.832   2.515
 4734SOL     OW15100   4.811   4.234   6.700
 4734SOL    HW115101   4.855   4.189   6.622
 4734SOL    HW215102   4.802   4.170   6.776
 4735SOL     OW15103   0.559   0.669   5.152
 4735SOL    HW115104   0.509   0.677   5.066
 4735SOL    HW215105   0.618   0.588   5.149
 4736SOL     OW15106   6.644   1.627   3.444
 4736SOL    HW115107   6.594   1.673   3.518
 4736SOL    HW215108   6.679   1.696   3.380
 4737SOL     OW15109   2.126   4.727   0.050
 4737SOL    HW115110   2.207   4.763   0.096
 4737SOL    HW215111   2.134   4.743   6.970
 4738SOL     OW15112   1.050   5.572   4.279
 4738SOL    HW115113   0.967   5.516   4.270
 4738SOL    HW215114   1.129   5.514   4.293
 4739SOL     OW15115   5.756   3.609   3.054
 4739SOL    HW115116   5.787   3.690   3.004
 4739SOL    HW215117   5.678   3.568   3.007
 4740SOL     OW15118   1.091   0.387   0.665
 4740SOL    HW115119   1.022   0.322   0.699
 4740SOL    HW215120   1.178   0.340   0.655
 4741SOL     OW15121   5.360   4.881   1.350
 4741SOL    HW115122   5.406   4.823   1.282
 4741SOL    HW215123   5.417   4.960   1.371
 4742SOL     OW15124   2.320   5.445   2.663
 4742SOL    HW115125   2.245   5.501   2.699
 4742SOL    HW215126   2.406   5.477   2.701
 4743SOL     OW15127   2.633   3.668   0.272
 4743SOL    HW115128   2.572   3.745   0.290
 4743SOL    HW215129   2.581   3.594   0.230
 4744SOL     OW15130   2.390   1.774   5.226
 4744SOL    HW115131   2.312   1.752   5.285
 4744SOL    HW215132   2.469   1.719   5.254
 4745SOL     OW15133   3.642   5.261   4.897
 4745SOL    HW115134   3.680   5.171   4.917
 4745SOL    HW215135   3.661   5.285   4.801
 4746SOL     OW15136   5.930   0.996   1.394
 4746SOL    HW115137   5.892   0.963   1.481
 4746SOL    HW215138   6.030   0.993   1.398
 4747SOL     OW15139   0.129   2.434   1.711
 4747SOL    HW115140   0.181   2.370   1.768
 4747SOL    HW215141   0.036   2.443   1.747
 4748SOL     OW15142   1.632   0.743   1.168
 4748SOL    HW115143   1.568   0.720   1.094
 4748SOL    HW215144   1.726   0.734   1.134
 4749SOL     OW15145   2.854   0.185   6.151
 4749SOL    HW115146   2.926   0.121   6.126
 4749SOL    HW215147   2.835   0.177   6.249
 4750SOL     OW15148   0.923   1.864   4.414
 4750SOL    HW115149   0.977   1.818   4.484
 4750SOL    HW215150   0.843   1.907   4.456
 4751SOL     OW15151   1.137   3.655   5.585
 4751SOL    HW115152   1.115   3.558   5.584
 4751SOL    HW215153   1.107   3.696   5.499
 4752SOL     OW15154   1.586   5.892   1.925
 4752SOL    HW115155   1.519   5.966   1.936
 4752SOL    HW215156   1.585   5.835   2.007
 4753SOL     OW15157   0.284   6.904   5.606
 4753SOL    HW115158   0.259   6.886   5.511
 4753SOL    HW215159   0.273   6.820   5.660
 4754SOL     OW15160   0.695   0.375   7.007
 4754SOL    HW115161   0.664   0.335   6.921
 4754SOL    HW215162   0.769   0.440   6.989
 4755SOL     OW15163   2.810   0.665   1.508
 4755SOL    HW115164   2.872   0.726   1.558
 4755SOL    HW215165   2.733   0.641   1.567
 4756SOL     OW15166   4.970   3.020   1.286
 4756SOL    HW115167   4.979   3.029   1.386
 4756SOL    HW215168   5.018   3.096   1.242
 4757SOL     OW15169   2.539   1.419   1.552
 4757SOL    HW115170   2.462   1.465   1.508
 4757SOL    HW215171   2.570   1.344   1.494
 4758SOL     OW15172   5.445   3.972   5.405
 4758SOL    HW115173   5.396   3.929   5.329
 4758SOL    HW215174   5.479   4.061   5.376
 4759SOL     OW15175   5.930   4.356   6.037
 4759SOL    HW115176   5.892   4.439   5.997
 4759SOL    HW215177   5.884   4.276   5.998
 4760SOL     OW15178   1.750   2.446   0.806
 4760SOL    HW115179   1.801   2.437   0.721
 4760SOL    HW215180   1.661   2.402   0.796
 4761SOL     OW15181   1.247   5.943   5.919
 4761SOL    HW115182   1.173   5.944   5.851
 4761SOL    HW215183   1.322   5.886   5.885
 4762SOL     OW15184   3.862   6.641   2.134
 4762SOL    HW115185   3.844   6.565   2.197
 4762SOL    HW215186   3.884   6.723   2.187
 4763SOL     OW15187   5.790   5.461   4.419
 4763SOL    HW115188   5.693   5.447   4.439
 4763SOL    HW215189   5.845   5.398   4.475
 4764SOL     OW15190   3.774   3.917   4.481
 4764SOL    HW115191   3.864   3.937   4.442
 4764SOL    HW215192   3.703   3.965   4.429
 4765SOL     OW15193   6.409   4.634   5.495
 4765SOL    HW115194   6.326   4.657   5.546
 4765SOL    HW215195   6.398   4.545   5.452
 4766SOL     OW15196   3.218   0.363   3.183
 4766SOL    HW115197   3.123   0.384   3.162
 4766SOL    HW215198   3.277   0.436   3.147
 4767SOL     OW15199   4.341   6.221   6.694
 4767SOL    HW115200   4.245   6.224   6.719
 4767SOL    HW215201   4.383   6.310   6.709
 4768SOL     OW15202   0.457   1.124   5.105
 4768SOL    HW115203   0.519   1.054   5.141
 4768SOL    HW215204   0.362   1.093   5.115
 4769SOL     OW15205   3.613   0.663   1.681
 4769SOL    HW115206   3.639   0.569   1.656
 4769SOL    HW215207   3.678   0.699   1.748
 4770SOL     OW15208   2.269   0.316   3.799
 4770SOL    HW115209   2.312   0.353   3.881
 4770SOL    HW215210   2.254   0.391   3.733
 4771SOL     OW15211   4.122   4.196   5.250
 4771SOL    HW115212   4.171   4.277   5.218
 4771SOL    HW215213   4.144   4.178   5.346
 4772SOL     OW15214   1.805   3.083   0.387
 4772SOL    HW115215   1.756   3.141   0.322
 4772SOL    HW215216   1.767   2.991   0.385
 4773SOL     OW15217   0.217   4.948   4.297
 4773SOL    HW115218   0.309   4.920   4.271
 4773SOL    HW215219   0.197   5.038   4.258
 4774SOL     OW15220   1.535   4.534   6.814
 4774SOL    HW115221   1.449   4.498   6.849
 4774SOL    HW215222   1.611   4.479   6.849
 4775SOL     OW15223   2.414   1.532   2.337
 4775SOL    HW115224   2.340   1.570   2.282
 4775SOL    HW215225   2.490   1.597   2.341
 4776SOL     OW15226   3.980   4.790   2.323
 4776SOL    HW115227   3.900   4.734   2.301
 4776SOL    HW215228   3.949   4.874   2.369
 4777SOL     OW15229   3.005   4.055   1.349
 4777SOL    HW115230   2.994   4.108   1.433
 4777SOL    HW215231   2.929   4.076   1.287
 4778SOL     OW15232   5.186   3.786   2.878
 4778SOL    HW115233   5.141   3.793   2.967
 4778SOL    HW215234   5.123   3.747   2.812
 4779SOL     OW15235   4.731   0.960   2.953
 4779SOL    HW115236   4.814   1.014   2.968
 4779SOL    HW215237   4.702   0.970   2.857
 4780SOL     OW15238   1.774   0.148   5.496
 4780SOL    HW115239   1.756   0.200   5.580
 4780SOL    HW215240   1.753   0.204   5.417
 4781SOL     OW15241   2.043   5.719   3.063
 4781SOL    HW115242   2.009   5.651   3.128
 4781SOL    HW215243   2.117   5.771   3.106
 4782SOL     OW15244   5.807   5.852   0.206
 4782SOL    HW115245   5.817   5.858   0.305
 4782SOL    HW215246   5.852   5.930   0.163
 4783SOL     OW15247   6.543   3.866   2.499
 4783SOL    HW115248   6.504   3.956   2.521
 4783SOL    HW215249   6.470   3.799   2.493
 4784SOL     OW15250   5.906   4.134   4.856
 4784SOL    HW115251   5.880   4.043   4.889
 4784SOL    HW215252   5.847   4.161   4.781
 4785SOL     OW15253   5.988   6.842   0.941
 4785SOL    HW115254   5.916   6.840   0.871
 4785SOL    HW215255   6.075   6.863   0.897
 4786SOL     OW15256   1.444   3.021   2.363
 4786SOL    HW115257   1.379   3.093   2.341
 4786SOL    HW215258   1.437   2.948   2.295
 4787SOL     OW15259   4.323   2.261   2.793
 4787SOL    HW115260   4.237   2.252   2.843
 4787SOL    HW215261   4.304   2.274   2.696
 4788SOL     OW15262   1.606   6.288   5.489
 4788SOL    HW115263   1.595   6.274   5.587
 4788SOL    HW215264   1.630   6.201   5.445
 4789SOL     OW15265   6.263   6.763   0.944
 4789SOL    HW115266   6.297   6.680   0.988
 4789SOL    HW215267   6.289   6.762   0.847
 4790SOL     OW15268   5.228   0.539   6.839
 4790SOL    HW115269   5.261   0.522   6.932
 4790SOL    HW215270   5.305   0.562   6.780
 4791SOL     OW15271   4.308   1.498   3.337
 4791SOL    HW115272   4.401   1.529   3.357
 4791SOL    HW215273   4.309   1.444   3.252
 4792SOL     OW15274   3.202   2.541   1.502
 4792SOL    HW115275   3.254   2.541   1.587
 4792SOL    HW215276   3.217   2.628   1.454
 4793SOL     OW15277   0.688   0.293   6.484
 4793SOL    HW115278   0.588   0.298   6.475
 4793SOL    HW215279   0.725   0.232   6.414
 4794SOL     OW15280   4.187   1.076   1.641
 4794SOL    HW115281   4.174   1.099   1.738
 4794SOL    HW215282   4.284   1.059   1.624
 4795SOL     OW15283   5.633   2.781   4.247
 4795SOL    HW115284   5.707   2.828   4.198
 4795SOL    HW215285   5.575   2.848   4.292
 4796SOL     OW15286   6.055   4.129   0.876
 4796SOL    HW115287   6.045   4.225   0.904
 4796SOL    HW215288   5.975   4.100   0.824
 4797SOL     OW15289   0.458   4.751   5.038
 4797SOL    HW115290   0.475   4.850   5.039
 4797SOL    HW215291   0.361   4.734   5.019
 4798SOL     OW15292   6.847   4.229   5.856
 4798SOL    HW115293   6.834   4.251   5.953
 4798SOL    HW215294   6.827   4.310   5.801
 4799SOL     OW15295   3.737   1.243   5.167
 4799SOL    HW115296   3.799   1.321   5.155
 4799SOL    HW215297   3.696   1.247   5.258
 4800SOL     OW15298   2.286   1.973   3.898
 4800SOL    HW115299   2.323   2.060   3.928
 4800SOL    HW215300   2.188   1.969   3.919
 4801SOL     OW15301   0.926   2.819   0.854
 4801SOL    HW115302   0.982   2.898   0.877
 4801SOL    HW215303   0.929   2.803   0.755
 4802SOL     OW15304   1.970   7.003   1.893
 4802SOL    HW115305   1.885   6.967   1.930
 4802SOL    HW215306   2.032   0.008   1.968
 4803SOL     OW15307   0.764   6.905   1.190
 4803SOL    HW115308   0.747   6.900   1.288
 4803SOL    HW215309   0.685   6.867   1.141
 4804SOL     OW15310   3.711   5.452   0.069
 4804SOL    HW115311   3.666   5.372   0.109
 4804SOL    HW215312   3.690   5.533   0.123
 4805SOL     OW15313   0.434   0.914   1.149
 4805SOL    HW115314   0.445   0.979   1.074
 4805SOL    HW215315   0.480   0.950   1.230
 4806SOL     OW15316   0.406   2.919   3.248
 4806SOL    HW115317   0.361   2.848   3.303
 4806SOL    HW215318   0.504   2.901   3.243
 4807SOL     OW15319   0.672   6.364   2.097
 4807SOL    HW115320   0.675   6.392   2.001
 4807SOL    HW215321   0.748   6.301   2.116
 4808SOL     OW15322   5.206   2.999   1.025
 4808SOL    HW115323   5.160   2.910   1.019
 4808SOL    HW215324   5.304   2.987   1.011
 4809SOL     OW15325   4.202   6.399   6.476
 4809SOL    HW115326   4.250   6.334   6.417
 4809SOL    HW215327   4.159   6.349   6.552
 4810SOL     OW15328   1.114   0.237   1.202
 4810SOL    HW115329   1.104   0.334   1.180
 4810SOL    HW215330   1.042   0.210   1.265
 4811SOL     OW15331   5.650   5.904   2.849
 4811SOL    HW115332   5.572   5.887   2.788
 4811SOL    HW215333   5.671   6.001   2.850
 4812SOL     OW15334   6.753   5.154   3.923
 4812SOL    HW115335   6.796   5.139   3.834
 4812SOL    HW215336   6.677   5.090   3.935
 4813SOL     OW15337   5.559   3.277   3.156
 4813SOL    HW115338   5.656   3.298   3.167
 4813SOL    HW215339   5.538   3.263   3.059
 4814SOL     OW15340   6.566   3.523   1.895
 4814SOL    HW115341   6.602   3.516   1.802
 4814SOL    HW215342   6.482   3.577   1.895
 4815SOL     OW15343   4.206   6.867   2.986
 4815SOL    HW115344   4.247   6.783   3.021
 4815SOL    HW215345   4.172   6.923   3.062
 4816SOL     OW15346   5.142   4.808   3.221
 4816SOL    HW115347   5.105   4.899   3.237
 4816SOL    HW215348   5.164   4.766   3.309
 4817SOL     OW15349   6.946   1.644   0.055
 4817SOL    HW115350   7.012   1.665   0.127
 4817SOL    HW215351   6.855   1.673   0.084
 4818SOL     OW15352   6.956   6.001   3.302
 4818SOL    HW115353   6.970   5.990   3.203
 4818SOL    HW215354   6.869   5.960   3.328
 4819SOL     OW15355   1.826   3.200   1.359
 4819SOL    HW115356   1.774   3.221   1.441
 4819SOL    HW215357   1.838   3.100   1.351
 4820SOL     OW15358   0.558   3.280   2.685
 4820SOL    HW115359   0.656   3.292   2.700
 4820SOL    HW215360   0.529   3.339   2.610
 4821SOL     OW15361   0.276   5.576   3.669
 4821SOL    HW115362   0.298   5.479   3.672
 4821SOL    HW215363   0.295   5.612   3.578
 4822SOL     OW15364   2.301   4.219   4.231
 4822SOL    HW115365   2.323   4.280   4.308
 4822SOL    HW215366   2.320   4.266   4.145
 4823SOL     OW15367   1.564   2.937   1.313
 4823SOL    HW115368   1.488   2.905   1.370
 4823SOL    HW215369   1.527   2.977   1.229
 4824SOL     OW15370   6.539   1.431   6.877
 4824SOL    HW115371   6.513   1.335   6.866
 4824SOL    HW215372   6.495   1.468   6.959
 4825SOL     OW15373   1.232   6.573   3.735
 4825SOL    HW115374   1.312   6.590   3.677
 4825SOL    HW215375   1.152   6.618   3.696
 4826SOL     OW15376   3.851   0.039   1.104
 4826SOL    HW115377   3.887   0.033   1.011
 4826SOL    HW215378   3.754   0.064   1.100
 4827SOL     OW15379   6.846   1.653   1.025
 4827SOL    HW115380   6.803   1.730   1.071
 4827SOL    HW215381   6.832   1.570   1.079
 4828SOL     OW15382   5.607   1.726   5.524
 4828SOL    HW115383   5.509   1.716   5.540
 4828SOL    HW215384   5.639   1.811   5.565
 4829SOL     OW15385   3.937   6.472   5.119
 4829SOL    HW115386   3.978   6.502   5.032
 4829SOL    HW215387   3.838   6.471   5.110
 4830SOL     OW15388   2.235   6.436   3.678
 4830SOL    HW115389   2.276   6.393   3.759
 4830SOL    HW215390   2.179   6.370   3.629
 4831SOL     OW15391   2.993   4.706   5.304
 4831SOL    HW115392   2.927   4.655   5.248
 4831SOL    HW215393   3.035   4.644   5.370
 4832SOL     OW15394   3.945   3.417   4.275
 4832SOL    HW115395   3.855   3.458   4.290
 4832SOL    HW215396   3.982   3.447   4.186
 4833SOL     OW15397   6.450   2.799   5.050
 4833SOL    HW115398   6.433   2.877   5.110
 4833SOL    HW215399   6.364   2.751   5.033
 4834SOL     OW15400   1.182   5.307   1.596
 4834SOL    HW115401   1.161   5.290   1.500
 4834SOL    HW215402   1.229   5.395   1.605
 4835SOL     OW15403   6.994   3.121   6.110
 4835SOL    HW115404   0.053   3.079   6.159
 4835SOL    HW215405   7.004   3.103   6.012
 4836SOL     OW15406   4.268   2.228   5.890
 4836SOL    HW115407   4.257   2.324   5.865
 4836SOL    HW215408   4.178   2.186   5.903
 4837SOL     OW15409   1.207   3.709   4.204
 4837SOL    HW115410   1.307   3.713   4.199
 4837SOL    HW215411   1.168   3.792   4.166
 4838SOL     OW15412   1.992   3.816   6.086
 4838SOL    HW115413   2.006   3.899   6.032
 4838SOL    HW215414   2.013   3.835   6.182
 4839SOL     OW15415   2.535   0.982   0.933
 4839SOL    HW115416   2.611   1.015   0.990
 4839SOL    HW215417   2.474   0.926   0.988
 4840SOL     OW15418   5.163   3.256   5.307
 4840SOL    HW115419   5.246   3.208   5.335
 4840SOL    HW215420   5.146   3.332   5.369
 4841SOL     OW15421   2.713   6.426   3.114
 4841SOL    HW115422   2.669   6.502   3.066
 4841SOL    HW215423   2.687   6.428   3.210
 4842SOL     OW15424   3.600   5.886   3.231
 4842SOL    HW115425   3.696   5.911   3.247
 4842SOL    HW215426   3.596   5.813   3.162
 4843SOL     OW15427   6.857   1.459   0.278
 4843SOL    HW115428   6.856   1.400   0.197
 4843SOL    HW215429   6.937   1.518   0.276
 4844SOL     OW15430   1.257   5.608   6.292
 4844SOL    HW115431   1.190   5.683   6.297
 4844SOL    HW215432   1.348   5.644   6.316
 4845SOL     OW15433   4.803   3.908   5.044
 4845SOL    HW115434   4.729   3.899   4.978
 4845SOL    HW215435   4.802   3.830   5.107
 4846SOL     OW15436   6.044   3.416   4.820
 4846SOL    HW115437   6.068   3.391   4.726
 4846SOL    HW215438   6.115   3.474   4.859
 4847SOL     OW15439   2.655   6.684   6.922
 4847SOL    HW115440   2.565   6.727   6.916
 4847SOL    HW215441   2.698   6.685   6.831
 4848SOL     OW15442   4.771   1.277   3.976
 4848SOL    HW115443   4.811   1.189   4.001
 4848SOL    HW215444   4.676   1.280   4.005
 4849SOL     OW15445   2.211   6.919   1.343
 4849SOL    HW115446   2.297   6.905   1.294
 4849SOL    HW215447   2.229   6.931   1.440
 4850SOL     OW15448   3.413   6.511   1.480
 4850SOL    HW115449   3.444   6.503   1.575
 4850SOL    HW215450   3.469   6.579   1.432
 4851SOL     OW15451   3.959   4.930   7.011
 4851SOL    HW115452   3.951   4.939   0.093
 4851SOL    HW215453   4.052   4.950   6.983
 4852SOL     OW15454   5.024   5.287   5.977
 4852SOL    HW115455   5.084   5.240   5.912
 4852SOL    HW215456   5.080   5.339   6.041
 4853SOL     OW15457   4.297   0.212   2.805
 4853SOL    HW115458   4.263   0.160   2.727
 4853SOL    HW215459   4.349   0.151   2.865
 4854SOL     OW15460   4.400   6.726   2.279
 4854SOL    HW115461   4.409   6.824   2.295
 4854SOL    HW215462   4.488   6.688   2.251
 4855SOL     OW15463   4.847   5.071   5.391
 4855SOL    HW115464   4.784   5.000   5.423
 4855SOL    HW215465   4.854   5.143   5.459
 4856SOL     OW15466   0.531   3.154   2.944
 4856SOL    HW115467   0.546   3.200   2.857
 4856SOL    HW215468   0.495   3.220   3.011
 4857SOL     OW15469   2.327   2.495   4.985
 4857SOL    HW115470   2.229   2.503   4.964
 4857SOL    HW215471   2.362   2.409   4.947
 4858SOL     OW15472   1.641   6.206   5.105
 4858SOL    HW115473   1.635   6.124   5.049
 4858SOL    HW215474   1.707   6.191   5.179
 4859SOL     OW15475   6.819   5.973   2.849
 4859SOL    HW115476   6.788   5.948   2.758
 4859SOL    HW215477   6.762   6.047   2.885
 4860SOL     OW15478   3.708   5.304   2.333
 4860SOL    HW115479   3.611   5.289   2.315
 4860SOL    HW215480   3.728   5.402   2.330
 4861SOL     OW15481   0.097   4.562   5.559
 4861SOL    HW115482   0.116   4.489   5.493
 4861SOL    HW215483   0.175   4.573   5.620
 4862SOL     OW15484   1.930   6.507   4.490
 4862SOL    HW115485   1.893   6.425   4.534
 4862SOL    HW215486   1.916   6.585   4.550
 4863SOL     OW15487   5.699   1.694   1.790
 4863SOL    HW115488   5.733   1.608   1.752
 4863SOL    HW215489   5.758   1.769   1.760
 4864SOL     OW15490   2.127   1.901   1.089
 4864SOL    HW115491   2.137   1.809   1.051
 4864SOL    HW215492   2.218   1.941   1.104
 4865SOL     OW15493   3.876   6.241   4.797
 4865SOL    HW115494   3.949   6.229   4.864
 4865SOL    HW215495   3.793   6.273   4.844
 4866SOL     OW15496   0.623   5.502   1.901
 4866SOL    HW115497   0.636   5.578   1.965
 4866SOL    HW215498   0.637   5.533   1.808
 4867SOL     OW15499   5.490   4.616   4.859
 4867SOL    HW115500   5.462   4.700   4.907
 4867SOL    HW215501   5.409   4.569   4.823
 4868SOL     OW15502   1.918   5.459   1.641
 4868SOL    HW115503   1.963   5.548   1.631
 4868SOL    HW215504   1.925   5.429   1.736
 4869SOL     OW15505   6.384   1.844   1.664
 4869SOL    HW115506   6.345   1.753   1.658
 4869SOL    HW215507   6.334   1.906   1.604
 4870SOL     OW15508   6.290   0.827   1.228
 4870SOL    HW115509   6.390   0.830   1.224
 4870SOL    HW215510   6.253   0.851   1.138
 4871SOL     OW15511   1.387   3.706   4.638
 4871SOL    HW115512   1.445   3.686   4.559
 4871SOL    HW215513   1.349   3.798   4.628
 4872SOL     OW15514   1.096   1.241   3.901
 4872SOL    HW115515   1.038   1.298   3.959
 4872SOL    HW215516   1.113   1.287   3.814
 4873SOL     OW15517   1.107   6.248   5.413
 4873SOL    HW115518   1.015   6.248   5.374
 4873SOL    HW215519   1.103   6.279   5.508
 4874SOL     OW15520   6.043   2.822   3.089
 4874SOL    HW115521   6.058   2.824   2.990
 4874SOL    HW215522   5.945   2.831   3.108
 4875SOL     OW15523   6.986   3.206   6.463
 4875SOL    HW115524   7.017   3.117   6.497
 4875SOL    HW215525   0.043   3.249   6.411
 4876SOL     OW15526   0.164   1.636   6.901
 4876SOL    HW115527   0.084   1.654   6.958
 4876SOL    HW215528   0.245   1.627   6.959
 4877SOL     OW15529   5.781   1.425   1.797
 4877SOL    HW115530   5.749   1.414   1.891
 4877SOL    HW215531   5.824   1.340   1.766
 4878SOL     OW15532   0.711   3.006   1.644
 4878SOL    HW115533   0.647   3.020   1.569
 4878SOL    HW215534   0.751   3.093   1.671
 4879SOL     OW15535   4.472   5.742   3.139
 4879SOL    HW115536   4.563   5.737   3.097
 4879SOL    HW215537   4.422   5.819   3.100
 4880SOL     OW15538   5.965   2.120   5.767
 4880SOL    HW115539   6.016   2.185   5.710
 4880SOL    HW215540   5.985   2.027   5.738
 4881SOL     OW15541   2.730   5.735   6.266
 4881SOL    HW115542   2.684   5.823   6.253
 4881SOL    HW215543   2.776   5.709   6.181
 4882SOL     OW15544   5.224   6.254   0.075
 4882SOL    HW115545   5.215   6.331   0.012
 4882SOL    HW215546   5.139   6.202   0.078
 4883SOL     OW15547   6.560   5.514   6.799
 4883SOL    HW115548   6.548   5.528   6.898
 4883SOL    HW215549   6.478   5.470   6.762
 4884SOL     OW15550   4.402   6.869   1.371
 4884SOL    HW115551   4.345   6.914   1.302
 4884SOL    HW215552   4.457   6.798   1.328
 4885SOL     OW15553   2.095   6.926   2.573
 4885SOL    HW115554   2.034   6.910   2.495
 4885SOL    HW215555   2.040   6.946   2.654
 4886SOL     OW15556   5.968   1.183   5.978
 4886SOL    HW115557   5.970   1.137   6.067
 4886SOL    HW215558   6.049   1.241   5.970
 4887SOL     OW15559   0.593   1.988   5.383
 4887SOL    HW115560   0.500   1.957   5.402
 4887SOL    HW215561   0.658   1.928   5.430
 4888SOL     OW15562   3.314   6.035   1.916
 4888SOL    HW115563   3.325   5.999   1.824
 4888SOL    HW215564   3.335   6.133   1.916
 4889SOL     OW15565   1.509   3.027   6.347
 4889SOL    HW115566   1.565   2.944   6.348
 4889SOL    HW215567   1.555   3.098   6.294
 4890SOL     OW15568   0.067   0.654   4.262
 4890SOL    HW115569   0.051   0.575   4.204
 4890SOL    HW215570   0.070   0.625   4.358
 4891SOL     OW15571   1.263   4.532   0.427
 4891SOL    HW115572   1.166   4.548   0.446
 4891SOL    HW215573   1.301   4.473   0.498
 4892SOL     OW15574   1.949   5.428   2.332
 4892SOL    HW115575   2.039   5.455   2.366
 4892SOL    HW215576   1.931   5.333   2.358
 4893SOL     OW15577   0.569   4.000   6.892
 4893SOL    HW115578   0.532   4.087   6.858
 4893SOL    HW215579   0.545   3.927   6.829
 4894SOL     OW15580   1.795   0.369   3.205
 4894SOL    HW115581   1.798   0.464   3.235
 4894SOL    HW215582   1.846   0.360   3.119
 4895SOL     OW15583   5.810   4.144   6.857
 4895SOL    HW115584   5.841   4.050   6.867
 4895SOL    HW215585   5.879   4.207   6.892
 4896SOL     OW15586   4.022   6.663   3.637
 4896SOL    HW115587   3.960   6.601   3.685
 4896SOL    HW215588   3.970   6.726   3.580
 4897SOL     OW15589   2.551   5.711   6.635
 4897SOL    HW115590   2.602   5.797   6.641
 4897SOL    HW215591   2.552   5.666   6.724
 4898SOL     OW15592   6.148   1.869   4.363
 4898SOL    HW115593   6.130   1.967   4.364
 4898SOL    HW215594   6.082   1.824   4.303
 4899SOL     OW15595   4.879   4.690   4.593
 4899SOL    HW115596   4.930   4.776   4.589
 4899SOL    HW215597   4.875   4.657   4.687
 4900SOL     OW15598   0.515   6.746   4.794
 4900SOL    HW115599   0.526   6.672   4.728
 4900SOL    HW215600   0.427   6.737   4.840
 4901SOL     OW15601   0.061   6.858   3.211
 4901SOL    HW115602   7.005   6.910   3.254
 4901SOL    HW215603   0.109   6.915   3.145
 4902SOL     OW15604   3.640   4.736   1.579
 4902SOL    HW115605   3.611   4.831   1.592
 4902SOL    HW215606   3.633   4.686   1.665
 4903SOL     OW15607   5.698   5.376   6.139
 4903SOL    HW115608   5.781   5.427   6.161
 4903SOL    HW215609   5.710   5.329   6.051
 4904SOL     OW15610   3.065   0.185   3.627
 4904SOL    HW115611   3.137   0.254   3.632
 4904SOL    HW215612   3.019   0.177   3.715
 4905SOL     OW15613   6.683   3.275   3.283
 4905SOL    HW115614   6.585   3.259   3.271
 4905SOL    HW215615   6.707   3.364   3.246
 4906SOL     OW15616   4.687   0.815   1.153
 4906SOL    HW115617   4.770   0.870   1.144
 4906SOL    HW215618   4.607   0.876   1.151
 4907SOL     OW15619   2.593   1.736   1.941
 4907SOL    HW115620   2.525   1.664   1.950
 4907SOL    HW215621   2.683   1.701   1.967
 4908SOL     OW15622   3.872   5.547   0.679
 4908SOL    HW115623   3.930   5.466   0.680
 4908SOL    HW215624   3.777   5.520   0.662
 4909SOL     OW15625   6.266   0.155   5.356
 4909SOL    HW115626   6.338   0.141   5.424
 4909SOL    HW215627   6.179   0.171   5.402
 4910SOL     OW15628   5.817   6.830   6.219
 4910SOL    HW115629   5.825   6.843   6.120
 4910SOL    HW215630   5.721   6.815   6.244
 4911SOL     OW15631   0.970   4.187   6.419
 4911SOL    HW115632   0.877   4.161   6.394
 4911SOL    HW215633   1.026   4.191   6.336
 4912SOL     OW15634   2.518   2.574   1.879
 4912SOL    HW115635   2.568   2.621   1.806
 4912SOL    HW215636   2.572   2.498   1.913
 4913SOL     OW15637   2.572   2.940   1.538
 4913SOL    HW115638   2.586   2.896   1.627
 4913SOL    HW215639   2.553   3.037   1.552
 4914SOL     OW15640   1.320   6.800   2.598
 4914SOL    HW115641   1.404   6.806   2.543
 4914SOL    HW215642   1.328   6.861   2.677
 4915SOL     OW15643   2.256   6.294   3.220
 4915SOL    HW115644   2.224   6.294   3.125
 4915SOL    HW215645   2.233   6.381   3.263
 4916SOL     OW15646   1.940   2.120   2.584
 4916SOL    HW115647   1.926   2.194   2.650
 4916SOL    HW215648   2.005   2.150   2.515
 4917SOL     OW15649   2.003   4.170   6.065
 4917SOL    HW115650   1.906   4.151   6.079
 4917SOL    HW215651   2.033   4.240   6.131
 4918SOL     OW15652   2.294   0.693   3.792
 4918SOL    HW115653   2.339   0.606   3.772
 4918SOL    HW215654   2.249   0.688   3.881
 4919SOL     OW15655   2.509   3.191   1.514
 4919SOL    HW115656   2.411   3.204   1.495
 4919SOL    HW215657   2.546   3.276   1.552
 4920SOL     OW15658   3.775   0.561   0.425
 4920SOL    HW115659   3.799   0.595   0.516
 4920SOL    HW215660   3.750   0.464   0.431
 4921SOL     OW15661   0.287   4.871   1.767
 4921SOL    HW115662   0.363   4.877   1.702
 4921SOL    HW215663   0.247   4.779   1.763
 4922SOL     OW15664   1.320   2.863   6.109
 4922SOL    HW115665   1.303   2.765   6.106
 4922SOL    HW215666   1.397   2.885   6.049
 4923SOL     OW15667   2.835   1.859   0.257
 4923SOL    HW115668   2.813   1.766   0.229
 4923SOL    HW215669   2.920   1.888   0.213
 4924SOL     OW15670   6.896   3.680   4.246
 4924SOL    HW115671   6.862   3.642   4.332
 4924SOL    HW215672   6.819   3.702   4.186
 4925SOL     OW15673   4.679   5.897   6.166
 4925SOL    HW115674   4.700   5.902   6.068
 4925SOL    HW215675   4.582   5.916   6.181
 4926SOL     OW15676   4.440   3.100   0.597
 4926SOL    HW115677   4.463   3.089   0.694
 4926SOL    HW215678   4.482   3.184   0.562
 4927SOL     OW15679   3.227   3.547   2.196
 4927SOL    HW115680   3.208   3.493   2.278
 4927SOL    HW215681   3.141   3.565   2.147
 4928SOL     OW15682   0.955   0.145   0.481
 4928SOL    HW115683   0.981   0.066   0.427
 4928SOL    HW215684   0.979   0.129   0.577
 4929SOL     OW15685   1.308   4.469   4.610
 4929SOL    HW115686   1.382   4.536   4.599
 4929SOL    HW215687   1.236   4.489   4.543
 4930SOL     OW15688   0.279   3.084   0.623
 4930SOL    HW115689   0.330   3.041   0.549
 4930SOL    HW215690   0.228   3.015   0.674
 4931SOL     OW15691   6.164   6.514   1.229
 4931SOL    HW115692   6.097   6.455   1.274
 4931SOL    HW215693   6.256   6.477   1.243
 4932SOL     OW15694   3.281   1.734   1.118
 4932SOL    HW115695   3.323   1.820   1.147
 4932SOL    HW215696   3.317   1.659   1.174
 4933SOL     OW15697   2.799   0.378   4.632
 4933SOL    HW115698   2.896   0.384   4.606
 4933SOL    HW215699   2.792   0.343   4.725
 4934SOL     OW15700   2.007   5.912   5.122
 4934SOL    HW115701   2.063   5.835   5.153
 4934SOL    HW215702   1.937   5.931   5.190
 4935SOL     OW15703   1.856   1.679   0.602
 4935SOL    HW115704   1.948   1.678   0.641
 4935SOL    HW215705   1.791   1.710   0.672
 4936SOL     OW15706   5.379   5.973   1.445
 4936SOL    HW115707   5.340   6.054   1.401
 4936SOL    HW215708   5.336   5.961   1.535
 4937SOL     OW15709   1.191   3.123   4.921
 4937SOL    HW115710   1.118   3.055   4.919
 4937SOL    HW215711   1.205   3.159   4.829
 4938SOL     OW15712   3.360   4.863   1.751
 4938SOL    HW115713   3.273   4.821   1.727
 4938SOL    HW215714   3.417   4.798   1.802
 4939SOL     OW15715   1.261   1.342   0.582
 4939SOL    HW115716   1.298   1.434   0.582
 4939SOL    HW215717   1.163   1.346   0.562
 4940SOL     OW15718   1.233   1.757   5.712
 4940SOL    HW115719   1.261   1.720   5.623
 4940SOL    HW215720   1.312   1.758   5.773
 4941SOL     OW15721   3.944   2.517   5.446
 4941SOL    HW115722   4.013   2.524   5.374
 4941SOL    HW215723   3.961   2.435   5.501
 4942SOL     OW15724   6.930   1.637   3.151
 4942SOL    HW115725   6.897   1.577   3.079
 4942SOL    HW215726   6.935   1.587   3.237
 4943SOL     OW15727   5.197   2.540   6.743
 4943SOL    HW115728   5.271   2.596   6.781
 4943SOL    HW215729   5.224   2.504   6.654
 4944SOL     OW15730   0.761   4.931   0.389
 4944SOL    HW115731   0.698   4.912   0.464
 4944SOL    HW215732   0.796   4.846   0.351
 4945SOL     OW15733   2.788   0.429   6.047
 4945SOL    HW115734   2.850   0.493   6.093
 4945SOL    HW215735   2.800   0.338   6.085
 4946SOL     OW15736   2.609   5.637   6.908
 4946SOL    HW115737   2.658   5.647   6.995
 4946SOL    HW215738   2.627   5.547   6.870
 4947SOL     OW15739   0.728   0.474   0.694
 4947SOL    HW115740   0.810   0.418   0.681
 4947SOL    HW215741   0.660   0.423   0.747
 4948SOL     OW15742   1.883   1.991   2.155
 4948SOL    HW115743   1.871   2.082   2.196
 4948SOL    HW215744   1.944   1.998   2.077
 4949SOL     OW15745   0.090   4.212   6.141
 4949SOL    HW115746   0.142   4.283   6.188
 4949SOL    HW215747   0.003   4.249   6.110
 4950SOL     OW15748   4.082   4.534   5.669
 4950SOL    HW115749   4.104   4.625   5.634
 4950SOL    HW215750   4.056   4.474   5.593
 4951SOL     OW15751   4.902   5.702   2.728
 4951SOL    HW115752   4.878   5.605   2.734
 4951SOL    HW215753   4.902   5.730   2.632
 4952SOL     OW15754   1.143   0.668   6.849
 4952SOL    HW115755   1.204   0.649   6.773
 4952SOL    HW215756   1.197   0.675   6.934
 4953SOL     OW15757   1.301   2.078   4.712
 4953SOL    HW115758   1.232   2.145   4.739
 4953SOL    HW215759   1.390   2.107   4.745
 4954SOL     OW15760   2.829   3.776   5.196
 4954SOL    HW115761   2.753   3.803   5.255
 4954SOL    HW215762   2.831   3.676   5.189
 4955SOL     OW15763   3.852   5.907   6.338
 4955SOL    HW115764   3.821   5.949   6.423
 4955SOL    HW215765   3.942   5.943   6.313
 4956SOL     OW15766   2.833   0.257   4.890
 4956SOL    HW115767   2.790   0.274   4.979
 4956SOL    HW215768   2.799   0.170   4.853
 4957SOL     OW15769   5.438   4.789   6.831
 4957SOL    HW115770   5.372   4.716   6.811
 4957SOL    HW215771   5.505   4.794   6.757
 4958SOL     OW15772   3.481   5.304   1.039
 4958SOL    HW115773   3.455   5.275   0.947
 4958SOL    HW215774   3.574   5.340   1.037
 4959SOL     OW15775   6.954   2.772   3.053
 4959SOL    HW115776   6.950   2.717   2.970
 4959SOL    HW215777   6.974   2.867   3.029
 4960SOL     OW15778   5.138   4.258   3.961
 4960SOL    HW115779   5.081   4.333   3.996
 4960SOL    HW215780   5.232   4.270   3.993
 4961SOL     OW15781   3.432   2.339   1.725
 4961SOL    HW115782   3.383   2.424   1.742
 4961SOL    HW215783   3.519   2.339   1.774
 4962SOL     OW15784   1.498   3.138   0.414
 4962SOL    HW115785   1.423   3.072   0.410
 4962SOL    HW215786   1.549   3.135   0.328
 4963SOL     OW15787   0.670   3.960   5.707
 4963SOL    HW115788   0.737   4.033   5.720
 4963SOL    HW215789   0.718   3.872   5.703
 4964SOL     OW15790   2.048   5.286   4.796
 4964SOL    HW115791   2.000   5.369   4.767
 4964SOL    HW215792   2.145   5.295   4.775
 4965SOL     OW15793   1.598   6.572   3.235
 4965SOL    HW115794   1.679   6.626   3.214
 4965SOL    HW215795   1.529   6.631   3.277
 4966SOL     OW15796   3.778   0.030   4.348
 4966SOL    HW115797   3.769   0.119   4.392
 4966SOL    HW215798   3.769   6.975   4.416
 4967SOL     OW15799   4.094   4.838   4.454
 4967SOL    HW115800   4.015   4.899   4.461
 4967SOL    HW215801   4.121   4.808   4.546
 4968SOL     OW15802   0.264   2.771   3.435
 4968SOL    HW115803   0.189   2.814   3.385
 4968SOL    HW215804   0.251   2.784   3.533
 4969SOL     OW15805   0.436   6.258   4.259
 4969SOL    HW115806   0.480   6.213   4.182
 4969SOL    HW215807   0.376   6.193   4.306
 4970SOL     OW15808   1.932   1.647   1.410
 4970SOL    HW115809   1.866   1.593   1.462
 4970SOL    HW215810   2.019   1.651   1.460
 4971SOL     OW15811   0.191   5.882   1.985
 4971SOL    HW115812   0.254   5.811   1.956
 4971SOL    HW215813   0.224   5.971   1.954
 4972SOL     OW15814   1.081   4.080   0.239
 4972SOL    HW115815   1.110   4.146   0.309
 4972SOL    HW215816   1.087   4.122   0.149
 4973SOL     OW15817   5.941   1.116   0.434
 4973SOL    HW115818   5.949   1.083   0.340
 4973SOL    HW215819   6.025   1.095   0.484
 4974SOL     OW15820   3.017   0.068   4.580
 4974SOL    HW115821   3.068   7.000   4.589
 4974SOL    HW215822   2.922   0.053   4.609
 4975SOL     OW15823   5.278   4.759   1.072
 4975SOL    HW115824   5.271   4.838   1.133
 4975SOL    HW215825   5.289   4.790   0.978
 4976SOL     OW15826   1.166   0.075   3.390
 4976SOL    HW115827   1.085   0.015   3.389
 4976SOL    HW215828   1.139   0.167   3.362
 4977SOL     OW15829   1.678   4.241   6.010
 4977SOL    HW115830   1.650   4.194   6.094
 4977SOL    HW215831   1.689   4.174   5.937
 4978SOL     OW15832   6.126   4.484   4.353
 4978SOL    HW115833   6.086   4.428   4.425
 4978SOL    HW215834   6.192   4.430   4.301
 4979SOL     OW15835   2.193   6.877   6.596
 4979SOL    HW115836   2.169   6.799   6.655
 4979SOL    HW215837   2.159   6.962   6.638
 4980SOL     OW15838   5.533   2.582   4.077
 4980SOL    HW115839   5.567   2.668   4.114
 4980SOL    HW215840   5.603   2.539   4.022
 4981SOL     OW15841   3.311   5.509   2.935
 4981SOL    HW115842   3.362   5.432   2.898
 4981SOL    HW215843   3.264   5.556   2.860
 4982SOL     OW15844   3.805   2.334   5.274
 4982SOL    HW115845   3.792   2.418   5.326
 4982SOL    HW215846   3.773   2.256   5.328
 4983SOL     OW15847   5.813   4.373   2.472
 4983SOL    HW115848   5.858   4.336   2.553
 4983SOL    HW215849   5.881   4.394   2.402
 4984SOL     OW15850   4.954   3.569   4.615
 4984SOL    HW115851   4.985   3.524   4.531
 4984SOL    HW215852   4.928   3.500   4.682
 4985SOL     OW15853   5.504   0.805   2.178
 4985SOL    HW115854   5.450   0.870   2.123
 4985SOL    HW215855   5.447   0.771   2.253
 4986SOL     OW15856   0.841   5.339   1.144
 4986SOL    HW115857   0.919   5.351   1.084
 4986SOL    HW215858   0.862   5.270   1.213
 4987SOL     OW15859   1.990   1.521   2.871
 4987SOL    HW115860   2.008   1.428   2.903
 4987SOL    HW215861   2.067   1.552   2.815
 4988SOL     OW15862   6.330   5.716   3.812
 4988SOL    HW115863   6.333   5.815   3.824
 4988SOL    HW215864   6.364   5.671   3.895
 4989SOL     OW15865   5.456   6.802   3.629
 4989SOL    HW115866   5.493   6.844   3.711
 4989SOL    HW215867   5.358   6.820   3.623
 4990SOL     OW15868   4.487   1.963   6.104
 4990SOL    HW115869   4.420   1.889   6.095
 4990SOL    HW215870   4.557   1.937   6.170
 4991SOL     OW15871   2.056   5.449   5.863
 4991SOL    HW115872   2.060   5.409   5.772
 4991SOL    HW215873   2.091   5.383   5.930
 4992SOL     OW15874   1.559   3.667   4.155
 4992SOL    HW115875   1.573   3.752   4.106
 4992SOL    HW215876   1.554   3.591   4.090
 4993SOL     OW15877   2.208   6.047   4.123
 4993SOL    HW115878   2.234   6.091   4.209
 4993SOL    HW215879   2.265   5.967   4.109
 4994SOL     OW15880   3.908   4.876   5.182
 4994SOL    HW115881   3.912   4.817   5.263
 4994SOL    HW215882   3.870   4.965   5.207
 4995SOL     OW15883   0.185   0.735   5.962
 4995SOL    HW115884   0.159   0.793   5.885
 4995SOL    HW215885   0.234   0.654   5.928
 4996SOL     OW15886   0.251   1.322   3.820
 4996SOL    HW115887   0.176   1.289   3.876
 4996SOL    HW215888   0.261   1.264   3.739
 4997SOL     OW15889   4.099   1.316   0.744
 4997SOL    HW115890   4.055   1.280   0.662
 4997SOL    HW215891   4.194   1.286   0.747
 4998SOL     OW15892   0.653   3.650   3.270
 4998SOL    HW115893   0.591   3.672   3.195
 4998SOL    HW215894   0.729   3.716   3.270
 4999SOL     OW15895   0.663   2.800   3.217
 4999SOL    HW115896   0.617   2.720   3.179
 4999SOL    HW215897   0.711   2.774   3.301
 5000SOL     OW15898   2.447   6.106   3.092
 5000SOL    HW115899   2.482   6.077   3.003
 5000SOL    HW215900   2.408   6.197   3.085
 5001SOL     OW15901   0.227   6.080   3.001
 5001SOL    HW115902   0.240   6.092   2.902
 5001SOL    HW215903   0.132   6.053   3.019
 5002SOL     OW15904   1.433   4.591   3.961
 5002SOL    HW115905   1.368   4.603   3.886
 5002SOL    HW215906   1.404   4.647   4.039
 5003SOL     OW15907   3.911   0.689   2.898
 5003SOL    HW115908   3.959   0.775   2.883
 5003SOL    HW215909   3.976   0.613   2.891
 5004SOL     OW15910   4.034   6.072   0.040
 5004SOL    HW115911   4.078   6.076   6.968
 5004SOL    HW215912   4.104   6.065   0.111
 5005SOL     OW15913   2.991   3.050   0.573
 5005SOL    HW115914   3.005   2.951   0.577
 5005SOL    HW215915   3.031   3.092   0.655
 5006SOL     OW15916   4.776   1.247   2.384
 5006SOL    HW115917   4.766   1.302   2.467
 5006SOL    HW215918   4.846   1.177   2.399
 5007SOL     OW15919   5.881   5.602   2.074
 5007SOL    HW115920   5.869   5.506   2.049
 5007SOL    HW215921   5.816   5.659   2.023
 5008SOL     OW15922   5.318   0.506   3.253
 5008SOL    HW115923   5.315   0.409   3.276
 5008SOL    HW215924   5.296   0.561   3.334
 5009SOL     OW15925   0.030   2.248   0.840
 5009SOL    HW115926   0.061   2.294   0.923
 5009SOL    HW215927   6.976   2.182   0.863
 5010SOL     OW15928   3.839   3.790   0.873
 5010SOL    HW115929   3.894   3.721   0.919
 5010SOL    HW215930   3.837   3.771   0.774
 5011SOL     OW15931   1.357   2.863   6.534
 5011SOL    HW115932   1.405   2.930   6.590
 5011SOL    HW215933   1.306   2.909   6.462
 5012SOL     OW15934   6.177   1.604   6.545
 5012SOL    HW115935   6.124   1.687   6.556
 5012SOL    HW215936   6.189   1.559   6.634
 5013SOL     OW15937   5.808   0.207   6.151
 5013SOL    HW115938   5.817   0.225   6.053
 5013SOL    HW215939   5.713   0.187   6.172
 5014SOL     OW15940   5.562   3.391   1.503
 5014SOL    HW115941   5.657   3.382   1.534
 5014SOL    HW215942   5.537   3.310   1.450
 5015SOL     OW15943   6.492   5.653   4.065
 5015SOL    HW115944   6.545   5.568   4.058
 5015SOL    HW215945   6.438   5.651   4.149
 5016SOL     OW15946   1.691   3.628   5.471
 5016SOL    HW115947   1.732   3.677   5.548
 5016SOL    HW215948   1.602   3.591   5.499
 5017SOL     OW15949   0.246   3.316   1.604
 5017SOL    HW115950   0.225   3.402   1.652
 5017SOL    HW215951   0.306   3.260   1.661
 5018SOL     OW15952   0.903   0.495   6.904
 5018SOL    HW115953   0.955   0.580   6.920
 5018SOL    HW215954   0.898   0.477   6.806
 5019SOL     OW15955   1.537   4.425   4.350
 5019SOL    HW115956   1.611   4.488   4.325
 5019SOL    HW215957   1.558   4.383   4.438
 5020SOL     OW15958   2.268   0.201   4.489
 5020SOL    HW115959   2.344   0.182   4.551
 5020SOL    HW215960   2.224   0.286   4.516
 5021SOL     OW15961   2.038   0.882   0.831
 5021SOL    HW115962   1.988   0.879   0.744
 5021SOL    HW215963   2.107   0.955   0.827
 5022SOL     OW15964   6.688   2.874   1.206
 5022SOL    HW115965   6.768   2.913   1.251
 5022SOL    HW215966   6.606   2.923   1.233
 5023SOL     OW15967   0.479   4.153   2.475
 5023SOL    HW115968   0.498   4.201   2.561
 5023SOL    HW215969   0.413   4.080   2.493
 5024SOL     OW15970   4.782   3.760   0.814
 5024SOL    HW115971   4.802   3.671   0.774
 5024SOL    HW215972   4.748   3.748   0.907
 5025SOL     OW15973   4.942   1.372   4.736
 5025SOL    HW115974   4.937   1.419   4.824
 5025SOL    HW215975   5.023   1.314   4.734
 5026SOL     OW15976   5.184   6.806   4.508
 5026SOL    HW115977   5.159   6.840   4.598
 5026SOL    HW215978   5.105   6.762   4.465
 5027SOL     OW15979   5.295   6.070   0.888
 5027SOL    HW115980   5.370   6.019   0.929
 5027SOL    HW215981   5.322   6.104   0.798
 5028SOL     OW15982   5.947   1.948   2.172
 5028SOL    HW115983   5.991   2.035   2.153
 5028SOL    HW215984   5.982   1.878   2.110
 5029SOL     OW15985   5.979   1.853   1.761
 5029SOL    HW115986   6.005   1.823   1.853
 5029SOL    HW215987   5.997   1.779   1.696
 5030SOL     OW15988   0.709   4.069   6.480
 5030SOL    HW115989   0.717   4.150   6.537
 5030SOL    HW215990   0.757   3.993   6.523
 5031SOL     OW15991   6.432   6.870   5.835
 5031SOL    HW115992   6.532   6.874   5.843
 5031SOL    HW215993   6.392   6.953   5.873
 5032SOL     OW15994   3.041   3.328   5.878
 5032SOL    HW115995   2.989   3.337   5.793
 5032SOL    HW215996   2.991   3.372   5.952
 5033SOL     OW15997   2.298   0.034   6.399
 5033SOL    HW115998   2.276   6.974   6.457
 5033SOL    HW215999   2.394   0.059   6.411
 5034SOL     OW16000   4.246   6.376   4.511
 5034SOL    HW116001   4.184   6.309   4.552
 5034SOL    HW216002   4.270   6.345   4.418
 5035SOL     OW16003   2.107   3.380   3.851
 5035SOL    HW116004   2.151   3.420   3.932
 5035SOL    HW216005   2.112   3.280   3.857
 5036SOL     OW16006   1.035   2.682   4.981
 5036SOL    HW116007   1.123   2.643   4.952
 5036SOL    HW216008   1.042   2.782   4.981
 5037SOL     OW16009   4.224   4.190   0.964
 5037SOL    HW116010   4.188   4.175   1.056
 5037SOL    HW216011   4.206   4.109   0.908
 5038SOL     OW16012   3.741   3.659   3.247
 5038SOL    HW116013   3.734   3.648   3.346
 5038SOL    HW216014   3.757   3.569   3.205
 5039SOL     OW16015   1.282   3.885   6.690
 5039SOL    HW116016   1.371   3.871   6.646
 5039SOL    HW216017   1.232   3.956   6.643
 5040SOL     OW16018   0.062   1.433   5.937
 5040SOL    HW116019   0.069   1.345   5.890
 5040SOL    HW216020   0.142   1.489   5.917
 5041SOL     OW16021   6.750   2.384   1.225
 5041SOL    HW116022   6.727   2.346   1.315
 5041SOL    HW216023   6.816   2.458   1.237
 5042SOL     OW16024   1.047   2.563   6.205
 5042SOL    HW116025   1.042   2.469   6.239
 5042SOL    HW216026   0.977   2.619   6.250
 5043SOL     OW16027   3.438   6.493   1.754
 5043SOL    HW116028   3.514   6.520   1.813
 5043SOL    HW216029   3.412   6.398   1.773
 5044SOL     OW16030   6.749   5.307   0.086
 5044SOL    HW116031   6.721   5.213   0.062
 5044SOL    HW216032   6.696   5.372   0.031
 5045SOL     OW16033   5.680   2.832   6.627
 5045SOL    HW116034   5.619   2.766   6.583
 5045SOL    HW216035   5.773   2.797   6.626
 5046SOL     OW16036   3.828   3.482   2.577
 5046SOL    HW116037   3.732   3.454   2.572
 5046SOL    HW216038   3.879   3.437   2.504
 5047SOL     OW16039   2.088   3.600   3.640
 5047SOL    HW116040   2.122   3.694   3.643
 5047SOL    HW216041   2.102   3.557   3.729
 5048SOL     OW16042   2.345   0.762   6.050
 5048SOL    HW116043   2.400   0.844   6.061
 5048SOL    HW216044   2.396   0.682   6.083
 5049SOL     OW16045   4.317   1.526   6.377
 5049SOL    HW116046   4.358   1.492   6.292
 5049SOL    HW216047   4.390   1.543   6.444
 5050SOL     OW16048   1.813   0.092   0.789
 5050SOL    HW116049   1.778   0.004   0.817
 5050SOL    HW216050   1.904   0.081   0.748
 5051SOL     OW16051   4.655   4.999   1.365
 5051SOL    HW116052   4.590   5.051   1.309
 5051SOL    HW216053   4.662   4.906   1.330
 5052SOL     OW16054   2.623   1.605   5.251
 5052SOL    HW116055   2.646   1.565   5.340
 5052SOL    HW216056   2.700   1.656   5.216
 5053SOL     OW16057   7.014   1.023   1.809
 5053SOL    HW116058   0.073   1.068   1.763
 5053SOL    HW216059   6.938   1.088   1.818
 5054SOL     OW16060   3.848   5.437   3.803
 5054SOL    HW116061   3.816   5.384   3.882
 5054SOL    HW216062   3.820   5.391   3.719
 5055SOL     OW16063   0.216   3.762   6.243
 5055SOL    HW116064   0.314   3.780   6.244
 5055SOL    HW216065   0.171   3.823   6.178
 5056SOL     OW16066   5.774   3.790   4.011
 5056SOL    HW116067   5.761   3.780   3.912
 5056SOL    HW216068   5.771   3.887   4.036
 5057SOL     OW16069   0.956   5.526   2.520
 5057SOL    HW116070   0.988   5.450   2.464
 5057SOL    HW216071   1.024   5.600   2.517
 5058SOL     OW16072   2.885   5.161   5.785
 5058SOL    HW116073   2.951   5.226   5.747
 5058SOL    HW216074   2.819   5.210   5.842
 5059SOL     OW16075   6.840   0.315   2.295
 5059SOL    HW116076   6.831   0.414   2.286
 5059SOL    HW216077   6.784   0.283   2.371
 5060SOL     OW16078   6.780   2.399   5.971
 5060SOL    HW116079   6.692   2.358   5.993
 5060SOL    HW216080   6.820   2.440   6.053
 5061SOL     OW16081   5.027   4.632   0.621
 5061SOL    HW116082   5.038   4.730   0.635
 5061SOL    HW216083   5.009   4.588   0.709
 5062SOL     OW16084   6.853   0.475   0.981
 5062SOL    HW116085   6.925   0.544   0.984
 5062SOL    HW216086   6.868   0.414   0.902
 5063SOL     OW16087   1.257   5.929   2.012
 5063SOL    HW116088   1.218   5.994   2.077
 5063SOL    HW216089   1.231   5.955   1.919
 5064SOL     OW16090   5.068   3.396   0.036
 5064SOL    HW116091   5.005   3.343   0.094
 5064SOL    HW216092   5.161   3.362   0.048
 5065SOL     OW16093   2.933   6.898   5.848
 5065SOL    HW116094   2.938   6.805   5.811
 5065SOL    HW216095   2.995   6.958   5.796
 5066SOL     OW16096   4.815   4.811   1.107
 5066SOL    HW116097   4.723   4.850   1.108
 5066SOL    HW216098   4.819   4.734   1.170
 5067SOL     OW16099   5.400   1.032   6.778
 5067SOL    HW116100   5.370   1.012   6.684
 5067SOL    HW216101   5.340   1.102   6.817
 5068SOL     OW16102   3.589   5.013   1.682
 5068SOL    HW116103   3.500   4.983   1.715
 5068SOL    HW216104   3.586   5.111   1.662
 5069SOL     OW16105   0.053   4.966   2.728
 5069SOL    HW116106   0.052   4.994   2.824
 5069SOL    HW216107   0.094   5.038   2.672
 5070SOL     OW16108   5.004   3.473   4.389
 5070SOL    HW116109   5.087   3.475   4.335
 5070SOL    HW216110   4.940   3.407   4.350
 5071SOL     OW16111   3.905   0.761   6.928
 5071SOL    HW116112   3.884   0.666   6.907
 5071SOL    HW216113   4.002   0.779   6.911
 5072SOL     OW16114   1.189   4.301   1.319
 5072SOL    HW116115   1.234   4.378   1.364
 5072SOL    HW216116   1.207   4.217   1.369
 5073SOL     OW16117   4.342   2.050   4.539
 5073SOL    HW116118   4.348   1.961   4.494
 5073SOL    HW216119   4.340   2.037   4.639
 5074SOL     OW16120   3.588   5.028   5.264
 5074SOL    HW116121   3.673   5.052   5.311
 5074SOL    HW216122   3.558   4.938   5.294
 5075SOL     OW16123   6.723   6.865   3.944
 5075SOL    HW116124   6.683   6.912   3.864
 5075SOL    HW216125   6.719   6.766   3.930
 5076SOL     OW16126   3.905   0.449   0.680
 5076SOL    HW116127   3.998   0.482   0.669
 5076SOL    HW216128   3.842   0.528   0.683
 5077SOL     OW16129   0.080   2.541   2.287
 5077SOL    HW116130   0.094   2.480   2.209
 5077SOL    HW216131   0.145   2.519   2.359
 5078SOL     OW16132   0.063   0.869   3.757
 5078SOL    HW116133   0.054   0.962   3.793
 5078SOL    HW216134   7.016   0.857   3.681
 5079SOL     OW16135   3.918   5.082   4.721
 5079SOL    HW116136   4.006   5.071   4.674
 5079SOL    HW216137   3.845   5.043   4.665
 5080SOL     OW16138   5.971   0.042   5.853
 5080SOL    HW116139   5.891   0.096   5.829
 5080SOL    HW216140   6.045   0.102   5.884
 5081SOL     OW16141   3.157   3.581   2.793
 5081SOL    HW116142   3.073   3.617   2.833
 5081SOL    HW216143   3.232   3.644   2.812
 5082SOL     OW16144   6.733   0.544   6.343
 5082SOL    HW116145   6.762   0.452   6.317
 5082SOL    HW216146   6.674   0.582   6.271
 5083SOL     OW16147   1.283   5.497   2.134
 5083SOL    HW116148   1.307   5.526   2.041
 5083SOL    HW216149   1.224   5.566   2.176
 5084SOL     OW16150   2.141   5.962   2.451
 5084SOL    HW116151   2.106   6.054   2.471
 5084SOL    HW216152   2.136   5.906   2.534
 5085SOL     OW16153   6.731   3.028   6.531
 5085SOL    HW116154   6.810   3.071   6.487
 5085SOL    HW216155   6.676   3.099   6.577
 5086SOL     OW16156   6.976   4.894   4.042
 5086SOL    HW116157   6.893   4.853   4.003
 5086SOL    HW216158   6.957   4.926   4.134
 5087SOL     OW16159   6.975   5.358   5.069
 5087SOL    HW116160   7.015   5.421   5.137
 5087SOL    HW216161   6.892   5.399   5.031
 5088SOL     OW16162   6.168   0.785   7.004
 5088SOL    HW116163   6.176   0.725   6.924
 5088SOL    HW216164   6.243   0.851   7.004
 5089SOL     OW16165   5.360   2.473   3.829
 5089SOL    HW116166   5.262   2.494   3.839
 5089SOL    HW216167   5.406   2.488   3.917
 5090SOL     OW16168   1.161   4.923   0.654
 5090SOL    HW116169   1.229   4.902   0.724
 5090SOL    HW216170   1.132   5.019   0.663
 5091SOL     OW16171   1.439   6.835   3.250
 5091SOL    HW116172   1.527   6.868   3.285
 5091SOL    HW216173   1.393   6.910   3.202
 5092SOL     OW16174   3.605   2.892   1.402
 5092SOL    HW116175   3.560   2.977   1.374
 5092SOL    HW216176   3.572   2.865   1.493
 5093SOL     OW16177   1.016   1.607   0.793
 5093SOL    HW116178   0.918   1.619   0.781
 5093SOL    HW216179   1.065   1.648   0.716
 5094SOL     OW16180   6.645   0.446   6.613
 5094SOL    HW116181   6.673   0.509   6.685
 5094SOL    HW216182   6.721   0.429   6.551
 5095SOL     OW16183   3.351   0.166   5.226
 5095SOL    HW116184   3.252   0.172   5.239
 5095SOL    HW216185   3.375   0.075   5.192
 5096SOL     OW16186   4.113   5.589   2.887
 5096SOL    HW116187   4.110   5.618   2.982
 5096SOL    HW216188   4.120   5.489   2.882
 5097SOL     OW16189   0.802   1.096   6.342
 5097SOL    HW116190   0.874   1.154   6.303
 5097SOL    HW216191   0.840   1.006   6.364
 5098SOL     OW16192   6.820   2.868   2.722
 5098SOL    HW116193   6.729   2.831   2.704
 5098SOL    HW216194   6.889   2.797   2.709
 5099SOL     OW16195   1.082   0.045   4.409
 5099SOL    HW116196   1.024   0.011   4.335
 5099SOL    HW216197   1.139   6.988   4.444
 5100SOL     OW16198   4.765   5.525   5.948
 5100SOL    HW116199   4.778   5.617   5.912
 5100SOL    HW216200   4.819   5.514   6.032
 5101SOL     OW16201   3.984   6.076   0.634
 5101SOL    HW116202   3.951   6.098   0.726
 5101SOL    HW216203   3.953   5.984   0.609
 5102SOL     OW16204   4.124   5.473   3.868
 5102SOL    HW116205   4.146   5.465   3.965
 5102SOL    HW216206   4.026   5.462   3.855
 5103SOL     OW16207   1.475   1.027   4.227
 5103SOL    HW116208   1.474   1.091   4.150
 5103SOL    HW216209   1.434   0.940   4.198
 5104SOL     OW16210   1.132   0.052   0.957
 5104SOL    HW116211   1.146   0.147   0.984
 5104SOL    HW216212   1.041   0.022   0.986
 5105SOL     OW16213   2.201   2.880   6.765
 5105SOL    HW116214   2.125   2.944   6.769
 5105SOL    HW216215   2.206   2.839   6.674
 5106SOL     OW16216   2.951   0.031   2.368
 5106SOL    HW116217   2.918   6.967   2.416
 5106SOL    HW216218   2.889   0.107   2.384
 5107SOL     OW16219   1.011   0.592   6.235
 5107SOL    HW116220   0.966   0.540   6.163
 5107SOL    HW216221   1.092   0.637   6.198
 5108SOL     OW16222   2.975   3.454   3.633
 5108SOL    HW116223   2.969   3.387   3.706
 5108SOL    HW216224   2.965   3.546   3.670
 5109SOL     OW16225   0.220   1.456   1.936
 5109SOL    HW116226   0.307   1.407   1.933
 5109SOL    HW216227   0.234   1.551   1.907
 5110SOL     OW16228   2.130   5.657   5.121
 5110SOL    HW116229   2.033   5.631   5.127
 5110SOL    HW216230   2.181   5.583   5.077
 5111SOL     OW16231   1.803   1.066   6.808
 5111SOL    HW116232   1.779   1.157   6.775
 5111SOL    HW216233   1.834   1.010   6.731
 5112SOL     OW16234   0.529   0.211   3.537
 5112SOL    HW116235   0.619   0.252   3.520
 5112SOL    HW216236   0.529   0.116   3.506
 5113SOL     OW16237   0.656   6.994   6.437
 5113SOL    HW116238   0.621   6.970   6.528
 5113SOL    HW216239   0.755   6.981   6.435
 5114SOL     OW16240   4.309   5.353   6.546
 5114SOL    HW116241   4.291   5.371   6.449
 5114SOL    HW216242   4.237   5.394   6.601
 5115SOL     OW16243   2.114   3.864   4.911
 5115SOL    HW116244   2.067   3.801   4.973
 5115SOL    HW216245   2.182   3.916   4.962
 5116SOL     OW16246   6.768   3.406   1.072
 5116SOL    HW116247   6.698   3.476   1.054
 5116SOL    HW216248   6.840   3.445   1.130
 5117SOL     OW16249   2.482   4.846   3.544
 5117SOL    HW116250   2.473   4.762   3.597
 5117SOL    HW216251   2.575   4.882   3.553
 5118SOL     OW16252   4.517   6.905   1.603
 5118SOL    HW116253   4.470   6.886   1.517
 5118SOL    HW216254   4.595   6.842   1.613
 5119SOL     OW16255   6.286   6.993   2.431
 5119SOL    HW116256   6.258   6.900   2.455
 5119SOL    HW216257   6.360   0.004   2.491
 5120SOL     OW16258   3.741   1.528   2.444
 5120SOL    HW116259   3.681   1.469   2.391
 5120SOL    HW216260   3.732   1.622   2.411
 5121SOL     OW16261   1.399   2.974   4.369
 5121SOL    HW116262   1.409   3.060   4.318
 5121SOL    HW216263   1.302   2.951   4.376
 5122SOL     OW16264   2.168   5.668   3.620
 5122SOL    HW116265   2.072   5.676   3.595
 5122SOL    HW216266   2.177   5.609   3.700
 5123SOL     OW16267   6.222   4.229   1.683
 5123SOL    HW116268   6.157   4.205   1.610
 5123SOL    HW216269   6.300   4.277   1.643
 5124SOL     OW16270   2.678   6.088   0.846
 5124SOL    HW116271   2.660   6.185   0.826
 5124SOL    HW216272   2.626   6.031   0.783
 5125SOL     OW16273   6.810   2.280   5.710
 5125SOL    HW116274   6.828   2.183   5.719
 5125SOL    HW216275   6.840   2.328   5.793
 5126SOL     OW16276   4.181   2.176   6.928
 5126SOL    HW116277   4.092   2.131   6.937
 5126SOL    HW216278   4.182   2.230   6.844
 5127SOL     OW16279   5.574   3.379   6.467
 5127SOL    HW116280   5.646   3.385   6.397
 5127SOL    HW216281   5.485   3.368   6.422
 5128SOL     OW16282   0.160   6.839   6.769
 5128SOL    HW116283   0.224   6.874   6.701
 5128SOL    HW216284   0.208   6.823   6.855
 5129SOL     OW16285   4.610   2.571   3.480
 5129SOL    HW116286   4.525   2.527   3.453
 5129SOL    HW216287   4.670   2.579   3.400
 5130SOL     OW16288   0.862   6.261   5.017
 5130SOL    HW116289   0.932   6.218   4.959
 5130SOL    HW216290   0.882   6.358   5.028
 5131SOL     OW16291   3.989   4.858   3.706
 5131SOL    HW116292   4.074   4.850   3.758
 5131SOL    HW216293   3.988   4.789   3.633
 5132SOL     OW16294   3.345   1.773   6.640
 5132SOL    HW116295   3.427   1.724   6.667
 5132SOL    HW216296   3.350   1.798   6.543
 5133SOL     OW16297   4.858   4.792   6.659
 5133SOL    HW116298   4.797   4.837   6.724
 5133SOL    HW216299   4.952   4.799   6.693
 5134SOL     OW16300   6.131   5.867   0.361
 5134SOL    HW116301   6.136   5.961   0.326
 5134SOL    HW216302   6.036   5.837   0.362
 5135SOL     OW16303   6.792   2.545   2.063
 5135SOL    HW116304   6.740   2.460   2.057
 5135SOL    HW216305   6.863   2.535   2.133
 5136SOL     OW16306   0.996   1.528   5.290
 5136SOL    HW116307   0.966   1.503   5.197
 5136SOL    HW216308   1.038   1.448   5.333
 5137SOL     OW16309   5.646   0.377   3.103
 5137SOL    HW116310   5.737   0.416   3.117
 5137SOL    HW216311   5.620   0.324   3.184
 5138SOL     OW16312   3.398   2.847   2.389
 5138SOL    HW116313   3.351   2.892   2.313
 5138SOL    HW216314   3.459   2.776   2.353
 5139SOL     OW16315   3.616   0.295   5.220
 5139SOL    HW116316   3.533   0.241   5.225
 5139SOL    HW216317   3.596   0.391   5.242
 5140SOL     OW16318   3.178   3.750   6.562
 5140SOL    HW116319   3.162   3.653   6.582
 5140SOL    HW216320   3.266   3.760   6.516
 5141SOL     OW16321   0.779   2.601   1.477
 5141SOL    HW116322   0.877   2.613   1.460
 5141SOL    HW216323   0.758   2.504   1.480
 5142SOL     OW16324   0.600   0.430   2.264
 5142SOL    HW116325   0.689   0.425   2.310
 5142SOL    HW216326   0.571   0.525   2.258
 5143SOL     OW16327   0.343   6.063   2.688
 5143SOL    HW116328   0.391   5.987   2.645
 5143SOL    HW216329   0.245   6.041   2.695
 5144SOL     OW16330   2.212   2.945   5.274
 5144SOL    HW116331   2.310   2.961   5.275
 5144SOL    HW216332   2.169   3.004   5.205
 5145SOL     OW16333   2.399   5.661   5.719
 5145SOL    HW116334   2.390   5.592   5.648
 5145SOL    HW216335   2.403   5.617   5.809
 5146SOL     OW16336   5.590   5.684   6.748
 5146SOL    HW116337   5.583   5.762   6.810
 5146SOL    HW216338   5.564   5.712   6.656
 5147SOL     OW16339   5.423   2.027   3.773
 5147SOL    HW116340   5.403   1.993   3.682
 5147SOL    HW216341   5.418   2.127   3.773
 5148SOL     OW16342   6.654   1.220   0.184
 5148SOL    HW116343   6.644   1.298   0.247
 5148SOL    HW216344   6.747   1.219   0.147
 5149SOL     OW16345   4.260   5.827   4.164
 5149SOL    HW116346   4.325   5.838   4.239
 5149SOL    HW216347   4.277   5.896   4.094
 5150SOL     OW16348   6.497   0.266   3.749
 5150SOL    HW116349   6.452   0.354   3.734
 5150SOL    HW216350   6.499   0.246   3.847
 5151SOL     OW16351   5.382   5.516   1.694
 5151SOL    HW116352   5.438   5.455   1.750
 5151SOL    HW216353   5.440   5.562   1.626
 5152SOL     OW16354   2.173   1.635   0.322
 5152SOL    HW116355   2.100   1.570   0.303
 5152SOL    HW216356   2.142   1.728   0.299
 5153SOL     OW16357   1.898   1.813   0.364
 5153SOL    HW116358   1.894   1.757   0.448
 5153SOL    HW216359   1.988   1.855   0.357
 5154SOL     OW16360   0.585   2.689   0.768
 5154SOL    HW116361   0.571   2.592   0.784
 5154SOL    HW216362   0.598   2.736   0.855
 5155SOL     OW16363   1.759   1.814   0.138
 5155SOL    HW116364   1.815   1.819   0.221
 5155SOL    HW216365   1.815   1.778   0.063
 5156SOL     OW16366   5.848   5.379   5.222
 5156SOL    HW116367   5.770   5.440   5.213
 5156SOL    HW216368   5.838   5.324   5.305
 5157SOL     OW16369   3.605   0.919   1.504
 5157SOL    HW116370   3.606   0.831   1.551
 5157SOL    HW216371   3.681   0.922   1.438
 5158SOL     OW16372   1.568   2.306   1.800
 5158SOL    HW116373   1.518   2.280   1.883
 5158SOL    HW216374   1.608   2.225   1.758
 5159SOL     OW16375   6.431   3.288   6.242
 5159SOL    HW116376   6.408   3.197   6.277
 5159SOL    HW216377   6.522   3.314   6.273
 5160SOL     OW16378   6.664   0.039   3.758
 5160SOL    HW116379   6.579   0.077   3.720
 5160SOL    HW216380   6.691   0.093   3.838
 5161SOL     OW16381   1.079   1.940   6.960
 5161SOL    HW116382   1.137   1.862   6.985
 5161SOL    HW216383   1.027   1.969   0.023
 5162SOL     OW16384   0.035   0.190   4.977
 5162SOL    HW116385   0.075   0.142   4.898
 5162SOL    HW216386   0.108   0.234   5.029
 5163SOL     OW16387   3.089   6.876   2.145
 5163SOL    HW116388   3.008   6.890   2.202
 5163SOL    HW216389   3.072   6.912   2.054
 5164SOL     OW16390   2.864   3.876   0.064
 5164SOL    HW116391   2.820   3.838   0.145
 5164SOL    HW216392   2.811   3.853   7.000
 5165SOL     OW16393   1.856   4.983   6.184
 5165SOL    HW116394   1.953   4.960   6.185
 5165SOL    HW216395   1.804   4.909   6.228
 5166SOL     OW16396   0.139   5.009   6.758
 5166SOL    HW116397   0.215   4.946   6.742
 5166SOL    HW216398   0.174   5.102   6.763
 5167SOL     OW16399   5.493   3.568   5.343
 5167SOL    HW116400   5.475   3.660   5.308
 5167SOL    HW216401   5.459   3.561   5.437
 5168SOL     OW16402   4.470   1.933   3.063
 5168SOL    HW116403   4.561   1.939   3.102
 5168SOL    HW216404   4.414   1.870   3.117
 5169SOL     OW16405   5.431   5.162   4.470
 5169SOL    HW116406   5.467   5.254   4.483
 5169SOL    HW216407   5.448   5.132   4.377
 5170SOL     OW16408   2.392   4.149   5.943
 5170SOL    HW116409   2.421   4.078   6.007
 5170SOL    HW216410   2.435   4.236   5.967
 5171SOL     OW16411   2.373   6.876   6.024
 5171SOL    HW116412   2.436   6.943   6.064
 5171SOL    HW216413   2.337   6.816   6.096
 5172SOL     OW16414   5.908   5.775   6.218
 5172SOL    HW116415   5.930   5.680   6.195
 5172SOL    HW216416   5.976   5.836   6.179
 5173SOL     OW16417   4.383   6.062   4.603
 5173SOL    HW116418   4.396   6.161   4.617
 5173SOL    HW216419   4.298   6.047   4.554
 5174SOL     OW16420   1.727   6.416   2.582
 5174SOL    HW116421   1.812   6.448   2.542
 5174SOL    HW216422   1.735   6.319   2.606
 5175SOL     OW16423   2.515   2.687   6.642
 5175SOL    HW116424   2.456   2.617   6.682
 5175SOL    HW216425   2.555   2.744   6.714
 5176SOL     OW16426   6.200   6.178   6.511
 5176SOL    HW116427   6.182   6.230   6.595
 5176SOL    HW216428   6.184   6.236   6.431
 5177SOL     OW16429   5.934   6.506   0.619
 5177SOL    HW116430   5.907   6.602   0.626
 5177SOL    HW216431   5.920   6.460   0.706
 5178SOL     OW16432   0.794   4.589   1.586
 5178SOL    HW116433   0.731   4.600   1.509
 5178SOL    HW216434   0.848   4.673   1.597
 5179SOL     OW16435   5.113   5.910   3.205
 5179SOL    HW116436   5.119   5.823   3.256
 5179SOL    HW216437   5.140   5.894   3.110
 5180SOL     OW16438   1.417   4.622   2.680
 5180SOL    HW116439   1.351   4.553   2.650
 5180SOL    HW216440   1.509   4.596   2.651
 5181SOL     OW16441   6.668   1.481   6.089
 5181SOL    HW116442   6.744   1.439   6.138
 5181SOL    HW216443   6.583   1.431   6.108
 5182SOL     OW16444   2.068   6.210   2.489
 5182SOL    HW116445   1.980   6.193   2.531
 5182SOL    HW216446   2.069   6.303   2.451
 5183SOL     OW16447   4.413   2.426   3.374
 5183SOL    HW116448   4.481   2.363   3.335
 5183SOL    HW216449   4.343   2.446   3.305
 5184SOL     OW16450   1.928   1.551   3.620
 5184SOL    HW116451   2.026   1.541   3.637
 5184SOL    HW216452   1.914   1.588   3.528
 5185SOL     OW16453   0.070   0.166   2.667
 5185SOL    HW116454   0.152   0.189   2.720
 5185SOL    HW216455   7.006   0.192   2.719
 5186SOL     OW16456   5.979   2.988   6.554
 5186SOL    HW116457   5.982   2.928   6.635
 5186SOL    HW216458   5.890   3.032   6.549
 5187SOL     OW16459   1.272   4.683   5.313
 5187SOL    HW116460   1.218   4.603   5.339
 5187SOL    HW216461   1.211   4.753   5.275
 5188SOL     OW16462   6.512   0.574   2.116
 5188SOL    HW116463   6.443   0.643   2.139
 5188SOL    HW216464   6.595   0.619   2.084
 5189SOL     OW16465   4.647   6.407   6.897
 5189SOL    HW116466   4.745   6.386   6.884
 5189SOL    HW216467   4.596   6.377   6.816
 5190SOL     OW16468   1.631   4.264   0.603
 5190SOL    HW116469   1.658   4.292   0.511
 5190SOL    HW216470   1.626   4.344   0.663
 5191SOL     OW16471   2.585   4.530   1.807
 5191SOL    HW116472   2.573   4.489   1.717
 5191SOL    HW216473   2.680   4.560   1.818
 5192SOL     OW16474   0.768   5.052   2.787
 5192SOL    HW116475   0.830   5.127   2.764
 5192SOL    HW216476   0.688   5.088   2.835
 5193SOL     OW16477   4.742   0.908   5.391
 5193SOL    HW116478   4.738   0.825   5.335
 5193SOL    HW216479   4.730   0.884   5.488
 5194SOL     OW16480   4.568   1.106   5.241
 5194SOL    HW116481   4.611   1.016   5.228
 5194SOL    HW216482   4.527   1.110   5.332
 5195SOL     OW16483   0.606   0.598   5.428
 5195SOL    HW116484   0.602   0.672   5.495
 5195SOL    HW216485   0.530   0.606   5.364
 5196SOL     OW16486   5.295   6.758   3.234
 5196SOL    HW116487   5.253   6.752   3.144
 5196SOL    HW216488   5.250   6.694   3.297
 5197SOL     OW16489   0.975   2.954   4.989
 5197SOL    HW116490   1.019   2.934   5.076
 5197SOL    HW216491   0.882   2.916   4.988
 5198SOL     OW16492   5.861   4.815   3.231
 5198SOL    HW116493   5.776   4.813   3.178
 5198SOL    HW216494   5.839   4.828   3.328
 5199SOL     OW16495   0.178   4.391   0.570
 5199SOL    HW116496   0.169   4.319   0.639
 5199SOL    HW216497   0.269   4.432   0.575
 5200SOL     OW16498   6.334   3.519   5.314
 5200SOL    HW116499   6.422   3.511   5.361
 5200SOL    HW216500   6.344   3.578   5.234
 5201SOL     OW16501   0.544   6.196   4.709
 5201SOL    HW116502   0.624   6.204   4.650
 5201SOL    HW216503   0.463   6.175   4.653
 5202SOL     OW16504   0.942   4.413   2.290
 5202SOL    HW116505   0.906   4.456   2.373
 5202SOL    HW216506   0.877   4.425   2.215
 5203SOL     OW16507   6.196   3.180   6.807
 5203SOL    HW116508   6.101   3.163   6.833
 5203SOL    HW216509   6.245   3.093   6.803
 5204SOL     OW16510   4.885   5.166   6.495
 5204SOL    HW116511   4.789   5.137   6.492
 5204SOL    HW216512   4.918   5.160   6.589
 5205SOL     OW16513   2.109   6.992   6.926
 5205SOL    HW116514   2.073   0.011   7.012
 5205SOL    HW216515   2.101   6.893   6.926
 5206SOL     OW16516   0.485   3.943   5.326
 5206SOL    HW116517   0.557   3.943   5.256
 5206SOL    HW216518   0.408   3.999   5.294
 5207SOL     OW16519   1.994   4.316   3.496
 5207SOL    HW116520   2.025   4.408   3.471
 5207SOL    HW216521   1.998   4.305   3.595
 5208SOL     OW16522   4.965   0.535   6.865
 5208SOL    HW116523   4.910   0.542   6.781
 5208SOL    HW216524   5.061   0.519   6.841
 5209SOL     OW16525   5.933   5.599   3.241
 5209SOL    HW116526   5.849   5.652   3.255
 5209SOL    HW216527   6.011   5.652   3.274
 5210SOL     OW16528   5.087   4.109   3.026
 5210SOL    HW116529   5.010   4.131   2.966
 5210SOL    HW216530   5.052   4.071   3.112
 5211SOL     OW16531   3.100   3.959   2.078
 5211SOL    HW116532   3.112   3.932   2.173
 5211SOL    HW216533   3.065   4.053   2.074
 5212SOL     OW16534   1.011   0.338   0.072
 5212SOL    HW116535   0.969   0.396   0.002
 5212SOL    HW216536   0.970   0.247   0.068
 5213SOL     OW16537   4.369   2.194   6.225
 5213SOL    HW116538   4.410   2.110   6.190
 5213SOL    HW216539   4.343   2.253   6.148
 5214SOL     OW16540   5.326   1.866   0.117
 5214SOL    HW116541   5.394   1.798   0.146
 5214SOL    HW216542   5.351   1.956   0.153
 5215SOL     OW16543   5.478   5.111   2.965
 5215SOL    HW116544   5.560   5.058   2.984
 5215SOL    HW216545   5.463   5.176   3.040
 5216SOL     OW16546   4.584   5.711   1.798
 5216SOL    HW116547   4.531   5.676   1.876
 5216SOL    HW216548   4.593   5.639   1.729
 5217SOL     OW16549   3.050   4.880   3.260
 5217SOL    HW116550   3.053   4.930   3.346
 5217SOL    HW216551   2.992   4.799   3.271
 5218SOL     OW16552   1.981   0.266   4.362
 5218SOL    HW116553   1.902   0.239   4.418
 5218SOL    HW216554   2.028   0.342   4.406
 5219SOL     OW16555   2.406   6.939   0.786
 5219SOL    HW116556   2.449   6.955   0.697
 5219SOL    HW216557   2.454   6.866   0.834
 5220SOL     OW16558   1.009   6.953   2.065
 5220SOL    HW116559   1.019   0.028   2.102
 5220SOL    HW216560   0.914   6.938   2.040
 5221SOL     OW16561   4.407   1.172   6.170
 5221SOL    HW116562   4.387   1.164   6.268
 5221SOL    HW216563   4.350   1.243   6.130
 5222SOL     OW16564   0.971   0.457   2.826
 5222SOL    HW116565   0.900   0.485   2.891
 5222SOL    HW216566   0.993   0.534   2.766
 5223SOL     OW16567   5.117   6.637   0.709
 5223SOL    HW116568   5.149   6.549   0.743
 5223SOL    HW216569   5.183   6.674   0.643
 5224SOL     OW16570   5.157   1.472   3.170
 5224SOL    HW116571   5.103   1.396   3.132
 5224SOL    HW216572   5.099   1.553   3.177
 5225SOL     OW16573   6.349   6.469   5.684
 5225SOL    HW116574   6.300   6.477   5.597
 5225SOL    HW216575   6.420   6.398   5.676
 5226SOL     OW16576   2.848   6.249   4.170
 5226SOL    HW116577   2.926   6.285   4.221
 5226SOL    HW216578   2.781   6.323   4.155
 5227SOL     OW16579   4.875   3.479   3.711
 5227SOL    HW116580   4.863   3.569   3.754
 5227SOL    HW216581   4.886   3.409   3.782
 5228SOL     OW16582   5.107   0.835   1.392
 5228SOL    HW116583   5.192   0.795   1.357
 5228SOL    HW216584   5.030   0.775   1.372
 5229SOL     OW16585   1.443   4.035   4.173
 5229SOL    HW116586   1.408   4.123   4.207
 5229SOL    HW216587   1.366   3.977   4.147
 5230SOL     OW16588   1.141   6.419   6.095
 5230SOL    HW116589   1.065   6.455   6.040
 5230SOL    HW216590   1.108   6.342   6.150
 5231SOL     OW16591   3.626   3.502   2.839
 5231SOL    HW116592   3.642   3.590   2.885
 5231SOL    HW216593   3.632   3.428   2.905
 5232SOL     OW16594   4.915   3.046   5.045
 5232SOL    HW116595   5.013   3.055   5.061
 5232SOL    HW216596   4.874   3.137   5.039
 5233SOL     OW16597   0.732   0.607   2.944
 5233SOL    HW116598   0.655   0.671   2.946
 5233SOL    HW216599   0.710   0.526   2.999
 5234SOL     OW16600   4.072   5.363   1.595
 5234SOL    HW116601   4.089   5.378   1.497
 5234SOL    HW216602   4.158   5.376   1.645
 5235SOL     OW16603   1.059   3.505   1.107
 5235SOL    HW116604   0.977   3.511   1.164
 5235SOL    HW216605   1.034   3.476   1.015
 5236SOL     OW16606   5.495   3.731   1.177
 5236SOL    HW116607   5.524   3.682   1.259
 5236SOL    HW216608   5.438   3.809   1.203
 5237SOL     OW16609   2.016   1.882   3.999
 5237SOL    HW116610   1.999   1.980   4.007
 5237SOL    HW216611   2.011   1.840   4.089
 5238SOL     OW16612   2.225   3.760   1.243
 5238SOL    HW116613   2.269   3.847   1.220
 5238SOL    HW216614   2.130   3.777   1.270
 5239SOL     OW16615   3.429   3.291   5.056
 5239SOL    HW116616   3.484   3.274   5.137
 5239SOL    HW216617   3.441   3.386   5.027
 5240SOL     OW16618   3.110   1.749   4.799
 5240SOL    HW116619   3.090   1.744   4.702
 5240SOL    HW216620   3.207   1.728   4.815
 5241SOL     OW16621   2.806   5.996   5.529
 5241SOL    HW116622   2.788   6.052   5.448
 5241SOL    HW216623   2.739   6.018   5.600
 5242SOL     OW16624   4.425   0.475   5.451
 5242SOL    HW116625   4.524   0.479   5.439
 5242SOL    HW216626   4.404   0.452   5.546
 5243SOL     OW16627   0.612   4.270   0.180
 5243SOL    HW116628   0.638   4.318   0.096
 5243SOL    HW216629   0.607   4.172   0.162
 5244SOL     OW16630   6.263   3.486   0.208
 5244SOL    HW116631   6.357   3.454   0.223
 5244SOL    HW216632   6.208   3.466   0.288
 5245SOL     OW16633   4.639   4.790   6.493
 5245SOL    HW116634   4.718   4.798   6.553
 5245SOL    HW216635   4.619   4.879   6.452
 5246SOL     OW16636   1.266   2.947   3.054
 5246SOL    HW116637   1.167   2.932   3.050
 5246SOL    HW216638   1.304   2.943   2.962
 5247SOL     OW16639   0.327   4.897   0.919
 5247SOL    HW116640   0.329   4.829   0.992
 5247SOL    HW216641   0.378   4.862   0.840
 5248SOL     OW16642   5.063   0.020   0.286
 5248SOL    HW116643   4.987   0.050   0.344
 5248SOL    HW216644   5.138   0.087   0.292
 5249SOL     OW16645   0.950   5.532   6.098
 5249SOL    HW116646   0.905   5.536   6.187
 5249SOL    HW216647   0.936   5.620   6.051
 5250SOL     OW16648   1.038   1.560   5.687
 5250SOL    HW116649   1.012   1.500   5.763
 5250SOL    HW216650   1.102   1.630   5.721
 5251SOL     OW16651   0.998   3.173   1.173
 5251SOL    HW116652   0.937   3.174   1.094
 5251SOL    HW216653   1.055   3.091   1.170
 5252SOL     OW16654   4.742   6.505   1.111
 5252SOL    HW116655   4.766   6.430   1.172
 5252SOL    HW216656   4.792   6.587   1.138
 5253SOL     OW16657   5.911   2.561   3.083
 5253SOL    HW116658   5.958   2.649   3.093
 5253SOL    HW216659   5.828   2.561   3.139
 5254SOL     OW16660   4.697   0.555   4.359
 5254SOL    HW116661   4.726   0.648   4.335
 5254SOL    HW216662   4.777   0.495   4.361
 5255SOL     OW16663   3.365   6.140   4.497
 5255SOL    HW116664   3.270   6.137   4.466
 5255SOL    HW216665   3.382   6.226   4.544
 5256SOL     OW16666   5.648   6.674   2.049
 5256SOL    HW116667   5.586   6.732   2.102
 5256SOL    HW216668   5.660   6.587   2.096
 5257SOL     OW16669   3.693   0.824   3.304
 5257SOL    HW116670   3.724   0.738   3.263
 5257SOL    HW216671   3.755   0.850   3.378
 5258SOL     OW16672   5.447   2.015   1.656
 5258SOL    HW116673   5.412   2.015   1.750
 5258SOL    HW216674   5.441   1.923   1.618
 5259SOL     OW16675   5.462   4.412   1.566
 5259SOL    HW116676   5.387   4.355   1.532
 5259SOL    HW216677   5.438   4.508   1.554
 5260SOL     OW16678   4.959   3.131   2.192
 5260SOL    HW116679   4.873   3.113   2.145
 5260SOL    HW216680   4.941   3.172   2.281
 5261SOL     OW16681   2.576   2.536   4.933
 5261SOL    HW116682   2.477   2.535   4.947
 5261SOL    HW216683   2.622   2.536   5.021
 5262SOL     OW16684   2.164   0.031   2.061
 5262SOL    HW116685   2.205   0.116   2.028
 5262SOL    HW216686   2.235   6.992   2.102
 5263SOL     OW16687   0.412   6.436   0.178
 5263SOL    HW116688   0.434   6.509   0.242
 5263SOL    HW216689   0.420   6.348   0.225
 5264SOL     OW16690   0.582   1.883   0.959
 5264SOL    HW116691   0.669   1.927   0.935
 5264SOL    HW216692   0.601   1.800   1.012
 5265SOL     OW16693   5.841   5.042   2.767
 5265SOL    HW116694   5.833   5.094   2.852
 5265SOL    HW216695   5.752   5.005   2.742
 5266SOL     OW16696   0.815   6.735   1.685
 5266SOL    HW116697   0.805   6.668   1.612
 5266SOL    HW216698   0.903   6.783   1.675
 5267SOL     OW16699   4.753   3.442   5.387
 5267SOL    HW116700   4.761   3.510   5.460
 5267SOL    HW216701   4.729   3.487   5.301
 5268SOL     OW16702   6.111   5.376   5.101
 5268SOL    HW116703   6.091   5.434   5.022
 5268SOL    HW216704   6.045   5.301   5.105
 5269SOL     OW16705   1.814   4.256   5.627
 5269SOL    HW116706   1.796   4.172   5.678
 5269SOL    HW216707   1.911   4.261   5.605
 5270SOL     OW16708   6.328   2.588   2.611
 5270SOL    HW116709   6.346   2.508   2.669
 5270SOL    HW216710   6.414   2.623   2.574
 5271SOL     OW16711   5.046   4.361   5.376
 5271SOL    HW116712   5.013   4.342   5.284
 5271SOL    HW216713   5.145   4.343   5.380
 5272SOL     OW16714   1.801   1.087   4.278
 5272SOL    HW116715   1.705   1.061   4.288
 5272SOL    HW216716   1.828   1.076   4.182
 5273SOL     OW16717   0.542   0.385   4.735
 5273SOL    HW116718   0.578   0.300   4.773
 5273SOL    HW216719   0.442   0.385   4.741
 5274SOL     OW16720   0.380   5.626   4.371
 5274SOL    HW116721   0.416   5.533   4.378
 5274SOL    HW216722   0.440   5.689   4.420
 5275SOL     OW16723   1.479   6.204   6.749
 5275SOL    HW116724   1.409   6.274   6.761
 5275SOL    HW216725   1.500   6.194   6.651
 5276SOL     OW16726   0.415   0.117   0.827
 5276SOL    HW116727   0.401   0.105   0.925
 5276SOL    HW216728   0.327   0.122   0.781
 5277SOL     OW16729   1.530   1.255   2.216
 5277SOL    HW116730   1.554   1.269   2.120
 5277SOL    HW216731   1.432   1.268   2.228
 5278SOL     OW16732   0.370   4.009   6.413
 5278SOL    HW116733   0.412   4.099   6.400
 5278SOL    HW216734   0.405   3.946   6.343
 5279SOL     OW16735   2.285   6.260   6.598
 5279SOL    HW116736   2.363   6.199   6.608
 5279SOL    HW216737   2.226   6.229   6.523
 5280SOL     OW16738   4.866   6.583   5.073
 5280SOL    HW116739   4.812   6.663   5.050
 5280SOL    HW216740   4.857   6.564   5.171
 5281SOL     OW16741   2.514   6.926   5.448
 5281SOL    HW116742   2.600   6.897   5.491
 5281SOL    HW216743   2.486   7.013   5.488
 5282SOL     OW16744   1.025   6.717   0.904
 5282SOL    HW116745   1.029   6.719   1.004
 5282SOL    HW216746   0.941   6.760   0.873
 5283SOL     OW16747   1.068   0.957   3.485
 5283SOL    HW116748   1.053   0.864   3.452
 5283SOL    HW216749   1.161   0.986   3.464
 5284SOL     OW16750   4.725   3.127   1.669
 5284SOL    HW116751   4.641   3.095   1.712
 5284SOL    HW216752   4.803   3.103   1.727
 5285SOL     OW16753   0.986   1.805   3.743
 5285SOL    HW116754   0.940   1.848   3.820
 5285SOL    HW216755   1.081   1.786   3.767
 5286SOL     OW16756   6.156   3.200   1.613
 5286SOL    HW116757   6.172   3.102   1.622
 5286SOL    HW216758   6.207   3.235   1.534
 5287SOL     OW16759   1.625   5.088   0.871
 5287SOL    HW116760   1.700   5.023   0.861
 5287SOL    HW216761   1.632   5.134   0.959
 5288SOL     OW16762   4.143   0.636   1.370
 5288SOL    HW116763   4.058   0.588   1.392
 5288SOL    HW216764   4.171   0.614   1.277
 5289SOL     OW16765   2.393   4.553   6.072
 5289SOL    HW116766   2.440   4.488   6.013
 5289SOL    HW216767   2.340   4.617   6.016
 5290SOL     OW16768   2.137   3.532   4.636
 5290SOL    HW116769   2.134   3.628   4.662
 5290SOL    HW216770   2.093   3.477   4.707
 5291SOL     OW16771   3.296   4.993   4.395
 5291SOL    HW116772   3.311   4.968   4.490
 5291SOL    HW216773   3.205   4.961   4.367
 5292SOL     OW16774   0.453   3.408   5.279
 5292SOL    HW116775   0.456   3.505   5.256
 5292SOL    HW216776   0.546   3.374   5.293
 5293SOL     OW16777   2.302   6.956   4.681
 5293SOL    HW116778   2.347   6.924   4.764
 5293SOL    HW216779   2.261   6.878   4.633
 5294SOL     OW16780   4.779   0.226   5.080
 5294SOL    HW116781   4.776   0.233   5.179
 5294SOL    HW216782   4.686   0.223   5.044
 5295SOL     OW16783   2.661   0.997   2.614
 5295SOL    HW116784   2.603   1.053   2.556
 5295SOL    HW216785   2.655   0.901   2.585
 5296SOL     OW16786   4.655   4.661   1.553
 5296SOL    HW116787   4.720   4.729   1.519
 5296SOL    HW216788   4.694   4.614   1.631
 5297SOL     OW16789   2.741   5.551   6.496
 5297SOL    HW116790   2.744   5.619   6.423
 5297SOL    HW216791   2.659   5.566   6.553
 5298SOL     OW16792   1.852   1.125   0.534
 5298SOL    HW116793   1.839   1.027   0.544
 5298SOL    HW216794   1.821   1.153   0.443
 5299SOL     OW16795   2.726   1.607   1.607
 5299SOL    HW116796   2.662   1.535   1.581
 5299SOL    HW216797   2.779   1.576   1.686
 5300SOL     OW16798   2.952   4.830   6.588
 5300SOL    HW116799   2.982   4.744   6.629
 5300SOL    HW216800   3.026   4.866   6.531
 5301SOL     OW16801   6.097   6.947   6.258
 5301SOL    HW116802   6.146   6.884   6.197
 5301SOL    HW216803   5.999   6.935   6.245
 5302SOL     OW16804   5.736   6.057   2.550
 5302SOL    HW116805   5.724   6.092   2.643
 5302SOL    HW216806   5.812   5.992   2.549
 5303SOL     OW16807   1.081   5.300   5.967
 5303SOL    HW116808   1.125   5.386   5.993
 5303SOL    HW216809   1.148   5.242   5.920
 5304SOL     OW16810   0.043   0.507   2.698
 5304SOL    HW116811   0.023   0.523   2.602
 5304SOL    HW216812   0.107   0.578   2.730
 5305SOL     OW16813   0.039   5.092   3.329
 5305SOL    HW116814   0.001   5.185   3.332
 5305SOL    HW216815   0.056   5.060   3.422
 5306SOL     OW16816   0.175   2.985   5.883
 5306SOL    HW116817   0.185   3.059   5.816
 5306SOL    HW216818   0.107   2.920   5.849
 5307SOL     OW16819   6.703   1.814   1.173
 5307SOL    HW116820   6.677   1.908   1.154
 5307SOL    HW216821   6.633   1.770   1.230
 5308SOL     OW16822   1.627   4.167   3.406
 5308SOL    HW116823   1.668   4.111   3.334
 5308SOL    HW216824   1.528   4.151   3.409
 5309SOL     OW16825   5.991   5.226   3.109
 5309SOL    HW116826   6.053   5.264   3.178
 5309SOL    HW216827   5.940   5.300   3.066
 5310SOL     OW16828   5.579   2.463   2.680
 5310SOL    HW116829   5.592   2.410   2.595
 5310SOL    HW216830   5.668   2.479   2.722
 5311SOL     OW16831   5.977   0.239   0.481
 5311SOL    HW116832   6.037   0.217   0.558
 5311SOL    HW216833   6.002   0.328   0.444
 5312SOL     OW16834   0.088   6.728   0.063
 5312SOL    HW116835   0.021   6.801   0.053
 5312SOL    HW216836   0.154   6.753   0.135
 5313SOL     OW16837   0.937   6.164   5.774
 5313SOL    HW116838   0.928   6.072   5.735
 5313SOL    HW216839   1.027   6.201   5.750
 5314SOL     OW16840   6.004   0.921   1.665
 5314SOL    HW116841   6.038   0.836   1.626
 5314SOL    HW216842   6.038   0.931   1.759
 5315SOL     OW16843   4.833   1.494   4.330
 5315SOL    HW116844   4.786   1.534   4.251
 5315SOL    HW216845   4.816   1.395   4.331
 5316SOL     OW16846   0.882   2.159   4.777
 5316SOL    HW116847   0.921   2.231   4.718
 5316SOL    HW216848   0.938   2.150   4.859
 5317SOL     OW16849   5.891   2.785   0.020
 5317SOL    HW116850   5.927   2.702   0.064
 5317SOL    HW216851   5.926   2.866   0.068
 5318SOL     OW16852   6.533   3.990   6.786
 5318SOL    HW116853   6.461   3.977   6.853
 5318SOL    HW216854   6.495   3.979   6.694
 5319SOL     OW16855   4.148   6.940   1.621
 5319SOL    HW116856   4.169   6.846   1.596
 5319SOL    HW216857   4.167   6.953   1.719
 5320SOL     OW16858   4.125   5.868   0.959
 5320SOL    HW116859   4.048   5.808   0.938
 5320SOL    HW216860   4.101   5.928   1.036
 5321SOL     OW16861   1.771   4.656   5.250
 5321SOL    HW116862   1.861   4.622   5.277
 5321SOL    HW216863   1.731   4.707   5.325
 5322SOL     OW16864   5.327   6.581   2.115
 5322SOL    HW116865   5.377   6.502   2.152
 5322SOL    HW216866   5.280   6.628   2.190
 5323SOL     OW16867   4.450   0.397   5.710
 5323SOL    HW116868   4.433   0.298   5.713
 5323SOL    HW216869   4.504   0.423   5.790
 5324SOL     OW16870   1.740   1.497   0.917
 5324SOL    HW116871   1.807   1.476   0.988
 5324SOL    HW216872   1.719   1.415   0.865
 5325SOL     OW16873   2.103   1.791   4.995
 5325SOL    HW116874   2.068   1.737   5.072
 5325SOL    HW216875   2.142   1.876   5.029
 5326SOL     OW16876   6.428   6.660   2.281
 5326SOL    HW116877   6.473   6.571   2.278
 5326SOL    HW216878   6.448   6.703   2.370
 5327SOL     OW16879   6.695   2.947   5.327
 5327SOL    HW116880   6.607   2.921   5.285
 5327SOL    HW216881   6.752   2.866   5.338
 5328SOL     OW16882   4.554   5.475   0.404
 5328SOL    HW116883   4.500   5.421   0.339
 5328SOL    HW216884   4.651   5.461   0.385
 5329SOL     OW16885   1.110   6.664   6.253
 5329SOL    HW116886   1.019   6.633   6.279
 5329SOL    HW216887   1.154   6.595   6.195
 5330SOL     OW16888   2.353   4.612   1.218
 5330SOL    HW116889   2.275   4.665   1.250
 5330SOL    HW216890   2.418   4.672   1.172
 5331SOL     OW16891   6.210   0.561   6.514
 5331SOL    HW116892   6.176   0.622   6.443
 5331SOL    HW216893   6.174   0.590   6.603
 5332SOL     OW16894   0.773   4.829   2.006
 5332SOL    HW116895   0.784   4.857   2.101
 5332SOL    HW216896   0.746   4.733   2.003
 5333SOL     OW16897   0.886   6.428   4.332
 5333SOL    HW116898   0.901   6.466   4.423
 5333SOL    HW216899   0.912   6.331   4.332
 5334SOL     OW16900   3.092   0.328   4.579
 5334SOL    HW116901   3.134   0.352   4.666
 5334SOL    HW216902   3.068   0.231   4.578
 5335SOL     OW16903   6.660   5.614   0.273
 5335SOL    HW116904   6.721   5.687   0.302
 5335SOL    HW216905   6.695   5.526   0.307
 5336SOL     OW16906   1.077   4.042   1.959
 5336SOL    HW116907   1.058   4.021   2.055
 5336SOL    HW216908   1.077   3.958   1.906
 5337SOL     OW16909   4.845   4.412   1.474
 5337SOL    HW116910   4.880   4.394   1.566
 5337SOL    HW216911   4.776   4.343   1.450
 5338SOL     OW16912   6.593   1.673   6.728
 5338SOL    HW116913   6.570   1.597   6.788
 5338SOL    HW216914   6.521   1.683   6.659
 5339SOL     OW16915   6.062   0.671   2.641
 5339SOL    HW116916   5.999   0.747   2.626
 5339SOL    HW216917   6.119   0.689   2.721
 5340SOL     OW16918   5.210   2.421   6.239
 5340SOL    HW116919   5.274   2.344   6.233
 5340SOL    HW216920   5.258   2.500   6.277
 5341SOL     OW16921   4.370   0.104   0.231
 5341SOL    HW116922   4.367   0.025   0.169
 5341SOL    HW216923   4.308   0.087   0.308
 5342SOL     OW16924   2.913   0.801   6.196
 5342SOL    HW116925   2.977   0.846   6.258
 5342SOL    HW216926   2.951   0.714   6.166
 5343SOL     OW16927   3.302   3.855   1.915
 5343SOL    HW116928   3.233   3.893   1.978
 5343SOL    HW216929   3.285   3.757   1.904
 5344SOL     OW16930   2.445   2.097   3.026
 5344SOL    HW116931   2.534   2.058   3.049
 5344SOL    HW216932   2.412   2.152   3.103
 5345SOL     OW16933   4.354   6.779   1.797
 5345SOL    HW116934   4.353   6.840   1.717
 5345SOL    HW216935   4.378   6.687   1.768
 5346SOL     OW16936   1.965   6.022   3.172
 5346SOL    HW116937   1.995   6.115   3.151
 5346SOL    HW216938   1.933   5.977   3.089
 5347SOL     OW16939   0.039   2.002   2.149
 5347SOL    HW116940   0.019   1.916   2.102
 5347SOL    HW216941   6.981   2.066   2.135
 5348SOL     OW16942   6.896   0.973   0.643
 5348SOL    HW116943   6.966   1.002   0.578
 5348SOL    HW216944   6.805   0.991   0.605
 5349SOL     OW16945   6.287   0.718   1.786
 5349SOL    HW116946   6.379   0.728   1.747
 5349SOL    HW216947   6.220   0.714   1.712
 5350SOL     OW16948   2.530   0.764   6.805
 5350SOL    HW116949   2.525   0.840   6.740
 5350SOL    HW216950   2.438   0.735   6.830
 5351SOL     OW16951   4.549   0.741   1.974
 5351SOL    HW116952   4.473   0.707   2.030
 5351SOL    HW216953   4.536   0.839   1.957
 5352SOL     OW16954   2.853   6.103   3.454
 5352SOL    HW116955   2.898   6.020   3.487
 5352SOL    HW216956   2.863   6.109   3.355
 5353SOL     OW16957   5.988   0.097   5.507
 5353SOL    HW116958   6.004   0.007   5.468
 5353SOL    HW216959   6.047   0.110   5.587
 5354SOL     OW16960   1.078   4.087   0.892
 5354SOL    HW116961   1.007   4.154   0.913
 5354SOL    HW216962   1.051   3.998   0.928
 5355SOL     OW16963   4.236   1.606   5.133
 5355SOL    HW116964   4.286   1.523   5.159
 5355SOL    HW216965   4.156   1.617   5.193
 5356SOL     OW16966   6.206   3.530   1.180
 5356SOL    HW116967   6.213   3.496   1.086
 5356SOL    HW216968   6.120   3.581   1.191
 5357SOL     OW16969   3.360   6.738   0.438
 5357SOL    HW116970   3.433   6.797   0.403
 5357SOL    HW216971   3.350   6.750   0.536
 5358SOL     OW16972   4.317   2.952   1.358
 5358SOL    HW116973   4.366   2.915   1.438
 5358SOL    HW216974   4.220   2.962   1.381
 5359SOL     OW16975   2.361   0.349   6.718
 5359SOL    HW116976   2.444   0.360   6.664
 5359SOL    HW216977   2.307   0.434   6.714
 5360SOL     OW16978   3.883   6.713   6.717
 5360SOL    HW116979   3.820   6.671   6.782
 5360SOL    HW216980   3.954   6.763   6.766
 5361SOL     OW16981   1.818   0.510   5.893
 5361SOL    HW116982   1.848   0.455   5.971
 5361SOL    HW216983   1.866   0.481   5.811
 5362SOL     OW16984   4.270   5.940   3.499
 5362SOL    HW116985   4.363   5.931   3.534
 5362SOL    HW216986   4.206   5.892   3.559
 5363SOL     OW16987   0.423   5.063   5.753
 5363SOL    HW116988   0.512   5.018   5.743
 5363SOL    HW216989   0.371   5.019   5.826
 5364SOL     OW16990   0.542   6.063   0.035
 5364SOL    HW116991   0.551   6.042   6.955
 5364SOL    HW216992   0.446   6.086   0.055
 5365SOL     OW16993   3.937   2.219   6.507
 5365SOL    HW116994   3.955   2.286   6.434
 5365SOL    HW216995   3.877   2.148   6.472
 5366SOL     OW16996   3.683   4.076   6.746
 5366SOL    HW116997   3.765   4.134   6.752
 5366SOL    HW216998   3.711   3.981   6.731
 5367SOL     OW16999   0.445   4.439   0.623
 5367SOL    HW117000   0.471   4.374   0.693
 5367SOL    HW217001   0.521   4.502   0.605
 5368SOL     OW17002   6.208   1.089   3.658
 5368SOL    HW117003   6.234   1.021   3.590
 5368SOL    HW217004   6.287   1.146   3.679
 5369SOL     OW17005   1.496   3.876   2.370
 5369SOL    HW117006   1.481   3.833   2.459
 5369SOL    HW217007   1.419   3.936   2.349
 5370SOL     OW17008   3.836   2.977   1.538
 5370SOL    HW117009   3.796   3.015   1.621
 5370SOL    HW217010   3.764   2.959   1.471
 5371SOL     OW17011   1.388   3.766   5.329
 5371SOL    HW117012   1.442   3.713   5.394
 5371SOL    HW217013   1.437   3.773   5.242
 5372SOL     OW17014   2.368   5.192   2.982
 5372SOL    HW117015   2.369   5.184   2.882
 5372SOL    HW217016   2.280   5.230   3.012
 5373SOL     OW17017   2.523   5.089   3.696
 5373SOL    HW117018   2.505   5.079   3.794
 5373SOL    HW217019   2.478   5.015   3.646
 5374SOL     OW17020   3.045   2.232   0.623
 5374SOL    HW117021   3.128   2.254   0.571
 5374SOL    HW217022   2.987   2.171   0.569
 5375SOL     OW17023   1.693   4.616   4.229
 5375SOL    HW117024   1.663   4.672   4.152
 5375SOL    HW217025   1.777   4.567   4.204
 5376SOL     OW17026   2.391   4.534   0.374
 5376SOL    HW117027   2.474   4.489   0.405
 5376SOL    HW217028   2.330   4.550   0.451
 5377SOL     OW17029   0.779   1.426   1.171
 5377SOL    HW117030   0.871   1.398   1.142
 5377SOL    HW217031   0.762   1.395   1.264
 5378SOL     OW17032   4.543   6.779   6.978
 5378SOL    HW117033   4.560   6.846   6.906
 5378SOL    HW217034   4.622   6.773   0.020
 5379SOL     OW17035   6.650   6.687   1.841
 5379SOL    HW117036   6.627   6.780   1.869
 5379SOL    HW217037   6.586   6.623   1.883
 5380SOL     OW17038   2.434   0.327   4.300
 5380SOL    HW117039   2.529   0.333   4.329
 5380SOL    HW217040   2.385   0.265   4.362
 5381SOL     OW17041   5.335   4.162   1.413
 5381SOL    HW117042   5.316   4.198   1.322
 5381SOL    HW217043   5.287   4.217   1.481
 5382SOL     OW17044   1.354   0.527   1.804
 5382SOL    HW117045   1.331   0.533   1.901
 5382SOL    HW217046   1.355   0.431   1.776
 5383SOL     OW17047   2.226   2.023   5.080
 5383SOL    HW117048   2.197   2.109   5.036
 5383SOL    HW217049   2.321   2.005   5.058
 5384SOL     OW17050   6.069   6.867   3.839
 5384SOL    HW117051   6.020   6.780   3.845
 5384SOL    HW217052   6.003   6.942   3.832
 5385SOL     OW17053   3.096   3.802   2.323
 5385SOL    HW117054   3.039   3.737   2.273
 5385SOL    HW217055   3.141   3.755   2.399
 5386SOL     OW17056   5.352   6.869   5.462
 5386SOL    HW117057   5.345   6.916   5.550
 5386SOL    HW217058   5.431   6.904   5.412
 5387SOL     OW17059   3.110   5.380   1.698
 5387SOL    HW117060   3.118   5.372   1.598
 5387SOL    HW217061   3.016   5.359   1.725
 5388SOL     OW17062   5.768   6.457   2.653
 5388SOL    HW117063   5.804   6.390   2.588
 5388SOL    HW217064   5.804   6.547   2.630
 5389SOL     OW17065   4.632   2.199   1.333
 5389SOL    HW117066   4.726   2.232   1.343
 5389SOL    HW217067   4.602   2.155   1.417
 5390SOL     OW17068   6.102   4.674   5.921
 5390SOL    HW117069   6.033   4.737   5.955
 5390SOL    HW217070   6.059   4.587   5.899
 5391SOL     OW17071   2.859   3.573   0.072
 5391SOL    HW117072   2.819   3.567   0.163
 5391SOL    HW217073   2.803   3.634   0.015
 5392SOL     OW17074   6.128   3.069   2.522
 5392SOL    HW117075   6.209   3.048   2.576
 5392SOL    HW217076   6.123   3.008   2.443
 5393SOL     OW17077   5.942   6.789   6.636
 5393SOL    HW117078   5.912   6.733   6.559
 5393SOL    HW217079   6.037   6.766   6.659
 5394SOL     OW17080   1.127   4.107   5.680
 5394SOL    HW117081   1.144   4.046   5.603
 5394SOL    HW217082   1.163   4.198   5.660
 5395SOL     OW17083   4.661   1.102   6.890
 5395SOL    HW117084   4.593   1.053   6.945
 5395SOL    HW217085   4.675   1.194   6.928
 5396SOL     OW17086   5.211   3.063   2.277
 5396SOL    HW117087   5.121   3.077   2.235
 5396SOL    HW217088   5.200   3.024   2.368
 5397SOL     OW17089   0.132   2.790   1.462
 5397SOL    HW117090   0.195   2.861   1.431
 5397SOL    HW217091   0.157   2.761   1.555
 5398SOL     OW17092   3.704   3.058   1.764
 5398SOL    HW117093   3.650   3.018   1.838
 5398SOL    HW217094   3.733   3.150   1.789
 5399SOL     OW17095   1.012   6.116   0.475
 5399SOL    HW117096   0.996   6.062   0.392
 5399SOL    HW217097   1.092   6.079   0.523
 5400SOL     OW17098   2.527   4.374   6.826
 5400SOL    HW117099   2.600   4.307   6.814
 5400SOL    HW217100   2.501   4.411   6.737
 5401SOL     OW17101   6.456   2.496   1.620
 5401SOL    HW117102   6.392   2.540   1.556
 5401SOL    HW217103   6.414   2.414   1.659
 5402SOL     OW17104   1.565   6.118   2.350
 5402SOL    HW117105   1.642   6.123   2.415
 5402SOL    HW217106   1.504   6.195   2.366
 5403SOL     OW17107   6.139   3.459   6.700
 5403SOL    HW117108   6.234   3.427   6.693
 5403SOL    HW217109   6.100   3.428   6.787
 5404SOL     OW17110   1.669   3.093   2.772
 5404SOL    HW117111   1.693   3.184   2.805
 5404SOL    HW217112   1.620   3.043   2.843
 5405SOL     OW17113   6.421   4.199   6.433
 5405SOL    HW117114   6.422   4.116   6.488
 5405SOL    HW217115   6.513   4.238   6.428
 5406SOL     OW17116   1.656   6.880   4.845
 5406SOL    HW117117   1.591   6.911   4.914
 5406SOL    HW217118   1.607   6.831   4.773
 5407SOL     OW17119   3.970   3.200   0.192
 5407SOL    HW117120   3.928   3.268   0.132
 5407SOL    HW217121   3.965   3.232   0.287
 5408SOL     OW17122   3.267   1.337   0.321
 5408SOL    HW117123   3.300   1.291   0.238
 5408SOL    HW217124   3.311   1.426   0.330
 5409SOL     OW17125   3.918   0.722   2.364
 5409SOL    HW117126   3.836   0.672   2.336
 5409SOL    HW217127   3.911   0.748   2.460
 5410SOL     OW17128   2.042   2.474   2.377
 5410SOL    HW117129   2.115   2.457   2.442
 5410SOL    HW217130   2.039   2.571   2.353
 5411SOL     OW17131   0.781   5.368   4.687
 5411SOL    HW117132   0.838   5.303   4.736
 5411SOL    HW217133   0.750   5.439   4.750
 5412SOL     OW17134   6.023   2.977   1.366
 5412SOL    HW117135   5.930   3.011   1.351
 5412SOL    HW217136   6.086   3.054   1.374
 5413SOL     OW17137   2.562   0.250   1.863
 5413SOL    HW117138   2.657   0.225   1.843
 5413SOL    HW217139   2.556   0.349   1.875
 5414SOL     OW17140   4.429   0.773   5.843
 5414SOL    HW117141   4.357   0.709   5.820
 5414SOL    HW217142   4.484   0.736   5.918
 5415SOL     OW17143   5.812   4.462   1.911
 5415SOL    HW117144   5.776   4.402   1.840
 5415SOL    HW217145   5.736   4.515   1.951
 5416SOL     OW17146   4.503   5.611   4.107
 5416SOL    HW117147   4.499   5.691   4.047
 5416SOL    HW217148   4.424   5.611   4.168
 5417SOL     OW17149   3.613   6.983   4.961
 5417SOL    HW117150   3.604   0.056   4.920
 5417SOL    HW217151   3.549   6.975   5.038
 5418SOL     OW17152   3.356   0.395   2.773
 5418SOL    HW117153   3.337   0.419   2.868
 5418SOL    HW217154   3.343   0.475   2.714
 5419SOL     OW17155   3.285   4.288   6.521
 5419SOL    HW117156   3.339   4.273   6.604
 5419SOL    HW217157   3.299   4.381   6.488
 5420SOL     OW17158   1.703   1.303   2.567
 5420SOL    HW117159   1.685   1.361   2.647
 5420SOL    HW217160   1.800   1.281   2.562
 5421SOL     OW17161   1.270   3.439   1.496
 5421SOL    HW117162   1.316   3.507   1.553
 5421SOL    HW217163   1.306   3.445   1.403
 5422SOL     OW17164   2.380   3.972   1.143
 5422SOL    HW117165   2.456   3.985   1.207
 5422SOL    HW217166   2.415   3.977   1.049
 5423SOL     OW17167   5.972   3.827   6.130
 5423SOL    HW117168   5.942   3.847   6.037
 5423SOL    HW217169   6.040   3.894   6.158
 5424SOL     OW17170   5.522   3.800   5.167
 5424SOL    HW117171   5.562   3.783   5.077
 5424SOL    HW217172   5.582   3.858   5.221
 5425SOL     OW17173   5.368   0.279   4.892
 5425SOL    HW117174   5.364   0.362   4.837
 5425SOL    HW217175   5.290   0.220   4.871
 5426SOL     OW17176   6.679   0.165   5.308
 5426SOL    HW117177   6.637   0.245   5.352
 5426SOL    HW217178   6.666   0.084   5.365
 5427SOL     OW17179   4.447   6.044   6.860
 5427SOL    HW117180   4.538   6.056   6.821
 5427SOL    HW217181   4.380   6.095   6.806
 5428SOL     OW17182   1.137   0.197   6.581
 5428SOL    HW117183   1.186   0.226   6.663
 5428SOL    HW217184   1.113   0.278   6.527
 5429SOL     OW17185   1.505   2.495   6.742
 5429SOL    HW117186   1.472   2.411   6.785
 5429SOL    HW217187   1.547   2.554   6.812
 5430SOL     OW17188   2.407   2.168   5.413
 5430SOL    HW117189   2.423   2.214   5.500
 5430SOL    HW217190   2.312   2.182   5.385
 5431SOL     OW17191   3.632   6.087   4.527
 5431SOL    HW117192   3.680   6.175   4.537
 5431SOL    HW217193   3.535   6.101   4.544
 5432SOL     OW17194   5.568   6.354   1.283
 5432SOL    HW117195   5.581   6.440   1.233
 5432SOL    HW217196   5.602   6.364   1.376
 5433SOL     OW17197   6.918   1.930   4.386
 5433SOL    HW117198   6.848   1.962   4.321
 5433SOL    HW217199   7.003   1.911   4.336
 5434SOL     OW17200   2.894   6.671   5.683
 5434SOL    HW117201   2.954   6.591   5.687
 5434SOL    HW217202   2.813   6.648   5.630
 5435SOL     OW17203   4.296   1.439   1.709
 5435SOL    HW117204   4.327   1.470   1.799
 5435SOL    HW217205   4.376   1.421   1.651
 5436SOL     OW17206   5.536   3.821   2.473
 5436SOL    HW117207   5.457   3.859   2.522
 5436SOL    HW217208   5.520   3.827   2.374
 5437SOL     OW17209   2.935   3.819   6.481
 5437SOL    HW117210   3.023   3.788   6.517
 5437SOL    HW217211   2.943   3.835   6.382
 5438SOL     OW17212   6.542   1.725   1.360
 5438SOL    HW117213   6.584   1.786   1.428
 5438SOL    HW217214   6.572   1.631   1.376
 5439SOL     OW17215   1.220   2.248   1.213
 5439SOL    HW117216   1.122   2.254   1.230
 5439SOL    HW217217   1.269   2.238   1.299
 5440SOL     OW17218   1.793   2.060   0.787
 5440SOL    HW117219   1.735   2.111   0.851
 5440SOL    HW217220   1.761   1.966   0.782
 5441SOL     OW17221   4.338   1.570   4.140
 5441SOL    HW117222   4.302   1.658   4.108
 5441SOL    HW217223   4.287   1.542   4.222
 5442SOL     OW17224   3.695   0.348   2.661
 5442SOL    HW117225   3.659   0.310   2.747
 5442SOL    HW217226   3.702   0.276   2.593
 5443SOL     OW17227   2.927   6.506   4.884
 5443SOL    HW117228   2.862   6.431   4.898
 5443SOL    HW217229   3.010   6.471   4.840
 5444SOL     OW17230   0.276   0.049   3.416
 5444SOL    HW117231   0.225   6.991   3.457
 5444SOL    HW217232   0.213   0.120   3.386
 5445SOL     OW17233   5.440   3.455   2.036
 5445SOL    HW117234   5.407   3.437   1.944
 5445SOL    HW217235   5.411   3.381   2.097
 5446SOL     OW17236   6.817   5.713   5.939
 5446SOL    HW117237   6.753   5.652   5.892
 5446SOL    HW217238   6.769   5.796   5.969
 5447SOL     OW17239   3.124   1.880   0.472
 5447SOL    HW117240   3.054   1.840   0.531
 5447SOL    HW217241   3.096   1.874   0.377
 5448SOL     OW17242   5.395   2.229   6.140
 5448SOL    HW117243   5.448   2.151   6.175
 5448SOL    HW217244   5.451   2.312   6.147
 5449SOL     OW17245   0.631   3.576   6.927
 5449SOL    HW117246   0.723   3.611   6.943
 5449SOL    HW217247   0.578   3.643   6.876
 5450SOL     OW17248   2.002   6.792   0.558
 5450SOL    HW117249   1.905   6.798   0.578
 5450SOL    HW217250   2.035   6.699   0.578
 5451SOL     OW17251   1.681   0.237   2.387
 5451SOL    HW117252   1.658   0.307   2.455
 5451SOL    HW217253   1.676   0.147   2.430
 5452SOL     OW17254   2.761   3.989   5.669
 5452SOL    HW117255   2.663   3.999   5.653
 5452SOL    HW217256   2.807   3.969   5.582
 5453SOL     OW17257   6.198   4.906   6.279
 5453SOL    HW117258   6.276   4.851   6.306
 5453SOL    HW217259   6.117   4.877   6.329
 5454SOL     OW17260   0.244   4.654   6.213
 5454SOL    HW117261   0.219   4.567   6.254
 5454SOL    HW217262   0.342   4.671   6.225
 5455SOL     OW17263   6.803   3.117   1.104
 5455SOL    HW117264   6.787   3.110   1.202
 5455SOL    HW217265   6.817   3.214   1.080
 5456SOL     OW17266   3.583   6.753   0.948
 5456SOL    HW117267   3.615   6.801   0.865
 5456SOL    HW217268   3.654   6.759   1.018
 5457SOL     OW17269   5.948   3.778   0.410
 5457SOL    HW117270   5.950   3.875   0.434
 5457SOL    HW217271   6.014   3.760   0.338
 5458SOL     OW17272   2.491   4.666   6.437
 5458SOL    HW117273   2.590   4.672   6.450
 5458SOL    HW217274   2.459   4.576   6.467
 5459SOL     OW17275   2.232   4.636   5.854
 5459SOL    HW117276   2.137   4.619   5.879
 5459SOL    HW217277   2.236   4.707   5.784
 5460SOL     OW17278   3.665   0.401   1.647
 5460SOL    HW117279   3.613   0.316   1.642
 5460SOL    HW217280   3.710   0.408   1.736
 5461SOL     OW17281   4.658   6.740   4.942
 5461SOL    HW117282   4.616   6.806   4.880
 5461SOL    HW217283   4.723   6.683   4.891
 5462SOL     OW17284   1.009   0.110   1.655
 5462SOL    HW117285   1.072   0.184   1.677
 5462SOL    HW217286   0.956   0.134   1.574
 5463SOL     OW17287   6.882   3.048   0.593
 5463SOL    HW117288   6.797   3.027   0.642
 5463SOL    HW217289   6.920   3.134   0.628
 5464SOL     OW17290   2.275   6.656   4.268
 5464SOL    HW117291   2.198   6.603   4.234
 5464SOL    HW217292   2.243   6.720   4.337
 5465SOL     OW17293   2.326   6.723   6.281
 5465SOL    HW117294   2.366   6.652   6.223
 5465SOL    HW217295   2.393   6.754   6.348
 5466SOL     OW17296   4.793   4.641   4.870
 5466SOL    HW117297   4.796   4.543   4.853
 5466SOL    HW217298   4.886   4.676   4.885
 5467SOL     OW17299   6.071   1.757   1.985
 5467SOL    HW117300   6.161   1.789   2.015
 5467SOL    HW217301   6.053   1.666   2.023
 5468SOL     OW17302   4.154   1.496   5.530
 5468SOL    HW117303   4.149   1.541   5.441
 5468SOL    HW217304   4.250   1.485   5.557
 5469SOL     OW17305   4.522   5.098   0.026
 5469SOL    HW117306   4.453   5.049   6.991
 5469SOL    HW217307   4.574   5.033   0.081
 5470SOL     OW17308   1.031   5.433   3.549
 5470SOL    HW117309   0.981   5.348   3.564
 5470SOL    HW217310   1.046   5.447   3.451
 5471SOL     OW17311   6.074   4.812   2.175
 5471SOL    HW117312   6.138   4.852   2.109
 5471SOL    HW217313   6.095   4.715   2.187
 5472SOL     OW17314   4.046   5.055   5.648
 5472SOL    HW117315   4.027   4.961   5.619
 5472SOL    HW217316   3.968   5.113   5.623
 5473SOL     OW17317   1.501   3.415   3.395
 5473SOL    HW117318   1.452   3.331   3.370
 5473SOL    HW217319   1.550   3.400   3.481
 5474SOL     OW17320   1.986   6.152   3.692
 5474SOL    HW117321   2.031   6.166   3.780
 5474SOL    HW217322   2.055   6.133   3.622
 5475SOL     OW17323   2.759   2.875   1.343
 5475SOL    HW117324   2.712   2.943   1.400
 5475SOL    HW217325   2.693   2.805   1.315
 5476SOL     OW17326   1.067   3.608   6.233
 5476SOL    HW117327   1.094   3.632   6.326
 5476SOL    HW217328   1.108   3.521   6.207
 5477SOL     OW17329   1.929   3.132   2.190
 5477SOL    HW117330   2.006   3.195   2.206
 5477SOL    HW217331   1.843   3.177   2.214
 5478SOL     OW17332   6.728   6.296   6.341
 5478SOL    HW117333   6.782   6.379   6.357
 5478SOL    HW217334   6.656   6.317   6.274
 5479SOL     OW17335   4.340   0.414   4.307
 5479SOL    HW117336   4.254   0.452   4.273
 5479SOL    HW217337   4.356   0.445   4.400
 5480SOL     OW17338   0.387   3.227   4.837
 5480SOL    HW117339   0.383   3.130   4.858
 5480SOL    HW217340   0.294   3.264   4.831
 5481SOL     OW17341   4.599   6.713   4.086
 5481SOL    HW117342   4.513   6.746   4.126
 5481SOL    HW217343   4.579   6.657   4.006
 5482SOL     OW17344   1.575   4.334   2.031
 5482SOL    HW117345   1.534   4.398   2.096
 5482SOL    HW217346   1.621   4.384   1.958
 5483SOL     OW17347   0.827   2.706   6.319
 5483SOL    HW117348   0.843   2.778   6.386
 5483SOL    HW217349   0.831   2.745   6.227
 5484SOL     OW17350   4.896   6.908   5.276
 5484SOL    HW117351   4.921   6.937   5.184
 5484SOL    HW217352   4.840   6.978   5.320
 5485SOL     OW17353   3.302   0.131   4.748
 5485SOL    HW117354   3.261   0.179   4.670
 5485SOL    HW217355   3.247   0.148   4.830
 5486SOL     OW17356   2.297   5.214   4.527
 5486SOL    HW117357   2.208   5.238   4.489
 5486SOL    HW217358   2.306   5.115   4.532
 5487SOL     OW17359   3.454   5.271   5.341
 5487SOL    HW117360   3.474   5.176   5.316
 5487SOL    HW217361   3.461   5.329   5.260
 5488SOL     OW17362   5.429   2.275   0.851
 5488SOL    HW117363   5.514   2.255   0.900
 5488SOL    HW217364   5.360   2.309   0.916
 5489SOL     OW17365   0.082   3.601   3.813
 5489SOL    HW117366   0.152   3.586   3.744
 5489SOL    HW217367   0.121   3.651   3.890
 5490SOL     OW17368   1.506   6.001   2.887
 5490SOL    HW117369   1.520   5.998   2.985
 5490SOL    HW217370   1.440   5.931   2.860
 5491SOL     OW17371   6.272   4.253   0.464
 5491SOL    HW117372   6.187   4.249   0.518
 5491SOL    HW217373   6.340   4.308   0.512
 5492SOL     OW17374   0.007   1.831   6.197
 5492SOL    HW117375   7.004   1.847   6.101
 5492SOL    HW217376   0.084   1.889   6.225
 5493SOL     OW17377   3.801   3.937   0.382
 5493SOL    HW117378   3.735   3.882   0.331
 5493SOL    HW217379   3.890   3.892   0.381
 5494SOL     OW17380   5.956   3.249   5.395
 5494SOL    HW117381   5.885   3.319   5.404
 5494SOL    HW217382   5.952   3.186   5.473
 5495SOL     OW17383   5.956   6.779   0.619
 5495SOL    HW117384   6.009   6.860   0.644
 5495SOL    HW217385   5.989   6.743   0.532
 5496SOL     OW17386   3.991   0.128   4.917
 5496SOL    HW117387   3.950   0.115   5.007
 5496SOL    HW217388   3.985   0.224   4.891
 5497SOL     OW17389   0.777   0.422   4.979
 5497SOL    HW117390   0.859   0.469   4.945
 5497SOL    HW217391   0.706   0.425   4.909
 5498SOL     OW17392   0.187   5.561   1.357
 5498SOL    HW117393   0.137   5.480   1.327
 5498SOL    HW217394   0.144   5.643   1.318
 5499SOL     OW17395   1.994   0.083   4.688
 5499SOL    HW117396   2.071   0.136   4.654
 5499SOL    HW217397   1.909   0.123   4.654
 5500SOL     OW17398   2.951   0.524   1.318
 5500SOL    HW117399   3.018   0.593   1.291
 5500SOL    HW217400   2.883   0.565   1.379
 5501SOL     OW17401   3.803   3.582   6.883
 5501SOL    HW117402   3.901   3.600   6.896
 5501SOL    HW217403   3.789   3.483   6.873
 5502SOL     OW17404   4.910   3.016   6.552
 5502SOL    HW117405   4.955   2.943   6.603
 5502SOL    HW217406   4.972   3.094   6.544
 5503SOL     OW17407   5.938   3.372   0.878
 5503SOL    HW117408   5.931   3.296   0.942
 5503SOL    HW217409   5.859   3.432   0.888
 5504SOL     OW17410   3.878   1.868   6.959
 5504SOL    HW117411   3.947   1.855   6.887
 5504SOL    HW217412   3.887   1.959   6.998
 5505SOL     OW17413   3.318   4.929   3.429
 5505SOL    HW117414   3.251   4.861   3.399
 5505SOL    HW217415   3.368   4.892   3.508
 5506SOL     OW17416   6.345   2.881   6.053
 5506SOL    HW117417   6.435   2.844   6.077
 5506SOL    HW217418   6.357   2.964   5.998
 5507SOL     OW17419   3.691   6.898   6.555
 5507SOL    HW117420   3.651   6.946   6.633
 5507SOL    HW217421   3.780   6.860   6.581
 5508SOL     OW17422   0.312   0.853   6.212
 5508SOL    HW117423   0.285   0.820   6.122
 5508SOL    HW217424   0.385   0.921   6.202
 5509SOL     OW17425   6.500   4.980   0.292
 5509SOL    HW117426   6.464   5.007   0.381
 5509SOL    HW217427   6.600   4.985   0.293
 5510SOL     OW17428   4.977   5.166   6.754
 5510SOL    HW117429   4.957   5.124   6.842
 5510SOL    HW217430   5.070   5.141   6.725
 5511SOL     OW17431   0.519   2.670   6.142
 5511SOL    HW117432   0.612   2.704   6.157
 5511SOL    HW217433   0.511   2.636   6.048
 5512SOL     OW17434   2.097   0.291   2.319
 5512SOL    HW117435   2.163   0.363   2.340
 5512SOL    HW217436   2.053   0.310   2.231
 5513SOL     OW17437   3.856   4.772   6.840
 5513SOL    HW117438   3.893   4.846   6.894
 5513SOL    HW217439   3.785   4.724   6.892
 5514SOL     OW17440   3.638   0.762   0.285
 5514SOL    HW117441   3.714   0.817   0.248
 5514SOL    HW217442   3.671   0.710   0.364
 5515SOL     OW17443   2.755   5.628   2.422
 5515SOL    HW117444   2.804   5.652   2.338
 5515SOL    HW217445   2.760   5.704   2.486
 5516SOL     OW17446   1.939   2.188   5.616
 5516SOL    HW117447   2.014   2.254   5.608
 5516SOL    HW217448   1.963   2.118   5.683
 5517SOL     OW17449   1.415   1.890   3.068
 5517SOL    HW117450   1.436   1.982   3.034
 5517SOL    HW217451   1.338   1.853   3.016
 5518SOL     OW17452   4.846   5.387   6.872
 5518SOL    HW117453   4.862   5.474   6.827
 5518SOL    HW217454   4.894   5.314   6.823
 5519SOL     OW17455   5.098   2.627   4.870
 5519SOL    HW117456   5.193   2.656   4.883
 5519SOL    HW217457   5.094   2.529   4.854
 5520SOL     OW17458   4.562   0.537   1.480
 5520SOL    HW117459   4.634   0.554   1.547
 5520SOL    HW217460   4.478   0.584   1.509
 5521SOL     OW17461   4.601   6.416   2.495
 5521SOL    HW117462   4.570   6.321   2.495
 5521SOL    HW217463   4.619   6.445   2.401
 5522SOL     OW17464   5.954   5.990   0.640
 5522SOL    HW117465   6.024   6.054   0.608
 5522SOL    HW217466   5.889   6.039   0.699
 5523SOL     OW17467   5.401   1.846   0.896
 5523SOL    HW117468   5.303   1.855   0.878
 5523SOL    HW217469   5.451   1.910   0.838
 5524SOL     OW17470   2.596   1.355   3.784
 5524SOL    HW117471   2.559   1.366   3.691
 5524SOL    HW217472   2.569   1.266   3.820
 5525SOL     OW17473   6.264   0.883   0.944
 5525SOL    HW117474   6.190   0.823   0.914
 5525SOL    HW217475   6.238   0.978   0.930
 5526SOL     OW17476   5.346   5.179   4.002
 5526SOL    HW117477   5.277   5.154   3.935
 5526SOL    HW217478   5.346   5.113   4.077
 5527SOL     OW17479   5.900   0.454   3.042
 5527SOL    HW117480   5.920   0.397   2.962
 5527SOL    HW217481   5.978   0.456   3.103
 5528SOL     OW17482   1.316   1.776   6.962
 5528SOL    HW117483   1.408   1.751   6.992
 5528SOL    HW217484   1.295   1.731   6.876
 5529SOL     OW17485   3.544   0.769   2.508
 5529SOL    HW117486   3.583   0.841   2.566
 5529SOL    HW217487   3.545   0.799   2.412
 5530SOL     OW17488   0.010   1.843   0.996
 5530SOL    HW117489   6.959   1.771   0.985
 5530SOL    HW217490   0.095   1.802   1.030
 5531SOL     OW17491   1.962   4.046   1.599
 5531SOL    HW117492   1.884   4.043   1.662
 5531SOL    HW217493   2.045   4.020   1.647
 5532SOL     OW17494   0.900   2.905   6.731
 5532SOL    HW117495   0.979   2.881   6.675
 5532SOL    HW217496   0.818   2.910   6.673
 5533SOL     OW17497   3.629   1.044   2.577
 5533SOL    HW117498   3.718   1.052   2.533
 5533SOL    HW217499   3.557   1.042   2.508
 5534SOL     OW17500   1.188   0.275   4.517
 5534SOL    HW117501   1.164   0.190   4.470
 5534SOL    HW217502   1.230   0.254   4.605
 5535SOL     OW17503   0.336   2.165   2.671
 5535SOL    HW117504   0.302   2.215   2.750
 5535SOL    HW217505   0.435   2.175   2.665
 5536SOL     OW17506   4.673   6.612   4.616
 5536SOL    HW117507   4.660   6.686   4.550
 5536SOL    HW217508   4.611   6.537   4.594
 5537SOL     OW17509   3.110   2.176   3.762
 5537SOL    HW117510   3.204   2.146   3.749
 5537SOL    HW217511   3.085   2.170   3.858
 5538SOL     OW17512   4.705   5.006   4.521
 5538SOL    HW117513   4.652   5.047   4.595
 5538SOL    HW217514   4.782   4.954   4.560
 5539SOL     OW17515   2.424   4.591   0.092
 5539SOL    HW117516   2.425   4.559   0.187
 5539SOL    HW217517   2.448   4.688   0.089
 5540SOL     OW17518   4.159   5.374   2.151
 5540SOL    HW117519   4.109   5.446   2.103
 5540SOL    HW217520   4.143   5.382   2.249
 5541SOL     OW17521   3.757   1.103   6.044
 5541SOL    HW117522   3.748   1.203   6.046
 5541SOL    HW217523   3.844   1.079   6.003
 5542SOL     OW17524   5.260   4.413   6.707
 5542SOL    HW117525   5.345   4.428   6.658
 5542SOL    HW217526   5.256   4.318   6.739
 5543SOL     OW17527   0.653   2.373   4.733
 5543SOL    HW117528   0.735   2.406   4.779
 5543SOL    HW217529   0.659   2.274   4.720
 5544SOL     OW17530   5.442   0.826   6.997
 5544SOL    HW117531   5.524   0.835   0.036
 5544SOL    HW217532   5.427   0.911   6.946
 5545SOL     OW17533   2.646   2.356   1.936
 5545SOL    HW117534   2.741   2.379   1.954
 5545SOL    HW217535   2.641   2.285   1.866
 5546SOL     OW17536   4.131   4.793   5.798
 5546SOL    HW117537   4.092   4.873   5.845
 5546SOL    HW217538   4.197   4.825   5.729
 5547SOL     OW17539   3.593   5.943   4.170
 5547SOL    HW117540   3.510   5.926   4.223
 5547SOL    HW217541   3.619   5.858   4.123
 5548SOL     OW17542   0.344   2.312   4.372
 5548SOL    HW117543   0.420   2.371   4.397
 5548SOL    HW217544   0.259   2.346   4.412
 5549SOL     OW17545   3.411   5.265   6.727
 5549SOL    HW117546   3.473   5.189   6.746
 5549SOL    HW217547   3.461   5.338   6.681
 5550SOL     OW17548   2.581   6.200   2.283
 5550SOL    HW117549   2.649   6.240   2.222
 5550SOL    HW217550   2.593   6.236   2.376
 5551SOL     OW17551   0.865   1.263   3.067
 5551SOL    HW117552   0.804   1.337   3.094
 5551SOL    HW217553   0.895   1.213   3.148
 5552SOL     OW17554   0.845   2.664   2.045
 5552SOL    HW117555   0.925   2.651   1.986
 5552SOL    HW217556   0.764   2.679   1.988
 5553SOL     OW17557   4.383   6.022   6.504
 5553SOL    HW117558   4.377   6.070   6.591
 5553SOL    HW217559   4.375   6.087   6.429
 5554SOL     OW17560   3.660   1.148   4.547
 5554SOL    HW117561   3.751   1.115   4.572
 5554SOL    HW217562   3.591   1.082   4.577
 5555SOL     OW17563   0.861   6.051   1.430
 5555SOL    HW117564   0.896   6.058   1.524
 5555SOL    HW217565   0.922   5.993   1.376
 5556SOL     OW17566   0.779   0.846   4.456
 5556SOL    HW117567   0.846   0.920   4.464
 5556SOL    HW217568   0.715   0.867   4.382
 5557SOL     OW17569   2.459   0.572   3.044
 5557SOL    HW117570   2.482   0.564   2.948
 5557SOL    HW217571   2.360   0.558   3.056
 5558SOL     OW17572   5.010   2.453   5.487
 5558SOL    HW117573   5.047   2.499   5.567
 5558SOL    HW217574   4.945   2.515   5.441
 5559SOL     OW17575   2.032   0.849   1.281
 5559SOL    HW117576   2.037   0.772   1.344
 5559SOL    HW217577   1.971   0.919   1.318
 5560SOL     OW17578   0.271   1.027   4.445
 5560SOL    HW117579   0.195   1.025   4.510
 5560SOL    HW217580   0.336   0.954   4.467
 5561SOL     OW17581   1.668   3.838   2.147
 5561SOL    HW117582   1.623   3.895   2.078
 5561SOL    HW217583   1.604   3.818   2.221
 5562SOL     OW17584   3.187   2.059   6.979
 5562SOL    HW117585   3.118   2.122   7.015
 5562SOL    HW217586   3.161   2.029   6.888
 5563SOL     OW17587   4.057   4.275   1.619
 5563SOL    HW117588   3.973   4.221   1.621
 5563SOL    HW217589   4.035   4.371   1.605
 5564SOL     OW17590   5.086   2.238   1.354
 5564SOL    HW117591   5.091   2.162   1.289
 5564SOL    HW217592   5.177   2.252   1.395
 5565SOL     OW17593   2.592   2.552   5.221
 5565SOL    HW117594   2.613   2.586   5.312
 5565SOL    HW217595   2.493   2.555   5.205
 5566SOL     OW17596   2.220   4.246   0.470
 5566SOL    HW117597   2.193   4.151   0.486
 5566SOL    HW217598   2.280   4.276   0.544
 5567SOL     OW17599   1.634   5.458   3.013
 5567SOL    HW117600   1.574   5.486   2.939
 5567SOL    HW217601   1.591   5.383   3.064
 5568SOL     OW17602   3.654   2.896   0.263
 5568SOL    HW117603   3.564   2.938   0.271
 5568SOL    HW217604   3.717   2.960   0.218
 5569SOL     OW17605   4.778   1.916   6.528
 5569SOL    HW117606   4.686   1.906   6.566
 5569SOL    HW217607   4.836   1.964   6.593
 5570SOL     OW17608   1.500   3.241   5.198
 5570SOL    HW117609   1.538   3.154   5.167
 5570SOL    HW217610   1.405   3.228   5.226
 5571SOL     OW17611   6.671   4.496   6.708
 5571SOL    HW117612   6.629   4.566   6.650
 5571SOL    HW217613   6.600   4.434   6.742
 5572SOL     OW17614   0.132   3.357   4.786
 5572SOL    HW117615   0.046   3.371   4.834
 5572SOL    HW217616   0.157   3.440   4.736
 5573SOL     OW17617   0.026   4.016   0.178
 5573SOL    HW117618   0.109   4.058   0.216
 5573SOL    HW217619   6.966   4.077   0.193
 5574SOL     OW17620   1.576   0.073   3.802
 5574SOL    HW117621   1.560   0.172   3.804
 5574SOL    HW217622   1.513   0.030   3.737
 5575SOL     OW17623   1.143   1.097   2.077
 5575SOL    HW117624   1.078   1.165   2.042
 5575SOL    HW217625   1.208   1.073   2.005
 5576SOL     OW17626   5.658   6.453   6.053
 5576SOL    HW117627   5.575   6.508   6.069
 5576SOL    HW217628   5.734   6.513   6.031
 5577SOL     OW17629   2.419   4.687   4.674
 5577SOL    HW117630   2.485   4.761   4.690
 5577SOL    HW217631   2.414   4.629   4.755
 5578SOL     OW17632   3.192   2.051   6.489
 5578SOL    HW117633   3.193   2.150   6.498
 5578SOL    HW217634   3.185   2.026   6.392
 5579SOL     OW17635   5.162   5.190   2.026
 5579SOL    HW117636   5.183   5.282   1.992
 5579SOL    HW217637   5.213   5.122   1.974
 5580SOL     OW17638   5.305   1.183   1.386
 5580SOL    HW117639   5.225   1.136   1.350
 5580SOL    HW217640   5.277   1.245   1.460
 5581SOL     OW17641   2.786   2.578   0.524
 5581SOL    HW117642   2.706   2.637   0.524
 5581SOL    HW217643   2.828   2.578   0.433
 5582SOL     OW17644   3.836   3.147   2.975
 5582SOL    HW117645   3.874   3.171   2.885
 5582SOL    HW217646   3.736   3.145   2.969
 5583SOL     OW17647   4.534   0.621   7.006
 5583SOL    HW117648   4.452   0.621   0.044
 5583SOL    HW217649   4.509   0.625   6.909
 5584SOL     OW17650   4.910   3.525   3.422
 5584SOL    HW117651   4.924   3.502   3.518
 5584SOL    HW217652   4.884   3.442   3.372
 5585SOL     OW17653   0.712   0.155   3.779
 5585SOL    HW117654   0.638   0.213   3.743
 5585SOL    HW217655   0.731   0.182   3.874
 5586SOL     OW17656   2.522   1.350   6.822
 5586SOL    HW117657   2.591   1.278   6.811
 5586SOL    HW217658   2.543   1.427   6.762
 5587SOL     OW17659   3.135   6.508   3.658
 5587SOL    HW117660   3.117   6.414   3.688
 5587SOL    HW217661   3.229   6.516   3.627
 5588SOL     OW17662   5.118   6.951   6.381
 5588SOL    HW117663   5.041   7.004   6.416
 5588SOL    HW217664   5.203   7.001   6.399
 5589SOL     OW17665   2.505   4.087   0.498
 5589SOL    HW117666   2.583   4.027   0.513
 5589SOL    HW217667   2.425   4.051   0.547
 5590SOL     OW17668   6.667   0.222   3.517
 5590SOL    HW117669   6.590   0.168   3.483
 5590SOL    HW217670   6.645   0.259   3.607
 5591SOL     OW17671   5.510   0.201   0.747
 5591SOL    HW117672   5.582   0.252   0.794
 5591SOL    HW217673   5.469   0.135   0.810
 5592SOL     OW17674   1.168   2.713   2.145
 5592SOL    HW117675   1.177   2.681   2.240
 5592SOL    HW217676   1.227   2.657   2.086
 5593SOL     OW17677   2.384   4.548   4.909
 5593SOL    HW117678   2.340   4.465   4.943
 5593SOL    HW217679   2.432   4.593   4.984
 5594SOL     OW17680   3.175   1.426   6.765
 5594SOL    HW117681   3.248   1.394   6.705
 5594SOL    HW217682   3.132   1.508   6.726
 5595SOL     OW17683   0.678   3.001   6.584
 5595SOL    HW117684   0.603   2.990   6.519
 5595SOL    HW217685   0.728   3.085   6.564
 5596SOL     OW17686   4.901   3.235   4.630
 5596SOL    HW117687   4.874   3.142   4.604
 5596SOL    HW217688   4.857   3.259   4.717
 5597SOL     OW17689   6.832   1.849   6.775
 5597SOL    HW117690   6.895   1.785   6.732
 5597SOL    HW217691   6.738   1.815   6.765
 5598SOL     OW17692   6.403   1.264   3.723
 5598SOL    HW117693   6.487   1.211   3.734
 5598SOL    HW217694   6.420   1.359   3.751
 5599SOL     OW17695   5.768   2.856   3.095
 5599SOL    HW117696   5.720   2.943   3.104
 5599SOL    HW217697   5.714   2.784   3.138
 5600SOL     OW17698   1.971   2.885   2.022
 5600SOL    HW117699   1.935   2.932   1.942
 5600SOL    HW217700   1.985   2.951   2.096
 5601SOL     OW17701   5.724   2.878   5.742
 5601SOL    HW117702   5.796   2.844   5.803
 5601SOL    HW217703   5.649   2.915   5.798
 5602SOL     OW17704   6.015   1.905   3.106
 5602SOL    HW117705   6.017   1.814   3.147
 5602SOL    HW217706   5.955   1.905   3.026
 5603SOL     OW17707   3.318   2.517   6.586
 5603SOL    HW117708   3.370   2.449   6.638
 5603SOL    HW217709   3.226   2.526   6.625
 5604SOL     OW17710   1.190   6.010   3.552
 5604SOL    HW117711   1.268   5.986   3.495
 5604SOL    HW217712   1.105   5.999   3.500
 5605SOL     OW17713   4.432   0.485   3.766
 5605SOL    HW117714   4.408   0.397   3.725
 5605SOL    HW217715   4.350   0.542   3.773
 5606SOL     OW17716   4.758   3.470   0.792
 5606SOL    HW117717   4.775   3.468   0.890
 5606SOL    HW217718   4.755   3.377   0.757
 5607SOL     OW17719   6.849   2.504   3.265
 5607SOL    HW117720   6.932   2.491   3.210
 5607SOL    HW217721   6.873   2.547   3.352
 5608SOL     OW17722   5.620   0.278   4.025
 5608SOL    HW117723   5.676   0.308   3.948
 5608SOL    HW217724   5.611   0.353   4.091
 5609SOL     OW17725   6.606   0.732   0.404
 5609SOL    HW117726   6.660   0.677   0.469
 5609SOL    HW217727   6.522   0.683   0.382
 5610SOL     OW17728   5.881   5.940   5.871
 5610SOL    HW117729   5.868   5.855   5.821
 5610SOL    HW217730   5.949   5.926   5.943
 5611SOL     OW17731   6.478   3.918   1.877
 5611SOL    HW117732   6.454   3.984   1.805
 5611SOL    HW217733   6.400   3.857   1.894
 5612SOL     OW17734   4.108   2.031   0.864
 5612SOL    HW117735   4.127   2.088   0.783
 5612SOL    HW217736   4.125   2.084   0.947
 5613SOL     OW17737   6.297   5.124   5.804
 5613SOL    HW117738   6.267   5.115   5.899
 5613SOL    HW217739   6.331   5.035   5.772
 5614SOL     OW17740   4.848   1.917   5.046
 5614SOL    HW117741   4.773   1.851   5.052
 5614SOL    HW217742   4.906   1.908   5.127
 5615SOL     OW17743   0.737   3.058   3.116
 5615SOL    HW117744   0.721   2.962   3.140
 5615SOL    HW217745   0.667   3.089   3.052
 5616SOL     OW17746   1.420   3.347   1.834
 5616SOL    HW117747   1.439   3.404   1.754
 5616SOL    HW217748   1.396   3.255   1.804
 5617SOL     OW17749   1.007   5.222   6.496
 5617SOL    HW117750   1.084   5.163   6.518
 5617SOL    HW217751   0.976   5.269   6.579
 5618SOL     OW17752   4.560   6.954   2.659
 5618SOL    HW117753   4.485   7.005   2.618
 5618SOL    HW217754   4.526   6.868   2.697
 5619SOL     OW17755   3.296   3.304   3.303
 5619SOL    HW117756   3.200   3.306   3.329
 5619SOL    HW217757   3.311   3.361   3.223
 5620SOL     OW17758   5.258   4.504   4.785
 5620SOL    HW117759   5.231   4.494   4.689
 5620SOL    HW217760   5.192   4.455   4.843
 5621SOL     OW17761   1.054   2.793   6.935
 5621SOL    HW117762   1.144   2.798   6.893
 5621SOL    HW217763   0.989   2.846   6.880
 5622SOL     OW17764   4.901   5.937   3.897
 5622SOL    HW117765   4.980   5.912   3.842
 5622SOL    HW217766   4.894   5.877   3.977
 5623SOL     OW17767   4.615   4.396   3.910
 5623SOL    HW117768   4.592   4.460   3.983
 5623SOL    HW217769   4.555   4.315   3.917
 5624SOL     OW17770   4.887   3.777   3.851
 5624SOL    HW117771   4.885   3.740   3.944
 5624SOL    HW217772   4.821   3.851   3.843
 5625SOL     OW17773   3.081   6.236   5.988
 5625SOL    HW117774   3.081   6.275   6.080
 5625SOL    HW217775   3.108   6.139   5.993
 5626SOL     OW17776   1.313   5.449   6.523
 5626SOL    HW117777   1.279   5.485   6.436
 5626SOL    HW217778   1.366   5.365   6.506
 5627SOL     OW17779   1.161   5.593   0.874
 5627SOL    HW117780   1.255   5.624   0.887
 5627SOL    HW217781   1.137   5.601   0.777
 5628SOL     OW17782   1.665   2.912   0.104
 5628SOL    HW117783   1.703   3.003   0.117
 5628SOL    HW217784   1.697   2.852   0.177
 5629SOL     OW17785   6.569   3.722   4.318
 5629SOL    HW117786   6.502   3.731   4.391
 5629SOL    HW217787   6.539   3.652   4.253
 5630SOL     OW17788   1.304   3.918   0.500
 5630SOL    HW117789   1.334   3.939   0.407
 5630SOL    HW217790   1.273   4.001   0.546
 5631SOL     OW17791   3.774   0.435   1.885
 5631SOL    HW117792   3.867   0.470   1.884
 5631SOL    HW217793   3.713   0.503   1.927
 5632SOL     OW17794   4.232   5.887   6.919
 5632SOL    HW117795   4.305   5.954   6.903
 5632SOL    HW217796   4.267   5.812   6.974
 5633SOL     OW17797   1.065   5.895   5.705
 5633SOL    HW117798   1.019   5.900   5.616
 5633SOL    HW217799   1.090   5.800   5.724
 5634SOL     OW17800   2.617   0.911   1.981
 5634SOL    HW117801   2.608   0.824   1.932
 5634SOL    HW217802   2.557   0.910   2.062
 5635SOL     OW17803   3.540   0.919   2.025
 5635SOL    HW117804   3.600   0.998   2.016
 5635SOL    HW217805   3.565   0.850   1.956
 5636SOL     OW17806   5.688   0.605   5.477
 5636SOL    HW117807   5.785   0.600   5.500
 5636SOL    HW217808   5.653   0.696   5.500
 5637SOL     OW17809   4.882   6.757   4.732
 5637SOL    HW117810   4.814   6.704   4.682
 5637SOL    HW217811   4.865   6.855   4.719
 5638SOL     OW17812   6.814   5.400   0.348
 5638SOL    HW117813   6.805   5.320   0.408
 5638SOL    HW217814   6.819   5.371   0.253
 5639SOL     OW17815   3.485   0.089   2.008
 5639SOL    HW117816   3.543   0.150   2.061
 5639SOL    HW217817   3.397   0.133   1.990
 5640SOL     OW17818   2.960   6.910   3.726
 5640SOL    HW117819   2.966   6.942   3.820
 5640SOL    HW217820   2.879   6.950   3.682
 5641SOL     OW17821   6.705   4.587   3.564
 5641SOL    HW117822   6.687   4.670   3.511
 5641SOL    HW217823   6.621   4.556   3.608
 5642SOL     OW17824   1.859   3.321   6.324
 5642SOL    HW117825   1.880   3.224   6.337
 5642SOL    HW217826   1.920   3.377   6.380
 5643SOL     OW17827   6.167   2.531   3.910
 5643SOL    HW117828   6.112   2.448   3.915
 5643SOL    HW217829   6.233   2.523   3.835
 5644SOL     OW17830   3.770   0.567   6.013
 5644SOL    HW117831   3.824   0.483   6.008
 5644SOL    HW217832   3.681   0.553   5.971
 5645SOL     OW17833   5.742   6.489   3.215
 5645SOL    HW117834   5.676   6.424   3.176
 5645SOL    HW217835   5.705   6.581   3.207
 5646SOL     OW17836   6.209   0.262   3.836
 5646SOL    HW117837   6.178   0.326   3.765
 5646SOL    HW217838   6.301   0.229   3.813
 5647SOL     OW17839   6.789   3.836   6.669
 5647SOL    HW117840   6.702   3.874   6.699
 5647SOL    HW217841   6.858   3.909   6.669
 5648SOL     OW17842   2.588   1.761   4.416
 5648SOL    HW117843   2.665   1.823   4.425
 5648SOL    HW217844   2.505   1.805   4.451
 5649SOL     OW17845   0.948   0.598   5.710
 5649SOL    HW117846   0.975   0.649   5.628
 5649SOL    HW217847   0.956   0.658   5.790
 5650SOL     OW17848   6.870   5.157   5.252
 5650SOL    HW117849   6.930   5.094   5.300
 5650SOL    HW217850   6.924   5.216   5.192
 5651SOL     OW17851   6.058   1.616   2.446
 5651SOL    HW117852   6.055   1.711   2.476
 5651SOL    HW217853   6.110   1.561   2.512
 5652SOL     OW17854   5.451   4.351   7.010
 5652SOL    HW117855   5.436   4.322   6.916
 5652SOL    HW217856   5.549   4.344   0.014
 5653SOL     OW17857   2.046   5.714   0.106
 5653SOL    HW117858   2.002   5.639   0.057
 5653SOL    HW217859   2.125   5.679   0.157
 5654SOL     OW17860   1.607   6.248   0.152
 5654SOL    HW117861   1.619   6.311   0.075
 5654SOL    HW217862   1.607   6.154   0.117
 5655SOL     OW17863   6.446   5.081   2.949
 5655SOL    HW117864   6.450   5.176   2.917
 5655SOL    HW217865   6.446   5.079   3.049
 5656SOL     OW17866   3.487   5.552   6.664
 5656SOL    HW117867   3.406   5.596   6.703
 5656SOL    HW217868   3.570   5.598   6.697
 5657SOL     OW17869   4.665   5.320   1.988
 5657SOL    HW117870   4.597   5.336   2.059
 5657SOL    HW217871   4.741   5.267   2.026
 5658SOL     OW17872   5.188   6.279   5.900
 5658SOL    HW117873   5.240   6.307   5.981
 5658SOL    HW217874   5.220   6.188   5.871
 5659SOL     OW17875   2.850   3.607   3.229
 5659SOL    HW117876   2.833   3.680   3.296
 5659SOL    HW217877   2.842   3.645   3.137
 5660SOL     OW17878   6.820   6.249   1.487
 5660SOL    HW117879   6.863   6.336   1.507
 5660SOL    HW217880   6.772   6.216   1.569
 5661SOL     OW17881   6.368   5.603   4.303
 5661SOL    HW117882   6.462   5.631   4.320
 5661SOL    HW217883   6.343   5.529   4.364
 5662SOL     OW17884   1.924   5.032   5.041
 5662SOL    HW117885   2.020   5.055   5.025
 5662SOL    HW217886   1.866   5.106   5.006
 5663SOL     OW17887   2.572   4.051   1.338
 5663SOL    HW117888   2.587   4.080   1.432
 5663SOL    HW217889   2.620   4.113   1.276
 5664SOL     OW17890   6.752   6.178   2.097
 5664SOL    HW117891   6.826   6.245   2.103
 5664SOL    HW217892   6.790   6.089   2.072
 5665SOL     OW17893   1.183   1.244   5.873
 5665SOL    HW117894   1.206   1.339   5.852
 5665SOL    HW217895   1.172   1.192   5.788
 5666SOL     OW17896   5.680   5.594   0.175
 5666SOL    HW117897   5.734   5.678   0.163
 5666SOL    HW217898   5.720   5.521   0.118
 5667SOL     OW17899   5.922   4.634   2.641
 5667SOL    HW117900   5.855   4.602   2.574
 5667SOL    HW217901   5.967   4.717   2.606
 5668SOL     OW17902   6.124   3.005   6.218
 5668SOL    HW117903   6.172   2.956   6.145
 5668SOL    HW217904   6.184   3.015   6.297
 5669SOL     OW17905   0.459   3.286   4.569
 5669SOL    HW117906   0.425   3.284   4.662
 5669SOL    HW217907   0.411   3.217   4.514
 5670SOL     OW17908   1.425   3.745   2.609
 5670SOL    HW117909   1.364   3.735   2.688
 5670SOL    HW217910   1.422   3.661   2.555
 5671SOL     OW17911   0.919   0.894   5.282
 5671SOL    HW117912   1.000   0.950   5.261
 5671SOL    HW217913   0.923   0.808   5.231
 5672SOL     OW17914   5.154   4.164   6.048
 5672SOL    HW117915   5.073   4.219   6.030
 5672SOL    HW217916   5.184   4.176   6.142
 5673SOL     OW17917   1.587   6.882   0.811
 5673SOL    HW117918   1.501   6.918   0.775
 5673SOL    HW217919   1.617   6.939   0.888
 5674SOL     OW17920   6.892   3.476   1.450
 5674SOL    HW117921   6.954   3.399   1.460
 5674SOL    HW217922   6.923   3.534   1.374
 5675SOL     OW17923   3.836   0.948   6.249
 5675SOL    HW117924   3.933   0.934   6.271
 5675SOL    HW217925   3.828   1.022   6.182
 5676SOL     OW17926   3.197   6.774   1.569
 5676SOL    HW117927   3.196   6.734   1.661
 5676SOL    HW217928   3.219   6.703   1.502
 5677SOL     OW17929   6.774   0.249   3.170
 5677SOL    HW117930   6.851   0.217   3.115
 5677SOL    HW217931   6.706   0.177   3.177
 5678SOL     OW17932   1.420   5.909   3.446
 5678SOL    HW117933   1.511   5.909   3.488
 5678SOL    HW217934   1.391   5.815   3.427
 5679SOL     OW17935   3.086   5.520   5.533
 5679SOL    HW117936   3.112   5.496   5.439
 5679SOL    HW217937   3.155   5.581   5.572
 5680SOL     OW17938   1.524   6.823   6.428
 5680SOL    HW117939   1.598   6.842   6.492
 5680SOL    HW217940   1.453   6.892   6.438
 5681SOL     OW17941   2.778   4.254   6.835
 5681SOL    HW117942   2.877   4.244   6.841
 5681SOL    HW217943   2.734   4.204   6.909
 5682SOL     OW17944   1.543   3.628   4.429
 5682SOL    HW117945   1.563   3.643   4.332
 5682SOL    HW217946   1.615   3.571   4.469
 5683SOL     OW17947   4.084   3.685   5.172
 5683SOL    HW117948   4.158   3.624   5.202
 5683SOL    HW217949   4.093   3.702   5.074
 5684SOL     OW17950   3.076   3.127   3.024
 5684SOL    HW117951   3.022   3.211   3.018
 5684SOL    HW217952   3.165   3.141   2.981
 5685SOL     OW17953   0.367   5.653   1.984
 5685SOL    HW117954   0.362   5.673   1.886
 5685SOL    HW217955   0.454   5.687   2.020
 5686SOL     OW17956   3.687   5.016   7.014
 5686SOL    HW117957   3.781   5.011   0.029
 5686SOL    HW217958   3.632   4.947   0.042
 5687SOL     OW17959   4.268   5.434   6.303
 5687SOL    HW117960   4.326   5.493   6.247
 5687SOL    HW217961   4.196   5.394   6.247
 5688SOL     OW17962   5.712   1.749   2.051
 5688SOL    HW117963   5.793   1.718   2.100
 5688SOL    HW217964   5.717   1.718   1.955
 5689SOL     OW17965   4.295   3.386   6.185
 5689SOL    HW117966   4.237   3.308   6.162
 5689SOL    HW217967   4.351   3.363   6.265
 5690SOL     OW17968   4.018   6.452   2.475
 5690SOL    HW117969   4.094   6.494   2.426
 5690SOL    HW217970   3.959   6.524   2.512
 5691SOL     OW17971   2.991   0.455   3.939
 5691SOL    HW117972   3.085   0.435   3.910
 5691SOL    HW217973   2.927   0.410   3.877
 5692SOL     OW17974   5.655   2.886   6.321
 5692SOL    HW117975   5.712   2.807   6.344
 5692SOL    HW217976   5.575   2.888   6.381
 5693SOL     OW17977   4.978   2.454   2.307
 5693SOL    HW117978   4.930   2.539   2.327
 5693SOL    HW217979   4.912   2.384   2.280
 5694SOL     OW17980   1.242   1.751   3.839
 5694SOL    HW117981   1.300   1.824   3.873
 5694SOL    HW217982   1.272   1.664   3.877
 5695SOL     OW17983   1.894   3.274   3.548
 5695SOL    HW117984   1.955   3.334   3.599
 5695SOL    HW217985   1.939   3.243   3.464
 5696SOL     OW17986   3.159   0.654   6.022
 5696SOL    HW117987   3.240   0.686   6.070
 5696SOL    HW217988   3.102   0.600   6.084
 5697SOL     OW17989   6.506   3.941   0.101
 5697SOL    HW117990   6.434   3.912   0.164
 5697SOL    HW217991   6.588   3.886   0.117
 5698SOL     OW17992   1.145   3.997   3.207
 5698SOL    HW117993   1.147   4.090   3.245
 5698SOL    HW217994   1.188   3.934   3.271
 5699SOL     OW17995   6.861   2.571   5.000
 5699SOL    HW117996   6.891   2.578   5.096
 5699SOL    HW217997   6.769   2.532   4.998
 5700SOL     OW17998   0.806   5.715   3.852
 5700SOL    HW117999   0.753   5.662   3.786
 5700SOL    HW218000   0.902   5.717   3.824
 5701SOL     OW18001   5.402   4.152   2.254
 5701SOL    HW118002   5.481   4.131   2.311
 5701SOL    HW218003   5.416   4.114   2.162
 5702SOL     OW18004   2.778   0.128   6.946
 5702SOL    HW118005   2.856   0.079   6.906
 5702SOL    HW218006   2.718   0.063   6.992
 5703SOL     OW18007   4.794   4.092   1.918
 5703SOL    HW118008   4.736   4.117   1.840
 5703SOL    HW218009   4.815   4.173   1.972
 5704SOL     OW18010   5.221   4.080   3.468
 5704SOL    HW118011   5.157   4.021   3.420
 5704SOL    HW218012   5.203   4.076   3.566
 5705SOL     OW18013   6.298   1.797   3.241
 5705SOL    HW118014   6.279   1.806   3.338
 5705SOL    HW218015   6.219   1.756   3.195
 5706SOL     OW18016   2.012   1.354   6.451
 5706SOL    HW118017   1.991   1.407   6.533
 5706SOL    HW218018   1.999   1.256   6.469
 5707SOL     OW18019   3.048   1.156   6.720
 5707SOL    HW118020   3.097   1.238   6.750
 5707SOL    HW218021   2.950   1.170   6.733
 5708SOL     OW18022   6.718   0.427   1.309
 5708SOL    HW118023   6.758   0.391   1.226
 5708SOL    HW218024   6.740   0.367   1.386
 5709SOL     OW18025   1.219   2.023   1.543
 5709SOL    HW118026   1.237   1.928   1.517
 5709SOL    HW218027   1.290   2.081   1.504
 5710SOL     OW18028   3.302   4.505   6.350
 5710SOL    HW118029   3.338   4.447   6.277
 5710SOL    HW218030   3.318   4.601   6.328
 5711SOL     OW18031   5.256   0.942   4.822
 5711SOL    HW118032   5.348   0.916   4.852
 5711SOL    HW218033   5.188   0.900   4.884
 5712SOL     OW18034   6.606   6.162   6.991
 5712SOL    HW118035   6.705   6.172   7.001
 5712SOL    HW218036   6.585   6.080   6.938
 5713SOL     OW18037   0.278   2.728   2.624
 5713SOL    HW118038   0.350   2.752   2.689
 5713SOL    HW218039   0.301   2.642   2.578
 5714SOL     OW18040   2.088   0.704   6.225
 5714SOL    HW118041   2.030   0.727   6.147
 5714SOL    HW218042   2.184   0.721   6.201
 5715SOL     OW18043   1.513   6.951   3.541
 5715SOL    HW118044   1.445   7.014   3.504
 5715SOL    HW218045   1.577   6.925   3.469
 5716SOL     OW18046   2.032   2.370   5.055
 5716SOL    HW118047   2.022   2.470   5.048
 5716SOL    HW218048   1.992   2.339   5.141
 5717SOL     OW18049   0.835   3.831   6.558
 5717SOL    HW118050   0.859   3.841   6.655
 5717SOL    HW218051   0.914   3.794   6.508
 5718SOL     OW18052   2.585   5.323   5.677
 5718SOL    HW118053   2.549   5.270   5.601
 5718SOL    HW218054   2.645   5.395   5.642
 5719SOL     OW18055   2.094   0.571   0.782
 5719SOL    HW118056   2.110   0.660   0.823
 5719SOL    HW218057   2.006   0.535   0.814
 5720SOL     OW18058   1.060   5.720   4.050
 5720SOL    HW118059   1.066   5.658   4.129
 5720SOL    HW218060   0.971   5.709   4.006
 5721SOL     OW18061   6.914   4.711   0.900
 5721SOL    HW118062   6.870   4.762   0.825
 5721SOL    HW218063   6.957   4.628   0.863
 5722SOL     OW18064   5.497   1.418   4.008
 5722SOL    HW118065   5.512   1.319   3.995
 5722SOL    HW218066   5.400   1.438   4.002
 5723SOL     OW18067   1.253   4.260   1.072
 5723SOL    HW118068   1.221   4.265   1.166
 5723SOL    HW218069   1.198   4.194   1.021
 5724SOL     OW18070   4.845   2.327   5.798
 5724SOL    HW118071   4.775   2.300   5.863
 5724SOL    HW218072   4.882   2.416   5.822
 5725SOL     OW18073   5.255   6.207   5.524
 5725SOL    HW118074   5.289   6.287   5.574
 5725SOL    HW218075   5.333   6.154   5.490
 5726SOL     OW18076   4.663   3.914   5.564
 5726SOL    HW118077   4.580   3.942   5.517
 5726SOL    HW218078   4.721   3.994   5.580
 5727SOL     OW18079   5.684   2.235   4.053
 5727SOL    HW118080   5.587   2.212   4.062
 5727SOL    HW218081   5.692   2.324   4.008
 5728SOL     OW18082   4.691   0.494   5.436
 5728SOL    HW118083   4.720   0.521   5.528
 5728SOL    HW218084   4.721   0.563   5.370
 5729SOL     OW18085   1.411   3.015   4.644
 5729SOL    HW118086   1.345   2.951   4.685
 5729SOL    HW218087   1.421   2.994   4.547
 5730SOL     OW18088   3.907   5.086   0.595
 5730SOL    HW118089   3.849   5.068   0.675
 5730SOL    HW218090   3.878   5.171   0.551
 5731SOL     OW18091   4.502   1.629   4.910
 5731SOL    HW118092   4.483   1.531   4.924
 5731SOL    HW218093   4.502   1.649   4.812
 5732SOL     OW18094   5.677   4.091   4.037
 5732SOL    HW118095   5.581   4.116   4.044
 5732SOL    HW218096   5.730   4.142   4.105
 5733SOL     OW18097   2.842   0.088   1.498
 5733SOL    HW118098   2.898   0.162   1.537
 5733SOL    HW218099   2.853   0.006   1.553
 5734SOL     OW18100   1.374   6.419   6.281
 5734SOL    HW118101   1.305   6.389   6.215
 5734SOL    HW218102   1.461   6.372   6.263
 5735SOL     OW18103   5.276   1.075   1.763
 5735SOL    HW118104   5.291   0.980   1.734
 5735SOL    HW218105   5.216   1.076   1.843
 5736SOL     OW18106   6.206   3.940   6.258
 5736SOL    HW118107   6.185   3.915   6.353
 5736SOL    HW218108   6.305   3.951   6.249
 5737SOL     OW18109   5.437   6.010   2.155
 5737SOL    HW118110   5.475   6.056   2.236
 5737SOL    HW218111   5.339   5.998   2.167
 5738SOL     OW18112   2.357   0.783   0.959
 5738SOL    HW118113   2.299   0.859   0.991
 5738SOL    HW218114   2.337   0.701   1.012
 5739SOL     OW18115   2.504   0.737   5.791
 5739SOL    HW118116   2.442   0.813   5.807
 5739SOL    HW218117   2.594   0.758   5.830
 5740SOL     OW18118   4.839   3.845   2.911
 5740SOL    HW118119   4.884   3.794   2.837
 5740SOL    HW218120   4.821   3.784   2.987
 5741SOL     OW18121   1.426   3.258   4.327
 5741SOL    HW118122   1.423   3.277   4.425
 5741SOL    HW218123   1.521   3.240   4.300
 5742SOL     OW18124   5.931   6.688   2.953
 5742SOL    HW118125   5.961   6.666   3.045
 5742SOL    HW218126   5.848   6.744   2.957
 5743SOL     OW18127   3.704   5.696   0.236
 5743SOL    HW118128   3.730   5.738   0.148
 5743SOL    HW218129   3.742   5.751   0.311
 5744SOL     OW18130   5.218   6.097   3.614
 5744SOL    HW118131   5.301   6.142   3.646
 5744SOL    HW218132   5.193   6.133   3.524
 5745SOL     OW18133   1.129   2.899   2.404
 5745SOL    HW118134   1.043   2.877   2.359
 5745SOL    HW218135   1.178   2.815   2.426
 5746SOL     OW18136   5.240   0.372   2.914
 5746SOL    HW118137   5.263   0.335   2.824
 5746SOL    HW218138   5.263   0.305   2.985
 5747SOL     OW18139   1.671   6.673   1.264
 5747SOL    HW118140   1.626   6.584   1.279
 5747SOL    HW218141   1.608   6.746   1.288
 5748SOL     OW18142   6.583   6.385   0.323
 5748SOL    HW118143   6.565   6.380   0.224
 5748SOL    HW218144   6.679   6.363   0.340
 5749SOL     OW18145   1.938   5.865   5.917
 5749SOL    HW118146   2.022   5.918   5.929
 5749SOL    HW218147   1.960   5.775   5.879
 5750SOL     OW18148   6.841   2.748   4.305
 5750SOL    HW118149   6.834   2.729   4.403
 5750SOL    HW218150   6.762   2.802   4.276
 5751SOL     OW18151   1.045   3.829   4.578
 5751SOL    HW118152   1.140   3.859   4.589
 5751SOL    HW218153   0.989   3.870   4.650
 5752SOL     OW18154   5.288   0.700   0.174
 5752SOL    HW118155   5.291   0.602   0.154
 5752SOL    HW218156   5.317   0.751   0.093
 5753SOL     OW18157   3.178   4.092   4.484
 5753SOL    HW118158   3.128   4.100   4.571
 5753SOL    HW218159   3.271   4.059   4.502
 5754SOL     OW18160   0.045   6.169   1.054
 5754SOL    HW118161   6.963   6.165   1.060
 5754SOL    HW218162   0.083   6.194   1.143
 5755SOL     OW18163   1.009   3.511   6.688
 5755SOL    HW118164   0.920   3.469   6.701
 5755SOL    HW218165   1.045   3.542   6.776
 5756SOL     OW18166   6.275   5.831   2.017
 5756SOL    HW118167   6.220   5.879   2.087
 5756SOL    HW218168   6.268   5.880   1.930
 5757SOL     OW18169   6.844   1.189   3.709
 5757SOL    HW118170   6.765   1.150   3.757
 5757SOL    HW218171   6.818   1.210   3.615
 5758SOL     OW18172   5.962   6.430   2.832
 5758SOL    HW118173   5.882   6.451   2.776
 5758SOL    HW218174   5.975   6.503   2.900
 5759SOL     OW18175   2.845   0.279   2.430
 5759SOL    HW118176   2.843   0.366   2.380
 5759SOL    HW218177   2.766   0.273   2.490
 5760SOL     OW18178   1.269   2.535   7.015
 5760SOL    HW118179   1.277   2.609   6.947
 5760SOL    HW218180   1.331   2.553   0.073
 5761SOL     OW18181   6.501   6.786   4.716
 5761SOL    HW118182   6.521   6.732   4.633
 5761SOL    HW218183   6.550   6.747   4.793
 5762SOL     OW18184   0.887   5.479   6.406
 5762SOL    HW118185   0.789   5.460   6.410
 5762SOL    HW218186   0.938   5.396   6.426
 5763SOL     OW18187   5.708   0.012   0.456
 5763SOL    HW118188   5.780   6.970   0.493
 5763SOL    HW218189   5.679   0.077   0.526
 5764SOL     OW18190   4.367   6.397   4.067
 5764SOL    HW118191   4.294   6.342   4.109
 5764SOL    HW218192   4.449   6.392   4.123
 5765SOL     OW18193   6.436   4.796   2.270
 5765SOL    HW118194   6.532   4.781   2.292
 5765SOL    HW218195   6.401   4.872   2.324
 5766SOL     OW18196   0.745   1.396   4.173
 5766SOL    HW118197   0.692   1.328   4.123
 5766SOL    HW218198   0.752   1.369   4.269
 5767SOL     OW18199   4.078   6.511   6.790
 5767SOL    HW118200   4.145   6.571   6.831
 5767SOL    HW218201   4.010   6.565   6.740
 5768SOL     OW18202   0.727   1.263   5.104
 5768SOL    HW118203   0.656   1.296   5.167
 5768SOL    HW218204   0.745   1.332   5.034
 5769SOL     OW18205   1.462   3.214   5.910
 5769SOL    HW118206   1.556   3.220   5.878
 5769SOL    HW218207   1.428   3.304   5.934
 5770SOL     OW18208   2.001   4.302   2.043
 5770SOL    HW118209   1.944   4.275   2.121
 5770SOL    HW218210   1.944   4.345   1.974
 5771SOL     OW18211   3.116   4.945   3.781
 5771SOL    HW118212   3.105   4.949   3.682
 5771SOL    HW218213   3.027   4.935   3.825
 5772SOL     OW18214   3.187   6.910   2.910
 5772SOL    HW118215   3.271   6.911   2.855
 5772SOL    HW218216   3.208   6.944   3.002
 5773SOL     OW18217   5.559   1.279   2.415
 5773SOL    HW118218   5.622   1.283   2.338
 5773SOL    HW218219   5.477   1.331   2.394
 5774SOL     OW18220   0.740   6.651   2.884
 5774SOL    HW118221   0.813   6.643   2.816
 5774SOL    HW218222   0.704   6.560   2.905
 5775SOL     OW18223   6.396   4.997   1.825
 5775SOL    HW118224   6.390   4.961   1.732
 5775SOL    HW218225   6.485   4.974   1.864
 5776SOL     OW18226   2.482   1.155   4.207
 5776SOL    HW118227   2.471   1.121   4.301
 5776SOL    HW218228   2.517   1.248   4.210
 5777SOL     OW18229   1.717   6.769   1.901
 5777SOL    HW118230   1.777   6.715   1.960
 5777SOL    HW218231   1.649   6.817   1.957
 5778SOL     OW18232   0.026   0.689   0.983
 5778SOL    HW118233   0.083   0.693   1.065
 5778SOL    HW218234   0.057   0.757   0.917
 5779SOL     OW18235   5.879   1.123   6.506
 5779SOL    HW118236   5.900   1.056   6.577
 5779SOL    HW218237   5.960   1.179   6.489
 5780SOL     OW18238   5.293   4.921   4.085
 5780SOL    HW118239   5.207   4.899   4.131
 5780SOL    HW218240   5.306   4.859   4.008
 5781SOL     OW18241   1.271   5.528   6.018
 5781SOL    HW118242   1.241   5.571   6.103
 5781SOL    HW218243   1.286   5.598   5.948
 5782SOL     OW18244   0.705   0.805   0.257
 5782SOL    HW118245   0.797   0.830   0.224
 5782SOL    HW218246   0.708   0.712   0.293
 5783SOL     OW18247   2.409   2.389   0.565
 5783SOL    HW118248   2.475   2.317   0.542
 5783SOL    HW218249   2.365   2.367   0.652
 5784SOL     OW18250   6.934   6.154   6.961
 5784SOL    HW118251   6.941   6.101   0.027
 5784SOL    HW218252   6.930   6.092   6.882
 5785SOL     OW18253   1.265   1.229   0.249
 5785SOL    HW118254   1.234   1.219   0.343
 5785SOL    HW218255   1.322   1.150   0.224
 5786SOL     OW18256   6.210   5.381   1.580
 5786SOL    HW118257   6.244   5.372   1.487
 5786SOL    HW218258   6.274   5.338   1.644
 5787SOL     OW18259   2.112   2.869   6.458
 5787SOL    HW118260   2.144   2.786   6.412
 5787SOL    HW218261   2.045   2.916   6.400
 5788SOL     OW18262   3.205   0.463   3.544
 5788SOL    HW118263   3.179   0.408   3.465
 5788SOL    HW218264   3.273   0.413   3.598
 5789SOL     OW18265   3.824   4.632   6.248
 5789SOL    HW118266   3.774   4.612   6.164
 5789SOL    HW218267   3.893   4.702   6.230
 5790SOL     OW18268   1.202   3.265   3.241
 5790SOL    HW118269   1.207   3.245   3.339
 5790SOL    HW218270   1.131   3.208   3.199
 5791SOL     OW18271   2.220   0.507   3.138
 5791SOL    HW118272   2.175   0.579   3.190
 5791SOL    HW218273   2.174   0.420   3.154
 5792SOL     OW18274   7.006   2.680   2.640
 5792SOL    HW118275   0.081   2.696   2.607
 5792SOL    HW218276   7.008   2.615   2.716
 5793SOL     OW18277   0.037   1.129   3.880
 5793SOL    HW118278   7.005   1.104   3.963
 5793SOL    HW218279   6.990   1.162   3.811
 5794SOL     OW18280   5.455   4.919   6.230
 5794SOL    HW118281   5.430   4.826   6.256
 5794SOL    HW218282   5.373   4.971   6.209
 5795SOL     OW18283   5.580   4.227   6.437
 5795SOL    HW118284   5.538   4.143   6.473
 5795SOL    HW218285   5.623   4.208   6.349
 5796SOL     OW18286   3.352   2.513   0.675
 5796SOL    HW118287   3.435   2.502   0.729
 5796SOL    HW218288   3.285   2.568   0.725
 5797SOL     OW18289   3.345   2.984   6.035
 5797SOL    HW118290   3.443   2.990   6.055
 5797SOL    HW218291   3.300   2.928   6.104
 5798SOL     OW18292   6.915   5.276   4.349
 5798SOL    HW118293   6.950   5.358   4.395
 5798SOL    HW218294   6.967   5.197   4.380
 5799SOL     OW18295   5.294   0.679   3.480
 5799SOL    HW118296   5.360   0.747   3.447
 5799SOL    HW218297   5.293   0.679   3.580
 5800SOL     OW18298   6.089   5.314   0.277
 5800SOL    HW118299   6.055   5.354   0.192
 5800SOL    HW218300   6.134   5.385   0.332
 5801SOL     OW18301   2.267   1.116   2.877
 5801SOL    HW118302   2.303   1.030   2.841
 5801SOL    HW218303   2.281   1.120   2.976
 5802SOL     OW18304   0.108   2.472   4.437
 5802SOL    HW118305   0.117   2.499   4.533
 5802SOL    HW218306   0.141   2.546   4.379
 5803SOL     OW18307   1.668   5.129   0.528
 5803SOL    HW118308   1.570   5.113   0.512
 5803SOL    HW218309   1.708   5.174   0.449
 5804SOL     OW18310   6.395   3.096   5.905
 5804SOL    HW118311   6.352   3.186   5.892
 5804SOL    HW218312   6.453   3.075   5.826
 5805SOL     OW18313   5.975   3.074   6.931
 5805SOL    HW118314   5.960   3.055   0.010
 5805SOL    HW218315   5.901   3.133   6.897
 5806SOL     OW18316   0.334   6.883   0.024
 5806SOL    HW118317   0.279   6.916   0.100
 5806SOL    HW218318   0.404   6.951   0.002
 5807SOL     OW18319   1.991   3.606   2.021
 5807SOL    HW118320   1.982   3.635   2.116
 5807SOL    HW218321   2.065   3.538   2.013
 5808SOL     OW18322   6.453   2.287   3.223
 5808SOL    HW118323   6.462   2.342   3.140
 5808SOL    HW218324   6.357   2.263   3.238
 5809SOL     OW18325   6.675   2.976   3.984
 5809SOL    HW118326   6.726   2.894   3.959
 5809SOL    HW218327   6.734   3.039   4.035
 5810SOL     OW18328   2.524   2.560   2.692
 5810SOL    HW118329   2.472   2.596   2.614
 5810SOL    HW218330   2.535   2.461   2.682
 5811SOL     OW18331   2.879   1.361   2.795
 5811SOL    HW118332   2.802   1.304   2.766
 5811SOL    HW218333   2.861   1.398   2.886
 5812SOL     OW18334   4.430   0.454   4.766
 5812SOL    HW118335   4.439   0.543   4.809
 5812SOL    HW218336   4.419   0.466   4.667
 5813SOL     OW18337   1.193   0.990   5.307
 5813SOL    HW118338   1.246   1.042   5.374
 5813SOL    HW218339   1.230   1.007   5.215
 5814SOL     OW18340   0.458   5.135   1.088
 5814SOL    HW118341   0.424   5.219   1.129
 5814SOL    HW218342   0.410   5.117   1.002
 5815SOL     OW18343   3.530   1.287   3.369
 5815SOL    HW118344   3.477   1.214   3.327
 5815SOL    HW218345   3.498   1.376   3.336
 5816SOL     OW18346   4.897   6.696   1.184
 5816SOL    HW118347   4.920   6.780   1.234
 5816SOL    HW218348   4.941   6.698   1.094
 5817SOL     OW18349   5.356   2.190   5.366
 5817SOL    HW118350   5.256   2.189   5.365
 5817SOL    HW218351   5.390   2.118   5.427
 5818SOL     OW18352   6.197   6.507   5.920
 5818SOL    HW118353   6.261   6.485   5.846
 5818SOL    HW218354   6.105   6.479   5.893
 5819SOL     OW18355   5.719   0.331   0.880
 5819SOL    HW118356   5.734   0.425   0.849
 5819SOL    HW218357   5.738   0.325   0.978
 5820SOL     OW18358   6.251   5.997   2.897
 5820SOL    HW118359   6.164   5.962   2.933
 5820SOL    HW218360   6.326   5.965   2.955
 5821SOL     OW18361   3.771   0.193   2.005
 5821SOL    HW118362   3.751   0.233   2.095
 5821SOL    HW218363   3.772   0.264   1.936
 5822SOL     OW18364   0.615   1.214   2.705
 5822SOL    HW118365   0.517   1.196   2.704
 5822SOL    HW218366   0.648   1.215   2.800
 5823SOL     OW18367   2.409   2.680   4.220
 5823SOL    HW118368   2.326   2.626   4.211
 5823SOL    HW218369   2.389   2.766   4.266
 5824SOL     OW18370   4.230   0.716   3.750
 5824SOL    HW118371   4.245   0.770   3.666
 5824SOL    HW218372   4.164   0.644   3.732
 5825SOL     OW18373   2.661   1.044   0.683
 5825SOL    HW118374   2.672   0.954   0.641
 5825SOL    HW218375   2.611   1.035   0.769
 5826SOL     OW18376   6.487   0.458   4.709
 5826SOL    HW118377   6.510   0.398   4.786
 5826SOL    HW218378   6.425   0.410   4.647
 5827SOL     OW18379   0.930   5.178   5.035
 5827SOL    HW118380   0.863   5.106   5.019
 5827SOL    HW218381   1.000   5.146   5.098
 5828SOL     OW18382   6.906   3.029   1.825
 5828SOL    HW118383   6.872   2.941   1.857
 5828SOL    HW218384   6.830   3.088   1.800
 5829SOL     OW18385   1.341   1.392   1.902
 5829SOL    HW118386   1.360   1.421   1.995
 5829SOL    HW218387   1.249   1.419   1.876
 5830SOL     OW18388   2.127   1.047   5.462
 5830SOL    HW118389   2.171   1.094   5.539
 5830SOL    HW218390   2.168   0.957   5.450
 5831SOL     OW18391   5.816   6.000   3.082
 5831SOL    HW118392   5.782   6.087   3.117
 5831SOL    HW218393   5.766   5.976   2.999
 5832SOL     OW18394   3.555   3.653   4.767
 5832SOL    HW118395   3.495   3.621   4.693
 5832SOL    HW218396   3.587   3.746   4.747
 5833SOL     OW18397   3.721   3.272   4.792
 5833SOL    HW118398   3.692   3.305   4.702
 5833SOL    HW218399   3.724   3.348   4.856
 5834SOL     OW18400   6.143   0.676   0.238
 5834SOL    HW118401   6.048   0.687   0.269
 5834SOL    HW218402   6.152   0.714   0.146
 5835SOL     OW18403   5.111   2.535   3.927
 5835SOL    HW118404   5.077   2.596   3.856
 5835SOL    HW218405   5.104   2.580   4.016
 5836SOL     OW18406   3.435   6.269   2.547
 5836SOL    HW118407   3.518   6.259   2.602
 5836SOL    HW218408   3.408   6.180   2.512
 5837SOL     OW18409   4.873   4.785   6.162
 5837SOL    HW118410   4.893   4.882   6.151
 5837SOL    HW218411   4.912   4.752   6.248
 5838SOL     OW18412   0.313   2.258   5.332
 5838SOL    HW118413   0.328   2.191   5.259
 5838SOL    HW218414   0.264   2.215   5.408
 5839SOL     OW18415   0.087   3.234   2.663
 5839SOL    HW118416   0.056   3.250   2.569
 5839SOL    HW218417   0.126   3.142   2.670
 5840SOL     OW18418   1.866   5.132   6.992
 5840SOL    HW118419   1.824   5.217   0.007
 5840SOL    HW218420   1.862   5.063   0.047
 5841SOL     OW18421   6.489   2.159   2.625
 5841SOL    HW118422   6.575   2.129   2.583
 5841SOL    HW218423   6.503   2.169   2.723
 5842SOL     OW18424   4.072   3.153   0.575
 5842SOL    HW118425   3.989   3.158   0.519
 5842SOL    HW218426   4.130   3.232   0.556
 5843SOL     OW18427   1.549   2.711   1.619
 5843SOL    HW118428   1.633   2.764   1.627
 5843SOL    HW218429   1.501   2.712   1.707
 5844SOL     OW18430   0.951   6.096   0.192
 5844SOL    HW118431   0.861   6.141   0.200
 5844SOL    HW218432   0.945   6.022   0.125
 5845SOL     OW18433   1.148   2.075   4.439
 5845SOL    HW118434   1.164   2.053   4.536
 5845SOL    HW218435   1.074   2.018   4.404
 5846SOL     OW18436   0.449   3.018   6.391
 5846SOL    HW118437   0.360   3.050   6.360
 5846SOL    HW218438   0.520   3.054   6.331
 5847SOL     OW18439   1.834   2.347   3.333
 5847SOL    HW118440   1.909   2.307   3.386
 5847SOL    HW218441   1.749   2.340   3.385
 5848SOL     OW18442   1.393   5.042   3.513
 5848SOL    HW118443   1.353   5.127   3.548
 5848SOL    HW218444   1.452   5.002   3.583
 5849SOL     OW18445   3.307   6.755   5.335
 5849SOL    HW118446   3.300   6.828   5.402
 5849SOL    HW218447   3.299   6.666   5.381
 5850SOL     OW18448   0.991   4.048   3.002
 5850SOL    HW118449   1.052   4.035   3.080
 5850SOL    HW218450   1.045   4.075   2.922
 5851SOL     OW18451   5.619   2.986   2.244
 5851SOL    HW118452   5.576   2.899   2.221
 5851SOL    HW218453   5.690   3.007   2.176
 5852SOL     OW18454   3.990   5.756   2.718
 5852SOL    HW118455   4.028   5.725   2.631
 5852SOL    HW218456   4.036   5.708   2.793
 5853SOL     OW18457   3.678   4.076   5.424
 5853SOL    HW118458   3.600   4.094   5.364
 5853SOL    HW218459   3.662   4.118   5.513
 5854SOL     OW18460   0.512   1.039   6.672
 5854SOL    HW118461   0.441   1.104   6.700
 5854SOL    HW218462   0.525   0.971   6.745
 5855SOL     OW18463   1.424   0.959   4.858
 5855SOL    HW118464   1.334   0.978   4.896
 5855SOL    HW218465   1.487   1.034   4.880
 5856SOL     OW18466   2.368   5.390   3.600
 5856SOL    HW118467   2.310   5.309   3.598
 5856SOL    HW218468   2.359   5.435   3.689
 5857SOL     OW18469   0.247   2.774   6.167
 5857SOL    HW118470   0.210   2.731   6.084
 5857SOL    HW218471   0.343   2.749   6.177
 5858SOL     OW18472   3.343   6.590   2.976
 5858SOL    HW118473   3.370   6.669   2.922
 5858SOL    HW218474   3.292   6.621   3.057
 5859SOL     OW18475   6.447   5.612   1.208
 5859SOL    HW118476   6.452   5.616   1.108
 5859SOL    HW218477   6.539   5.600   1.245
 5860SOL     OW18478   1.688   3.659   1.498
 5860SOL    HW118479   1.756   3.685   1.566
 5860SOL    HW218480   1.732   3.613   1.421
 5861SOL     OW18481   6.080   2.045   3.697
 5861SOL    HW118482   6.112   2.026   3.789
 5861SOL    HW218483   6.154   2.029   3.632
 5862SOL     OW18484   5.061   4.415   3.433
 5862SOL    HW118485   5.142   4.406   3.492
 5862SOL    HW218486   4.987   4.360   3.472
 5863SOL     OW18487   1.697   1.262   0.753
 5863SOL    HW118488   1.609   1.245   0.708
 5863SOL    HW218489   1.769   1.212   0.706
 5864SOL     OW18490   4.640   5.335   0.766
 5864SOL    HW118491   4.691   5.418   0.744
 5864SOL    HW218492   4.690   5.256   0.733
 5865SOL     OW18493   4.415   1.116   3.380
 5865SOL    HW118494   4.369   1.156   3.301
 5865SOL    HW218495   4.487   1.054   3.349
 5866SOL     OW18496   3.537   0.915   6.802
 5866SOL    HW118497   3.602   0.991   6.807
 5866SOL    HW218498   3.530   0.871   6.892
 5867SOL     OW18499   0.268   2.611   0.758
 5867SOL    HW118500   0.358   2.626   0.800
 5867SOL    HW218501   0.229   2.698   0.731
 5868SOL     OW18502   1.209   0.036   4.809
 5868SOL    HW118503   1.128   0.094   4.800
 5868SOL    HW218504   1.223   7.002   4.724
 5869SOL     OW18505   3.023   5.004   3.517
 5869SOL    HW118506   3.078   5.086   3.535
 5869SOL    HW218507   2.941   5.030   3.467
 5870SOL     OW18508   5.258   5.069   4.730
 5870SOL    HW118509   5.319   5.075   4.651
 5870SOL    HW218510   5.308   5.093   4.813
 5871SOL     OW18511   2.573   3.212   7.009
 5871SOL    HW118512   2.564   3.172   0.083
 5871SOL    HW218513   2.509   3.167   6.947
 5872SOL     OW18514   3.827   5.964   4.341
 5872SOL    HW118515   3.757   5.944   4.273
 5872SOL    HW218516   3.783   5.979   4.430
 5873SOL     OW18517   2.385   3.497   0.152
 5873SOL    HW118518   2.346   3.413   0.189
 5873SOL    HW218519   2.330   3.528   0.074
 5874SOL     OW18520   1.487   4.347   0.353
 5874SOL    HW118521   1.542   4.427   0.333
 5874SOL    HW218522   1.390   4.371   0.350
 5875SOL     OW18523   4.700   2.114   0.138
 5875SOL    HW118524   4.765   2.186   0.113
 5875SOL    HW218525   4.613   2.130   0.092
 5876SOL     OW18526   3.775   4.192   6.292
 5876SOL    HW118527   3.782   4.177   6.193
 5876SOL    HW218528   3.762   4.105   6.338
 5877SOL     OW18529   6.462   0.111   2.188
 5877SOL    HW118530   6.404   0.127   2.268
 5877SOL    HW218531   6.520   0.030   2.205
 5878SOL     OW18532   5.135   4.720   2.113
 5878SOL    HW118533   5.171   4.800   2.160
 5878SOL    HW218534   5.184   4.709   2.026
 5879SOL     OW18535   3.771   3.272   5.603
 5879SOL    HW118536   3.849   3.314   5.556
 5879SOL    HW218537   3.701   3.247   5.535
 5880SOL     OW18538   5.873   2.642   6.135
 5880SOL    HW118539   5.909   2.552   6.108
 5880SOL    HW218540   5.900   2.710   6.066
 5881SOL     OW18541   1.453   6.343   2.429
 5881SOL    HW118542   1.391   6.400   2.374
 5881SOL    HW218543   1.522   6.401   2.472
 5882SOL     OW18544   1.694   4.637   5.682
 5882SOL    HW118545   1.616   4.665   5.626
 5882SOL    HW218546   1.662   4.616   5.775
 5883SOL     OW18547   6.329   4.961   0.076
 5883SOL    HW118548   6.389   4.900   0.023
 5883SOL    HW218549   6.364   4.969   0.169
 5884SOL     OW18550   6.915   1.258   2.643
 5884SOL    HW118551   6.845   1.290   2.706
 5884SOL    HW218552   6.872   1.211   2.566
 5885SOL     OW18553   6.933   5.266   0.647
 5885SOL    HW118554   6.873   5.193   0.612
 5885SOL    HW218555   6.930   5.266   0.747
 5886SOL     OW18556   1.949   4.249   3.770
 5886SOL    HW118557   1.961   4.207   3.861
 5886SOL    HW218558   1.859   4.224   3.734
 5887SOL     OW18559   2.362   2.983   0.714
 5887SOL    HW118560   2.439   2.921   0.727
 5887SOL    HW218561   2.368   3.058   0.780
 5888SOL     OW18562   2.849   6.613   1.668
 5888SOL    HW118563   2.851   6.520   1.631
 5888SOL    HW218564   2.882   6.613   1.762
 5889SOL     OW18565   6.127   0.986   1.919
 5889SOL    HW118566   6.171   1.046   1.986
 5889SOL    HW218567   6.185   0.907   1.901
 5890SOL     OW18568   2.090   4.919   3.492
 5890SOL    HW118569   2.165   4.876   3.543
 5890SOL    HW218570   2.052   4.995   3.545
 5891SOL     OW18571   2.366   3.484   6.547
 5891SOL    HW118572   2.336   3.513   6.456
 5891SOL    HW218573   2.293   3.433   6.592
 5892SOL     OW18574   0.760   3.128   0.185
 5892SOL    HW118575   0.681   3.187   0.202
 5892SOL    HW218576   0.765   3.057   0.255
 5893SOL     OW18577   0.834   6.505   0.973
 5893SOL    HW118578   0.892   6.580   0.938
 5893SOL    HW218579   0.820   6.517   1.071
 5894SOL     OW18580   1.847   5.972   6.882
 5894SOL    HW118581   1.834   5.984   6.784
 5894SOL    HW218582   1.933   6.015   6.910
 5895SOL     OW18583   5.476   4.118   3.307
 5895SOL    HW118584   5.547   4.105   3.376
 5895SOL    HW218585   5.386   4.117   3.352
 5896SOL     OW18586   5.551   2.484   2.117
 5896SOL    HW118587   5.520   2.578   2.130
 5896SOL    HW218588   5.473   2.422   2.130
 5897SOL     OW18589   3.537   2.226   0.662
 5897SOL    HW118590   3.570   2.132   0.665
 5897SOL    HW218591   3.609   2.285   0.625
 5898SOL     OW18592   2.249   1.510   6.369
 5898SOL    HW118593   2.340   1.490   6.404
 5898SOL    HW218594   2.186   1.439   6.399
 5899SOL     OW18595   0.259   6.436   6.718
 5899SOL    HW118596   0.304   6.519   6.685
 5899SOL    HW218597   0.254   6.438   6.818
 5900SOL     OW18598   5.962   6.162   2.744
 5900SOL    HW118599   5.994   6.255   2.760
 5900SOL    HW218600   6.038   6.104   2.715
 5901SOL     OW18601   2.329   0.867   4.838
 5901SOL    HW118602   2.410   0.887   4.784
 5901SOL    HW218603   2.356   0.848   4.933
 5902SOL     OW18604   4.289   3.653   5.803
 5902SOL    HW118605   4.274   3.677   5.707
 5902SOL    HW218606   4.258   3.559   5.818
 5903SOL     OW18607   6.317   1.914   5.421
 5903SOL    HW118608   6.233   1.962   5.448
 5903SOL    HW218609   6.337   1.933   5.325
 5904SOL     OW18610   0.614   5.145   1.548
 5904SOL    HW118611   0.545   5.214   1.567
 5904SOL    HW218612   0.649   5.108   1.634
 5905SOL     OW18613   5.693   1.892   4.431
 5905SOL    HW118614   5.682   1.987   4.401
 5905SOL    HW218615   5.611   1.840   4.408
 5906SOL     OW18616   4.426   1.315   5.918
 5906SOL    HW118617   4.496   1.339   5.850
 5906SOL    HW218618   4.397   1.220   5.904
 5907SOL     OW18619   1.422   3.484   5.897
 5907SOL    HW118620   1.350   3.550   5.877
 5907SOL    HW218621   1.485   3.522   5.965
 5908SOL     OW18622   4.665   4.014   6.471
 5908SOL    HW118623   4.757   4.021   6.511
 5908SOL    HW218624   4.651   4.090   6.407
 5909SOL     OW18625   6.414   4.563   3.612
 5909SOL    HW118626   6.420   4.662   3.622
 5909SOL    HW218627   6.347   4.541   3.541
 5910SOL     OW18628   3.434   4.688   0.714
 5910SOL    HW118629   3.444   4.674   0.615
 5910SOL    HW218630   3.469   4.608   0.762
 5911SOL     OW18631   6.227   6.930   6.980
 5911SOL    HW118632   6.319   6.891   6.993
 5911SOL    HW218633   6.209   6.995   0.036
 5912SOL     OW18634   0.793   3.634   5.080
 5912SOL    HW118635   0.729   3.578   5.028
 5912SOL    HW218636   0.861   3.672   5.018
 5913SOL     OW18637   1.495   2.284   4.754
 5913SOL    HW118638   1.454   2.354   4.695
 5913SOL    HW218639   1.592   2.305   4.768
 5914SOL     OW18640   1.755   6.051   0.875
 5914SOL    HW118641   1.717   6.137   0.909
 5914SOL    HW218642   1.758   5.984   0.949
 5915SOL     OW18643   5.391   3.034   4.181
 5915SOL    HW118644   5.353   3.093   4.111
 5915SOL    HW218645   5.483   3.065   4.206
 5916SOL     OW18646   3.262   0.160   6.005
 5916SOL    HW118647   3.291   0.215   6.084
 5916SOL    HW218648   3.200   0.088   6.037
 5917SOL     OW18649   3.335   4.134   2.513
 5917SOL    HW118650   3.338   4.067   2.440
 5917SOL    HW218651   3.286   4.216   2.482
 5918SOL     OW18652   2.434   2.678   3.958
 5918SOL    HW118653   2.478   2.595   3.924
 5918SOL    HW218654   2.458   2.692   4.054
 5919SOL     OW18655   1.437   2.262   6.902
 5919SOL    HW118656   1.348   2.281   6.944
 5919SOL    HW218657   1.439   2.167   6.870
 5920SOL     OW18658   2.351   5.400   0.026
 5920SOL    HW118659   2.310   5.434   6.960
 5920SOL    HW218660   2.356   5.300   0.023
 5921SOL     OW18661   3.587   5.568   5.711
 5921SOL    HW118662   3.569   5.481   5.666
 5921SOL    HW218663   3.598   5.553   5.809
 5922SOL     OW18664   5.940   4.583   1.273
 5922SOL    HW118665   5.946   4.518   1.348
 5922SOL    HW218666   5.873   4.654   1.295
 5923SOL     OW18667   6.635   0.833   3.596
 5923SOL    HW118668   6.578   0.881   3.662
 5923SOL    HW218669   6.676   0.752   3.639
 5924SOL     OW18670   6.039   1.623   5.059
 5924SOL    HW118671   6.076   1.707   5.020
 5924SOL    HW218672   6.007   1.563   4.985
 5925SOL     OW18673   6.238   5.781   0.614
 5925SOL    HW118674   6.220   5.809   0.519
 5925SOL    HW218675   6.308   5.711   0.615
 5926SOL     OW18676   3.224   5.340   2.470
 5926SOL    HW118677   3.253   5.284   2.547
 5926SOL    HW218678   3.152   5.292   2.419
 5927SOL     OW18679   2.588   5.415   2.432
 5927SOL    HW118680   2.590   5.353   2.511
 5927SOL    HW218681   2.631   5.502   2.457
 5928SOL     OW18682   0.446   6.459   1.429
 5928SOL    HW118683   0.498   6.374   1.426
 5928SOL    HW218684   0.443   6.499   1.337
 5929SOL     OW18685   1.352   0.031   5.587
 5929SOL    HW118686   1.281   0.015   5.518
 5929SOL    HW218687   1.434   6.997   5.563
 5930SOL     OW18688   6.395   1.310   5.272
 5930SOL    HW118689   6.468   1.335   5.208
 5930SOL    HW218690   6.323   1.261   5.222
 5931SOL     OW18691   5.639   5.137   1.299
 5931SOL    HW118692   5.714   5.150   1.363
 5931SOL    HW218693   5.570   5.208   1.312
 5932SOL     OW18694   2.633   0.160   0.266
 5932SOL    HW118695   2.537   0.150   0.294
 5932SOL    HW218696   2.653   0.257   0.250
 5933SOL     OW18697   5.943   3.490   2.764
 5933SOL    HW118698   6.016   3.441   2.716
 5933SOL    HW218699   5.959   3.588   2.758
 5934SOL     OW18700   3.385   3.781   2.244
 5934SOL    HW118701   3.362   3.717   2.170
 5934SOL    HW218702   3.331   3.759   2.325
 5935SOL     OW18703   4.061   3.810   2.941
 5935SOL    HW118704   4.154   3.847   2.938
 5935SOL    HW218705   4.064   3.715   2.971
 5936SOL     OW18706   5.758   5.955   6.364
 5936SOL    HW118707   5.795   6.039   6.325
 5936SOL    HW218708   5.798   5.876   6.317
 5937SOL     OW18709   1.626   4.178   0.188
 5937SOL    HW118710   1.571   4.197   0.106
 5937SOL    HW218711   1.601   4.242   0.260
 5938SOL     OW18712   1.857   4.391   1.207
 5938SOL    HW118713   1.877   4.374   1.304
 5938SOL    HW218714   1.809   4.312   1.169
 5939SOL     OW18715   2.223   1.194   2.621
 5939SOL    HW118716   2.229   1.177   2.719
 5939SOL    HW218717   2.308   1.235   2.589
 5940SOL     OW18718   4.158   5.101   3.491
 5940SOL    HW118719   4.112   5.121   3.578
 5940SOL    HW218720   4.199   5.185   3.456
 5941SOL     OW18721   6.832   3.621   2.812
 5941SOL    HW118722   6.898   3.546   2.816
 5941SOL    HW218723   6.810   3.640   2.717
 5942SOL     OW18724   6.344   2.032   5.167
 5942SOL    HW118725   6.290   2.088   5.104
 5942SOL    HW218726   6.439   2.061   5.164
 5943SOL     OW18727   0.975   5.399   0.732
 5943SOL    HW118728   0.985   5.465   0.657
 5943SOL    HW218729   0.881   5.401   0.765
 5944SOL     OW18730   4.985   1.953   2.820
 5944SOL    HW118731   4.993   1.855   2.838
 5944SOL    HW218732   4.933   1.966   2.735
 5945SOL     OW18733   6.683   4.909   5.971
 5945SOL    HW118734   6.669   4.991   5.915
 5945SOL    HW218735   6.625   4.914   6.053
 5946SOL     OW18736   3.837   2.798   5.207
 5946SOL    HW118737   3.834   2.871   5.139
 5946SOL    HW218738   3.911   2.734   5.185
 5947SOL     OW18739   4.302   3.803   1.350
 5947SOL    HW118740   4.282   3.801   1.448
 5947SOL    HW218741   4.395   3.769   1.334
 5948SOL     OW18742   3.403   5.547   3.361
 5948SOL    HW118743   3.473   5.522   3.429
 5948SOL    HW218744   3.434   5.626   3.309
 5949SOL     OW18745   4.844   4.505   2.630
 5949SOL    HW118746   4.848   4.593   2.583
 5949SOL    HW218747   4.787   4.442   2.578
 5950SOL     OW18748   6.355   2.498   3.709
 5950SOL    HW118749   6.424   2.513   3.780
 5950SOL    HW218750   6.398   2.462   3.627
 5951SOL     OW18751   2.055   6.657   3.674
 5951SOL    HW118752   1.998   6.663   3.755
 5951SOL    HW218753   2.116   6.578   3.681
 5952SOL     OW18754   6.860   6.503   4.791
 5952SOL    HW118755   6.944   6.542   4.753
 5952SOL    HW218756   6.882   6.449   4.872
 5953SOL     OW18757   0.512   3.369   6.281
 5953SOL    HW118758   0.483   3.434   6.210
 5953SOL    HW218759   0.432   3.319   6.315
 5954SOL     OW18760   1.127   5.179   6.812
 5954SOL    HW118761   1.040   5.133   6.795
 5954SOL    HW218762   1.152   5.168   6.908
 5955SOL     OW18763   4.822   5.211   2.853
 5955SOL    HW118764   4.804   5.286   2.790
 5955SOL    HW218765   4.872   5.246   2.932
 5956SOL     OW18766   6.404   1.993   0.154
 5956SOL    HW118767   6.447   1.983   0.064
 5956SOL    HW218768   6.475   2.011   0.223
 5957SOL     OW18769   4.854   6.939   5.603
 5957SOL    HW118770   4.933   6.998   5.584
 5957SOL    HW218771   4.824   6.895   5.519
 5958SOL     OW18772   1.291   5.315   2.833
 5958SOL    HW118773   1.315   5.229   2.877
 5958SOL    HW218774   1.297   5.305   2.734
 5959SOL     OW18775   1.911   0.913   6.996
 5959SOL    HW118776   1.861   0.827   7.011
 5959SOL    HW218777   1.865   0.966   6.925
 5960SOL     OW18778   3.366   6.631   4.989
 5960SOL    HW118779   3.301   6.695   4.947
 5960SOL    HW218780   3.454   6.677   5.003
 5961SOL     OW18781   2.431   1.431   5.979
 5961SOL    HW118782   2.490   1.369   5.927
 5961SOL    HW218783   2.389   1.381   6.054
 5962SOL     OW18784   5.505   5.345   2.767
 5962SOL    HW118785   5.524   5.248   2.780
 5962SOL    HW218786   5.589   5.394   2.745
 5963SOL     OW18787   3.973   3.894   2.027
 5963SOL    HW118788   3.928   3.904   2.116
 5963SOL    HW218789   4.058   3.947   2.026
 5964SOL     OW18790   1.396   3.987   5.726
 5964SOL    HW118791   1.442   3.963   5.641
 5964SOL    HW218792   1.318   4.048   5.705
 5965SOL     OW18793   2.132   1.582   4.497
 5965SOL    HW118794   2.099   1.489   4.479
 5965SOL    HW218795   2.091   1.616   4.582
 5966SOL     OW18796   1.531   6.576   4.207
 5966SOL    HW118797   1.469   6.517   4.258
 5966SOL    HW218798   1.490   6.599   4.119
 5967SOL     OW18799   4.600   6.608   1.972
 5967SOL    HW118800   4.646   6.695   1.992
 5967SOL    HW218801   4.622   6.580   1.878
 5968SOL     OW18802   0.325   2.182   4.136
 5968SOL    HW118803   0.340   2.232   4.221
 5968SOL    HW218804   0.413   2.153   4.098
 5969SOL     OW18805   5.575   3.001   3.291
 5969SOL    HW118806   5.649   2.998   3.358
 5969SOL    HW218807   5.545   3.095   3.277
 5970SOL     OW18808   2.200   3.133   3.573
 5970SOL    HW118809   2.257   3.055   3.545
 5970SOL    HW218810   2.210   3.207   3.507
 5971SOL     OW18811   2.554   6.883   2.785
 5971SOL    HW118812   2.587   6.822   2.713
 5971SOL    HW218813   2.520   6.967   2.743
 5972SOL     OW18814   4.789   6.688   1.625
 5972SOL    HW118815   4.871   6.723   1.669
 5972SOL    HW218816   4.815   6.626   1.551
 5973SOL     OW18817   1.040   4.610   3.502
 5973SOL    HW118818   0.965   4.589   3.440
 5973SOL    HW218819   1.036   4.549   3.582
 5974SOL     OW18820   1.141   4.177   6.205
 5974SOL    HW118821   1.145   4.220   6.115
 5974SOL    HW218822   1.231   4.142   6.230
 5975SOL     OW18823   1.826   3.358   6.792
 5975SOL    HW118824   1.869   3.447   6.781
 5975SOL    HW218825   1.751   3.349   6.726
 5976SOL     OW18826   3.503   3.432   4.233
 5976SOL    HW118827   3.484   3.334   4.224
 5976SOL    HW218828   3.518   3.471   4.143
 5977SOL     OW18829   0.974   3.187   3.089
 5977SOL    HW118830   0.900   3.122   3.107
 5977SOL    HW218831   0.940   3.280   3.102
 5978SOL     OW18832   5.268   5.689   3.070
 5978SOL    HW118833   5.227   5.638   3.146
 5978SOL    HW218834   5.309   5.624   3.006
 5979SOL     OW18835   0.737   1.070   2.504
 5979SOL    HW118836   0.765   1.145   2.444
 5979SOL    HW218837   0.685   1.107   2.581
 5980SOL     OW18838   6.411   3.777   6.078
 5980SOL    HW118839   6.440   3.764   6.173
 5980SOL    HW218840   6.419   3.874   6.054
 5981SOL     OW18841   3.797   2.042   1.204
 5981SOL    HW118842   3.773   2.087   1.118
 5981SOL    HW218843   3.834   2.109   1.268
 5982SOL     OW18844   6.113   2.571   6.749
 5982SOL    HW118845   6.166   2.586   6.666
 5982SOL    HW218846   6.175   2.551   6.825
 5983SOL     OW18847   0.838   1.513   4.767
 5983SOL    HW118848   0.874   1.423   4.742
 5983SOL    HW218849   0.739   1.507   4.782
 5984SOL     OW18850   0.549   6.991   5.522
 5984SOL    HW118851   0.539   0.053   5.462
 5984SOL    HW218852   0.459   6.966   5.558
 5985SOL     OW18853   4.887   3.233   4.290
 5985SOL    HW118854   4.914   3.207   4.383
 5985SOL    HW218855   4.897   3.155   4.229
 5986SOL     OW18856   3.777   3.203   2.136
 5986SOL    HW118857   3.808   3.136   2.203
 5986SOL    HW218858   3.702   3.257   2.175
 5987SOL     OW18859   4.714   6.718   5.487
 5987SOL    HW118860   4.659   6.684   5.562
 5987SOL    HW218861   4.664   6.706   5.401
 5988SOL     OW18862   3.749   0.180   4.118
 5988SOL    HW118863   3.746   0.116   4.195
 5988SOL    HW218864   3.683   0.253   4.133
 5989SOL     OW18865   2.744   1.222   6.716
 5989SOL    HW118866   2.709   1.181   6.632
 5989SOL    HW218867   2.781   1.313   6.695
 5990SOL     OW18868   3.351   5.116   2.196
 5990SOL    HW118869   3.259   5.147   2.170
 5990SOL    HW218870   3.369   5.028   2.153
 5991SOL     OW18871   3.311   5.547   3.878
 5991SOL    HW118872   3.343   5.479   3.813
 5991SOL    HW218873   3.385   5.571   3.940
 5992SOL     OW18874   4.500   1.709   4.646
 5992SOL    HW118875   4.553   1.644   4.593
 5992SOL    HW218876   4.457   1.775   4.584
 5993SOL     OW18877   3.857   5.663   3.939
 5993SOL    HW118878   3.846   5.585   3.877
 5993SOL    HW218879   3.869   5.747   3.885
 5994SOL     OW18880   6.511   3.039   1.549
 5994SOL    HW118881   6.432   3.013   1.606
 5994SOL    HW218882   6.485   3.034   1.453
 5995SOL     OW18883   1.067   4.770   1.290
 5995SOL    HW118884   1.027   4.680   1.272
 5995SOL    HW218885   1.014   4.817   1.360
 5996SOL     OW18886   0.813   5.286   5.870
 5996SOL    HW118887   0.748   5.346   5.917
 5996SOL    HW218888   0.902   5.293   5.914
 5997SOL     OW18889   0.428   0.530   1.592
 5997SOL    HW118890   0.340   0.568   1.564
 5997SOL    HW218891   0.421   0.431   1.601
 5998SOL     OW18892   4.295   1.800   3.227
 5998SOL    HW118893   4.205   1.778   3.266
 5998SOL    HW218894   4.355   1.832   3.299
 5999SOL     OW18895   2.234   2.759   3.252
 5999SOL    HW118896   2.210   2.814   3.172
 5999SOL    HW218897   2.269   2.671   3.223
 6000SOL     OW18898   4.557   6.549   2.966
 6000SOL    HW118899   4.497   6.565   3.044
 6000SOL    HW218900   4.644   6.510   2.998
 6001SOL     OW18901   5.995   1.743   0.035
 6001SOL    HW118902   5.984   1.811   6.979
 6001SOL    HW218903   6.043   1.786   0.112
 6002SOL     OW18904   1.922   0.283   1.834
 6002SOL    HW118905   1.963   0.195   1.856
 6002SOL    HW218906   1.994   0.350   1.816
 6003SOL     OW18907   5.257   3.956   3.891
 6003SOL    HW118908   5.206   3.872   3.876
 6003SOL    HW218909   5.228   4.025   3.825
 6004SOL     OW18910   0.328   3.496   1.239
 6004SOL    HW118911   0.401   3.477   1.304
 6004SOL    HW218912   0.257   3.550   1.283
 6005SOL     OW18913   2.414   6.007   2.584
 6005SOL    HW118914   2.436   5.986   2.489
 6005SOL    HW218915   2.336   5.951   2.613
 6006SOL     OW18916   2.138   5.786   6.855
 6006SOL    HW118917   2.201   5.844   6.907
 6006SOL    HW218918   2.060   5.761   6.913
 6007SOL     OW18919   5.326   2.433   4.513
 6007SOL    HW118920   5.325   2.453   4.415
 6007SOL    HW218921   5.336   2.519   4.564
 6008SOL     OW18922   4.434   5.103   0.478
 6008SOL    HW118923   4.438   5.003   0.485
 6008SOL    HW218924   4.462   5.143   0.565
 6009SOL     OW18925   3.526   1.641   4.170
 6009SOL    HW118926   3.431   1.668   4.153
 6009SOL    HW218927   3.587   1.718   4.152
 6010SOL     OW18928   1.411   2.878   3.579
 6010SOL    HW118929   1.390   2.902   3.484
 6010SOL    HW218930   1.474   2.946   3.617
 6011SOL     OW18931   6.710   2.995   2.113
 6011SOL    HW118932   6.636   3.031   2.055
 6011SOL    HW218933   6.710   2.895   2.108
 6012SOL     OW18934   0.473   3.167   1.041
 6012SOL    HW118935   0.524   3.192   1.123
 6012SOL    HW218936   0.389   3.120   1.068
 6013SOL     OW18937   5.754   0.953   2.110
 6013SOL    HW118938   5.684   0.906   2.164
 6013SOL    HW218939   5.823   0.992   2.172
 6014SOL     OW18940   5.179   0.507   1.291
 6014SOL    HW118941   5.245   0.576   1.263
 6014SOL    HW218942   5.095   0.551   1.321
 6015SOL     OW18943   5.569   1.213   4.614
 6015SOL    HW118944   5.469   1.207   4.622
 6015SOL    HW218945   5.607   1.121   4.605
 6016SOL     OW18946   1.580   6.988   5.457
 6016SOL    HW118947   1.652   0.038   5.472
 6016SOL    HW218948   1.615   6.913   5.402
 6017SOL     OW18949   6.899   4.099   2.550
 6017SOL    HW118950   6.980   4.047   2.575
 6017SOL    HW218951   6.839   4.109   2.629
 6018SOL     OW18952   2.536   5.329   0.969
 6018SOL    HW118953   2.579   5.405   1.018
 6018SOL    HW218954   2.440   5.322   0.997
 6019SOL     OW18955   5.516   6.535   3.588
 6019SOL    HW118956   5.465   6.496   3.511
 6019SOL    HW218957   5.497   6.632   3.595
 6020SOL     OW18958   2.719   0.180   2.684
 6020SOL    HW118959   2.806   0.139   2.710
 6020SOL    HW218960   2.666   0.200   2.767
 6021SOL     OW18961   4.144   0.864   3.377
 6021SOL    HW118962   4.096   0.777   3.388
 6021SOL    HW218963   4.150   0.910   3.465
 6022SOL     OW18964   4.001   1.096   5.931
 6022SOL    HW118965   4.094   1.094   5.966
 6022SOL    HW218966   3.995   1.043   5.846
 6023SOL     OW18967   0.630   1.946   2.591
 6023SOL    HW118968   0.626   2.033   2.641
 6023SOL    HW218969   0.537   1.909   2.583
 6024SOL     OW18970   0.480   5.597   2.462
 6024SOL    HW118971   0.449   5.509   2.428
 6024SOL    HW218972   0.517   5.587   2.554
 6025SOL     OW18973   3.868   2.152   2.223
 6025SOL    HW118974   3.788   2.117   2.271
 6025SOL    HW218975   3.843   2.171   2.128
 6026SOL     OW18976   0.636   4.585   5.764
 6026SOL    HW118977   0.713   4.573   5.701
 6026SOL    HW218978   0.596   4.496   5.785
 6027SOL     OW18979   3.154   3.471   0.675
 6027SOL    HW118980   3.202   3.523   0.604
 6027SOL    HW218981   3.104   3.396   0.632
 6028SOL     OW18982   1.053   4.789   6.926
 6028SOL    HW118983   1.031   4.875   6.971
 6028SOL    HW218984   0.977   4.761   6.866
 6029SOL     OW18985   1.347   5.086   1.616
 6029SOL    HW118986   1.401   5.110   1.696
 6029SOL    HW218987   1.277   5.155   1.601
 6030SOL     OW18988   1.665   0.128   1.441
 6030SOL    HW118989   1.669   0.088   1.532
 6030SOL    HW218990   1.730   0.081   1.381
 6031SOL     OW18991   5.389   0.277   4.431
 6031SOL    HW118992   5.479   0.311   4.407
 6031SOL    HW218993   5.331   0.272   4.350
 6032SOL     OW18994   0.280   3.866   2.948
 6032SOL    HW118995   0.194   3.916   2.937
 6032SOL    HW218996   0.262   3.778   2.993
 6033SOL     OW18997   0.136   0.050   4.766
 6033SOL    HW118998   0.167   6.973   4.774
 6033SOL    HW218999   0.208   0.105   4.723
 6034SOL     OW19000   2.266   4.305   4.983
 6034SOL    HW119001   2.316   4.219   4.977
 6034SOL    HW219002   2.168   4.285   4.989
 6035SOL     OW19003   5.647   0.151   3.689
 6035SOL    HW119004   5.589   0.188   3.616
 6035SOL    HW219005   5.743   0.170   3.667
 6036SOL     OW19006   0.790   1.269   3.844
 6036SOL    HW119007   0.722   1.253   3.915
 6036SOL    HW219008   0.853   1.192   3.840
 6037SOL     OW19009   6.847   5.687   4.916
 6037SOL    HW119010   6.805   5.596   4.907
 6037SOL    HW219011   6.808   5.748   4.847
 6038SOL     OW19012   5.290   4.574   6.079
 6038SOL    HW119013   5.368   4.514   6.064
 6038SOL    HW219014   5.297   4.654   6.019
 6039SOL     OW19015   4.002   3.322   3.774
 6039SOL    HW119016   3.979   3.247   3.835
 6039SOL    HW219017   4.035   3.286   3.687
 6040SOL     OW19018   1.224   1.473   0.010
 6040SOL    HW119019   1.213   1.396   0.073
 6040SOL    HW219020   1.246   1.555   0.061
 6041SOL     OW19021   0.955   2.521   0.739
 6041SOL    HW119022   0.965   2.586   0.815
 6041SOL    HW219023   1.005   2.437   0.760
 6042SOL     OW19024   5.835   5.106   4.429
 6042SOL    HW119025   5.840   5.012   4.463
 6042SOL    HW219026   5.900   5.118   4.354
 6043SOL     OW19027   0.421   4.719   4.259
 6043SOL    HW119028   0.477   4.714   4.176
 6043SOL    HW219029   0.481   4.729   4.338
 6044SOL     OW19030   0.855   0.543   1.387
 6044SOL    HW119031   0.858   0.569   1.290
 6044SOL    HW219032   0.787   0.599   1.434
 6045SOL     OW19033   6.963   3.570   0.785
 6045SOL    HW119034   7.007   3.549   0.698
 6045SOL    HW219035   6.926   3.485   0.824
 6046SOL     OW19036   2.722   3.039   0.712
 6046SOL    HW119037   2.794   3.068   0.649
 6046SOL    HW219038   2.690   2.948   0.687
 6047SOL     OW19039   0.184   6.443   4.877
 6047SOL    HW119040   0.167   6.347   4.900
 6047SOL    HW219041   0.265   6.475   4.927
 6048SOL     OW19042   5.509   5.968   4.779
 6048SOL    HW119043   5.589   5.946   4.836
 6048SOL    HW219044   5.427   5.929   4.820
 6049SOL     OW19045   6.466   5.252   0.884
 6049SOL    HW119046   6.384   5.308   0.871
 6049SOL    HW219047   6.441   5.155   0.884
 6050SOL     OW19048   5.169   4.729   5.541
 6050SOL    HW119049   5.185   4.687   5.451
 6050SOL    HW219050   5.199   4.824   5.539
 6051SOL     OW19051   2.416   1.817   2.971
 6051SOL    HW119052   2.399   1.915   2.963
 6051SOL    HW219053   2.366   1.768   2.899
 6052SOL     OW19054   6.715   1.125   0.460
 6052SOL    HW119055   6.738   1.215   0.498
 6052SOL    HW219056   6.617   1.119   0.444
 6053SOL     OW19057   2.043   0.147   6.036
 6053SOL    HW119058   1.997   0.231   6.063
 6053SOL    HW219059   2.049   0.085   6.114
 6054SOL     OW19060   2.315   4.607   6.777
 6054SOL    HW119061   2.293   4.568   6.687
 6054SOL    HW219062   2.255   4.567   6.846
 6055SOL     OW19063   4.869   0.709   3.903
 6055SOL    HW119064   4.822   0.702   3.815
 6055SOL    HW219065   4.860   0.623   3.953
 6056SOL     OW19066   5.055   3.222   6.575
 6056SOL    HW119067   5.123   3.211   6.647
 6056SOL    HW219068   5.033   3.319   6.565
 6057SOL     OW19069   2.885   0.557   6.485
 6057SOL    HW119070   2.890   0.461   6.512
 6057SOL    HW219071   2.953   0.610   6.536
 6058SOL     OW19072   5.294   1.088   4.049
 6058SOL    HW119073   5.275   1.054   4.141
 6058SOL    HW219074   5.388   1.123   4.045
 6059SOL     OW19075   0.008   6.252   6.157
 6059SOL    HW119076   6.929   6.232   6.162
 6059SOL    HW219077   0.055   6.211   6.236
 6060SOL     OW19078   3.187   6.190   6.559
 6060SOL    HW119079   3.131   6.145   6.629
 6060SOL    HW219080   3.173   6.288   6.563
 6061SOL     OW19081   1.929   1.593   6.565
 6061SOL    HW119082   1.927   1.634   6.473
 6061SOL    HW219083   2.021   1.603   6.603
 6062SOL     OW19084   1.787   0.231   4.655
 6062SOL    HW119085   1.778   0.325   4.622
 6062SOL    HW219086   1.746   0.224   4.746
 6063SOL     OW19087   5.072   6.599   6.750
 6063SOL    HW119088   5.063   6.555   6.661
 6063SOL    HW219089   5.030   6.689   6.748
 6064SOL     OW19090   0.782   5.508   3.672
 6064SOL    HW119091   0.811   5.565   3.595
 6064SOL    HW219092   0.733   5.428   3.638
 6065SOL     OW19093   5.773   6.524   1.141
 6065SOL    HW119094   5.850   6.553   1.085
 6065SOL    HW219095   5.799   6.442   1.193
 6066SOL     OW19096   4.307   2.469   6.386
 6066SOL    HW119097   4.281   2.409   6.310
 6066SOL    HW219098   4.347   2.415   6.459
 6067SOL     OW19099   5.703   2.412   6.668
 6067SOL    HW119100   5.793   2.406   6.712
 6067SOL    HW219101   5.632   2.388   6.734
 6068SOL     OW19102   5.103   1.946   5.209
 6068SOL    HW119103   5.176   1.940   5.140
 6068SOL    HW219104   5.103   2.037   5.250
 6069SOL     OW19105   6.050   3.895   4.446
 6069SOL    HW119106   6.065   3.877   4.349
 6069SOL    HW219107   6.135   3.930   4.486
 6070SOL     OW19108   3.840   2.853   6.772
 6070SOL    HW119109   3.858   2.837   6.675
 6070SOL    HW219110   3.742   2.867   6.786
 6071SOL     OW19111   5.080   6.272   5.155
 6071SOL    HW119112   5.132   6.343   5.203
 6071SOL    HW219113   5.066   6.299   5.060
 6072SOL     OW19114   0.200   1.560   0.554
 6072SOL    HW119115   0.288   1.541   0.596
 6072SOL    HW219116   0.146   1.619   0.615
 6073SOL     OW19117   6.509   2.033   1.196
 6073SOL    HW119118   6.544   2.081   1.116
 6073SOL    HW219119   6.574   2.044   1.272
 6074SOL     OW19120   0.645   0.248   5.175
 6074SOL    HW119121   0.699   0.303   5.111
 6074SOL    HW219122   0.606   0.169   5.128
 6075SOL     OW19123   4.993   4.481   6.680
 6075SOL    HW119124   4.933   4.402   6.676
 6075SOL    HW219125   5.088   4.451   6.676
 6076SOL     OW19126   2.389   6.757   3.984
 6076SOL    HW119127   2.365   6.748   4.080
 6076SOL    HW219128   2.448   6.836   3.971
 6077SOL     OW19129   5.737   5.510   2.632
 6077SOL    HW119130   5.790   5.544   2.710
 6077SOL    HW219131   5.768   5.554   2.549
 6078SOL     OW19132   2.224   4.683   3.617
 6078SOL    HW119133   2.212   4.709   3.712
 6078SOL    HW219134   2.295   4.613   3.611
 6079SOL     OW19135   2.113   1.674   0.943
 6079SOL    HW119136   2.117   1.619   1.026
 6079SOL    HW219137   2.109   1.613   0.863
 6080SOL     OW19138   5.519   2.098   2.633
 6080SOL    HW119139   5.532   2.137   2.724
 6080SOL    HW219140   5.560   2.159   2.565
 6081SOL     OW19141   0.508   3.650   2.520
 6081SOL    HW119142   0.452   3.663   2.602
 6081SOL    HW219143   0.605   3.662   2.543
 6082SOL     OW19144   3.725   1.829   4.120
 6082SOL    HW119145   3.815   1.807   4.157
 6082SOL    HW219146   3.725   1.810   4.021
 6083SOL     OW19147   1.838   6.512   0.687
 6083SOL    HW119148   1.930   6.494   0.652
 6083SOL    HW219149   1.796   6.586   0.635
 6084SOL     OW19150   0.045   5.002   6.069
 6084SOL    HW119151   0.094   5.012   6.156
 6084SOL    HW219152   7.013   4.916   6.068
 6085SOL     OW19153   5.065   4.565   1.515
 6085SOL    HW119154   5.050   4.654   1.559
 6085SOL    HW219155   4.978   4.531   1.479
 6086SOL     OW19156   2.891   1.750   3.141
 6086SOL    HW119157   2.913   1.751   3.044
 6086SOL    HW219158   2.976   1.743   3.194
 6087SOL     OW19159   4.081   0.024   0.679
 6087SOL    HW119160   4.104   6.948   0.651
 6087SOL    HW219161   4.130   0.047   0.763
 6088SOL     OW19162   6.878   6.756   5.623
 6088SOL    HW119163   6.903   6.673   5.575
 6088SOL    HW219164   6.924   6.834   5.581
 6089SOL     OW19165   6.512   3.423   0.262
 6089SOL    HW119166   6.529   3.519   0.286
 6089SOL    HW219167   6.550   3.365   0.334
 6090SOL     OW19168   0.393   5.733   3.870
 6090SOL    HW119169   0.346   5.659   3.822
 6090SOL    HW219170   0.346   5.819   3.853
 6091SOL     OW19171   6.285   1.979   1.391
 6091SOL    HW119172   6.371   1.987   1.341
 6091SOL    HW219173   6.224   1.916   1.343
 6092SOL     OW19174   1.328   2.376   0.990
 6092SOL    HW119175   1.285   2.320   1.061
 6092SOL    HW219176   1.423   2.394   1.015
 6093SOL     OW19177   1.229   3.666   0.438
 6093SOL    HW119178   1.277   3.749   0.467
 6093SOL    HW219179   1.261   3.589   0.493
 6094SOL     OW19180   0.725   0.949   0.919
 6094SOL    HW119181   0.782   0.873   0.886
 6094SOL    HW219182   0.777   1.034   0.913
 6095SOL     OW19183   6.187   4.176   5.448
 6095SOL    HW119184   6.127   4.227   5.509
 6095SOL    HW219185   6.142   4.166   5.359
 6096SOL     OW19186   3.893   1.597   2.929
 6096SOL    HW119187   3.860   1.538   2.856
 6096SOL    HW219188   3.973   1.554   2.973
 6097SOL     OW19189   3.196   1.665   1.951
 6097SOL    HW119190   3.247   1.691   2.033
 6097SOL    HW219191   3.132   1.738   1.926
 6098SOL     OW19192   1.473   1.109   6.529
 6098SOL    HW119193   1.414   1.176   6.484
 6098SOL    HW219194   1.524   1.155   6.603
 6099SOL     OW19195   5.669   5.132   4.750
 6099SOL    HW119196   5.731   5.069   4.702
 6099SOL    HW219197   5.594   5.080   4.791
 6100SOL     OW19198   6.599   2.153   0.324
 6100SOL    HW119199   6.676   2.101   0.362
 6100SOL    HW219200   6.632   2.242   0.292
 6101SOL     OW19201   5.580   0.816   3.925
 6101SOL    HW119202   5.526   0.874   3.986
 6101SOL    HW219203   5.672   0.805   3.963
 6102SOL     OW19204   2.998   0.551   5.341
 6102SOL    HW119205   2.987   0.641   5.383
 6102SOL    HW219206   3.008   0.561   5.242
 6103SOL     OW19207   6.323   1.002   5.375
 6103SOL    HW119208   6.274   1.036   5.295
 6103SOL    HW219209   6.301   1.061   5.454
 6104SOL     OW19210   1.553   3.344   0.972
 6104SOL    HW119211   1.458   3.321   0.993
 6104SOL    HW219212   1.613   3.270   1.001
 6105SOL     OW19213   3.554   5.136   4.495
 6105SOL    HW119214   3.498   5.087   4.562
 6105SOL    HW219215   3.499   5.155   4.413
 6106SOL     OW19216   3.269   5.349   4.071
 6106SOL    HW119217   3.184   5.302   4.094
 6106SOL    HW219218   3.258   5.447   4.084
 6107SOL     OW19219   2.301   5.291   5.754
 6107SOL    HW119220   2.300   5.193   5.775
 6107SOL    HW219221   2.395   5.321   5.739
 6108SOL     OW19222   5.887   1.810   4.268
 6108SOL    HW119223   5.875   1.848   4.177
 6108SOL    HW219224   5.814   1.844   4.328
 6109SOL     OW19225   6.453   4.444   2.015
 6109SOL    HW119226   6.433   4.498   1.933
 6109SOL    HW219227   6.426   4.349   1.999
 6110SOL     OW19228   3.596   2.066   4.092
 6110SOL    HW119229   3.659   1.994   4.061
 6110SOL    HW219230   3.546   2.102   4.013
 6111SOL     OW19231   0.498   4.388   3.101
 6111SOL    HW119232   0.416   4.343   3.067
 6111SOL    HW219233   0.561   4.319   3.138
 6112SOL     OW19234   1.117   2.233   1.707
 6112SOL    HW119235   1.163   2.214   1.794
 6112SOL    HW219236   1.128   2.155   1.645
 6113SOL     OW19237   2.375   5.493   5.489
 6113SOL    HW119238   2.372   5.393   5.490
 6113SOL    HW219239   2.405   5.525   5.399
 6114SOL     OW19240   5.225   5.746   1.013
 6114SOL    HW119241   5.195   5.665   0.963
 6114SOL    HW219242   5.304   5.786   0.966
 6115SOL     OW19243   6.041   4.418   2.297
 6115SOL    HW119244   6.035   4.386   2.203
 6115SOL    HW219245   6.111   4.489   2.304
 6116SOL     OW19246   3.020   2.347   1.215
 6116SOL    HW119247   3.117   2.360   1.232
 6116SOL    HW219248   2.994   2.394   1.131
 6117SOL     OW19249   5.903   6.390   4.253
 6117SOL    HW119250   5.932   6.415   4.345
 6117SOL    HW219251   5.810   6.353   4.256
 6118SOL     OW19252   5.969   0.289   2.839
 6118SOL    HW119253   5.899   0.219   2.826
 6118SOL    HW219254   5.997   0.325   2.751
 6119SOL     OW19255   6.196   5.233   3.892
 6119SOL    HW119256   6.290   5.267   3.884
 6119SOL    HW219257   6.181   5.201   3.986
 6120SOL     OW19258   3.107   1.159   3.316
 6120SOL    HW119259   3.126   1.099   3.394
 6120SOL    HW219260   3.193   1.176   3.266
 6121SOL     OW19261   6.629   2.098   4.473
 6121SOL    HW119262   6.601   2.175   4.416
 6121SOL    HW219263   6.651   2.020   4.415
 6122SOL     OW19264   4.593   6.134   3.975
 6122SOL    HW119265   4.562   6.160   4.067
 6122SOL    HW219266   4.525   6.161   3.908
 6123SOL     OW19267   6.934   1.620   1.759
 6123SOL    HW119268   6.926   1.546   1.826
 6123SOL    HW219269   0.012   1.650   1.754
 6124SOL     OW19270   2.643   0.308   5.062
 6124SOL    HW119271   2.610   0.232   5.116
 6124SOL    HW219272   2.665   0.385   5.122
 6125SOL     OW19273   2.119   5.056   2.423
 6125SOL    HW119274   2.093   4.970   2.467
 6125SOL    HW219275   2.218   5.063   2.418
 6126SOL     OW19276   4.550   5.402   2.444
 6126SOL    HW119277   4.527   5.417   2.348
 6126SOL    HW219278   4.587   5.486   2.484
 6127SOL     OW19279   1.935   3.939   2.182
 6127SOL    HW119280   1.921   3.934   2.281
 6127SOL    HW219281   1.849   3.919   2.135
 6128SOL     OW19282   4.963   2.717   1.207
 6128SOL    HW119283   4.885   2.653   1.206
 6128SOL    HW219284   4.959   2.776   1.126
 6129SOL     OW19285   5.966   4.095   3.212
 6129SOL    HW119286   5.946   4.033   3.288
 6129SOL    HW219287   5.880   4.126   3.171
 6130SOL     OW19288   5.591   4.479   2.811
 6130SOL    HW119289   5.534   4.450   2.888
 6130SOL    HW219290   5.546   4.455   2.725
 6131SOL     OW19291   6.585   0.964   5.215
 6131SOL    HW119292   6.498   0.949   5.263
 6131SOL    HW219293   6.633   1.042   5.256
 6132SOL     OW19294   6.517   2.430   0.581
 6132SOL    HW119295   6.556   2.430   0.673
 6132SOL    HW219296   6.447   2.360   0.574
 6133SOL     OW19297   1.457   5.012   0.349
 6133SOL    HW119298   1.397   4.942   0.386
 6133SOL    HW219299   1.541   4.970   0.315
 6134SOL     OW19300   4.454   3.184   0.298
 6134SOL    HW119301   4.379   3.127   0.333
 6134SOL    HW219302   4.517   3.205   0.373
 6135SOL     OW19303   5.593   0.291   2.301
 6135SOL    HW119304   5.530   0.330   2.235
 6135SOL    HW219305   5.628   0.364   2.360
 6136SOL     OW19306   6.989   1.906   2.435
 6136SOL    HW119307   6.970   1.917   2.533
 6136SOL    HW219308   0.018   1.987   2.401
 6137SOL     OW19309   3.009   6.531   5.960
 6137SOL    HW119310   3.034   6.435   5.952
 6137SOL    HW219311   2.909   6.540   5.958
 6138SOL     OW19312   4.730   6.984   2.966
 6138SOL    HW119313   4.779   0.049   2.939
 6138SOL    HW219314   4.776   6.943   3.045
 6139SOL     OW19315   2.611   5.672   4.050
 6139SOL    HW119316   2.614   5.667   3.950
 6139SOL    HW219317   2.692   5.628   4.088
 6140SOL     OW19318   1.644   5.871   1.422
 6140SOL    HW119319   1.574   5.895   1.489
 6140SOL    HW219320   1.701   5.797   1.457
 6141SOL     OW19321   6.544   6.085   5.885
 6141SOL    HW119322   6.500   6.030   5.814
 6141SOL    HW219323   6.474   6.120   5.947
 6142SOL     OW19324   0.457   3.956   2.724
 6142SOL    HW119325   0.419   3.928   2.813
 6142SOL    HW219326   0.552   3.926   2.718
 6143SOL     OW19327   6.696   4.260   6.424
 6143SOL    HW119328   6.751   4.340   6.448
 6143SOL    HW219329   6.753   4.178   6.426
 6144SOL     OW19330   0.081   4.789   4.442
 6144SOL    HW119331   0.005   4.744   4.396
 6144SOL    HW219332   0.134   4.841   4.376
 6145SOL     OW19333   5.486   5.526   3.469
 6145SOL    HW119334   5.581   5.548   3.447
 6145SOL    HW219335   5.453   5.456   3.406
 6146SOL     OW19336   5.403   1.434   3.249
 6146SOL    HW119337   5.445   1.439   3.158
 6146SOL    HW219338   5.306   1.456   3.242
 6147SOL     OW19339   1.090   3.588   2.994
 6147SOL    HW119340   1.004   3.547   3.024
 6147SOL    HW219341   1.147   3.609   3.074
 6148SOL     OW19342   6.017   5.846   3.605
 6148SOL    HW119343   5.947   5.825   3.674
 6148SOL    HW219344   6.068   5.928   3.634
 6149SOL     OW19345   2.277   6.999   4.315
 6149SOL    HW119346   2.252   6.926   4.379
 6149SOL    HW219347   2.287   0.067   4.364
 6150SOL     OW19348   3.986   5.711   5.892
 6150SOL    HW119349   3.924   5.703   5.814
 6150SOL    HW219350   4.075   5.744   5.860
 6151SOL     OW19351   4.222   0.570   5.773
 6151SOL    HW119352   4.145   0.582   5.709
 6151SOL    HW219353   4.276   0.491   5.745
 6152SOL     OW19354   6.624   4.778   5.400
 6152SOL    HW119355   6.709   4.777   5.452
 6152SOL    HW219356   6.551   4.734   5.453
 6153SOL     OW19357   5.105   4.195   6.904
 6153SOL    HW119358   5.184   4.136   6.887
 6153SOL    HW219359   5.022   4.149   6.871
 6154SOL     OW19360   5.041   2.906   3.383
 6154SOL    HW119361   5.088   2.854   3.454
 6154SOL    HW219362   5.106   2.930   3.311
 6155SOL     OW19363   2.119   3.819   3.960
 6155SOL    HW119364   2.165   3.872   4.031
 6155SOL    HW219365   2.027   3.795   3.990
 6156SOL     OW19366   6.108   0.559   4.374
 6156SOL    HW119367   6.079   0.654   4.375
 6156SOL    HW219368   6.076   0.513   4.457
 6157SOL     OW19369   1.181   1.422   3.708
 6157SOL    HW119370   1.249   1.459   3.771
 6157SOL    HW219371   1.101   1.482   3.706
 6158SOL     OW19372   4.523   0.367   0.576
 6158SOL    HW119373   4.531   0.411   0.665
 6158SOL    HW219374   4.592   0.295   0.568
 6159SOL     OW19375   5.549   3.102   6.864
 6159SOL    HW119376   5.611   3.180   6.857
 6159SOL    HW219377   5.596   3.026   6.911
 6160SOL     OW19378   6.551   4.632   1.405
 6160SOL    HW119379   6.580   4.672   1.493
 6160SOL    HW219380   6.453   4.645   1.394
 6161SOL     OW19381   5.613   0.736   6.533
 6161SOL    HW119382   5.519   0.758   6.561
 6161SOL    HW219383   5.612   0.650   6.481
 6162SOL     OW19384   5.869   4.920   4.056
 6162SOL    HW119385   5.911   4.952   3.971
 6162SOL    HW219386   5.771   4.940   4.055
 6163SOL     OW19387   6.737   3.944   2.299
 6163SOL    HW119388   6.768   3.940   2.394
 6163SOL    HW219389   6.637   3.939   2.297
 6164SOL     OW19390   4.536   2.890   0.461
 6164SOL    HW119391   4.491   2.958   0.519
 6164SOL    HW219392   4.498   2.896   0.368
 6165SOL     OW19393   4.556   6.652   0.748
 6165SOL    HW119394   4.562   6.570   0.691
 6165SOL    HW219395   4.618   6.722   0.713
 6166SOL     OW19396   3.854   1.469   0.221
 6166SOL    HW119397   3.915   1.531   0.270
 6166SOL    HW219398   3.809   1.409   0.287
 6167SOL     OW19399   0.033   5.019   3.000
 6167SOL    HW119400   0.045   4.920   2.998
 6167SOL    HW219401   0.080   5.057   3.080
 6168SOL     OW19402   0.702   2.831   1.278
 6168SOL    HW119403   0.730   2.923   1.304
 6168SOL    HW219404   0.767   2.765   1.314
 6169SOL     OW19405   1.838   4.468   1.911
 6169SOL    HW119406   1.817   4.396   1.845
 6169SOL    HW219407   1.852   4.554   1.863
 6170SOL     OW19408   6.699   2.157   3.734
 6170SOL    HW119409   6.711   2.133   3.830
 6170SOL    HW219410   6.716   2.255   3.722
 6171SOL     OW19411   6.368   0.930   6.607
 6171SOL    HW119412   6.277   0.967   6.627
 6171SOL    HW219413   6.389   0.858   6.673
 6172SOL     OW19414   1.288   4.198   3.986
 6172SOL    HW119415   1.314   4.251   4.067
 6172SOL    HW219416   1.341   4.230   3.907
 6173SOL     OW19417   5.953   6.343   3.333
 6173SOL    HW119418   6.033   6.324   3.276
 6173SOL    HW219419   5.884   6.392   3.279
 6174SOL     OW19420   6.556   2.550   2.283
 6174SOL    HW119421   6.609   2.506   2.356
 6174SOL    HW219422   6.527   2.641   2.314
 6175SOL     OW19423   3.491   2.306   6.658
 6175SOL    HW119424   3.425   2.233   6.640
 6175SOL    HW219425   3.573   2.268   6.700
 6176SOL     OW19426   3.383   3.942   6.168
 6176SOL    HW119427   3.331   4.007   6.224
 6176SOL    HW219428   3.325   3.908   6.094
 6177SOL     OW19429   5.705   6.084   1.671
 6177SOL    HW119430   5.706   6.059   1.768
 6177SOL    HW219431   5.758   6.018   1.618
 6178SOL     OW19432   4.380   4.554   1.905
 6178SOL    HW119433   4.355   4.508   1.820
 6178SOL    HW219434   4.419   4.487   1.969
 6179SOL     OW19435   5.395   4.810   5.034
 6179SOL    HW119436   5.309   4.796   5.083
 6179SOL    HW219437   5.470   4.821   5.100
 6180SOL     OW19438   2.767   4.683   6.451
 6180SOL    HW119439   2.801   4.749   6.518
 6180SOL    HW219440   2.840   4.617   6.430
 6181SOL     OW19441   6.112   6.412   6.728
 6181SOL    HW119442   6.052   6.398   6.649
 6181SOL    HW219443   6.132   6.509   6.738
 6182SOL     OW19444   2.905   2.670   0.271
 6182SOL    HW119445   2.880   2.762   0.303
 6182SOL    HW219446   2.981   2.677   0.207
 6183SOL     OW19447   6.807   0.005   0.635
 6183SOL    HW119448   6.777   6.945   0.690
 6183SOL    HW219449   6.786   0.090   0.684
 6184SOL     OW19450   3.314   6.400   5.118
 6184SOL    HW119451   3.317   6.496   5.093
 6184SOL    HW219452   3.362   6.386   5.205
 6185SOL     OW19453   3.754   3.494   4.964
 6185SOL    HW119454   3.722   3.441   5.043
 6185SOL    HW219455   3.701   3.579   4.957
 6186SOL     OW19456   1.154   1.539   2.622
 6186SOL    HW119457   1.099   1.468   2.577
 6186SOL    HW219458   1.109   1.566   2.708
 6187SOL     OW19459   3.150   1.991   6.219
 6187SOL    HW119460   3.198   1.904   6.206
 6187SOL    HW219461   3.115   2.023   6.131
 6188SOL     OW19462   1.998   1.658   5.206
 6188SOL    HW119463   2.023   1.566   5.237
 6188SOL    HW219464   2.015   1.723   5.279
 6189SOL     OW19465   6.866   5.040   0.934
 6189SOL    HW119466   6.776   5.011   0.965
 6189SOL    HW219467   6.876   5.138   0.946
 6190SOL     OW19468   0.530   3.186   4.009
 6190SOL    HW119469   0.497   3.268   4.055
 6190SOL    HW219470   0.603   3.210   3.945
 6191SOL     OW19471   2.836   4.254   0.433
 6191SOL    HW119472   2.806   4.164   0.465
 6191SOL    HW219473   2.931   4.249   0.404
 6192SOL     OW19474   2.920   1.447   1.244
 6192SOL    HW119475   2.939   1.535   1.288
 6192SOL    HW219476   2.824   1.443   1.217
 6193SOL     OW19477   4.502   5.635   7.000
 6193SOL    HW119478   4.413   5.633   0.028
 6193SOL    HW219479   4.520   5.546   6.958
 6194SOL     OW19480   5.554   6.967   6.556
 6194SOL    HW119481   5.580   0.022   6.620
 6194SOL    HW219482   5.539   6.882   6.606
 6195SOL     OW19483   5.338   6.370   6.136
 6195SOL    HW119484   5.282   6.363   6.219
 6195SOL    HW219485   5.406   6.297   6.136
 6196SOL     OW19486   6.045   3.131   3.176
 6196SOL    HW119487   5.974   3.153   3.109
 6196SOL    HW219488   6.074   3.036   3.165
 6197SOL     OW19489   0.611   5.478   1.120
 6197SOL    HW119490   0.532   5.466   1.179
 6197SOL    HW219491   0.689   5.427   1.157
 6198SOL     OW19492   5.673   1.609   6.619
 6198SOL    HW119493   5.678   1.704   6.587
 6198SOL    HW219494   5.648   1.550   6.543
 6199SOL     OW19495   2.059   6.645   6.347
 6199SOL    HW119496   2.143   6.675   6.302
 6199SOL    HW219497   1.986   6.710   6.328
 6200SOL     OW19498   1.509   0.663   0.933
 6200SOL    HW119499   1.418   0.644   0.970
 6200SOL    HW219500   1.533   0.593   0.866
 6201SOL     OW19501   0.384   4.620   3.445
 6201SOL    HW119502   0.408   4.525   3.463
 6201SOL    HW219503   0.422   4.648   3.356
 6202SOL     OW19504   5.977   0.906   2.524
 6202SOL    HW119505   5.969   0.978   2.593
 6202SOL    HW219506   6.049   0.930   2.458
 6203SOL     OW19507   5.949   0.234   1.816
 6203SOL    HW119508   6.035   0.213   1.863
 6203SOL    HW219509   5.883   0.162   1.835
 6204SOL     OW19510   1.265   6.086   4.926
 6204SOL    HW119511   1.303   6.132   5.005
 6204SOL    HW219512   1.179   6.129   4.900
 6205SOL     OW19513   5.733   4.548   3.455
 6205SOL    HW119514   5.818   4.532   3.504
 6205SOL    HW219515   5.729   4.487   3.376
 6206SOL     OW19516   5.515   1.917   3.242
 6206SOL    HW119517   5.495   1.864   3.324
 6206SOL    HW219518   5.534   1.855   3.166
 6207SOL     OW19519   0.678   6.147   3.817
 6207SOL    HW119520   0.718   6.188   3.899
 6207SOL    HW219521   0.751   6.118   3.755
 6208SOL     OW19522   4.560   3.643   5.797
 6208SOL    HW119523   4.588   3.738   5.812
 6208SOL    HW219524   4.460   3.638   5.793
 6209SOL     OW19525   3.637   2.050   1.429
 6209SOL    HW119526   3.718   2.043   1.372
 6209SOL    HW219527   3.575   1.974   1.409
 6210SOL     OW19528   5.933   1.210   4.410
 6210SOL    HW119529   5.893   1.242   4.496
 6210SOL    HW219530   5.860   1.180   4.348
 6211SOL     OW19531   5.826   3.870   4.902
 6211SOL    HW119532   5.854   3.844   4.810
 6211SOL    HW219533   5.738   3.827   4.923
 6212SOL     OW19534   5.417   4.330   4.605
 6212SOL    HW119535   5.323   4.345   4.574
 6212SOL    HW219536   5.458   4.417   4.631
 6213SOL     OW19537   4.348   5.834   0.606
 6213SOL    HW119538   4.288   5.829   0.685
 6213SOL    HW219539   4.337   5.923   0.561
 6214SOL     OW19540   6.231   0.073   0.207
 6214SOL    HW119541   6.252   0.156   0.156
 6214SOL    HW219542   6.312   0.044   0.258
 6215SOL     OW19543   5.586   2.129   4.844
 6215SOL    HW119544   5.573   2.044   4.895
 6215SOL    HW219545   5.502   2.182   4.847
 6216SOL     OW19546   4.830   1.883   4.644
 6216SOL    HW119547   4.749   1.942   4.648
 6216SOL    HW219548   4.908   1.935   4.610
 6217SOL     OW19549   1.043   4.485   2.650
 6217SOL    HW119550   1.136   4.454   2.634
 6217SOL    HW219551   0.987   4.467   2.569
 6218SOL     OW19552   4.302   6.424   0.399
 6218SOL    HW119553   4.280   6.327   0.390
 6218SOL    HW219554   4.400   6.433   0.419
 6219SOL     OW19555   2.184   0.921   7.003
 6219SOL    HW119556   2.217   0.835   6.964
 6219SOL    HW219557   2.084   0.921   7.006
 6220SOL     OW19558   3.147   6.475   1.022
 6220SOL    HW119559   3.052   6.448   1.033
 6220SOL    HW219560   3.159   6.570   1.050
 6221SOL     OW19561   5.051   5.863   5.845
 6221SOL    HW119562   4.955   5.882   5.827
 6221SOL    HW219563   5.062   5.830   5.939
 6222SOL     OW19564   6.769   1.474   2.408
 6222SOL    HW119565   6.786   1.479   2.507
 6222SOL    HW219566   6.671   1.473   2.391
 6223SOL     OW19567   0.175   4.887   4.787
 6223SOL    HW119568   0.193   4.965   4.847
 6223SOL    HW219569   0.076   4.877   4.776
 6224SOL     OW19570   3.475   6.610   0.153
 6224SOL    HW119571   3.554   6.659   0.188
 6224SOL    HW219572   3.478   6.514   0.183
 6225SOL     OW19573   4.703   6.206   6.030
 6225SOL    HW119574   4.668   6.115   6.010
 6225SOL    HW219575   4.802   6.207   6.023
 6226SOL     OW19576   0.703   0.919   3.651
 6226SOL    HW119577   0.621   0.924   3.708
 6226SOL    HW219578   0.730   0.824   3.639
 6227SOL     OW19579   2.954   4.793   5.662
 6227SOL    HW119580   2.872   4.849   5.676
 6227SOL    HW219581   2.928   4.705   5.621
 6228SOL     OW19582   1.178   2.838   3.746
 6228SOL    HW119583   1.238   2.860   3.670
 6228SOL    HW219584   1.206   2.891   3.827
 6229SOL     OW19585   0.856   3.806   4.094
 6229SOL    HW119586   0.858   3.819   4.193
 6229SOL    HW219587   0.901   3.719   4.071
 6230SOL     OW19588   0.444   0.910   1.463
 6230SOL    HW119589   0.422   1.008   1.459
 6230SOL    HW219590   0.361   0.858   1.485
 6231SOL     OW19591   2.059   5.350   5.611
 6231SOL    HW119592   2.065   5.384   5.517
 6231SOL    HW219593   2.147   5.310   5.638
 6232SOL     OW19594   4.555   0.441   6.415
 6232SOL    HW119595   4.498   0.499   6.358
 6232SOL    HW219596   4.499   0.371   6.459
 6233SOL     OW19597   0.152   3.264   1.196
 6233SOL    HW119598   0.119   3.262   1.291
 6233SOL    HW219599   0.219   3.338   1.186
 6234SOL     OW19600   5.163   5.322   4.720
 6234SOL    HW119601   5.188   5.382   4.645
 6234SOL    HW219602   5.177   5.227   4.693
 6235SOL     OW19603   0.250   0.865   2.071
 6235SOL    HW119604   0.151   0.874   2.057
 6235SOL    HW219605   0.293   0.830   1.987
 6236SOL     OW19606   6.700   5.745   1.075
 6236SOL    HW119607   6.747   5.824   1.034
 6236SOL    HW219608   6.616   5.727   1.024
 6237SOL     OW19609   3.294   1.127   2.129
 6237SOL    HW119610   3.275   1.042   2.179
 6237SOL    HW219611   3.357   1.109   2.054
 6238SOL     OW19612   2.337   1.366   3.540
 6238SOL    HW119613   2.278   1.287   3.527
 6238SOL    HW219614   2.423   1.352   3.490
 6239SOL     OW19615   4.814   1.215   4.392
 6239SOL    HW119616   4.819   1.168   4.480
 6239SOL    HW219617   4.772   1.154   4.325
 6240SOL     OW19618   4.033   3.633   3.962
 6240SOL    HW119619   4.096   3.566   4.002
 6240SOL    HW219620   3.952   3.585   3.928
 6241SOL     OW19621   3.592   0.283   3.443
 6241SOL    HW119622   3.610   0.370   3.397
 6241SOL    HW219623   3.598   0.209   3.377
 6242SOL     OW19624   3.036   1.888   4.286
 6242SOL    HW119625   2.953   1.869   4.233
 6242SOL    HW219626   3.087   1.963   4.244
 6243SOL     OW19627   4.421   1.490   6.834
 6243SOL    HW119628   4.363   1.531   6.905
 6243SOL    HW219629   4.517   1.500   6.860
 6244SOL     OW19630   4.473   2.533   1.818
 6244SOL    HW119631   4.441   2.503   1.908
 6244SOL    HW219632   4.412   2.604   1.782
 6245SOL     OW19633   0.323   5.127   2.393
 6245SOL    HW119634   0.358   5.062   2.325
 6245SOL    HW219635   0.291   5.076   2.473
 6246SOL     OW19636   0.236   6.828   4.853
 6246SOL    HW119637   0.314   6.890   4.844
 6246SOL    HW219638   0.190   6.846   4.940
 6247SOL     OW19639   6.477   5.965   3.058
 6247SOL    HW119640   6.487   5.938   3.154
 6247SOL    HW219641   6.529   5.902   3.000
 6248SOL     OW19642   4.016   3.399   5.221
 6248SOL    HW119643   4.051   3.491   5.203
 6248SOL    HW219644   4.042   3.372   5.314
 6249SOL     OW19645   5.367   3.546   3.058
 6249SOL    HW119646   5.359   3.644   3.076
 6249SOL    HW219647   5.431   3.531   2.982
 6250SOL     OW19648   5.545   6.794   6.307
 6250SOL    HW119649   5.558   6.757   6.399
 6250SOL    HW219650   5.489   6.877   6.312
 6251SOL     OW19651   3.004   0.982   4.571
 6251SOL    HW119652   3.044   1.051   4.632
 6251SOL    HW219653   3.036   0.997   4.478
 6252SOL     OW19654   2.993   5.377   0.268
 6252SOL    HW119655   2.917   5.314   0.286
 6252SOL    HW219656   3.035   5.355   0.180
 6253SOL     OW19657   3.961   6.407   4.073
 6253SOL    HW119658   3.871   6.426   4.111
 6253SOL    HW219659   4.029   6.466   4.117
 6254SOL     OW19660   0.028   0.221   1.540
 6254SOL    HW119661   6.952   0.253   1.549
 6254SOL    HW219662   0.044   0.144   1.602
 6255SOL     OW19663   1.264   1.856   0.809
 6255SOL    HW119664   1.315   1.859   0.723
 6255SOL    HW219665   1.244   1.761   0.832
 6256SOL     OW19666   6.226   5.386   2.021
 6256SOL    HW119667   6.219   5.339   2.110
 6256SOL    HW219668   6.181   5.475   2.026
 6257SOL     OW19669   3.572   4.551   1.094
 6257SOL    HW119670   3.519   4.478   1.138
 6257SOL    HW219671   3.622   4.603   1.163
 6258SOL     OW19672   4.159   5.628   4.605
 6258SOL    HW119673   4.144   5.687   4.685
 6258SOL    HW219674   4.111   5.542   4.618
 6259SOL     OW19675   4.302   0.869   5.343
 6259SOL    HW119676   4.297   0.898   5.248
 6259SOL    HW219677   4.220   0.900   5.392
 6260SOL     OW19678   2.341   1.826   0.881
 6260SOL    HW119679   2.256   1.774   0.885
 6260SOL    HW219680   2.417   1.767   0.908
 6261SOL     OW19681   3.325   6.975   0.918
 6261SOL    HW119682   3.336   6.915   0.838
 6261SOL    HW219683   3.266   0.035   0.893
 6262SOL     OW19684   6.185   1.002   2.393
 6262SOL    HW119685   6.248   1.028   2.319
 6262SOL    HW219686   6.225   1.027   2.481
 6263SOL     OW19687   6.414   6.183   6.096
 6263SOL    HW119688   6.433   6.276   6.127
 6263SOL    HW219689   6.390   6.127   6.175
 6264SOL     OW19690   1.943   5.711   0.373
 6264SOL    HW119691   1.967   5.714   0.276
 6264SOL    HW219692   1.849   5.679   0.383
 6265SOL     OW19693   4.254   6.183   6.062
 6265SOL    HW119694   4.176   6.210   6.004
 6265SOL    HW219695   4.339   6.196   6.010
 6266SOL     OW19696   3.737   5.385   2.979
 6266SOL    HW119697   3.661   5.326   3.008
 6266SOL    HW219698   3.703   5.450   2.912
 6267SOL     OW19699   0.620   6.366   4.418
 6267SOL    HW119700   0.691   6.391   4.353
 6267SOL    HW219701   0.544   6.323   4.370
 6268SOL     OW19702   3.167   1.614   0.721
 6268SOL    HW119703   3.172   1.713   0.715
 6268SOL    HW219704   3.140   1.576   0.633
 6269SOL     OW19705   6.878   5.789   6.651
 6269SOL    HW119706   6.848   5.821   6.740
 6269SOL    HW219707   6.856   5.858   6.582
 6270SOL     OW19708   1.642   6.312   0.983
 6270SOL    HW119709   1.607   6.405   0.975
 6270SOL    HW219710   1.623   6.277   1.075
 6271SOL     OW19711   6.845   2.859   6.223
 6271SOL    HW119712   6.891   2.849   6.311
 6271SOL    HW219713   6.844   2.955   6.197
 6272SOL     OW19714   0.321   1.156   6.840
 6272SOL    HW119715   0.255   1.228   6.816
 6272SOL    HW219716   0.403   1.198   6.879
 6273SOL     OW19717   0.318   6.822   2.959
 6273SOL    HW119718   0.346   6.824   2.863
 6273SOL    HW219719   0.303   6.915   2.992
 6274SOL     OW19720   3.039   5.477   3.855
 6274SOL    HW119721   3.131   5.452   3.886
 6274SOL    HW219722   3.010   5.561   3.899
 6275SOL     OW19723   2.721   5.933   6.652
 6275SOL    HW119724   2.789   5.902   6.585
 6275SOL    HW219725   2.759   5.925   6.744
 6276SOL     OW19726   1.801   5.398   2.789
 6276SOL    HW119727   1.735   5.406   2.864
 6276SOL    HW219728   1.879   5.343   2.819
 6277SOL     OW19729   4.752   2.504   1.217
 6277SOL    HW119730   4.665   2.549   1.236
 6277SOL    HW219731   4.766   2.430   1.282
 6278SOL     OW19732   4.497   2.241   0.573
 6278SOL    HW119733   4.525   2.147   0.589
 6278SOL    HW219734   4.406   2.256   0.613
 6279SOL     OW19735   2.965   6.571   1.917
 6279SOL    HW119736   2.954   6.487   1.971
 6279SOL    HW219737   3.058   6.606   1.927
 6280SOL     OW19738   4.941   2.015   6.729
 6280SOL    HW119739   4.918   1.990   6.823
 6280SOL    HW219740   5.000   2.096   6.730
 6281SOL     OW19741   5.023   4.842   5.919
 6281SOL    HW119742   4.964   4.808   5.992
 6281SOL    HW219743   5.118   4.839   5.949
 6282SOL     OW19744   0.758   3.477   5.996
 6282SOL    HW119745   0.685   3.412   5.976
 6282SOL    HW219746   0.763   3.493   6.094
 6283SOL     OW19747   2.478   6.834   4.869
 6283SOL    HW119748   2.530   6.893   4.931
 6283SOL    HW219749   2.524   6.746   4.861
 6284SOL     OW19750   1.444   2.922   5.851
 6284SOL    HW119751   1.376   2.896   5.783
 6284SOL    HW219752   1.433   3.018   5.875
 6285SOL     OW19753   1.377   3.393   2.834
 6285SOL    HW119754   1.462   3.410   2.783
 6285SOL    HW219755   1.396   3.337   2.914
 6286SOL     OW19756   0.610   2.131   6.622
 6286SOL    HW119757   0.614   2.181   6.708
 6286SOL    HW219758   0.570   2.188   6.551
 6287SOL     OW19759   4.205   4.765   4.698
 6287SOL    HW119760   4.133   4.753   4.767
 6287SOL    HW219761   4.281   4.703   4.719
 6288SOL     OW19762   2.756   3.578   5.636
 6288SOL    HW119763   2.670   3.565   5.587
 6288SOL    HW219764   2.757   3.669   5.677
 6289SOL     OW19765   2.153   4.588   4.286
 6289SOL    HW119766   2.058   4.587   4.256
 6289SOL    HW219767   2.167   4.664   4.351
 6290SOL     OW19768   5.928   0.065   3.660
 6290SOL    HW119769   5.966   0.157   3.665
 6290SOL    HW219770   5.980   0.011   3.594
 6291SOL     OW19771   3.809   3.587   1.974
 6291SOL    HW119772   3.771   3.641   2.048
 6291SOL    HW219773   3.893   3.630   1.940
 6292SOL     OW19774   1.312   4.728   4.968
 6292SOL    HW119775   1.275   4.635   4.970
 6292SOL    HW219776   1.407   4.727   4.998
 6293SOL     OW19777   2.725   1.465   6.045
 6293SOL    HW119778   2.636   1.490   6.083
 6293SOL    HW219779   2.794   1.531   6.077
 6294SOL     OW19780   2.180   1.177   2.169
 6294SOL    HW119781   2.177   1.223   2.080
 6294SOL    HW219782   2.171   1.078   2.156
 6295SOL     OW19783   4.289   3.810   6.337
 6295SOL    HW119784   4.267   3.907   6.337
 6295SOL    HW219785   4.388   3.798   6.334
 6296SOL     OW19786   0.529   2.546   6.926
 6296SOL    HW119787   0.605   2.543   6.860
 6296SOL    HW219788   0.479   2.460   6.923
 6297SOL     OW19789   6.634   1.150   3.862
 6297SOL    HW119790   6.648   1.184   3.955
 6297SOL    HW219791   6.550   1.095   3.859
 6298SOL     OW19792   6.977   6.860   0.468
 6298SOL    HW119793   6.917   6.894   0.541
 6298SOL    HW219794   0.054   6.882   0.490
 6299SOL     OW19795   3.917   1.629   4.196
 6299SOL    HW119796   3.919   1.560   4.268
 6299SOL    HW219797   3.927   1.584   4.107
 6300SOL     OW19798   2.880   1.947   0.893
 6300SOL    HW119799   2.953   2.014   0.906
 6300SOL    HW219800   2.800   1.993   0.854
 6301SOL     OW19801   4.072   6.265   6.672
 6301SOL    HW119802   4.067   6.359   6.706
 6301SOL    HW219803   3.989   6.216   6.701
 6302SOL     OW19804   1.275   3.722   0.069
 6302SOL    HW119805   1.353   3.683   0.117
 6302SOL    HW219806   1.198   3.732   0.132
 6303SOL     OW19807   6.896   4.680   4.289
 6303SOL    HW119808   6.838   4.617   4.341
 6303SOL    HW219809   6.909   4.645   4.196
 6304SOL     OW19810   3.302   1.243   4.346
 6304SOL    HW119811   3.273   1.338   4.359
 6304SOL    HW219812   3.315   1.225   4.249
 6305SOL     OW19813   0.735   5.849   5.799
 6305SOL    HW119814   0.689   5.844   5.710
 6305SOL    HW219815   0.670   5.827   5.872
 6306SOL     OW19816   0.304   4.452   4.395
 6306SOL    HW119817   0.242   4.480   4.322
 6306SOL    HW219818   0.293   4.512   4.474
 6307SOL     OW19819   3.974   3.077   2.492
 6307SOL    HW119820   3.944   3.029   2.410
 6307SOL    HW219821   3.899   3.083   2.557
 6308SOL     OW19822   0.814   2.191   0.720
 6308SOL    HW119823   0.908   2.185   0.754
 6308SOL    HW219824   0.800   2.282   0.680
 6309SOL     OW19825   1.585   6.254   4.780
 6309SOL    HW119826   1.563   6.319   4.853
 6309SOL    HW219827   1.599   6.163   4.820
 6310SOL     OW19828   0.754   6.890   3.743
 6310SOL    HW119829   0.725   6.986   3.745
 6310SOL    HW219830   0.852   6.885   3.764
 6311SOL     OW19831   6.358   1.320   6.497
 6311SOL    HW119832   6.438   1.276   6.457
 6311SOL    HW219833   6.381   1.413   6.525
 6312SOL     OW19834   2.969   5.909   0.506
 6312SOL    HW119835   2.901   5.931   0.436
 6312SOL    HW219836   2.960   5.973   0.582
 6313SOL     OW19837   5.900   4.822   3.699
 6313SOL    HW119838   5.966   4.890   3.730
 6313SOL    HW219839   5.887   4.753   3.770
 6314SOL     OW19840   1.783   6.130   2.783
 6314SOL    HW119841   1.834   6.202   2.832
 6314SOL    HW219842   1.729   6.077   2.848
 6315SOL     OW19843   2.182   1.522   3.715
 6315SOL    HW119844   2.234   1.594   3.762
 6315SOL    HW219845   2.239   1.481   3.644
 6316SOL     OW19846   4.377   0.672   4.948
 6316SOL    HW119847   4.367   0.659   5.047
 6316SOL    HW219848   4.411   0.764   4.930
 6317SOL     OW19849   4.476   4.447   2.840
 6317SOL    HW119850   4.393   4.395   2.860
 6317SOL    HW219851   4.451   4.542   2.819
 6318SOL     OW19852   6.463   6.823   0.051
 6318SOL    HW119853   6.528   6.785   7.002
 6318SOL    HW219854   6.488   6.792   0.143
 6319SOL     OW19855   4.606   2.077   4.625
 6319SOL    HW119856   4.616   2.090   4.724
 6319SOL    HW219857   4.511   2.091   4.599
 6320SOL     OW19858   6.552   1.953   5.687
 6320SOL    HW119859   6.531   1.913   5.598
 6320SOL    HW219860   6.496   1.911   5.758
 6321SOL     OW19861   0.415   3.112   0.210
 6321SOL    HW119862   0.381   3.192   0.261
 6321SOL    HW219863   0.382   3.116   0.116
 6322SOL     OW19864   1.770   1.672   3.065
 6322SOL    HW119865   1.817   1.595   3.022
 6322SOL    HW219866   1.672   1.656   3.062
 6323SOL     OW19867   2.083   4.965   0.791
 6323SOL    HW119868   2.001   4.995   0.742
 6323SOL    HW219869   2.163   5.011   0.754
 6324SOL     OW19870   4.725   3.317   1.258
 6324SOL    HW119871   4.692   3.238   1.205
 6324SOL    HW219872   4.674   3.322   1.344
 6325SOL     OW19873   1.567   3.046   3.719
 6325SOL    HW119874   1.518   3.125   3.756
 6325SOL    HW219875   1.660   3.043   3.757
 6326SOL     OW19876   5.045   5.225   4.978
 6326SOL    HW119877   5.014   5.131   4.997
 6326SOL    HW219878   5.037   5.243   4.880
 6327SOL     OW19879   0.348   1.389   3.453
 6327SOL    HW119880   0.434   1.392   3.402
 6327SOL    HW219881   0.353   1.316   3.522
 6328SOL     OW19882   4.487   3.640   5.369
 6328SOL    HW119883   4.405   3.641   5.310
 6328SOL    HW219884   4.568   3.630   5.312
 6329SOL     OW19885   0.657   2.301   5.894
 6329SOL    HW119886   0.704   2.291   5.981
 6329SOL    HW219887   0.656   2.213   5.847
 6330SOL     OW19888   4.654   1.673   3.801
 6330SOL    HW119889   4.739   1.621   3.809
 6330SOL    HW219890   4.666   1.746   3.733
 6331SOL     OW19891   1.192   3.351   3.937
 6331SOL    HW119892   1.126   3.290   3.981
 6331SOL    HW219893   1.244   3.400   4.006
 6332SOL     OW19894   3.619   1.871   6.896
 6332SOL    HW119895   3.717   1.875   6.912
 6332SOL    HW219896   3.574   1.943   6.949
 6333SOL     OW19897   5.777   0.591   0.604
 6333SOL    HW119898   5.872   0.566   0.587
 6333SOL    HW219899   5.718   0.544   0.538
 6334SOL     OW19900   2.162   1.295   1.898
 6334SOL    HW119901   2.136   1.390   1.883
 6334SOL    HW219902   2.216   1.262   1.821
 6335SOL     OW19903   6.894   3.713   6.040
 6335SOL    HW119904   6.951   3.792   6.065
 6335SOL    HW219905   6.875   3.716   5.942
 6336SOL     OW19906   0.613   4.285   5.839
 6336SOL    HW119907   0.551   4.243   5.773
 6336SOL    HW219908   0.707   4.256   5.820
 6337SOL     OW19909   6.184   0.256   4.984
 6337SOL    HW119910   6.232   0.216   4.905
 6337SOL    HW219911   6.251   0.290   5.049
 6338SOL     OW19912   1.195   0.966   3.127
 6338SOL    HW119913   1.132   0.895   3.157
 6338SOL    HW219914   1.168   0.999   3.037
 6339SOL     OW19915   6.944   3.631   3.163
 6339SOL    HW119916   0.016   3.666   3.137
 6339SOL    HW219917   6.951   3.584   3.251
 6340SOL     OW19918   2.894   4.952   0.046
 6340SOL    HW119919   2.948   4.986   6.987
 6340SOL    HW219920   2.934   4.985   0.132
 6341SOL     OW19921   0.010   4.885   2.063
 6341SOL    HW119922   0.010   4.787   2.043
 6341SOL    HW219923   0.020   4.936   1.978
 6342SOL     OW19924   2.203   1.237   1.492
 6342SOL    HW119925   2.284   1.181   1.478
 6342SOL    HW219926   2.221   1.330   1.461
 6343SOL     OW19927   1.307   5.762   0.082
 6343SOL    HW119928   1.324   5.853   0.044
 6343SOL    HW219929   1.259   5.772   0.169
 6344SOL     OW19930   1.247   1.318   4.883
 6344SOL    HW119931   1.224   1.415   4.877
 6344SOL    HW219932   1.314   1.296   4.813
 6345SOL     OW19933   5.783   2.946   2.805
 6345SOL    HW119934   5.804   2.893   2.724
 6345SOL    HW219935   5.739   2.888   2.873
 6346SOL     OW19936   0.633   4.347   4.845
 6346SOL    HW119937   0.577   4.350   4.763
 6346SOL    HW219938   0.698   4.423   4.845
 6347SOL     OW19939   1.942   2.388   3.688
 6347SOL    HW119940   1.922   2.484   3.707
 6347SOL    HW219941   1.887   2.330   3.748
 6348SOL     OW19942   0.973   2.517   6.638
 6348SOL    HW119943   0.945   2.494   6.545
 6348SOL    HW219944   1.025   2.603   6.637
 6349SOL     OW19945   5.677   0.611   0.856
 6349SOL    HW119946   5.707   0.604   0.761
 6349SOL    HW219947   5.721   0.690   0.900
 6350SOL     OW19948   0.822   6.523   1.506
 6350SOL    HW119949   0.821   6.436   1.556
 6350SOL    HW219950   0.916   6.551   1.488
 6351SOL     OW19951   5.821   3.332   1.376
 6351SOL    HW119952   5.760   3.410   1.390
 6351SOL    HW219953   5.848   3.294   1.465
 6352SOL     OW19954   3.836   0.629   4.069
 6352SOL    HW119955   3.847   0.608   4.166
 6352SOL    HW219956   3.741   0.653   4.051
 6353SOL     OW19957   3.594   6.297   4.958
 6353SOL    HW119958   3.504   6.259   4.980
 6353SOL    HW219959   3.647   6.309   5.041
 6354SOL     OW19960   4.881   5.056   2.365
 6354SOL    HW119961   4.974   5.042   2.398
 6354SOL    HW219962   4.830   4.971   2.371
 6355SOL     OW19963   3.622   5.630   0.870
 6355SOL    HW119964   3.689   5.564   0.904
 6355SOL    HW219965   3.644   5.721   0.905
 6356SOL     OW19966   0.353   6.466   6.398
 6356SOL    HW119967   0.253   6.476   6.393
 6356SOL    HW219968   0.376   6.373   6.427
 6357SOL     OW19969   4.840   1.641   3.149
 6357SOL    HW119970   4.789   1.564   3.188
 6357SOL    HW219971   4.918   1.662   3.207
 6358SOL     OW19972   1.098   1.879   4.635
 6358SOL    HW119973   1.058   1.804   4.687
 6358SOL    HW219974   1.198   1.875   4.641
 6359SOL     OW19975   5.811   5.620   1.699
 6359SOL    HW119976   5.734   5.585   1.646
 6359SOL    HW219977   5.883   5.552   1.702
 6360SOL     OW19978   1.930   2.462   1.082
 6360SOL    HW119979   1.976   2.479   0.995
 6360SOL    HW219980   1.999   2.455   1.155
 6361SOL     OW19981   0.675   1.092   1.561
 6361SOL    HW119982   0.750   1.037   1.525
 6361SOL    HW219983   0.592   1.072   1.509
 6362SOL     OW19984   1.395   5.259   0.280
 6362SOL    HW119985   1.410   5.163   0.305
 6362SOL    HW219986   1.301   5.270   0.248
 6363SOL     OW19987   1.126   3.429   1.827
 6363SOL    HW119988   1.225   3.438   1.824
 6363SOL    HW219989   1.102   3.347   1.879
 6364SOL     OW19990   3.033   1.576   4.108
 6364SOL    HW119991   2.981   1.633   4.170
 6364SOL    HW219992   3.102   1.525   4.159
 6365SOL     OW19993   6.045   6.924   2.741
 6365SOL    HW119994   6.002   6.842   2.779
 6365SOL    HW219995   6.077   6.904   2.648
 6366SOL     OW19996   5.713   1.073   5.381
 6366SOL    HW119997   5.777   1.137   5.339
 6366SOL    HW219998   5.750   1.041   5.468
 6367SOL     OW19999   1.283   2.258   3.813
 6367SOL    HW120000   1.264   2.356   3.820
 6367SOL    HW220001   1.266   2.214   3.901
 6368SOL     OW20002   4.933   3.420   4.854
 6368SOL    HW120003   4.980   3.361   4.920
 6368SOL    HW220004   4.876   3.485   4.903
 6369SOL     OW20005   4.336   4.825   0.500
 6369SOL    HW120006   4.241   4.852   0.485
 6369SOL    HW220007   4.343   4.773   0.585
 6370SOL     OW20008   5.716   4.191   4.654
 6370SOL    HW120009   5.758   4.117   4.601
 6370SOL    HW220010   5.617   4.177   4.659
 6371SOL     OW20011   5.533   4.617   0.940
 6371SOL    HW120012   5.580   4.704   0.926
 6371SOL    HW220013   5.470   4.601   0.863
 6372SOL     OW20014   6.614   1.452   1.418
 6372SOL    HW120015   6.587   1.357   1.435
 6372SOL    HW220016   6.655   1.458   1.327
 6373SOL     OW20017   4.921   3.100   1.893
 6373SOL    HW120018   4.853   3.028   1.904
 6373SOL    HW220019   5.008   3.060   1.866
 6374SOL     OW20020   4.756   3.467   5.888
 6374SOL    HW120021   4.736   3.392   5.825
 6374SOL    HW220022   4.684   3.536   5.881
 6375SOL     OW20023   4.814   1.310   1.656
 6375SOL    HW120024   4.881   1.383   1.641
 6375SOL    HW220025   4.758   1.299   1.574
 6376SOL     OW20026   3.031   0.557   0.211
 6376SOL    HW120027   3.020   0.503   0.128
 6376SOL    HW220028   3.116   0.609   0.207
 6377SOL     OW20029   0.339   0.590   6.978
 6377SOL    HW120030   0.434   0.596   6.947
 6377SOL    HW220031   0.285   0.543   6.908
 6378SOL     OW20032   5.818   4.120   2.173
 6378SOL    HW120033   5.874   4.041   2.200
 6378SOL    HW220034   5.760   4.147   2.250
 6379SOL     OW20035   2.001   5.403   6.282
 6379SOL    HW120036   2.047   5.491   6.270
 6379SOL    HW220037   1.904   5.419   6.300
 6380SOL     OW20038   1.650   2.843   5.488
 6380SOL    HW120039   1.565   2.790   5.488
 6380SOL    HW220040   1.677   2.862   5.394
 6381SOL     OW20041   3.534   4.087   0.359
 6381SOL    HW120042   3.569   4.058   0.448
 6381SOL    HW220043   3.609   4.119   0.302
 6382SOL     OW20044   1.484   1.219   0.567
 6382SOL    HW120045   1.397   1.269   0.561
 6382SOL    HW220046   1.550   1.259   0.503
 6383SOL     OW20047   2.466   2.578   2.300
 6383SOL    HW120048   2.537   2.510   2.313
 6383SOL    HW220049   2.463   2.639   2.379
 6384SOL     OW20050   6.617   2.751   2.059
 6384SOL    HW120051   6.565   2.709   1.985
 6384SOL    HW220052   6.676   2.683   2.102
 6385SOL     OW20053   6.426   3.830   0.752
 6385SOL    HW120054   6.446   3.851   0.847
 6385SOL    HW220055   6.511   3.833   0.699
 6386SOL     OW20056   3.363   3.518   0.201
 6386SOL    HW120057   3.406   3.609   0.197
 6386SOL    HW220058   3.279   3.524   0.256
 6387SOL     OW20059   6.898   0.227   6.670
 6387SOL    HW120060   6.838   0.150   6.649
 6387SOL    HW220061   6.867   0.270   6.755
 6388SOL     OW20062   5.559   5.289   1.973
 6388SOL    HW120063   5.625   5.359   1.948
 6388SOL    HW220064   5.530   5.302   2.068
 6389SOL     OW20065   6.749   6.643   0.372
 6389SOL    HW120066   6.696   6.560   0.390
 6389SOL    HW220067   6.846   6.625   0.386
 6390SOL     OW20068   5.384   0.194   6.756
 6390SOL    HW120069   5.364   0.099   6.777
 6390SOL    HW220070   5.443   0.233   6.827
 6391SOL     OW20071   1.686   2.061   4.716
 6391SOL    HW120072   1.723   2.004   4.790
 6391SOL    HW220073   1.616   2.123   4.754
 6392SOL     OW20074   4.290   0.187   3.992
 6392SOL    HW120075   4.307   0.273   3.945
 6392SOL    HW220076   4.201   0.190   4.038
 6393SOL     OW20077   1.519   4.697   0.613
 6393SOL    HW120078   1.590   4.679   0.681
 6393SOL    HW220079   1.440   4.738   0.658
 6394SOL     OW20080   2.010   4.964   2.065
 6394SOL    HW120081   2.020   5.054   2.108
 6394SOL    HW220082   2.046   4.968   1.972
 6395SOL     OW20083   1.768   4.473   4.656
 6395SOL    HW120084   1.840   4.449   4.722
 6395SOL    HW220085   1.774   4.570   4.634
 6396SOL     OW20086   2.222   2.652   5.412
 6396SOL    HW120087   2.178   2.738   5.435
 6396SOL    HW220088   2.268   2.660   5.324
 6397SOL     OW20089   6.333   3.345   4.910
 6397SOL    HW120090   6.298   3.433   4.942
 6397SOL    HW220091   6.281   3.271   4.952
 6398SOL     OW20092   2.106   0.183   2.567
 6398SOL    HW120093   2.099   0.226   2.477
 6398SOL    HW220094   2.119   0.085   2.556
 6399SOL     OW20095   3.121   0.109   0.271
 6399SOL    HW120096   3.120   0.198   0.317
 6399SOL    HW220097   3.127   0.122   0.172
 6400SOL     OW20098   0.445   6.989   2.405
 6400SOL    HW120099   0.530   6.943   2.433
 6400SOL    HW220100   0.467   0.061   2.368
 6401SOL     OW20101   3.694   5.227   2.598
 6401SOL    HW120102   3.709   5.245   2.501
 6401SOL    HW220103   3.714   5.131   2.618
 6402SOL     OW20104   3.501   4.620   5.701
 6402SOL    HW120105   3.552   4.543   5.662
 6402SOL    HW220106   3.565   4.690   5.733
 6403SOL     OW20107   5.072   5.745   5.553
 6403SOL    HW120108   5.066   5.776   5.648
 6403SOL    HW220109   5.133   5.806   5.502
 6404SOL     OW20110   4.740   5.771   0.037
 6404SOL    HW120111   4.828   5.731   0.014
 6404SOL    HW220112   4.666   5.708   0.012
 6405SOL     OW20113   4.717   1.028   2.690
 6405SOL    HW120114   4.775   1.045   2.609
 6405SOL    HW220115   4.623   1.052   2.669
 6406SOL     OW20116   0.469   3.406   2.416
 6406SOL    HW120117   0.478   3.493   2.464
 6406SOL    HW220118   0.373   3.378   2.414
 6407SOL     OW20119   0.465   0.203   2.254
 6407SOL    HW120120   0.367   0.221   2.266
 6407SOL    HW220121   0.515   0.290   2.256
 6408SOL     OW20122   6.949   1.432   1.944
 6408SOL    HW120123   6.917   1.400   2.032
 6408SOL    HW220124   0.030   1.443   1.946
 6409SOL     OW20125   5.739   4.419   3.219
 6409SOL    HW120126   5.663   4.481   3.196
 6409SOL    HW220127   5.825   4.460   3.189
 6410SOL     OW20128   2.043   1.219   0.124
 6410SOL    HW120129   1.960   1.180   0.163
 6410SOL    HW220130   2.046   1.201   0.025
 6411SOL     OW20131   0.567   2.780   2.540
 6411SOL    HW120132   0.571   2.879   2.526
 6411SOL    HW220133   0.603   2.757   2.631
 6412SOL     OW20134   3.558   0.390   6.792
 6412SOL    HW120135   3.531   0.467   6.734
 6412SOL    HW220136   3.590   0.425   6.881
 6413SOL     OW20137   5.005   6.370   3.474
 6413SOL    HW120138   5.019   6.285   3.423
 6413SOL    HW220139   4.922   6.362   3.529
 6414SOL     OW20140   2.881   0.652   0.412
 6414SOL    HW120141   2.952   0.631   0.344
 6414SOL    HW220142   2.868   0.574   0.472
 6415SOL     OW20143   0.890   1.325   3.546
 6415SOL    HW120144   0.868   1.237   3.589
 6415SOL    HW220145   0.924   1.389   3.615
 6416SOL     OW20146   3.255   4.911   0.070
 6416SOL    HW120147   3.289   4.908   6.994
 6416SOL    HW220148   3.294   4.836   0.122
 6417SOL     OW20149   4.568   3.075   6.847
 6417SOL    HW120150   4.579   3.167   6.811
 6417SOL    HW220151   4.472   3.046   6.838
 6418SOL     OW20152   4.960   5.083   0.471
 6418SOL    HW120153   5.044   5.076   0.526
 6418SOL    HW220154   4.984   5.081   0.374
 6419SOL     OW20155   0.990   6.736   6.959
 6419SOL    HW120156   1.036   6.738   6.871
 6419SOL    HW220157   0.940   6.650   6.969
 6420SOL     OW20158   2.495   4.639   3.725
 6420SOL    HW120159   2.422   4.658   3.791
 6420SOL    HW220160   2.584   4.647   3.770
 6421SOL     OW20161   4.773   0.080   1.828
 6421SOL    HW120162   4.677   0.072   1.802
 6421SOL    HW220163   4.782   0.144   1.904
 6422SOL     OW20164   0.003   2.792   4.592
 6422SOL    HW120165   0.063   2.713   4.601
 6422SOL    HW220166   0.035   2.850   4.517
 6423SOL     OW20167   1.109   4.248   5.156
 6423SOL    HW120168   1.095   4.160   5.202
 6423SOL    HW220169   1.045   4.256   5.079
 6424SOL     OW20170   6.817   4.257   6.147
 6424SOL    HW120171   6.787   4.293   6.235
 6424SOL    HW220172   6.829   4.157   6.154
 6425SOL     OW20173   0.175   6.376   4.264
 6425SOL    HW120174   0.271   6.372   4.238
 6425SOL    HW220175   0.120   6.402   4.184
 6426SOL     OW20176   4.786   5.223   4.312
 6426SOL    HW120177   4.774   5.171   4.397
 6426SOL    HW220178   4.697   5.252   4.277
 6427SOL     OW20179   4.151   3.483   3.495
 6427SOL    HW120180   4.078   3.418   3.473
 6427SOL    HW220181   4.239   3.436   3.497
 6428SOL     OW20182   5.620   3.164   0.270
 6428SOL    HW120183   5.561   3.193   0.346
 6428SOL    HW220184   5.575   3.090   0.220
 6429SOL     OW20185   2.344   1.617   5.815
 6429SOL    HW120186   2.383   1.558   5.885
 6429SOL    HW220187   2.273   1.675   5.855
 6430SOL     OW20188   5.749   1.366   4.979
 6430SOL    HW120189   5.675   1.411   4.928
 6430SOL    HW220190   5.837   1.402   4.947
 6431SOL     OW20191   3.433   5.376   2.305
 6431SOL    HW120192   3.358   5.390   2.369
 6431SOL    HW220193   3.423   5.287   2.260
 6432SOL     OW20194   4.779   2.964   5.792
 6432SOL    HW120195   4.782   2.926   5.884
 6432SOL    HW220196   4.782   2.890   5.725
 6433SOL     OW20197   3.518   5.323   5.937
 6433SOL    HW120198   3.564   5.411   5.948
 6433SOL    HW220199   3.585   5.253   5.910
 6434SOL     OW20200   5.628   5.229   5.887
 6434SOL    HW120201   5.562   5.276   5.827
 6434SOL    HW220202   5.582   5.155   5.935
 6435SOL     OW20203   4.689   1.311   0.961
 6435SOL    HW120204   4.714   1.262   0.878
 6435SOL    HW220205   4.708   1.409   0.949
 6436SOL     OW20206   0.336   3.583   3.694
 6436SOL    HW120207   0.420   3.614   3.649
 6436SOL    HW220208   0.328   3.484   3.685
 6437SOL     OW20209   1.571   2.669   6.140
 6437SOL    HW120210   1.473   2.667   6.161
 6437SOL    HW220211   1.593   2.599   6.072
 6438SOL     OW20212   0.715   5.206   0.602
 6438SOL    HW120213   0.709   5.208   0.702
 6438SOL    HW220214   0.628   5.175   0.564
 6439SOL     OW20215   5.514   6.798   2.563
 6439SOL    HW120216   5.545   6.715   2.517
 6439SOL    HW220217   5.518   6.875   2.499
 6440SOL     OW20218   2.413   1.876   6.167
 6440SOL    HW120219   2.333   1.817   6.173
 6440SOL    HW220220   2.496   1.822   6.182
 6441SOL     OW20221   0.318   2.227   1.969
 6441SOL    HW120222   0.382   2.304   1.981
 6441SOL    HW220223   0.369   2.146   1.940
 6442SOL     OW20224   2.619   2.173   4.605
 6442SOL    HW120225   2.563   2.229   4.542
 6442SOL    HW220226   2.666   2.233   4.669
 6443SOL     OW20227   3.698   3.221   6.540
 6443SOL    HW120228   3.630   3.221   6.467
 6443SOL    HW220229   3.684   3.302   6.598
 6444SOL     OW20230   0.054   4.052   4.910
 6444SOL    HW120231   0.000   4.032   4.828
 6444SOL    HW220232   0.138   4.100   4.884
 6445SOL     OW20233   3.917   3.087   3.232
 6445SOL    HW120234   3.838   3.043   3.275
 6445SOL    HW220235   3.893   3.117   3.140
 6446SOL     OW20236   1.389   0.949   0.296
 6446SOL    HW120237   1.444   0.944   0.380
 6446SOL    HW220238   1.361   0.857   0.269
 6447SOL     OW20239   5.873   3.959   1.746
 6447SOL    HW120240   5.816   4.014   1.807
 6447SOL    HW220241   5.931   3.898   1.800
 6448SOL     OW20242   4.285   4.621   1.098
 6448SOL    HW120243   4.256   4.716   1.111
 6448SOL    HW220244   4.266   4.593   1.004
 6449SOL     OW20245   3.784   5.322   0.483
 6449SOL    HW120246   3.751   5.301   0.391
 6449SOL    HW220247   3.730   5.396   0.522
 6450SOL     OW20248   5.977   3.659   6.919
 6450SOL    HW120249   5.997   3.570   6.960
 6450SOL    HW220250   6.054   3.687   6.862
 6451SOL     OW20251   4.281   2.697   1.692
 6451SOL    HW120252   4.207   2.747   1.736
 6451SOL    HW220253   4.337   2.761   1.639
 6452SOL     OW20254   4.111   1.938   5.367
 6452SOL    HW120255   4.141   1.998   5.441
 6452SOL    HW220256   4.091   1.994   5.286
 6453SOL     OW20257   2.296   0.320   2.872
 6453SOL    HW120258   2.243   0.312   2.957
 6453SOL    HW220259   2.234   0.332   2.795
 6454SOL     OW20260   5.172   2.765   4.415
 6454SOL    HW120261   5.172   2.846   4.474
 6454SOL    HW220262   5.085   2.717   4.423
 6455SOL     OW20263   6.942   2.834   3.992
 6455SOL    HW120264   7.004   2.756   3.993
 6455SOL    HW220265   6.880   2.828   4.071
 6456SOL     OW20266   6.417   2.087   2.350
 6456SOL    HW120267   6.469   2.099   2.434
 6456SOL    HW220268   6.341   2.153   2.348
 6457SOL     OW20269   2.518   6.304   2.543
 6457SOL    HW120270   2.456   6.347   2.478
 6457SOL    HW220271   2.478   6.219   2.577
 6458SOL     OW20272   0.051   0.091   4.390
 6458SOL    HW120273   0.033   0.129   4.300
 6458SOL    HW220274   0.030   0.160   4.460
 6459SOL     OW20275   0.195   3.110   3.193
 6459SOL    HW120276   0.279   3.059   3.213
 6459SOL    HW220277   0.166   3.160   3.275
 6460SOL     OW20278   1.450   5.208   6.488
 6460SOL    HW120279   1.498   5.146   6.426
 6460SOL    HW220280   1.502   5.216   6.573
 6461SOL     OW20281   0.606   6.380   0.922
 6461SOL    HW120282   0.691   6.430   0.940
 6461SOL    HW220283   0.627   6.291   0.883
 6462SOL     OW20284   1.922   3.796   5.109
 6462SOL    HW120285   1.950   3.723   5.171
 6462SOL    HW220286   1.978   3.877   5.126
 6463SOL     OW20287   4.956   2.858   0.983
 6463SOL    HW120288   4.927   2.949   1.013
 6463SOL    HW220289   4.897   2.826   0.909
 6464SOL     OW20290   0.681   3.870   3.684
 6464SOL    HW120291   0.774   3.862   3.648
 6464SOL    HW220292   0.678   3.833   3.777
 6465SOL     OW20293   2.742   1.022   3.729
 6465SOL    HW120294   2.703   1.041   3.818
 6465SOL    HW220295   2.741   1.105   3.673
 6466SOL     OW20296   6.609   5.198   6.514
 6466SOL    HW120297   6.695   5.219   6.562
 6466SOL    HW220298   6.534   5.249   6.556
 6467SOL     OW20299   2.187   2.618   6.359
 6467SOL    HW120300   2.199   2.605   6.457
 6467SOL    HW220301   2.097   2.585   6.332
 6468SOL     OW20302   1.418   0.523   1.264
 6468SOL    HW120303   1.478   0.444   1.248
 6468SOL    HW220304   1.451   0.575   1.342
 6469SOL     OW20305   1.939   1.226   1.519
 6469SOL    HW120306   2.038   1.216   1.512
 6469SOL    HW220307   1.910   1.310   1.473
 6470SOL     OW20308   6.249   1.626   6.981
 6470SOL    HW120309   6.159   1.640   0.005
 6470SOL    HW220310   6.314   1.599   0.034
 6471SOL     OW20311   0.121   6.248   5.906
 6471SOL    HW120312   0.219   6.234   5.921
 6471SOL    HW220313   0.074   6.256   5.994
 6472SOL     OW20314   6.958   6.005   2.322
 6472SOL    HW120315   6.962   5.939   2.397
 6472SOL    HW220316   6.960   6.098   2.360
 6473SOL     OW20317   2.883   0.831   3.510
 6473SOL    HW120318   2.840   0.918   3.534
 6473SOL    HW220319   2.965   0.818   3.565
 6474SOL     OW20320   3.368   6.759   3.910
 6474SOL    HW120321   3.388   6.804   3.823
 6474SOL    HW220322   3.385   6.822   3.986
 6475SOL     OW20323   5.629   5.707   3.034
 6475SOL    HW120324   5.659   5.746   3.121
 6475SOL    HW220325   5.616   5.781   2.967
 6476SOL     OW20326   4.597   3.409   6.129
 6476SOL    HW120327   4.629   3.439   6.039
 6476SOL    HW220328   4.545   3.483   6.173
 6477SOL     OW20329   0.636   6.518   0.595
 6477SOL    HW120330   0.700   6.443   0.610
 6477SOL    HW220331   0.557   6.508   0.656
 6478SOL     OW20332   1.653   6.223   1.242
 6478SOL    HW120333   1.657   6.128   1.212
 6478SOL    HW220334   1.618   6.227   1.336
 6479SOL     OW20335   4.743   5.994   3.583
 6479SOL    HW120336   4.717   6.089   3.600
 6479SOL    HW220337   4.839   5.980   3.607
 6480SOL     OW20338   3.503   1.661   5.795
 6480SOL    HW120339   3.483   1.565   5.775
 6480SOL    HW220340   3.522   1.709   5.710
 6481SOL     OW20341   4.203   3.221   1.965
 6481SOL    HW120342   4.284   3.171   1.994
 6481SOL    HW220343   4.207   3.237   1.866
 6482SOL     OW20344   4.686   3.164   5.480
 6482SOL    HW120345   4.785   3.160   5.496
 6482SOL    HW220346   4.667   3.235   5.413
 6483SOL     OW20347   2.028   5.543   5.386
 6483SOL    HW120348   1.964   5.619   5.396
 6483SOL    HW220349   2.121   5.579   5.379
 6484SOL     OW20350   4.378   1.542   3.761
 6484SOL    HW120351   4.472   1.577   3.757
 6484SOL    HW220352   4.368   1.482   3.840
 6485SOL     OW20353   2.188   5.110   5.334
 6485SOL    HW120354   2.200   5.096   5.236
 6485SOL    HW220355   2.103   5.161   5.351
 6486SOL     OW20356   6.994   4.643   2.365
 6486SOL    HW120357   0.036   4.715   2.400
 6486SOL    HW220358   0.032   4.566   2.333
 6487SOL     OW20359   6.464   5.124   3.680
 6487SOL    HW120360   6.448   5.197   3.747
 6487SOL    HW220361   6.548   5.142   3.630
 6488SOL     OW20362   3.682   5.219   3.885
 6488SOL    HW120363   3.683   5.264   3.974
 6488SOL    HW220364   3.587   5.201   3.858
 6489SOL     OW20365   6.176   3.165   5.051
 6489SOL    HW120366   6.196   3.184   5.148
 6489SOL    HW220367   6.097   3.219   5.022
 6490SOL     OW20368   2.202   2.468   0.430
 6490SOL    HW120369   2.274   2.458   0.499
 6490SOL    HW220370   2.209   2.395   0.363
 6491SOL     OW20371   1.385   6.997   1.656
 6491SOL    HW120372   1.482   6.975   1.669
 6491SOL    HW220373   1.343   7.017   1.744
 6492SOL     OW20374   3.953   3.889   4.056
 6492SOL    HW120375   3.987   3.799   4.030
 6492SOL    HW220376   3.952   3.949   3.976
 6493SOL     OW20377   1.279   4.805   3.779
 6493SOL    HW120378   1.305   4.782   3.685
 6493SOL    HW220379   1.213   4.881   3.779
 6494SOL     OW20380   6.540   0.750   0.948
 6494SOL    HW120381   6.574   0.661   0.918
 6494SOL    HW220382   6.441   0.754   0.933
 6495SOL     OW20383   6.920   0.318   3.431
 6495SOL    HW120384   6.963   0.359   3.511
 6495SOL    HW220385   6.834   0.275   3.458
 6496SOL     OW20386   3.373   2.053   1.732
 6496SOL    HW120387   3.381   2.150   1.711
 6496SOL    HW220388   3.463   2.015   1.750
 6497SOL     OW20389   0.431   1.517   0.674
 6497SOL    HW120390   0.461   1.612   0.668
 6497SOL    HW220391   0.449   1.482   0.766
 6498SOL     OW20392   2.241   4.335   4.676
 6498SOL    HW120393   2.299   4.364   4.752
 6498SOL    HW220394   2.145   4.340   4.703
 6499SOL     OW20395   4.776   2.171   3.078
 6499SOL    HW120396   4.776   2.074   3.104
 6499SOL    HW220397   4.839   2.221   3.138
 6500SOL     OW20398   1.192   3.564   3.265
 6500SOL    HW120399   1.266   3.612   3.312
 6500SOL    HW220400   1.207   3.466   3.270
 6501SOL     OW20401   6.404   0.909   2.834
 6501SOL    HW120402   6.355   0.886   2.918
 6501SOL    HW220403   6.499   0.931   2.855
 6502SOL     OW20404   0.875   3.232   1.670
 6502SOL    HW120405   0.955   3.212   1.613
 6502SOL    HW220406   0.902   3.233   1.766
 6503SOL     OW20407   6.949   2.865   5.792
 6503SOL    HW120408   6.892   2.944   5.817
 6503SOL    HW220409   6.911   2.783   5.836
 6504SOL     OW20410   3.310   6.845   6.075
 6504SOL    HW120411   3.410   6.841   6.080
 6504SOL    HW220412   3.278   6.781   6.005
 6505SOL     OW20413   0.196   6.852   1.012
 6505SOL    HW120414   0.183   6.753   1.005
 6505SOL    HW220415   0.110   6.899   0.992
 6506SOL     OW20416   0.365   3.797   1.935
 6506SOL    HW120417   0.356   3.705   1.898
 6506SOL    HW220418   0.462   3.820   1.945
 6507SOL     OW20419   3.891   5.729   0.927
 6507SOL    HW120420   3.887   5.645   0.981
 6507SOL    HW220421   3.854   5.711   0.836
 6508SOL     OW20422   6.698   0.608   3.758
 6508SOL    HW120423   6.686   0.644   3.851
 6508SOL    HW220424   6.733   0.514   3.763
 6509SOL     OW20425   2.448   1.654   0.197
 6509SOL    HW120426   2.368   1.674   0.253
 6509SOL    HW220427   2.448   1.556   0.173
 6510SOL     OW20428   3.308   5.294   4.843
 6510SOL    HW120429   3.269   5.271   4.754
 6510SOL    HW220430   3.395   5.341   4.829
 6511SOL     OW20431   2.863   2.084   0.472
 6511SOL    HW120432   2.833   1.991   0.493
 6511SOL    HW220433   2.866   2.096   0.373
 6512SOL     OW20434   5.017   0.817   0.324
 6512SOL    HW120435   5.115   0.830   0.334
 6512SOL    HW220436   4.998   0.761   0.244
 6513SOL     OW20437   2.743   4.737   3.006
 6513SOL    HW120438   2.652   4.706   2.978
 6513SOL    HW220439   2.747   4.744   3.106
 6514SOL     OW20440   5.073   5.992   5.184
 6514SOL    HW120441   5.066   5.949   5.094
 6514SOL    HW220442   5.084   6.090   5.173
 6515SOL     OW20443   0.499   4.872   2.614
 6515SOL    HW120444   0.531   4.868   2.520
 6515SOL    HW220445   0.501   4.966   2.646
 6516SOL     OW20446   6.118   2.319   2.733
 6516SOL    HW120447   6.039   2.294   2.678
 6516SOL    HW220448   6.173   2.237   2.752
 6517SOL     OW20449   6.228   3.903   0.567
 6517SOL    HW120450   6.295   3.885   0.638
 6517SOL    HW220451   6.153   3.838   0.574
 6518SOL     OW20452   0.852   1.064   2.146
 6518SOL    HW120453   0.844   1.142   2.208
 6518SOL    HW220454   0.937   1.072   2.093
 6519SOL     OW20455   1.340   1.022   3.476
 6519SOL    HW120456   1.435   0.998   3.461
 6519SOL    HW220457   1.329   1.121   3.469
 6520SOL     OW20458   6.523   5.585   0.033
 6520SOL    HW120459   6.436   5.629   0.057
 6520SOL    HW220460   6.589   5.597   0.108
 6521SOL     OW20461   1.596   5.014   4.431
 6521SOL    HW120462   1.674   4.973   4.383
 6521SOL    HW220463   1.630   5.070   4.507
 6522SOL     OW20464   2.666   2.945   5.350
 6522SOL    HW120465   2.661   2.846   5.338
 6522SOL    HW220466   2.598   2.989   5.291
 6523SOL     OW20467   5.994   6.569   0.978
 6523SOL    HW120468   5.989   6.665   0.949
 6523SOL    HW220469   6.067   6.558   1.045
 6524SOL     OW20470   3.243   2.782   1.360
 6524SOL    HW120471   3.311   2.760   1.289
 6524SOL    HW220472   3.170   2.837   1.320
 6525SOL     OW20473   1.621   4.934   3.706
 6525SOL    HW120474   1.707   4.985   3.701
 6525SOL    HW220475   1.640   4.839   3.728
 6526SOL     OW20476   6.719   6.815   0.777
 6526SOL    HW120477   6.690   6.736   0.722
 6526SOL    HW220478   6.640   6.853   0.825
 6527SOL     OW20479   5.649   1.450   1.057
 6527SOL    HW120480   5.594   1.524   1.094
 6527SOL    HW220481   5.613   1.421   0.968
 6528SOL     OW20482   4.433   6.848   0.402
 6528SOL    HW120483   4.401   6.942   0.407
 6528SOL    HW220484   4.533   6.847   0.401
 6529SOL     OW20485   4.745   0.378   1.945
 6529SOL    HW120486   4.692   0.373   1.861
 6529SOL    HW220487   4.725   0.463   1.993
 6530SOL     OW20488   0.601   2.408   3.373
 6530SOL    HW120489   0.520   2.443   3.419
 6530SOL    HW220490   0.581   2.318   3.334
 6531SOL     OW20491   3.725   3.800   3.838
 6531SOL    HW120492   3.744   3.709   3.802
 6531SOL    HW220493   3.687   3.792   3.930
 6532SOL     OW20494   0.813   6.320   0.583
 6532SOL    HW120495   0.878   6.249   0.553
 6532SOL    HW220496   0.864   6.402   0.610
 6533SOL     OW20497   4.527   4.498   1.235
 6533SOL    HW120498   4.485   4.540   1.315
 6533SOL    HW220499   4.459   4.489   1.162
 6534SOL     OW20500   0.204   4.354   3.751
 6534SOL    HW120501   0.133   4.343   3.820
 6534SOL    HW220502   0.231   4.450   3.745
 6535SOL     OW20503   5.346   4.331   5.492
 6535SOL    HW120504   5.311   4.259   5.552
 6535SOL    HW220505   5.402   4.290   5.420
 6536SOL     OW20506   0.296   4.865   5.916
 6536SOL    HW120507   0.249   4.803   5.980
 6536SOL    HW220508   0.327   4.813   5.836
 6537SOL     OW20509   0.034   5.382   3.894
 6537SOL    HW120510   0.023   5.313   3.966
 6537SOL    HW220511   0.005   5.343   3.807
 6538SOL     OW20512   0.937   2.889   4.074
 6538SOL    HW120513   0.860   2.928   4.123
 6538SOL    HW220514   0.916   2.794   4.049
 6539SOL     OW20515   4.485   6.455   6.643
 6539SOL    HW120516   4.535   6.542   6.644
 6539SOL    HW220517   4.413   6.458   6.574
 6540SOL     OW20518   0.312   2.703   5.309
 6540SOL    HW120519   0.226   2.749   5.330
 6540SOL    HW220520   0.379   2.770   5.277
 6541SOL     OW20521   4.403   1.413   5.263
 6541SOL    HW120522   4.501   1.419   5.245
 6541SOL    HW220523   4.388   1.392   5.359
 6542SOL     OW20524   1.729   4.121   2.410
 6542SOL    HW120525   1.701   4.061   2.335
 6542SOL    HW220526   1.648   4.147   2.463
 6543SOL     OW20527   4.013   1.318   4.560
 6543SOL    HW120528   3.983   1.334   4.654
 6543SOL    HW220529   4.087   1.250   4.560
 6544SOL     OW20530   0.215   0.189   0.452
 6544SOL    HW120531   0.155   0.261   0.415
 6544SOL    HW220532   0.310   0.215   0.440
 6545SOL     OW20533   4.762   6.052   1.163
 6545SOL    HW120534   4.806   5.962   1.156
 6545SOL    HW220535   4.670   6.048   1.125
 6546SOL     OW20536   4.851   5.470   5.622
 6546SOL    HW120537   4.792   5.394   5.593
 6546SOL    HW220538   4.812   5.556   5.589
 6547SOL     OW20539   0.843   6.194   5.314
 6547SOL    HW120540   0.866   6.200   5.217
 6547SOL    HW220541   0.760   6.139   5.325
 6548SOL     OW20542   1.227   1.703   6.038
 6548SOL    HW120543   1.140   1.749   6.021
 6548SOL    HW220544   1.292   1.767   6.077
 6549SOL     OW20545   3.574   1.794   2.764
 6549SOL    HW120546   3.546   1.804   2.669
 6549SOL    HW220547   3.673   1.799   2.771
 6550SOL     OW20548   6.003   6.464   1.952
 6550SOL    HW120549   5.977   6.560   1.957
 6550SOL    HW220550   5.921   6.407   1.955
 6551SOL     OW20551   3.200   5.042   0.581
 6551SOL    HW120552   3.196   5.126   0.526
 6551SOL    HW220553   3.119   5.036   0.639
 6552SOL     OW20554   2.230   4.304   0.212
 6552SOL    HW120555   2.232   4.277   0.308
 6552SOL    HW220556   2.271   4.394   0.201
 6553SOL     OW20557   0.600   1.908   3.773
 6553SOL    HW120558   0.509   1.949   3.776
 6553SOL    HW220559   0.659   1.961   3.712
 6554SOL     OW20560   1.662   2.552   3.826
 6554SOL    HW120561   1.717   2.594   3.754
 6554SOL    HW220562   1.573   2.597   3.830
 6555SOL     OW20563   1.851   3.309   4.356
 6555SOL    HW120564   1.791   3.258   4.294
 6555SOL    HW220565   1.937   3.330   4.310
 6556SOL     OW20566   4.791   3.067   2.776
 6556SOL    HW120567   4.743   3.001   2.718
 6556SOL    HW220568   4.728   3.103   2.844
 6557SOL     OW20569   2.264   1.009   2.381
 6557SOL    HW120570   2.168   0.991   2.361
 6557SOL    HW220571   2.276   1.105   2.404
 6558SOL     OW20572   5.525   5.965   0.973
 6558SOL    HW120573   5.579   6.034   0.926
 6558SOL    HW220574   5.585   5.892   1.006
 6559SOL     OW20575   6.886   2.237   6.306
 6559SOL    HW120576   6.954   2.291   6.356
 6559SOL    HW220577   6.864   2.155   6.359
 6560SOL     OW20578   6.448   4.364   6.770
 6560SOL    HW120579   6.392   4.431   6.817
 6560SOL    HW220580   6.389   4.292   6.732
 6561SOL     OW20581   2.525   4.802   0.718
 6561SOL    HW120582   2.564   4.730   0.775
 6561SOL    HW220583   2.434   4.826   0.751
 6562SOL     OW20584   4.809   2.657   1.608
 6562SOL    HW120585   4.757   2.693   1.685
 6562SOL    HW220586   4.766   2.687   1.522
 6563SOL     OW20587   6.462   5.201   5.343
 6563SOL    HW120588   6.410   5.166   5.265
 6563SOL    HW220589   6.455   5.136   5.419
 6564SOL     OW20590   5.443   3.217   2.234
 6564SOL    HW120591   5.508   3.143   2.251
 6564SOL    HW220592   5.350   3.184   2.252
 6565SOL     OW20593   5.159   6.750   2.624
 6565SOL    HW120594   5.109   6.764   2.709
 6565SOL    HW220595   5.232   6.684   2.639
 6566SOL     OW20596   5.407   5.500   3.748
 6566SOL    HW120597   5.428   5.513   3.651
 6566SOL    HW220598   5.468   5.558   3.803
 6567SOL     OW20599   3.499   0.499   2.538
 6567SOL    HW120600   3.556   0.436   2.590
 6567SOL    HW220601   3.523   0.593   2.562
 6568SOL     OW20602   5.001   0.883   0.830
 6568SOL    HW120603   5.023   0.900   0.734
 6568SOL    HW220604   4.983   0.786   0.844
 6569SOL     OW20605   1.158   4.690   4.000
 6569SOL    HW120606   1.207   4.731   3.924
 6569SOL    HW220607   1.199   4.719   4.086
 6570SOL     OW20608   4.344   0.224   2.234
 6570SOL    HW120609   4.386   0.288   2.170
 6570SOL    HW220610   4.341   0.265   2.325
 6571SOL     OW20611   2.526   6.746   3.200
 6571SOL    HW120612   2.619   6.752   3.237
 6571SOL    HW220613   2.461   6.742   3.276
 6572SOL     OW20614   1.788   6.258   3.999
 6572SOL    HW120615   1.819   6.305   4.082
 6572SOL    HW220616   1.757   6.325   3.932
 6573SOL     OW20617   0.022   2.333   3.054
 6573SOL    HW120618   7.004   2.256   3.107
 6573SOL    HW220619   0.107   2.305   3.009
 6574SOL     OW20620   1.304   4.748   2.326
 6574SOL    HW120621   1.376   4.817   2.332
 6574SOL    HW220622   1.292   4.705   2.415
 6575SOL     OW20623   6.731   1.926   3.541
 6575SOL    HW120624   6.729   1.997   3.612
 6575SOL    HW220625   6.724   1.969   3.451
 6576SOL     OW20626   3.809   0.030   1.479
 6576SOL    HW120627   3.811   0.058   1.575
 6576SOL    HW220628   3.723   0.059   1.437
 6577SOL     OW20629   3.606   0.955   4.771
 6577SOL    HW120630   3.516   0.932   4.734
 6577SOL    HW220631   3.595   1.021   4.845
 6578SOL     OW20632   1.390   4.868   0.823
 6578SOL    HW120633   1.365   4.876   0.920
 6578SOL    HW220634   1.474   4.919   0.806
 6579SOL     OW20635   1.392   1.520   3.863
 6579SOL    HW120636   1.400   1.488   3.958
 6579SOL    HW220637   1.432   1.452   3.802
 6580SOL     OW20638   2.688   2.072   0.217
 6580SOL    HW120639   2.736   1.985   0.227
 6580SOL    HW220640   2.622   2.065   0.142
 6581SOL     OW20641   0.500   1.725   1.371
 6581SOL    HW120642   0.415   1.682   1.400
 6581SOL    HW220643   0.495   1.823   1.385
 6582SOL     OW20644   5.094   0.755   3.072
 6582SOL    HW120645   5.072   0.708   3.158
 6582SOL    HW220646   5.179   0.718   3.034
 6583SOL     OW20647   2.994   4.428   0.802
 6583SOL    HW120648   2.995   4.445   0.901
 6583SOL    HW220649   3.046   4.500   0.756
 6584SOL     OW20650   4.067   2.607   6.254
 6584SOL    HW120651   4.159   2.569   6.251
 6584SOL    HW220652   4.009   2.550   6.313
 6585SOL     OW20653   5.324   0.264   1.718
 6585SOL    HW120654   5.267   0.193   1.758
 6585SOL    HW220655   5.323   0.255   1.618
 6586SOL     OW20656   6.721   1.020   6.306
 6586SOL    HW120657   6.805   1.049   6.352
 6586SOL    HW220658   6.677   0.948   6.360
 6587SOL     OW20659   3.010   5.115   4.645
 6587SOL    HW120660   2.959   5.098   4.729
 6587SOL    HW220661   2.998   5.211   4.617
 6588SOL     OW20662   1.264   1.962   0.282
 6588SOL    HW120663   1.335   1.998   0.222
 6588SOL    HW220664   1.198   2.034   0.303
 6589SOL     OW20665   6.447   6.236   1.829
 6589SOL    HW120666   6.538   6.205   1.800
 6589SOL    HW220667   6.456   6.323   1.879
 6590SOL     OW20668   1.216   6.359   4.641
 6590SOL    HW120669   1.291   6.292   4.638
 6590SOL    HW220670   1.241   6.440   4.589
 6591SOL     OW20671   6.366   3.276   3.683
 6591SOL    HW120672   6.394   3.189   3.724
 6591SOL    HW220673   6.443   3.340   3.684
 6592SOL     OW20674   6.660   0.412   4.127
 6592SOL    HW120675   6.571   0.387   4.089
 6592SOL    HW220676   6.650   0.433   4.224
 6593SOL     OW20677   2.374   1.271   2.363
 6593SOL    HW120678   2.299   1.256   2.298
 6593SOL    HW220679   2.404   1.367   2.356
 6594SOL     OW20680   5.272   0.161   0.103
 6594SOL    HW120681   5.333   0.089   0.071
 6594SOL    HW220682   5.286   0.176   0.201
 6595SOL     OW20683   0.540   1.840   4.946
 6595SOL    HW120684   0.525   1.801   4.856
 6595SOL    HW220685   0.626   1.891   4.947
 6596SOL     OW20686   5.078   1.397   2.400
 6596SOL    HW120687   5.068   1.481   2.453
 6596SOL    HW220688   5.025   1.324   2.443
 6597SOL     OW20689   1.028   4.372   0.924
 6597SOL    HW120690   1.120   4.363   0.962
 6597SOL    HW220691   1.034   4.397   0.827
 6598SOL     OW20692   1.511   5.280   3.195
 6598SOL    HW120693   1.531   5.282   3.293
 6598SOL    HW220694   1.414   5.261   3.181
 6599SOL     OW20695   0.411   5.749   6.358
 6599SOL    HW120696   0.425   5.681   6.285
 6599SOL    HW220697   0.443   5.838   6.326
 6600SOL     OW20698   4.906   6.434   4.696
 6600SOL    HW120699   4.874   6.385   4.615
 6600SOL    HW220700   4.858   6.521   4.703
 6601SOL     OW20701   1.389   2.777   1.844
 6601SOL    HW120702   1.372   2.694   1.898
 6601SOL    HW220703   1.376   2.857   1.902
 6602SOL     OW20704   6.715   5.334   1.260
 6602SOL    HW120705   6.787   5.400   1.239
 6602SOL    HW220706   6.732   5.249   1.210
 6603SOL     OW20707   0.373   4.290   2.263
 6603SOL    HW120708   0.389   4.252   2.355
 6603SOL    HW220709   0.446   4.354   2.240
 6604SOL     OW20710   1.411   5.741   3.035
 6604SOL    HW120711   1.483   5.777   3.094
 6604SOL    HW220712   1.449   5.667   2.978
 6605SOL     OW20713   0.043   5.315   1.332
 6605SOL    HW120714   0.015   5.228   1.373
 6605SOL    HW220715   0.112   5.298   1.261
 6606SOL     OW20716   1.501   4.021   2.787
 6606SOL    HW120717   1.545   3.975   2.864
 6606SOL    HW220718   1.566   4.083   2.744
 6607SOL     OW20719   6.091   3.167   4.148
 6607SOL    HW120720   6.128   3.090   4.200
 6607SOL    HW220721   5.991   3.162   4.148
 6608SOL     OW20722   1.063   0.352   5.696
 6608SOL    HW120723   0.995   0.281   5.676
 6608SOL    HW220724   1.017   0.438   5.717
 6609SOL     OW20725   3.380   2.835   0.163
 6609SOL    HW120726   3.415   2.753   0.208
 6609SOL    HW220727   3.451   2.876   0.106
 6610SOL     OW20728   2.857   6.108   1.074
 6610SOL    HW120729   2.829   6.094   1.169
 6610SOL    HW220730   2.776   6.124   1.017
 6611SOL     OW20731   3.320   1.345   4.790
 6611SOL    HW120732   3.280   1.431   4.758
 6611SOL    HW220733   3.417   1.343   4.766
 6612SOL     OW20734   0.924   0.078   0.071
 6612SOL    HW120735   0.877   0.026   7.017
 6612SOL    HW220736   0.858   0.104   0.141
 6613SOL     OW20737   4.562   6.404   0.638
 6613SOL    HW120738   4.578   6.388   0.736
 6613SOL    HW220739   4.611   6.335   0.585
 6614SOL     OW20740   4.059   4.800   0.871
 6614SOL    HW120741   4.111   4.717   0.851
 6614SOL    HW220742   3.970   4.775   0.909
 6615SOL     OW20743   3.633   5.546   6.020
 6615SOL    HW120744   3.560   5.582   6.078
 6615SOL    HW220745   3.721   5.575   6.057
 6616SOL     OW20746   4.137   1.186   0.100
 6616SOL    HW120747   4.139   1.285   0.088
 6616SOL    HW220748   4.214   1.158   0.158
 6617SOL     OW20749   3.459   0.921   3.584
 6617SOL    HW120750   3.524   0.950   3.655
 6617SOL    HW220751   3.393   0.994   3.567
 6618SOL     OW20752   5.902   2.585   4.185
 6618SOL    HW120753   5.817   2.556   4.230
 6618SOL    HW220754   5.908   2.685   4.185
 6619SOL     OW20755   4.926   5.015   3.912
 6619SOL    HW120756   4.882   4.928   3.932
 6619SOL    HW220757   4.948   5.062   3.998
 6620SOL     OW20758   0.930   2.624   3.323
 6620SOL    HW120759   0.930   2.724   3.325
 6620SOL    HW220760   0.982   2.592   3.244
 6621SOL     OW20761   2.942   3.308   3.869
 6621SOL    HW120762   2.995   3.384   3.908
 6621SOL    HW220763   2.848   3.337   3.854
 6622SOL     OW20764   0.224   4.738   1.212
 6622SOL    HW120765   0.282   4.819   1.212
 6622SOL    HW220766   0.132   4.764   1.183
 6623SOL     OW20767   2.907   3.710   3.688
 6623SOL    HW120768   2.883   3.751   3.600
 6623SOL    HW220769   2.965   3.773   3.740
 6624SOL     OW20770   2.594   2.420   2.978
 6624SOL    HW120771   2.639   2.409   2.890
 6624SOL    HW220772   2.520   2.352   2.987
 6625SOL     OW20773   6.842   3.640   5.331
 6625SOL    HW120774   6.857   3.541   5.331
 6625SOL    HW220775   6.899   3.682   5.401
 6626SOL     OW20776   3.282   5.539   5.153
 6626SOL    HW120777   3.323   5.619   5.196
 6626SOL    HW220778   3.354   5.482   5.113
 6627SOL     OW20779   2.458   5.950   4.342
 6627SOL    HW120780   2.469   5.883   4.416
 6627SOL    HW220781   2.405   5.910   4.268
 6628SOL     OW20782   3.997   0.057   3.088
 6628SOL    HW120783   3.937   0.129   3.054
 6628SOL    HW220784   3.943   7.001   3.128
 6629SOL     OW20785   4.510   5.553   4.961
 6629SOL    HW120786   4.546   5.507   4.880
 6629SOL    HW220787   4.418   5.519   4.981
 6630SOL     OW20788   1.680   0.589   0.136
 6630SOL    HW120789   1.675   0.508   0.194
 6630SOL    HW220790   1.766   0.636   0.152
 6631SOL     OW20791   2.186   3.063   5.807
 6631SOL    HW120792   2.158   2.999   5.735
 6631SOL    HW220793   2.270   3.030   5.850
 6632SOL     OW20794   1.265   0.249   6.802
 6632SOL    HW120795   1.290   0.159   6.838
 6632SOL    HW220796   1.258   0.314   6.877
 6633SOL     OW20797   4.413   5.578   6.111
 6633SOL    HW120798   4.379   5.666   6.077
 6633SOL    HW220799   4.505   5.591   6.148
 6634SOL     OW20800   3.193   2.172   4.041
 6634SOL    HW120801   3.284   2.149   4.007
 6634SOL    HW220802   3.168   2.263   4.008
 6635SOL     OW20803   4.882   5.495   5.245
 6635SOL    HW120804   4.846   5.531   5.331
 6635SOL    HW220805   4.809   5.446   5.197
 6636SOL     OW20806   4.368   1.234   0.254
 6636SOL    HW120807   4.439   1.173   0.289
 6636SOL    HW220808   4.390   1.328   0.281
 6637SOL     OW20809   6.971   2.103   0.023
 6637SOL    HW120810   6.955   2.043   0.101
 6637SOL    HW220811   0.001   2.053   6.969
 6638SOL     OW20812   3.455   3.520   3.731
 6638SOL    HW120813   3.433   3.616   3.711
 6638SOL    HW220814   3.488   3.476   3.647
 6639SOL     OW20815   4.844   2.324   1.403
 6639SOL    HW120816   4.941   2.306   1.386
 6639SOL    HW220817   4.833   2.365   1.494
 6640SOL     OW20818   1.528   4.261   5.276
 6640SOL    HW120819   1.435   4.296   5.290
 6640SOL    HW220820   1.547   4.189   5.342
 6641SOL     OW20821   6.100   2.368   0.395
 6641SOL    HW120822   6.194   2.350   0.365
 6641SOL    HW220823   6.102   2.425   0.477
 6642SOL     OW20824   1.062   5.684   6.882
 6642SOL    HW120825   1.143   5.627   6.882
 6642SOL    HW220826   0.984   5.631   6.848
 6643SOL     OW20827   3.457   5.962   6.046
 6643SOL    HW120828   3.416   5.905   6.117
 6643SOL    HW220829   3.504   6.040   6.088
 6644SOL     OW20830   2.306   0.075   4.044
 6644SOL    HW120831   2.283   0.059   4.140
 6644SOL    HW220832   2.263   0.159   4.013
 6645SOL     OW20833   5.044   2.673   6.085
 6645SOL    HW120834   5.071   2.578   6.100
 6645SOL    HW220835   5.032   2.719   6.173
 6646SOL     OW20836   4.430   6.993   4.989
 6646SOL    HW120837   4.460   0.069   4.975
 6646SOL    HW220838   4.360   6.990   5.060
 6647SOL     OW20839   3.866   4.929   0.251
 6647SOL    HW120840   3.908   4.927   0.342
 6647SOL    HW220841   3.767   4.944   0.260
 6648SOL     OW20842   3.076   5.452   5.282
 6648SOL    HW120843   3.149   5.495   5.229
 6648SOL    HW220844   3.049   5.366   5.238
 6649SOL     OW20845   4.316   2.926   6.133
 6649SOL    HW120846   4.357   2.838   6.156
 6649SOL    HW220847   4.388   2.990   6.105
 6650SOL     OW20848   1.890   1.185   5.401
 6650SOL    HW120849   1.955   1.109   5.399
 6650SOL    HW220850   1.940   1.271   5.411
 6651SOL     OW20851   6.960   1.662   5.512
 6651SOL    HW120852   6.917   1.727   5.450
 6651SOL    HW220853   0.028   1.700   5.546
 6652SOL     OW20854   6.964   4.370   0.179
 6652SOL    HW120855   6.999   4.379   0.086
 6652SOL    HW220856   0.017   4.394   0.245
 6653SOL     OW20857   5.809   4.313   6.631
 6653SOL    HW120858   5.827   4.225   6.587
 6653SOL    HW220859   5.769   4.299   6.721
 6654SOL     OW20860   6.384   2.886   2.891
 6654SOL    HW120861   6.323   2.848   2.960
 6654SOL    HW220862   6.479   2.878   2.921
 6655SOL     OW20863   0.073   6.091   1.711
 6655SOL    HW120864   0.016   6.166   1.746
 6655SOL    HW220865   0.028   6.004   1.728
 6656SOL     OW20866   4.330   0.865   2.723
 6656SOL    HW120867   4.255   0.810   2.687
 6656SOL    HW220868   4.311   0.890   2.818
 6657SOL     OW20869   5.517   1.420   4.835
 6657SOL    HW120870   5.428   1.444   4.873
 6657SOL    HW220871   5.504   1.368   4.751
 6658SOL     OW20872   6.844   5.721   5.211
 6658SOL    HW120873   6.744   5.731   5.216
 6658SOL    HW220874   6.873   5.724   5.115
 6659SOL     OW20875   0.610   5.740   1.148
 6659SOL    HW120876   0.599   5.642   1.133
 6659SOL    HW220877   0.545   5.770   1.218
 6660SOL     OW20878   0.262   0.529   4.803
 6660SOL    HW120879   0.178   0.584   4.801
 6660SOL    HW220880   0.254   0.460   4.874
 6661SOL     OW20881   4.148   5.810   3.725
 6661SOL    HW120882   4.187   5.802   3.817
 6661SOL    HW220883   4.052   5.836   3.731
 6662SOL     OW20884   3.342   6.461   2.389
 6662SOL    HW120885   3.298   6.401   2.322
 6662SOL    HW220886   3.401   6.408   2.448
 6663SOL     OW20887   1.304   4.323   5.709
 6663SOL    HW120888   1.400   4.319   5.737
 6663SOL    HW220889   1.276   4.419   5.702
 6664SOL     OW20890   3.343   0.288   1.785
 6664SOL    HW120891   3.431   0.254   1.751
 6664SOL    HW220892   3.277   0.293   1.710
 6665SOL     OW20893   2.651   0.390   6.977
 6665SOL    HW120894   2.680   0.469   6.921
 6665SOL    HW220895   2.707   0.311   6.953
 6666SOL     OW20896   3.382   6.328   5.380
 6666SOL    HW120897   3.425   6.238   5.383
 6666SOL    HW220898   3.382   6.368   5.472
 6667SOL     OW20899   1.642   5.912   6.384
 6667SOL    HW120900   1.631   5.818   6.352
 6667SOL    HW220901   1.555   5.946   6.420
 6668SOL     OW20902   6.801   4.143   0.205
 6668SOL    HW120903   6.770   4.118   0.113
 6668SOL    HW220904   6.851   4.229   0.201
 6669SOL     OW20905   1.458   2.240   3.387
 6669SOL    HW120906   1.500   2.218   3.299
 6669SOL    HW220907   1.513   2.309   3.434
 6670SOL     OW20908   3.292   3.699   0.523
 6670SOL    HW120909   3.295   3.730   0.428
 6670SOL    HW220910   3.270   3.776   0.583
 6671SOL     OW20911   4.706   4.902   0.142
 6671SOL    HW120912   4.708   4.997   0.173
 6671SOL    HW220913   4.661   4.845   0.210
 6672SOL     OW20914   1.126   2.049   0.977
 6672SOL    HW120915   1.162   1.986   0.908
 6672SOL    HW220916   1.200   2.078   1.037
 6673SOL     OW20917   6.444   2.728   4.058
 6673SOL    HW120918   6.420   2.772   3.971
 6673SOL    HW220919   6.365   2.679   4.094
 6674SOL     OW20920   6.938   0.694   0.622
 6674SOL    HW120921   6.923   0.790   0.643
 6674SOL    HW220922   6.955   0.684   0.524
 6675SOL     OW20923   5.127   0.377   0.448
 6675SOL    HW120924   5.066   0.361   0.370
 6675SOL    HW220925   5.212   0.325   0.435
 6676SOL     OW20926   0.617   3.862   4.741
 6676SOL    HW120927   0.642   3.766   4.731
 6676SOL    HW220928   0.529   3.868   4.788
 6677SOL     OW20929   0.440   1.742   6.201
 6677SOL    HW120930   0.493   1.704   6.125
 6677SOL    HW220931   0.405   1.667   6.258
 6678SOL     OW20932   2.818   4.271   6.392
 6678SOL    HW120933   2.792   4.362   6.359
 6678SOL    HW220934   2.896   4.280   6.454
 6679SOL     OW20935   1.549   0.699   3.753
 6679SOL    HW120936   1.594   0.659   3.833
 6679SOL    HW220937   1.477   0.638   3.721
 6680SOL     OW20938   6.348   5.380   1.344
 6680SOL    HW120939   6.440   5.415   1.326
 6680SOL    HW220940   6.284   5.418   1.277
 6681SOL     OW20941   2.820   5.710   1.352
 6681SOL    HW120942   2.732   5.673   1.382
 6681SOL    HW220943   2.820   5.810   1.363
 6682SOL     OW20944   3.146   5.252   6.256
 6682SOL    HW120945   3.058   5.263   6.210
 6682SOL    HW220946   3.141   5.176   6.321
 6683SOL     OW20947   6.929   5.251   5.764
 6683SOL    HW120948   6.952   5.326   5.701
 6683SOL    HW220949   6.983   5.260   5.847
 6684SOL     OW20950   2.863   5.429   6.961
 6684SOL    HW120951   2.791   5.375   6.916
 6684SOL    HW220952   2.938   5.369   6.987
 6685SOL     OW20953   4.806   2.731   0.776
 6685SOL    HW120954   4.707   2.731   0.759
 6685SOL    HW220955   4.851   2.789   0.708
 6686SOL     OW20956   4.960   4.961   5.018
 6686SOL    HW120957   4.862   4.954   5.040
 6686SOL    HW220958   5.006   4.876   5.043
 6687SOL     OW20959   0.276   1.383   1.477
 6687SOL    HW120960   0.205   1.323   1.514
 6687SOL    HW220961   0.235   1.467   1.442
 6688SOL     OW20962   4.429   5.717   0.359
 6688SOL    HW120963   4.497   5.644   0.353
 6688SOL    HW220964   4.436   5.761   0.449
 6689SOL     OW20965   3.306   4.487   5.354
 6689SOL    HW120966   3.383   4.428   5.331
 6689SOL    HW220967   3.290   4.484   5.453
 6690SOL     OW20968   0.587   1.075   0.233
 6690SOL    HW120969   0.644   0.993   0.244
 6690SOL    HW220970   0.630   1.151   0.282
 6691SOL     OW20971   2.777   1.362   2.419
 6691SOL    HW120972   2.866   1.408   2.427
 6691SOL    HW220973   2.719   1.389   2.496
 6692SOL     OW20974   4.247   6.030   2.545
 6692SOL    HW120975   4.240   6.127   2.522
 6692SOL    HW220976   4.227   6.017   2.642
 6693SOL     OW20977   3.245   0.844   5.527
 6693SOL    HW120978   3.202   0.894   5.602
 6693SOL    HW220979   3.344   0.850   5.536
 6694SOL     OW20980   4.337   4.142   1.422
 6694SOL    HW120981   4.319   4.057   1.471
 6694SOL    HW220982   4.262   4.161   1.358
 6695SOL     OW20983   2.488   2.620   0.422
 6695SOL    HW120984   2.497   2.604   0.324
 6695SOL    HW220985   2.464   2.535   0.468
 6696SOL     OW20986   3.978   3.165   4.753
 6696SOL    HW120987   4.019   3.214   4.677
 6696SOL    HW220988   3.884   3.198   4.767
 6697SOL     OW20989   4.332   2.010   1.852
 6697SOL    HW120990   4.325   2.051   1.761
 6697SOL    HW220991   4.307   2.078   1.921
 6698SOL     OW20992   3.569   4.167   1.441
 6698SOL    HW120993   3.523   4.200   1.524
 6698SOL    HW220994   3.619   4.083   1.461
 6699SOL     OW20995   1.196   3.193   5.721
 6699SOL    HW120996   1.291   3.189   5.690
 6699SOL    HW220997   1.191   3.159   5.815
 6700SOL     OW20998   5.658   0.060   1.111
 6700SOL    HW120999   5.654   0.033   1.015
 6700SOL    HW221000   5.726   0.004   1.159
 6701SOL     OW21001   6.035   6.732   1.696
 6701SOL    HW121002   5.978   6.740   1.778
 6701SOL    HW221003   6.071   6.822   1.672
 6702SOL     OW21004   3.715   3.085   1.017
 6702SOL    HW121005   3.707   3.011   1.084
 6702SOL    HW221006   3.650   3.069   0.943
 6703SOL     OW21007   0.185   1.365   0.129
 6703SOL    HW121008   0.101   1.316   0.107
 6703SOL    HW221009   0.240   1.311   0.192
 6704SOL     OW21010   3.066   0.086   5.240
 6704SOL    HW121011   3.042   0.154   5.309
 6704SOL    HW221012   3.016   0.001   5.258
 6705SOL     OW21013   0.074   4.403   2.302
 6705SOL    HW121014   7.014   4.349   2.272
 6705SOL    HW221015   0.148   4.342   2.332
 6706SOL     OW21016   0.449   6.959   1.118
 6706SOL    HW121017   0.441   0.041   1.108
 6706SOL    HW221018   0.358   6.919   1.128
 6707SOL     OW21019   4.031   1.289   2.507
 6707SOL    HW121020   4.072   1.300   2.597
 6707SOL    HW221021   4.023   1.378   2.462
 6708SOL     OW21022   0.475   3.009   6.854
 6708SOL    HW121023   0.451   3.086   6.913
 6708SOL    HW221024   0.566   3.024   6.815
 6709SOL     OW21025   2.302   4.267   2.275
 6709SOL    HW121026   2.322   4.317   2.191
 6709SOL    HW221027   2.278   4.172   2.253
 6710SOL     OW21028   4.684   1.672   0.396
 6710SOL    HW121029   4.612   1.646   0.460
 6710SOL    HW221030   4.675   1.768   0.371
 6711SOL     OW21031   3.723   5.988   5.883
 6711SOL    HW121032   3.768   5.909   5.925
 6711SOL    HW221033   3.632   5.999   5.922
 6712SOL     OW21034   5.213   4.535   1.291
 6712SOL    HW121035   5.220   4.625   1.248
 6712SOL    HW221036   5.145   4.538   1.364
 6713SOL     OW21037   1.315   4.840   4.681
 6713SOL    HW121038   1.403   4.792   4.676
 6713SOL    HW221039   1.262   4.805   4.758
 6714SOL     OW21040   5.567   1.179   1.882
 6714SOL    HW121041   5.630   1.103   1.901
 6714SOL    HW221042   5.475   1.142   1.869
 6715SOL     OW21043   1.641   0.190   6.272
 6715SOL    HW121044   1.578   0.114   6.259
 6715SOL    HW221045   1.600   0.257   6.335
 6716SOL     OW21046   0.612   5.746   2.046
 6716SOL    HW121047   0.580   5.836   2.015
 6716SOL    HW221048   0.660   5.757   2.134
 6717SOL     OW21049   5.878   2.119   6.057
 6717SOL    HW121050   5.952   2.061   6.091
 6717SOL    HW221051   5.887   2.131   5.958
 6718SOL     OW21052   4.882   1.530   0.852
 6718SOL    HW121053   4.884   1.579   0.765
 6718SOL    HW221054   4.938   1.578   0.919
 6719SOL     OW21055   1.900   1.709   6.922
 6719SOL    HW121056   1.967   1.640   6.949
 6719SOL    HW221057   1.833   1.668   6.861
 6720SOL     OW21058   1.746   0.905   6.138
 6720SOL    HW121059   1.718   0.936   6.228
 6720SOL    HW221060   1.718   0.972   6.069
 6721SOL     OW21061   6.396   6.904   1.415
 6721SOL    HW121062   6.404   6.820   1.469
 6721SOL    HW221063   6.378   6.981   1.476
 6722SOL     OW21064   5.501   3.955   0.271
 6722SOL    HW121065   5.431   3.890   0.301
 6722SOL    HW221066   5.559   3.911   0.202
 6723SOL     OW21067   1.688   3.267   5.411
 6723SOL    HW121068   1.631   3.291   5.333
 6723SOL    HW221069   1.775   3.230   5.379
 6724SOL     OW21070   2.016   3.907   4.350
 6724SOL    HW121071   2.054   3.915   4.443
 6724SOL    HW221072   2.035   3.816   4.315
 6725SOL     OW21073   5.145   3.015   3.835
 6725SOL    HW121074   5.149   2.958   3.916
 6725SOL    HW221075   5.056   3.061   3.829
 6726SOL     OW21076   0.578   0.930   6.032
 6726SOL    HW121077   0.673   0.941   6.061
 6726SOL    HW221078   0.540   1.019   6.008
 6727SOL     OW21079   1.255   5.149   5.848
 6727SOL    HW121080   1.191   5.163   5.773
 6727SOL    HW221081   1.339   5.201   5.831
 6728SOL     OW21082   3.770   1.426   3.580
 6728SOL    HW121083   3.841   1.357   3.577
 6728SOL    HW221084   3.760   1.468   3.489
 6729SOL     OW21085   3.870   0.905   2.135
 6729SOL    HW121086   3.867   1.001   2.159
 6729SOL    HW221087   3.906   0.852   2.212
 6730SOL     OW21088   6.645   1.854   0.366
 6730SOL    HW121089   6.707   1.882   0.439
 6730SOL    HW221090   6.559   1.821   0.406
 6731SOL     OW21091   4.389   0.559   6.217
 6731SOL    HW121092   4.311   0.613   6.184
 6731SOL    HW221093   4.393   0.472   6.169
 6732SOL     OW21094   6.788   4.854   5.621
 6732SOL    HW121095   6.818   4.777   5.677
 6732SOL    HW221096   6.866   4.911   5.598
 6733SOL     OW21097   4.690   4.899   5.090
 6733SOL    HW121098   4.649   4.892   4.999
 6733SOL    HW221099   4.653   4.978   5.138
 6734SOL     OW21100   5.820   2.007   4.710
 6734SOL    HW121101   5.740   2.029   4.766
 6734SOL    HW221102   5.789   1.974   4.620
 6735SOL     OW21103   5.939   2.285   3.770
 6735SOL    HW121104   5.963   2.286   3.867
 6735SOL    HW221105   5.976   2.203   3.727
 6736SOL     OW21106   3.833   3.655   0.623
 6736SOL    HW121107   3.885   3.685   0.543
 6736SOL    HW221108   3.882   3.581   0.669
 6737SOL     OW21109   6.413   3.646   0.534
 6737SOL    HW121110   6.402   3.547   0.546
 6737SOL    HW221111   6.436   3.688   0.622
 6738SOL     OW21112   1.947   5.955   4.130
 6738SOL    HW121113   2.044   5.977   4.116
 6738SOL    HW221114   1.916   5.993   4.216
 6739SOL     OW21115   6.849   0.301   5.552
 6739SOL    HW121116   6.792   0.225   5.581
 6739SOL    HW221117   6.881   0.285   5.459
 6740SOL     OW21118   0.060   0.204   2.398
 6740SOL    HW121119   0.044   0.163   2.488
 6740SOL    HW221120   6.990   0.225   2.355
 6741SOL     OW21121   3.702   1.684   0.369
 6741SOL    HW121122   3.618   1.723   0.407
 6741SOL    HW221123   3.704   1.701   0.270
 6742SOL     OW21124   6.147   4.344   3.184
 6742SOL    HW121125   6.107   4.435   3.175
 6742SOL    HW221126   6.075   4.275   3.181
 6743SOL     OW21127   3.830   3.934   0.043
 6743SOL    HW121128   3.804   3.875   6.985
 6743SOL    HW221129   3.753   3.945   0.105
 6744SOL     OW21130   6.248   6.759   5.678
 6744SOL    HW121131   6.308   6.803   5.745
 6744SOL    HW221132   6.276   6.664   5.664
 6745SOL     OW21133   0.114   4.245   5.280
 6745SOL    HW121134   0.069   4.254   5.191
 6745SOL    HW221135   0.070   4.172   5.332
 6746SOL     OW21136   1.059   2.076   2.870
 6746SOL    HW121137   1.129   2.033   2.813
 6746SOL    HW221138   0.969   2.039   2.846
 6747SOL     OW21139   0.667   6.138   5.600
 6747SOL    HW121140   0.576   6.114   5.634
 6747SOL    HW221141   0.666   6.231   5.563
 6748SOL     OW21142   1.780   0.698   5.224
 6748SOL    HW121143   1.832   0.639   5.287
 6748SOL    HW221144   1.811   0.681   5.131
 6749SOL     OW21145   4.196   4.662   2.439
 6749SOL    HW121146   4.284   4.668   2.392
 6749SOL    HW221147   4.128   4.715   2.389
 6750SOL     OW21148   3.532   0.931   5.453
 6750SOL    HW121149   3.562   0.928   5.358
 6750SOL    HW221150   3.592   0.874   5.509
 6751SOL     OW21151   4.543   0.261   4.992
 6751SOL    HW121152   4.491   0.345   5.005
 6751SOL    HW221153   4.595   0.266   4.907
 6752SOL     OW21154   2.134   4.786   2.530
 6752SOL    HW121155   2.094   4.703   2.570
 6752SOL    HW221156   2.189   4.761   2.451
 6753SOL     OW21157   3.944   3.107   6.856
 6753SOL    HW121158   4.027   3.150   6.822
 6753SOL    HW221159   3.937   3.014   6.818
 6754SOL     OW21160   6.462   1.622   0.641
 6754SOL    HW121161   6.381   1.565   0.654
 6754SOL    HW221162   6.447   1.682   0.562
 6755SOL     OW21163   3.081   5.963   6.017
 6755SOL    HW121164   3.011   5.921   6.074
 6755SOL    HW221165   3.171   5.949   6.058
 6756SOL     OW21166   3.847   3.038   6.409
 6756SOL    HW121167   3.940   3.018   6.440
 6756SOL    HW221168   3.811   3.117   6.457
 6757SOL     OW21169   3.977   0.275   1.411
 6757SOL    HW121170   3.954   0.333   1.489
 6757SOL    HW221171   3.944   0.182   1.427
 6758SOL     OW21172   4.979   2.659   3.193
 6758SOL    HW121173   4.963   2.755   3.167
 6758SOL    HW221174   5.019   2.656   3.285
 6759SOL     OW21175   0.728   1.672   2.498
 6759SOL    HW121176   0.690   1.747   2.552
 6759SOL    HW221177   0.732   1.589   2.554
 6760SOL     OW21178   5.130   2.101   4.869
 6760SOL    HW121179   5.167   2.010   4.890
 6760SOL    HW221180   5.206   2.163   4.848
 6761SOL     OW21181   3.745   1.672   5.299
 6761SOL    HW121182   3.727   1.769   5.281
 6761SOL    HW221183   3.722   1.618   5.218
 6762SOL     OW21184   6.576   5.127   4.601
 6762SOL    HW121185   6.598   5.068   4.523
 6762SOL    HW221186   6.589   5.076   4.686
 6763SOL     OW21187   5.993   6.407   4.535
 6763SOL    HW121188   5.946   6.486   4.575
 6763SOL    HW221189   5.962   6.324   4.581
 6764SOL     OW21190   0.797   5.056   1.305
 6764SOL    HW121191   0.800   5.113   1.387
 6764SOL    HW221192   0.702   5.027   1.288
 6765SOL     OW21193   0.209   3.510   2.425
 6765SOL    HW121194   0.143   3.437   2.440
 6765SOL    HW221195   0.194   3.549   2.334
 6766SOL     OW21196   5.600   0.351   1.378
 6766SOL    HW121197   5.599   0.426   1.445
 6766SOL    HW221198   5.651   0.274   1.415
 6767SOL     OW21199   3.293   0.525   1.042
 6767SOL    HW121200   3.242   0.505   1.126
 6767SOL    HW221201   3.319   0.621   1.041
 6768SOL     OW21202   1.706   0.410   6.873
 6768SOL    HW121203   1.793   0.443   6.909
 6768SOL    HW221204   1.707   0.310   6.869
 6769SOL     OW21205   4.485   2.889   1.609
 6769SOL    HW121206   4.439   2.977   1.617
 6769SOL    HW221207   4.532   2.868   1.696
 6770SOL     OW21208   0.150   0.917   1.523
 6770SOL    HW121209   0.122   0.973   1.445
 6770SOL    HW221210   0.171   0.976   1.601
 6771SOL     OW21211   4.721   1.911   3.192
 6771SOL    HW121212   4.727   1.981   3.264
 6771SOL    HW221213   4.783   1.836   3.213
 6772SOL     OW21214   3.628   1.435   4.014
 6772SOL    HW121215   3.635   1.345   4.057
 6772SOL    HW221216   3.605   1.503   4.083
 6773SOL     OW21217   0.441   3.810   0.828
 6773SOL    HW121218   0.373   3.782   0.896
 6773SOL    HW221219   0.396   3.860   0.754
 6774SOL     OW21220   0.840   2.441   6.366
 6774SOL    HW121221   0.754   2.399   6.337
 6774SOL    HW221222   0.831   2.540   6.364
 6775SOL     OW21223   1.882   4.552   0.472
 6775SOL    HW121224   1.948   4.602   0.528
 6775SOL    HW221225   1.899   4.454   0.480
 6776SOL     OW21226   5.991   5.737   6.914
 6776SOL    HW121227   6.031   5.682   6.841
 6776SOL    HW221228   5.930   5.805   6.875
 6777SOL     OW21229   4.965   5.615   6.753
 6777SOL    HW121230   4.962   5.700   6.700
 6777SOL    HW221231   5.028   5.551   6.709
 6778SOL     OW21232   0.044   5.588   3.166
 6778SOL    HW121233   0.063   5.661   3.233
 6778SOL    HW221234   0.064   5.622   3.074
 6779SOL     OW21235   0.017   4.276   6.548
 6779SOL    HW121236   0.100   4.303   6.596
 6779SOL    HW221237   7.000   4.191   6.587
 6780SOL     OW21238   0.568   2.685   1.930
 6780SOL    HW121239   0.581   2.716   1.836
 6780SOL    HW221240   0.507   2.749   1.978
 6781SOL     OW21241   5.804   4.773   5.237
 6781SOL    HW121242   5.858   4.727   5.166
 6781SOL    HW221243   5.859   4.783   5.320
 6782SOL     OW21244   5.884   1.606   2.831
 6782SOL    HW121245   5.840   1.517   2.819
 6782SOL    HW221246   5.816   1.674   2.860
 6783SOL     OW21247   0.358   6.176   6.698
 6783SOL    HW121248   0.325   6.268   6.720
 6783SOL    HW221249   0.374   6.169   6.599
 6784SOL     OW21250   3.793   3.145   0.485
 6784SOL    HW121251   3.694   3.163   0.484
 6784SOL    HW221252   3.809   3.047   0.489
 6785SOL     OW21253   5.750   5.803   1.896
 6785SOL    HW121254   5.658   5.807   1.936
 6785SOL    HW221255   5.754   5.729   1.829
 6786SOL     OW21256   1.645   3.474   6.473
 6786SOL    HW121257   1.599   3.452   6.388
 6786SOL    HW221258   1.744   3.464   6.461
 6787SOL     OW21259   1.007   3.675   1.998
 6787SOL    HW121260   0.972   3.582   1.985
 6787SOL    HW221261   1.081   3.674   2.065
 6788SOL     OW21262   2.864   5.172   0.634
 6788SOL    HW121263   2.889   5.133   0.723
 6788SOL    HW221264   2.875   5.271   0.636
 6789SOL     OW21265   0.311   6.197   3.329
 6789SOL    HW121266   0.377   6.233   3.396
 6789SOL    HW221267   0.249   6.271   3.300
 6790SOL     OW21268   1.355   3.386   0.324
 6790SOL    HW121269   1.398   3.317   0.383
 6790SOL    HW221270   1.257   3.390   0.344
 6791SOL     OW21271   3.443   3.782   6.468
 6791SOL    HW121272   3.515   3.715   6.488
 6791SOL    HW221273   3.485   3.871   6.447
 6792SOL     OW21274   0.531   4.852   0.604
 6792SOL    HW121275   0.495   4.802   0.526
 6792SOL    HW221276   0.529   4.793   0.685
 6793SOL     OW21277   6.087   1.810   1.302
 6793SOL    HW121278   6.016   1.761   1.354
 6793SOL    HW221279   6.047   1.849   1.220
 6794SOL     OW21280   4.474   0.924   4.914
 6794SOL    HW121281   4.408   0.960   4.979
 6794SOL    HW221282   4.560   0.905   4.961
 6795SOL     OW21283   2.807   5.880   6.903
 6795SOL    HW121284   2.759   5.907   6.987
 6795SOL    HW221285   2.846   5.789   6.915
 6796SOL     OW21286   4.026   2.216   2.837
 6796SOL    HW121287   3.944   2.263   2.804
 6796SOL    HW221288   3.999   2.140   2.896
 6797SOL     OW21289   0.133   3.081   2.239
 6797SOL    HW121290   0.169   3.095   2.146
 6797SOL    HW221291   0.047   3.032   2.234
 6798SOL     OW21292   6.292   0.029   1.919
 6798SOL    HW121293   6.275   6.979   1.990
 6798SOL    HW221294   6.271   0.120   1.954
 6799SOL     OW21295   5.435   6.140   1.914
 6799SOL    HW121296   5.442   6.100   2.005
 6799SOL    HW221297   5.484   6.228   1.913
 6800SOL     OW21298   2.830   4.326   0.101
 6800SOL    HW121299   2.897   4.253   0.085
 6800SOL    HW221300   2.872   4.414   0.082
 6801SOL     OW21301   1.510   1.658   2.963
 6801SOL    HW121302   1.486   1.750   2.995
 6801SOL    HW221303   1.454   1.591   3.012
 6802SOL     OW21304   2.186   4.989   2.749
 6802SOL    HW121305   2.181   4.912   2.685
 6802SOL    HW221306   2.254   5.055   2.717
 6803SOL     OW21307   5.312   2.473   0.050
 6803SOL    HW121308   5.367   2.549   0.015
 6803SOL    HW221309   5.319   2.470   0.150
 6804SOL     OW21310   1.499   6.945   4.004
 6804SOL    HW121311   1.499   6.855   3.960
 6804SOL    HW221312   1.513   7.016   3.935
 6805SOL     OW21313   5.158   0.615   4.617
 6805SOL    HW121314   5.134   0.518   4.615
 6805SOL    HW221315   5.225   0.632   4.689
 6806SOL     OW21316   5.053   0.062   5.529
 6806SOL    HW121317   5.030   0.155   5.558
 6806SOL    HW221318   5.099   0.066   5.440
 6807SOL     OW21319   3.590   3.398   0.138
 6807SOL    HW121320   3.505   3.448   0.153
 6807SOL    HW221321   3.641   3.440   0.063
 6808SOL     OW21322   1.824   2.793   4.895
 6808SOL    HW121323   1.823   2.881   4.943
 6808SOL    HW221324   1.736   2.747   4.908
 6809SOL     OW21325   2.336   3.960   6.737
 6809SOL    HW121326   2.376   3.893   6.674
 6809SOL    HW221327   2.237   3.953   6.735
 6810SOL     OW21328   5.278   1.996   2.538
 6810SOL    HW121329   5.200   2.057   2.548
 6810SOL    HW221330   5.356   2.033   2.589
 6811SOL     OW21331   5.135   5.359   1.668
 6811SOL    HW121332   5.063   5.426   1.685
 6811SOL    HW221333   5.220   5.407   1.646
 6812SOL     OW21334   3.862   2.971   2.741
 6812SOL    HW121335   3.835   2.927   2.827
 6812SOL    HW221336   3.950   2.935   2.712
 6813SOL     OW21337   4.792   3.851   1.371
 6813SOL    HW121338   4.876   3.833   1.319
 6813SOL    HW221339   4.811   3.843   1.469
 6814SOL     OW21340   2.287   3.713   0.529
 6814SOL    HW121341   2.197   3.709   0.486
 6814SOL    HW221342   2.308   3.625   0.571
 6815SOL     OW21343   2.596   6.907   1.725
 6815SOL    HW121344   2.646   6.974   1.780
 6815SOL    HW221345   2.511   6.949   1.692
 6816SOL     OW21346   6.323   4.242   1.326
 6816SOL    HW121347   6.288   4.149   1.312
 6816SOL    HW221348   6.414   4.249   1.285
 6817SOL     OW21349   0.286   1.982   5.943
 6817SOL    HW121350   0.232   1.909   5.901
 6817SOL    HW221351   0.301   1.961   6.040
 6818SOL     OW21352   3.104   6.016   2.313
 6818SOL    HW121353   3.200   6.012   2.339
 6818SOL    HW221354   3.052   5.948   2.364
 6819SOL     OW21355   3.218   1.198   3.779
 6819SOL    HW121356   3.147   1.265   3.797
 6819SOL    HW221357   3.300   1.244   3.744
 6820SOL     OW21358   1.663   4.576   3.624
 6820SOL    HW121359   1.617   4.524   3.696
 6820SOL    HW221360   1.629   4.547   3.535
 6821SOL     OW21361   2.481   2.232   4.348
 6821SOL    HW121362   2.428   2.161   4.301
 6821SOL    HW221363   2.578   2.216   4.335
 6822SOL     OW21364   5.025   2.120   5.816
 6822SOL    HW121365   5.116   2.155   5.841
 6822SOL    HW221366   4.961   2.197   5.808
 6823SOL     OW21367   3.016   3.038   1.926
 6823SOL    HW121368   3.087   2.969   1.914
 6823SOL    HW221369   3.002   3.056   2.023
 6824SOL     OW21370   1.267   4.817   6.505
 6824SOL    HW121371   1.294   4.821   6.408
 6824SOL    HW221372   1.244   4.909   6.537
 6825SOL     OW21373   4.950   0.436   4.307
 6825SOL    HW121374   4.990   0.348   4.332
 6825SOL    HW221375   5.022   0.505   4.301
 6826SOL     OW21376   1.209   2.481   2.657
 6826SOL    HW121377   1.263   2.407   2.618
 6826SOL    HW221378   1.268   2.543   2.708
 6827SOL     OW21379   5.786   6.463   5.537
 6827SOL    HW121380   5.771   6.412   5.622
 6827SOL    HW221381   5.803   6.398   5.462
 6828SOL     OW21382   1.617   2.220   1.288
 6828SOL    HW121383   1.609   2.295   1.223
 6828SOL    HW221384   1.709   2.182   1.284
 6829SOL     OW21385   5.168   5.107   3.827
 6829SOL    HW121386   5.205   5.073   3.741
 6829SOL    HW221387   5.077   5.070   3.842
 6830SOL     OW21388   5.439   2.191   4.151
 6830SOL    HW121389   5.412   2.164   4.244
 6830SOL    HW221390   5.363   2.239   4.107
 6831SOL     OW21391   0.092   1.195   5.789
 6831SOL    HW121392   0.129   1.263   5.726
 6831SOL    HW221393   0.117   1.103   5.758
 6832SOL     OW21394   3.114   4.864   2.214
 6832SOL    HW121395   3.134   4.891   2.308
 6832SOL    HW221396   3.197   4.871   2.159
 6833SOL     OW21397   4.013   5.465   0.434
 6833SOL    HW121398   4.064   5.448   0.518
 6833SOL    HW221399   3.930   5.409   0.434
 6834SOL     OW21400   3.933   5.350   2.637
 6834SOL    HW121401   3.932   5.414   2.715
 6834SOL    HW221402   3.840   5.316   2.621
 6835SOL     OW21403   4.128   6.583   4.615
 6835SOL    HW121404   4.082   6.555   4.699
 6835SOL    HW221405   4.186   6.508   4.583
 6836SOL     OW21406   3.180   5.914   6.448
 6836SOL    HW121407   3.222   6.003   6.469
 6836SOL    HW221408   3.197   5.892   6.352
 6837SOL     OW21409   0.778   2.996   2.100
 6837SOL    HW121410   0.774   2.973   2.198
 6837SOL    HW221411   0.825   2.922   2.051
 6838SOL     OW21412   3.018   1.315   0.112
 6838SOL    HW121413   3.072   1.389   0.073
 6838SOL    HW221414   3.055   1.227   0.082
 6839SOL     OW21415   4.470   1.018   1.452
 6839SOL    HW121416   4.375   1.020   1.421
 6839SOL    HW221417   4.479   0.952   1.527
 6840SOL     OW21418   1.159   1.417   6.212
 6840SOL    HW121419   1.186   1.492   6.152
 6840SOL    HW221420   1.238   1.357   6.228
 6841SOL     OW21421   6.690   3.390   6.283
 6841SOL    HW121422   6.724   3.473   6.327
 6841SOL    HW221423   6.767   3.328   6.264
 6842SOL     OW21424   2.277   4.114   3.302
 6842SOL    HW121425   2.351   4.181   3.291
 6842SOL    HW221426   2.195   4.146   3.253
 6843SOL     OW21427   3.989   6.374   0.301
 6843SOL    HW121428   4.040   6.305   0.353
 6843SOL    HW221429   4.031   6.384   0.211
 6844SOL     OW21430   5.404   0.557   5.695
 6844SOL    HW121431   5.349   0.609   5.629
 6844SOL    HW221432   5.460   0.490   5.647
 6845SOL     OW21433   4.926   2.067   2.243
 6845SOL    HW121434   4.902   2.163   2.227
 6845SOL    HW221435   4.850   2.008   2.216
 6846SOL     OW21436   2.310   3.827   6.999
 6846SOL    HW121437   2.335   3.735   6.968
 6846SOL    HW221438   2.323   3.893   6.925
 6847SOL     OW21439   6.916   3.091   4.342
 6847SOL    HW121440   6.932   3.119   4.248
 6847SOL    HW221441   6.988   3.029   4.371
 6848SOL     OW21442   6.545   4.417   3.133
 6848SOL    HW121443   6.464   4.467   3.102
 6848SOL    HW221444   6.601   4.476   3.191
 6849SOL     OW21445   2.763   3.819   6.030
 6849SOL    HW121446   2.847   3.798   6.079
 6849SOL    HW221447   2.765   3.913   5.998
 6850SOL     OW21448   4.188   0.899   4.385
 6850SOL    HW121449   4.178   0.858   4.294
 6850SOL    HW221450   4.097   0.921   4.421
 6851SOL     OW21451   2.100   3.250   3.327
 6851SOL    HW121452   2.055   3.329   3.284
 6851SOL    HW221453   2.100   3.173   3.264
 6852SOL     OW21454   3.241   4.347   0.106
 6852SOL    HW121455   3.184   4.380   0.031
 6852SOL    HW221456   3.324   4.403   0.112
 6853SOL     OW21457   4.990   3.771   6.265
 6853SOL    HW121458   5.005   3.679   6.229
 6853SOL    HW221459   5.077   3.815   6.283
 6854SOL     OW21460   5.405   6.284   6.396
 6854SOL    HW121461   5.325   6.289   6.336
 6854SOL    HW221462   5.418   6.190   6.427
 6855SOL     OW21463   4.292   4.845   3.576
 6855SOL    HW121464   4.384   4.852   3.615
 6855SOL    HW221465   4.250   4.936   3.574
 6856SOL     OW21466   0.222   1.870   6.542
 6856SOL    HW121467   0.299   1.879   6.605
 6856SOL    HW221468   0.168   1.954   6.542
 6857SOL     OW21469   0.722   3.901   5.152
 6857SOL    HW121470   0.709   3.943   5.063
 6857SOL    HW221471   0.766   3.812   5.141
 6858SOL     OW21472   2.132   3.891   2.015
 6858SOL    HW121473   2.139   3.791   2.006
 6858SOL    HW221474   2.051   3.914   2.070
 6859SOL     OW21475   1.798   1.777   2.447
 6859SOL    HW121476   1.756   1.696   2.407
 6859SOL    HW221477   1.826   1.757   2.541
 6860SOL     OW21478   0.757   6.597   1.249
 6860SOL    HW121479   0.663   6.591   1.217
 6860SOL    HW221480   0.763   6.562   1.342
 6861SOL     OW21481   6.511   3.026   6.362
 6861SOL    HW121482   6.436   3.003   6.424
 6861SOL    HW221483   6.597   2.992   6.400
 6862SOL     OW21484   0.970   4.159   4.341
 6862SOL    HW121485   0.945   4.213   4.261
 6862SOL    HW221486   1.052   4.198   4.384
 6863SOL     OW21487   5.967   1.393   5.464
 6863SOL    HW121488   5.922   1.305   5.449
 6863SOL    HW221489   5.900   1.467   5.454
 6864SOL     OW21490   1.059   3.866   6.206
 6864SOL    HW121491   1.039   3.893   6.112
 6864SOL    HW221492   1.054   3.767   6.214
 6865SOL     OW21493   2.717   6.983   3.596
 6865SOL    HW121494   2.657   6.944   3.526
 6865SOL    HW221495   2.670   0.040   3.643
 6866SOL     OW21496   1.196   4.944   0.201
 6866SOL    HW121497   1.213   4.876   0.271
 6866SOL    HW221498   1.265   4.936   0.129
 6867SOL     OW21499   1.769   3.696   6.217
 6867SOL    HW121500   1.826   3.656   6.289
 6867SOL    HW221501   1.829   3.741   6.150
 6868SOL     OW21502   2.788   5.308   3.510
 6868SOL    HW121503   2.717   5.372   3.478
 6868SOL    HW221504   2.868   5.360   3.539
 6869SOL     OW21505   3.220   1.047   6.043
 6869SOL    HW121506   3.196   0.993   6.124
 6869SOL    HW221507   3.319   1.058   6.039
 6870SOL     OW21508   6.008   2.161   0.596
 6870SOL    HW121509   5.985   2.183   0.691
 6870SOL    HW221510   6.064   2.234   0.557
 6871SOL     OW21511   6.800   3.732   2.558
 6871SOL    HW121512   6.851   3.677   2.492
 6871SOL    HW221513   6.727   3.782   2.510
 6872SOL     OW21514   2.007   3.907   1.346
 6872SOL    HW121515   2.059   3.989   1.323
 6872SOL    HW221516   1.974   3.914   1.440
 6873SOL     OW21517   0.842   4.416   3.124
 6873SOL    HW121518   0.843   4.409   3.025
 6873SOL    HW221519   0.777   4.350   3.162
 6874SOL     OW21520   5.385   6.411   3.369
 6874SOL    HW121521   5.421   6.380   3.281
 6874SOL    HW221522   5.309   6.475   3.353
 6875SOL     OW21523   2.603   1.169   0.440
 6875SOL    HW121524   2.684   1.133   0.394
 6875SOL    HW221525   2.603   1.138   0.536
 6876SOL     OW21526   5.114   5.454   3.746
 6876SOL    HW121527   5.214   5.461   3.752
 6876SOL    HW221528   5.083   5.374   3.799
 6877SOL     OW21529   0.870   3.445   1.460
 6877SOL    HW121530   0.861   3.361   1.515
 6877SOL    HW221531   0.908   3.518   1.517
 6878SOL     OW21532   1.916   0.660   4.990
 6878SOL    HW121533   1.957   0.747   4.963
 6878SOL    HW221534   1.981   0.608   5.045
 6879SOL     OW21535   1.501   1.225   1.206
 6879SOL    HW121536   1.418   1.247   1.154
 6879SOL    HW221537   1.506   1.127   1.222
 6880SOL     OW21538   1.447   5.471   0.143
 6880SOL    HW121539   1.393   5.555   0.136
 6880SOL    HW221540   1.390   5.396   0.176
 6881SOL     OW21541   0.362   2.910   0.410
 6881SOL    HW121542   0.293   2.850   0.370
 6881SOL    HW221543   0.370   2.993   0.356
 6882SOL     OW21544   2.274   6.333   6.999
 6882SOL    HW121545   2.230   6.357   6.912
 6882SOL    HW221546   2.279   6.234   7.007
 6883SOL     OW21547   4.681   0.342   1.162
 6883SOL    HW121548   4.720   0.339   1.070
 6883SOL    HW221549   4.596   0.395   1.160
 6884SOL     OW21550   1.799   4.040   3.219
 6884SOL    HW121551   1.826   3.945   3.210
 6884SOL    HW221552   1.880   4.098   3.230
 6885SOL     OW21553   6.108   5.266   4.372
 6885SOL    HW121554   6.198   5.310   4.376
 6885SOL    HW221555   6.060   5.279   4.458
 6886SOL     OW21556   4.793   2.769   0.318
 6886SOL    HW121557   4.842   2.836   0.375
 6886SOL    HW221558   4.702   2.755   0.355
 6887SOL     OW21559   5.814   5.684   5.835
 6887SOL    HW121560   5.726   5.691   5.881
 6887SOL    HW221561   5.866   5.608   5.874
 6888SOL     OW21562   6.164   4.242   6.553
 6888SOL    HW121563   6.111   4.236   6.468
 6888SOL    HW221564   6.262   4.242   6.532
 6889SOL     OW21565   6.908   2.529   6.181
 6889SOL    HW121566   6.921   2.628   6.183
 6889SOL    HW221567   6.935   2.490   6.269
 6890SOL     OW21568   4.817   4.289   3.563
 6890SOL    HW121569   4.770   4.310   3.478
 6890SOL    HW221570   4.766   4.328   3.640
 6891SOL     OW21571   1.545   1.452   1.358
 6891SOL    HW121572   1.481   1.510   1.308
 6891SOL    HW221573   1.538   1.358   1.326
 6892SOL     OW21574   3.594   1.374   4.696
 6892SOL    HW121575   3.631   1.306   4.633
 6892SOL    HW221576   3.566   1.456   4.646
 6893SOL     OW21577   6.320   3.397   0.625
 6893SOL    HW121578   6.358   3.308   0.599
 6893SOL    HW221579   6.220   3.392   0.626
 6894SOL     OW21580   6.202   5.101   0.449
 6894SOL    HW121581   6.134   5.078   0.519
 6894SOL    HW221582   6.155   5.142   0.370
 6895SOL     OW21583   0.658   6.413   2.503
 6895SOL    HW121584   0.563   6.391   2.523
 6895SOL    HW221585   0.663   6.475   2.425
 6896SOL     OW21586   4.906   0.965   4.923
 6896SOL    HW121587   4.958   0.886   4.955
 6896SOL    HW221588   4.957   1.049   4.945
 6897SOL     OW21589   4.729   2.921   5.230
 6897SOL    HW121590   4.786   2.970   5.296
 6897SOL    HW221591   4.776   2.919   5.142
 6898SOL     OW21592   1.545   6.486   1.441
 6898SOL    HW121593   1.552   6.557   1.511
 6898SOL    HW221594   1.555   6.396   1.483
 6899SOL     OW21595   6.248   6.266   2.327
 6899SOL    HW121596   6.321   6.215   2.282
 6899SOL    HW221597   6.186   6.303   2.257
 6900SOL     OW21598   6.218   3.599   4.905
 6900SOL    HW121599   6.195   3.662   4.830
 6900SOL    HW221600   6.270   3.649   4.975
 6901SOL     OW21601   5.237   5.084   6.641
 6901SOL    HW121602   5.318   5.091   6.700
 6901SOL    HW221603   5.234   4.994   6.599
 6902SOL     OW21604   0.287   6.036   6.193
 6902SOL    HW121605   0.199   6.056   6.237
 6902SOL    HW221606   0.274   5.963   6.126
 6903SOL     OW21607   1.039   6.006   4.536
 6903SOL    HW121608   0.951   5.996   4.582
 6903SOL    HW221609   1.113   6.001   4.603
 6904SOL     OW21610   0.063   0.521   6.510
 6904SOL    HW121611   6.982   0.539   6.511
 6904SOL    HW221612   0.079   0.424   6.491
 6905SOL     OW21613   5.257   6.034   5.797
 6905SOL    HW121614   5.306   6.019   5.712
 6905SOL    HW221615   5.175   5.976   5.801
 6906SOL     OW21616   3.178   1.025   3.554
 6906SOL    HW121617   3.173   0.929   3.581
 6906SOL    HW221618   3.187   1.082   3.636
 6907SOL     OW21619   5.751   1.859   0.895
 6907SOL    HW121620   5.666   1.827   0.938
 6907SOL    HW221621   5.733   1.880   0.798
 6908SOL     OW21622   2.811   5.451   0.624
 6908SOL    HW121623   2.815   5.453   0.524
 6908SOL    HW221624   2.731   5.503   0.655
 6909SOL     OW21625   5.587   4.788   2.081
 6909SOL    HW121626   5.586   4.690   2.061
 6909SOL    HW221627   5.550   4.804   2.173
 6910SOL     OW21628   1.249   2.190   2.323
 6910SOL    HW121629   1.156   2.221   2.299
 6910SOL    HW221630   1.254   2.091   2.313
 6911SOL     OW21631   1.951   6.250   5.898
 6911SOL    HW121632   2.038   6.201   5.908
 6911SOL    HW221633   1.961   6.343   5.932
 6912SOL     OW21634   2.689   3.744   6.919
 6912SOL    HW121635   2.604   3.692   6.919
 6912SOL    HW221636   2.726   3.749   6.826
 6913SOL     OW21637   4.760   6.127   5.710
 6913SOL    HW121638   4.855   6.147   5.683
 6913SOL    HW221639   4.699   6.196   5.671
 6914SOL     OW21640   5.921   2.862   2.125
 6914SOL    HW121641   5.963   2.790   2.069
 6914SOL    HW221642   5.849   2.907   2.072
 6915SOL     OW21643   6.992   3.334   3.903
 6915SOL    HW121644   7.017   3.429   3.887
 6915SOL    HW221645   6.975   3.289   3.815
 6916SOL     OW21646   5.012   6.163   6.478
 6916SOL    HW121647   4.998   6.151   6.576
 6916SOL    HW221648   4.960   6.094   6.428
 6917SOL     OW21649   4.013   6.570   1.739
 6917SOL    HW121650   4.023   6.584   1.640
 6917SOL    HW221651   3.998   6.659   1.784
 6918SOL     OW21652   2.298   3.955   0.663
 6918SOL    HW121653   2.306   3.868   0.614
 6918SOL    HW221654   2.208   3.961   0.706
 6919SOL     OW21655   5.643   5.968   3.591
 6919SOL    HW121656   5.698   5.981   3.508
 6919SOL    HW221657   5.559   5.920   3.568
 6920SOL     OW21658   6.128   1.354   6.355
 6920SOL    HW121659   6.199   1.302   6.403
 6920SOL    HW221660   6.113   1.440   6.403
 6921SOL     OW21661   4.557   0.489   4.127
 6921SOL    HW121662   4.482   0.423   4.125
 6921SOL    HW221663   4.580   0.510   4.222
 6922SOL     OW21664   2.129   4.940   6.281
 6922SOL    HW121665   2.204   4.907   6.338
 6922SOL    HW221666   2.102   5.032   6.312
 6923SOL     OW21667   5.729   7.008   1.951
 6923SOL    HW121668   5.635   0.023   1.956
 6923SOL    HW221669   5.778   0.017   2.034
 6924SOL     OW21670   3.359   5.673   1.946
 6924SOL    HW121671   3.408   5.759   1.958
 6924SOL    HW221672   3.359   5.647   1.850
 6925SOL     OW21673   5.702   6.545   5.248
 6925SOL    HW121674   5.603   6.559   5.247
 6925SOL    HW221675   5.742   6.595   5.325
 6926SOL     OW21676   3.147   2.638   0.137
 6926SOL    HW121677   3.207   2.705   0.181
 6926SOL    HW221678   3.193   2.597   0.059
 6927SOL     OW21679   4.771   0.378   0.413
 6927SOL    HW121680   4.696   0.408   0.471
 6927SOL    HW221681   4.749   0.397   0.317
 6928SOL     OW21682   3.970   5.099   6.692
 6928SOL    HW121683   3.907   5.151   6.750
 6928SOL    HW221684   3.974   5.141   6.601
 6929SOL     OW21685   5.151   5.027   2.476
 6929SOL    HW121686   5.212   4.955   2.511
 6929SOL    HW221687   5.120   5.084   2.552
 6930SOL     OW21688   0.214   6.697   1.838
 6930SOL    HW121689   0.306   6.694   1.877
 6930SOL    HW221690   0.201   6.618   1.778
 6931SOL     OW21691   3.112   3.514   1.053
 6931SOL    HW121692   3.125   3.610   1.077
 6931SOL    HW221693   3.043   3.474   1.113
 6932SOL     OW21694   3.862   6.966   6.344
 6932SOL    HW121695   3.932   0.015   6.370
 6932SOL    HW221696   3.822   6.926   6.427
 6933SOL     OW21697   3.520   5.652   6.261
 6933SOL    HW121698   3.606   5.667   6.309
 6933SOL    HW221699   3.476   5.569   6.296
 6934SOL     OW21700   4.958   5.012   7.005
 6934SOL    HW121701   5.008   4.943   6.952
 6934SOL    HW221702   4.860   4.991   7.003
 6935SOL     OW21703   3.816   6.118   1.663
 6935SOL    HW121704   3.909   6.088   1.643
 6935SOL    HW221705   3.819   6.200   1.721
 6936SOL     OW21706   0.319   1.937   5.412
 6936SOL    HW121707   0.244   1.973   5.467
 6936SOL    HW221708   0.294   1.941   5.315
 6937SOL     OW21709   5.717   5.132   6.993
 6937SOL    HW121710   5.778   5.055   7.011
 6937SOL    HW221711   5.673   5.120   6.904
 6938SOL     OW21712   2.632   1.169   4.896
 6938SOL    HW121713   2.672   1.208   4.979
 6938SOL    HW221714   2.619   1.241   4.828
 6939SOL     OW21715   5.657   3.224   3.443
 6939SOL    HW121716   5.581   3.258   3.499
 6939SOL    HW221717   5.705   3.301   3.402
 6940SOL     OW21718   2.389   6.242   0.691
 6940SOL    HW121719   2.383   6.342   0.692
 6940SOL    HW221720   2.410   6.209   0.783
 6941SOL     OW21721   3.522   3.834   2.702
 6941SOL    HW121722   3.611   3.800   2.733
 6941SOL    HW221723   3.524   3.849   2.603
 6942SOL     OW21724   6.291   5.400   2.641
 6942SOL    HW121725   6.249   5.394   2.731
 6942SOL    HW221726   6.223   5.429   2.574
 6943SOL     OW21727   4.625   4.519   6.411
 6943SOL    HW121728   4.669   4.608   6.427
 6943SOL    HW221729   4.581   4.488   6.495
 6944SOL     OW21730   1.266   4.312   5.425
 6944SOL    HW121731   1.284   4.316   5.523
 6944SOL    HW221732   1.189   4.372   5.402
 6945SOL     OW21733   5.501   1.581   1.256
 6945SOL    HW121734   5.542   1.492   1.277
 6945SOL    HW221735   5.402   1.571   1.247
 6946SOL     OW21736   5.043   6.438   2.921
 6946SOL    HW121737   4.947   6.433   2.949
 6946SOL    HW221738   5.049   6.476   2.828
 6947SOL     OW21739   6.307   3.981   5.081
 6947SOL    HW121740   6.255   4.032   5.149
 6947SOL    HW221741   6.390   4.032   5.057
 6948SOL     OW21742   0.089   4.472   6.984
 6948SOL    HW121743   0.025   4.500   6.912
 6948SOL    HW221744   0.133   4.553   0.005
 6949SOL     OW21745   2.413   1.754   3.235
 6949SOL    HW121746   2.435   1.785   3.143
 6949SOL    HW221747   2.331   1.800   3.267
 6950SOL     OW21748   0.495   1.291   4.427
 6950SOL    HW121749   0.461   1.277   4.520
 6950SOL    HW221750   0.440   1.237   4.363
 6951SOL     OW21751   0.739   4.281   6.661
 6951SOL    HW121752   0.733   4.227   6.745
 6951SOL    HW221753   0.833   4.280   6.628
 6952SOL     OW21754   5.294   5.396   4.168
 6952SOL    HW121755   5.347   5.330   4.115
 6952SOL    HW221756   5.343   5.484   4.172
 6953SOL     OW21757   6.327   1.848   1.080
 6953SOL    HW121758   6.235   1.855   1.040
 6953SOL    HW221759   6.351   1.935   1.123
 6954SOL     OW21760   0.004   4.741   6.699
 6954SOL    HW121761   6.986   4.651   6.723
 6954SOL    HW221762   6.949   4.809   6.706
 6955SOL     OW21763   4.889   6.057   3.119
 6955SOL    HW121764   4.949   6.031   3.194
 6955SOL    HW221765   4.797   6.075   3.154
 6956SOL     OW21766   5.408   5.395   2.503
 6956SOL    HW121767   5.429   5.372   2.597
 6956SOL    HW221768   5.335   5.464   2.501
 6957SOL     OW21769   6.411   5.313   4.972
 6957SOL    HW121770   6.453   5.378   5.035
 6957SOL    HW221771   6.335   5.266   5.018
 6958SOL     OW21772   3.598   3.596   2.378
 6958SOL    HW121773   3.541   3.678   2.374
 6958SOL    HW221774   3.571   3.540   2.456
 6959SOL     OW21775   1.592   4.225   3.057
 6959SOL    HW121776   1.659   4.168   3.105
 6959SOL    HW221777   1.559   4.177   2.976
 6960SOL     OW21778   3.706   4.463   6.967
 6960SOL    HW121779   3.765   4.530   7.012
 6960SOL    HW221780   3.762   4.391   6.927
 6961SOL     OW21781   4.572   2.566   5.318
 6961SOL    HW121782   4.523   2.541   5.401
 6961SOL    HW221783   4.522   2.530   5.238
 6962SOL     OW21784   2.740   6.254   6.684
 6962SOL    HW121785   2.717   6.325   6.751
 6962SOL    HW221786   2.677   6.178   6.693
 6963SOL     OW21787   6.361   6.058   0.108
 6963SOL    HW121788   6.365   5.986   0.039
 6963SOL    HW221789   6.434   6.125   0.090
 6964SOL     OW21790   2.195   1.461   5.606
 6964SOL    HW121791   2.268   1.517   5.645
 6964SOL    HW221792   2.202   1.462   5.506
 6965SOL     OW21793   1.397   1.304   6.791
 6965SOL    HW121794   1.307   1.261   6.783
 6965SOL    HW221795   1.390   1.384   6.851
 6966SOL     OW21796   1.116   6.539   1.437
 6966SOL    HW121797   1.172   6.616   1.470
 6966SOL    HW221798   1.172   6.479   1.380
 6967SOL     OW21799   4.173   1.181   6.546
 6967SOL    HW121800   4.127   1.126   6.615
 6967SOL    HW221801   4.104   1.230   6.492
 6968SOL     OW21802   3.870   0.039   2.759
 6968SOL    HW121803   3.854   0.114   2.824
 6968SOL    HW221804   3.783   7.014   2.735
 6969SOL     OW21805   2.144   2.604   2.119
 6969SOL    HW121806   2.236   2.640   2.106
 6969SOL    HW221807   2.091   2.668   2.175
 6970SOL     OW21808   3.852   5.064   5.382
 6970SOL    HW121809   3.846   5.163   5.389
 6970SOL    HW221810   3.824   5.022   5.468
 6971SOL     OW21811   6.123   4.175   0.210
 6971SOL    HW121812   6.193   4.136   0.271
 6971SOL    HW221813   6.164   4.247   0.154
 6972SOL     OW21814   5.252   4.268   1.179
 6972SOL    HW121815   5.226   4.364   1.173
 6972SOL    HW221816   5.295   4.240   1.093
 6973SOL     OW21817   1.480   1.818   2.691
 6973SOL    HW121818   1.509   1.771   2.775
 6973SOL    HW221819   1.452   1.750   2.623
 6974SOL     OW21820   3.808   3.994   3.018
 6974SOL    HW121821   3.845   3.982   2.925
 6974SOL    HW221822   3.884   3.999   3.083
 6975SOL     OW21823   3.002   5.751   4.370
 6975SOL    HW121824   2.931   5.808   4.413
 6975SOL    HW221825   3.038   5.799   4.290
 6976SOL     OW21826   4.450   4.412   5.886
 6976SOL    HW121827   4.514   4.393   5.812
 6976SOL    HW221828   4.500   4.423   5.972
 6977SOL     OW21829   4.708   4.836   2.324
 6977SOL    HW121830   4.715   4.896   2.244
 6977SOL    HW221831   4.670   4.748   2.296
 6978SOL     OW21832   0.300   3.481   0.877
 6978SOL    HW121833   0.378   3.502   0.818
 6978SOL    HW221834   0.291   3.552   0.947
 6979SOL     OW21835   0.937   3.798   2.844
 6979SOL    HW121836   1.011   3.757   2.792
 6979SOL    HW221837   0.973   3.869   2.904
 6980SOL     OW21838   2.070   5.196   3.399
 6980SOL    HW121839   2.111   5.192   3.491
 6980SOL    HW221840   1.975   5.168   3.404
 6981SOL     OW21841   4.489   2.762   7.005
 6981SOL    HW121842   4.498   2.857   6.976
 6981SOL    HW221843   4.578   2.718   7.005
 6982SOL     OW21844   0.642   0.943   2.294
 6982SOL    HW121845   0.675   0.971   2.384
 6982SOL    HW221846   0.696   0.989   2.223
 6983SOL     OW21847   6.451   0.729   4.166
 6983SOL    HW121848   6.437   0.630   4.177
 6983SOL    HW221849   6.418   0.777   4.247
 6984SOL     OW21850   1.334   2.697   3.182
 6984SOL    HW121851   1.333   2.785   3.136
 6984SOL    HW221852   1.252   2.645   3.157
 6985SOL     OW21853   5.441   3.188   6.159
 6985SOL    HW121854   5.428   3.254   6.084
 6985SOL    HW221855   5.537   3.158   6.161
 6986SOL     OW21856   4.931   4.616   5.243
 6986SOL    HW121857   5.012   4.674   5.238
 6986SOL    HW221858   4.944   4.534   5.187
 6987SOL     OW21859   0.149   0.934   6.774
 6987SOL    HW121860   0.195   1.023   6.772
 6987SOL    HW221861   0.196   0.871   6.712
 6988SOL     OW21862   2.698   1.494   6.590
 6988SOL    HW121863   2.773   1.560   6.584
 6988SOL    HW221864   2.612   1.539   6.566
 6989SOL     OW21865   0.740   3.925   2.687
 6989SOL    HW121866   0.768   3.950   2.594
 6989SOL    HW221867   0.820   3.892   2.737
 6990SOL     OW21868   4.075   3.923   0.169
 6990SOL    HW121869   3.991   3.926   0.115
 6990SOL    HW221870   4.132   3.847   0.137
 6991SOL     OW21871   5.673   3.308   2.503
 6991SOL    HW121872   5.648   3.212   2.486
 6991SOL    HW221873   5.591   3.361   2.522
 6992SOL     OW21874   0.668   5.351   0.366
 6992SOL    HW121875   0.626   5.275   0.316
 6992SOL    HW221876   0.732   5.314   0.433
 6993SOL     OW21877   3.873   2.237   1.365
 6993SOL    HW121878   3.834   2.270   1.451
 6993SOL    HW221879   3.938   2.304   1.329
 6994SOL     OW21880   3.156   1.366   2.991
 6994SOL    HW121881   3.088   1.301   3.026
 6994SOL    HW221882   3.174   1.346   2.895
 6995SOL     OW21883   6.984   4.368   0.882
 6995SOL    HW121884   0.063   4.350   0.866
 6995SOL    HW221885   6.930   4.335   0.805
 6996SOL     OW21886   0.770   1.001   6.886
 6996SOL    HW121887   0.693   0.937   6.887
 6996SOL    HW221888   0.771   1.051   6.800
 6997SOL     OW21889   6.503   6.456   6.187
 6997SOL    HW121890   6.507   6.491   6.281
 6997SOL    HW221891   6.500   6.532   6.123
 6998SOL     OW21892   0.016   0.697   0.364
 6998SOL    HW121893   0.109   0.732   0.353
 6998SOL    HW221894   6.971   0.749   0.307
 6999SOL     OW21895   6.844   2.807   6.860
 6999SOL    HW121896   6.840   2.905   6.880
 6999SOL    HW221897   6.808   2.756   6.938
 7000SOL     OW21898   0.057   5.542   3.526
 7000SOL    HW121899   0.013   5.621   3.485
 7000SOL    HW221900   0.123   5.572   3.594
 7001SOL     OW21901   6.459   1.856   4.352
 7001SOL    HW121902   6.369   1.900   4.340
 7001SOL    HW221903   6.449   1.757   4.342
 7002SOL     OW21904   1.182   5.559   2.893
 7002SOL    HW121905   1.193   5.460   2.907
 7002SOL    HW221906   1.218   5.584   2.803
 7003SOL     OW21907   0.699   4.273   0.433
 7003SOL    HW121908   0.636   4.203   0.468
 7003SOL    HW221909   0.691   4.278   0.333
 7004SOL     OW21910   1.757   7.006   0.432
 7004SOL    HW121911   1.789   6.912   0.444
 7004SOL    HW221912   1.659   7.012   0.452
 7005SOL     OW21913   1.584   5.661   0.517
 7005SOL    HW121914   1.565   5.573   0.560
 7005SOL    HW221915   1.498   5.706   0.492
 7006SOL     OW21916   0.487   0.288   3.865
 7006SOL    HW121917   0.556   0.298   3.937
 7006SOL    HW221918   0.483   0.371   3.810
 7007SOL     OW21919   2.310   0.208   6.124
 7007SOL    HW121920   2.256   0.203   6.208
 7007SOL    HW221921   2.251   0.195   6.045
 7008SOL     OW21922   5.809   3.426   3.321
 7008SOL    HW121923   5.786   3.483   3.242
 7008SOL    HW221924   5.876   3.474   3.378
 7009SOL     OW21925   4.963   6.213   2.537
 7009SOL    HW121926   4.898   6.152   2.491
 7009SOL    HW221927   5.016   6.162   2.604
 7010SOL     OW21928   4.925   3.400   2.786
 7010SOL    HW121929   4.896   3.437   2.698
 7010SOL    HW221930   4.939   3.301   2.778
 7011SOL     OW21931   2.727   6.585   5.983
 7011SOL    HW121932   2.646   6.539   5.946
 7011SOL    HW221933   2.712   6.684   5.982
 7012SOL     OW21934   6.917   2.815   0.471
 7012SOL    HW121935   6.894   2.831   0.376
 7012SOL    HW221936   6.896   2.897   0.525
 7013SOL     OW21937   3.237   3.036   0.262
 7013SOL    HW121938   3.296   2.958   0.246
 7013SOL    HW221939   3.175   3.049   0.185
 7014SOL     OW21940   5.219   3.355   0.874
 7014SOL    HW121941   5.259   3.278   0.825
 7014SOL    HW221942   5.289   3.398   0.932
 7015SOL     OW21943   5.777   6.324   1.530
 7015SOL    HW121944   5.720   6.404   1.550
 7015SOL    HW221945   5.749   6.248   1.588
 7016SOL     OW21946   3.470   5.178   0.788
 7016SOL    HW121947   3.420   5.250   0.740
 7016SOL    HW221948   3.407   5.107   0.817
 7017SOL     OW21949   5.730   4.455   5.400
 7017SOL    HW121950   5.671   4.508   5.339
 7017SOL    HW221951   5.824   4.459   5.368
 7018SOL     OW21952   5.145   3.703   5.049
 7018SOL    HW121953   5.082   3.662   5.115
 7018SOL    HW221954   5.097   3.721   4.964
 7019SOL     OW21955   4.129   5.078   2.153
 7019SOL    HW121956   4.143   5.177   2.159
 7019SOL    HW221957   4.031   5.059   2.157
 7020SOL     OW21958   0.842   2.143   6.436
 7020SOL    HW121959   0.875   2.231   6.402
 7020SOL    HW221960   0.818   2.151   6.533
 7021SOL     OW21961   0.760   1.990   4.559
 7021SOL    HW121962   0.797   2.062   4.617
 7021SOL    HW221963   0.674   2.022   4.518
 7022SOL     OW21964   2.899   2.864   0.860
 7022SOL    HW121965   2.831   2.912   0.805
 7022SOL    HW221966   2.958   2.810   0.800
 7023SOL     OW21967   0.567   1.442   0.934
 7023SOL    HW121968   0.580   1.516   1.001
 7023SOL    HW221969   0.524   1.364   0.978
 7024SOL     OW21970   3.086   3.544   4.788
 7024SOL    HW121971   3.168   3.488   4.800
 7024SOL    HW221972   3.110   3.625   4.734
 7025SOL     OW21973   3.138   0.709   1.234
 7025SOL    HW121974   3.181   0.714   1.144
 7025SOL    HW221975   3.135   0.801   1.274
 7026SOL     OW21976   3.154   2.748   1.015
 7026SOL    HW121977   3.227   2.722   1.078
 7026SOL    HW221978   3.066   2.746   1.063
 7027SOL     OW21979   3.329   4.894   2.062
 7027SOL    HW121980   3.392   4.822   2.034
 7027SOL    HW221981   3.300   4.947   1.981
 7028SOL     OW21982   3.487   0.024   3.348
 7028SOL    HW121983   3.411   7.001   3.297
 7028SOL    HW221984   3.462   0.031   3.445
 7029SOL     OW21985   3.172   3.622   3.333
 7029SOL    HW121986   3.237   3.583   3.267
 7029SOL    HW221987   3.195   3.717   3.351
 7030SOL     OW21988   6.522   0.269   4.881
 7030SOL    HW121989   6.502   0.256   4.978
 7030SOL    HW221990   6.516   0.181   4.834
 7031SOL     OW21991   4.908   6.383   0.182
 7031SOL    HW121992   4.971   6.431   0.244
 7031SOL    HW221993   4.817   6.424   0.190
 7032SOL     OW21994   4.542   5.066   3.882
 7032SOL    HW121995   4.461   5.032   3.932
 7032SOL    HW221996   4.607   5.105   3.947
 7033SOL     OW21997   1.632   1.629   5.380
 7033SOL    HW121998   1.713   1.686   5.394
 7033SOL    HW221999   1.660   1.533   5.375
 7034SOL     OW22000   6.238   0.642   2.436
 7034SOL    HW122001   6.323   0.596   2.462
 7034SOL    HW222002   6.177   0.645   2.515
 7035SOL     OW22003   2.664   1.402   1.206
 7035SOL    HW122004   2.564   1.403   1.209
 7035SOL    HW222005   2.696   1.314   1.171
 7036SOL     OW22006   6.313   1.323   1.540
 7036SOL    HW122007   6.270   1.268   1.612
 7036SOL    HW222008   6.402   1.284   1.517
 7037SOL     OW22009   1.142   0.387   6.008
 7037SOL    HW122010   1.181   0.365   5.918
 7037SOL    HW222011   1.214   0.421   6.068
 7038SOL     OW22012   1.522   3.710   0.191
 7038SOL    HW122013   1.519   3.805   0.220
 7038SOL    HW222014   1.574   3.656   0.258
 7039SOL     OW22015   0.100   6.581   2.066
 7039SOL    HW122016   0.147   6.641   2.001
 7039SOL    HW222017   0.065   6.636   2.141
 7040SOL     OW22018   5.763   2.536   4.614
 7040SOL    HW122019   5.734   2.604   4.681
 7040SOL    HW222020   5.765   2.446   4.656
 7041SOL     OW22021   1.394   0.003   4.241
 7041SOL    HW122022   1.467   0.013   4.308
 7041SOL    HW222023   1.430   6.975   4.159
 7042SOL     OW22024   5.567   5.444   5.510
 7042SOL    HW122025   5.499   5.431   5.438
 7042SOL    HW222026   5.522   5.451   5.598
 7043SOL     OW22027   1.772   5.818   1.053
 7043SOL    HW122028   1.828   5.823   1.135
 7043SOL    HW222029   1.728   5.729   1.048
 7044SOL     OW22030   5.607   6.027   5.053
 7044SOL    HW122031   5.572   6.113   5.091
 7044SOL    HW222032   5.569   5.950   5.104
 7045SOL     OW22033   6.347   5.684   1.578
 7045SOL    HW122034   6.364   5.632   1.494
 7045SOL    HW222035   6.399   5.642   1.653
 7046SOL     OW22036   1.852   1.369   3.819
 7046SOL    HW122037   1.867   1.432   3.895
 7046SOL    HW222038   1.845   1.421   3.734
 7047SOL     OW22039   1.210   6.325   0.525
 7047SOL    HW122040   1.162   6.237   0.522
 7047SOL    HW222041   1.279   6.323   0.598
 7048SOL     OW22042   0.858   6.400   3.673
 7048SOL    HW122043   0.819   6.492   3.678
 7048SOL    HW222044   0.936   6.393   3.736
 7049SOL     OW22045   3.842   1.245   4.121
 7049SOL    HW122046   3.868   1.152   4.147
 7049SOL    HW222047   3.766   1.276   4.178
 7050SOL     OW22048   3.965   4.319   0.294
 7050SOL    HW122049   3.980   4.363   0.383
 7050SOL    HW222050   3.986   4.383   0.221
 7051SOL     OW22051   1.059   1.688   1.689
 7051SOL    HW122052   1.138   1.702   1.749
 7051SOL    HW222053   1.089   1.695   1.594
 7052SOL     OW22054   4.482   1.793   2.595
 7052SOL    HW122055   4.475   1.880   2.645
 7052SOL    HW222056   4.409   1.732   2.625
 7053SOL     OW22057   1.444   3.647   3.497
 7053SOL    HW122058   1.475   3.559   3.461
 7053SOL    HW222059   1.501   3.720   3.458
 7054SOL     OW22060   5.314   0.432   0.049
 7054SOL    HW122061   5.290   0.341   0.083
 7054SOL    HW222062   5.394   0.425   7.007
 7055SOL     OW22063   2.424   0.494   0.387
 7055SOL    HW122064   2.499   0.486   0.322
 7055SOL    HW222065   2.375   0.580   0.371
 7056SOL     OW22066   6.969   4.803   1.158
 7056SOL    HW122067   6.945   4.782   1.063
 7056SOL    HW222068   6.909   4.752   1.219
 7057SOL     OW22069   3.233   5.574   4.677
 7057SOL    HW122070   3.301   5.595   4.747
 7057SOL    HW222071   3.159   5.642   4.682
 7058SOL     OW22072   6.331   2.703   6.283
 7058SOL    HW122073   6.425   2.669   6.271
 7058SOL    HW222074   6.313   2.774   6.214
 7059SOL     OW22075   1.843   6.936   5.033
 7059SOL    HW122076   1.788   6.892   4.962
 7059SOL    HW222077   1.812   6.905   5.123
 7060SOL     OW22078   3.315   2.342   1.241
 7060SOL    HW122079   3.360   2.321   1.328
 7060SOL    HW222080   3.317   2.261   1.182
 7061SOL     OW22081   1.105   1.047   1.201
 7061SOL    HW122082   1.149   1.111   1.139
 7061SOL    HW222083   1.090   0.960   1.153
 7062SOL     OW22084   3.062   0.726   3.881
 7062SOL    HW122085   3.028   0.808   3.926
 7062SOL    HW222086   3.035   0.645   3.932
 7063SOL     OW22087   6.814   1.431   1.191
 7063SOL    HW122088   6.875   1.365   1.147
 7063SOL    HW222089   6.864   1.482   1.260
 7064SOL     OW22090   2.968   1.338   5.320
 7064SOL    HW122091   3.060   1.371   5.298
 7064SOL    HW222092   2.955   1.338   5.420
 7065SOL     OW22093   3.834   5.689   5.242
 7065SOL    HW122094   3.754   5.630   5.254
 7065SOL    HW222095   3.837   5.757   5.315
 7066SOL     OW22096   3.554   0.128   1.094
 7066SOL    HW122097   3.520   0.088   1.008
 7066SOL    HW222098   3.549   0.227   1.088
 7067SOL     OW22099   2.050   3.824   6.372
 7067SOL    HW122100   2.150   3.818   6.366
 7067SOL    HW222101   2.018   3.768   6.449
 7068SOL     OW22102   4.996   4.158   4.456
 7068SOL    HW122103   5.029   4.084   4.515
 7068SOL    HW222104   5.010   4.133   4.360
 7069SOL     OW22105   5.150   0.676   5.894
 7069SOL    HW122106   5.185   0.735   5.821
 7069SOL    HW222107   5.137   0.730   5.977
 7070SOL     OW22108   0.319   0.371   5.667
 7070SOL    HW122109   0.350   0.276   5.674
 7070SOL    HW222110   0.311   0.410   5.758
 7071SOL     OW22111   4.712   6.326   6.571
 7071SOL    HW122112   4.635   6.372   6.615
 7071SOL    HW222113   4.691   6.311   6.474
 7072SOL     OW22114   0.796   3.948   6.232
 7072SOL    HW122115   0.746   3.988   6.309
 7072SOL    HW222116   0.893   3.947   6.253
 7073SOL     OW22117   4.986   1.811   4.102
 7073SOL    HW122118   4.932   1.742   4.053
 7073SOL    HW222119   4.925   1.868   4.157
 7074SOL     OW22120   5.745   4.049   2.875
 7074SOL    HW122121   5.675   4.053   2.947
 7074SOL    HW222122   5.805   4.128   2.883
 7075SOL     OW22123   2.532   5.384   3.399
 7075SOL    HW122124   2.466   5.390   3.473
 7075SOL    HW222125   2.525   5.295   3.354
 7076SOL     OW22126   5.604   2.353   1.255
 7076SOL    HW122127   5.590   2.416   1.332
 7076SOL    HW222128   5.546   2.273   1.266
 7077SOL     OW22129   3.460   6.249   1.408
 7077SOL    HW122130   3.433   6.340   1.440
 7077SOL    HW222131   3.380   6.203   1.369
 7078SOL     OW22132   6.714   0.798   6.751
 7078SOL    HW122133   6.756   0.724   6.804
 7078SOL    HW222134   6.775   0.877   6.751
 7079SOL     OW22135   1.769   5.698   4.851
 7079SOL    HW122136   1.825   5.634   4.798
 7079SOL    HW222137   1.712   5.751   4.790
 7080SOL     OW22138   3.923   2.062   6.224
 7080SOL    HW122139   4.013   2.058   6.268
 7080SOL    HW222140   3.881   1.971   6.225
 7081SOL     OW22141   2.523   0.010   0.540
 7081SOL    HW122142   2.450   0.045   0.481
 7081SOL    HW222143   2.585   6.971   0.486
 7082SOL     OW22144   0.556   3.791   2.286
 7082SOL    HW122145   0.654   3.786   2.267
 7082SOL    HW222146   0.539   3.758   2.379
 7083SOL     OW22147   4.976   2.452   3.476
 7083SOL    HW122148   5.040   2.527   3.492
 7083SOL    HW222149   4.915   2.443   3.555
 7084SOL     OW22150   0.989   5.061   0.319
 7084SOL    HW122151   0.918   5.000   0.355
 7084SOL    HW222152   1.066   5.006   0.288
 7085SOL     OW22153   0.810   4.125   2.151
 7085SOL    HW122154   0.716   4.096   2.168
 7085SOL    HW222155   0.811   4.220   2.121
 7086SOL     OW22156   5.375   0.735   3.738
 7086SOL    HW122157   5.294   0.769   3.786
 7086SOL    HW222158   5.451   0.725   3.803
 7087SOL     OW22159   4.715   2.807   3.623
 7087SOL    HW122160   4.713   2.884   3.560
 7087SOL    HW222161   4.674   2.727   3.579
 7088SOL     OW22162   6.663   2.400   5.265
 7088SOL    HW122163   6.665   2.470   5.194
 7088SOL    HW222164   6.575   2.404   5.313
 7089SOL     OW22165   2.501   5.356   1.312
 7089SOL    HW122166   2.559   5.330   1.390
 7089SOL    HW222167   2.407   5.371   1.344
 7090SOL     OW22168   4.314   3.152   0.959
 7090SOL    HW122169   4.312   3.196   1.049
 7090SOL    HW222170   4.240   3.190   0.903
 7091SOL     OW22171   0.230   6.822   0.276
 7091SOL    HW122172   0.290   6.751   0.312
 7091SOL    HW222173   0.184   6.869   0.351
 7092SOL     OW22174   4.304   6.725   6.814
 7092SOL    HW122175   4.217   6.773   6.827
 7092SOL    HW222176   4.355   6.725   6.900
 7093SOL     OW22177   3.521   3.041   0.806
 7093SOL    HW122178   3.476   3.112   0.751
 7093SOL    HW222179   3.454   2.972   0.832
 7094SOL     OW22180   3.929   0.580   5.429
 7094SOL    HW122181   3.976   0.497   5.401
 7094SOL    HW222182   3.831   0.570   5.412
 7095SOL     OW22183   2.599   4.969   4.631
 7095SOL    HW122184   2.637   5.020   4.553
 7095SOL    HW222185   2.673   4.922   4.679
 7096SOL     OW22186   6.347   6.960   1.167
 7096SOL    HW122187   6.378   6.925   1.255
 7096SOL    HW222188   6.313   6.884   1.110
 7097SOL     OW22189   4.711   1.698   2.688
 7097SOL    HW122190   4.697   1.662   2.780
 7097SOL    HW222191   4.623   1.716   2.645
 7098SOL     OW22192   0.899   1.143   3.324
 7098SOL    HW122193   0.910   1.227   3.378
 7098SOL    HW222194   0.958   1.072   3.362
 7099SOL     OW22195   3.620   1.913   4.465
 7099SOL    HW122196   3.649   1.817   4.469
 7099SOL    HW222197   3.678   1.963   4.401
 7100SOL     OW22198   0.227   3.892   1.194
 7100SOL    HW122199   0.303   3.899   1.260
 7100SOL    HW222200   0.142   3.921   1.238
 7101SOL     OW22201   2.494   5.562   4.365
 7101SOL    HW122202   2.571   5.599   4.312
 7101SOL    HW222203   2.483   5.615   4.449
 7102SOL     OW22204   5.571   1.467   3.038
 7102SOL    HW122205   5.544   1.563   3.046
 7102SOL    HW222206   5.670   1.460   3.044
 7103SOL     OW22207   5.146   3.709   3.796
 7103SOL    HW122208   5.051   3.737   3.811
 7103SOL    HW222209   5.162   3.620   3.839
 7104SOL     OW22210   5.147   2.971   4.572
 7104SOL    HW122211   5.184   2.973   4.665
 7104SOL    HW222212   5.056   3.012   4.572
 7105SOL     OW22213   2.963   3.715   2.941
 7105SOL    HW122214   2.931   3.735   2.848
 7105SOL    HW222215   2.993   3.800   2.985
 7106SOL     OW22216   3.283   1.417   2.490
 7106SOL    HW122217   3.313   1.429   2.395
 7106SOL    HW222218   3.249   1.505   2.525
 7107SOL     OW22219   3.763   0.790   6.653
 7107SOL    HW122220   3.696   0.837   6.596
 7107SOL    HW222221   3.735   0.796   6.749
 7108SOL     OW22222   4.099   0.245   2.092
 7108SOL    HW122223   4.187   0.231   2.136
 7108SOL    HW222224   4.031   0.269   2.161
 7109SOL     OW22225   3.313   5.454   6.325
 7109SOL    HW122226   3.316   5.467   6.424
 7109SOL    HW222227   3.244   5.385   6.302
 7110SOL     OW22228   2.551   6.508   4.954
 7110SOL    HW122229   2.565   6.410   4.937
 7110SOL    HW222230   2.598   6.535   5.038
 7111SOL     OW22231   6.410   0.790   5.019
 7111SOL    HW122232   6.317   0.800   5.055
 7111SOL    HW222233   6.470   0.857   5.063
 7112SOL     OW22234   1.036   4.967   5.277
 7112SOL    HW122235   0.951   4.978   5.328
 7112SOL    HW222236   1.025   4.897   5.207
 7113SOL     OW22237   3.092   6.491   4.555
 7113SOL    HW122238   3.149   6.447   4.624
 7113SOL    HW222239   3.147   6.554   4.501
 7114SOL     OW22240   5.839   3.963   1.247
 7114SOL    HW122241   5.823   3.934   1.341
 7114SOL    HW222242   5.816   3.889   1.185
 7115SOL     OW22243   5.510   2.999   5.856
 7115SOL    HW122244   5.440   3.003   5.784
 7115SOL    HW222245   5.471   2.956   5.938
 7116SOL     OW22246   0.145   4.028   4.553
 7116SOL    HW122247   0.237   4.055   4.578
 7116SOL    HW222248   0.140   3.928   4.545
 7117SOL     OW22249   5.072   6.856   2.928
 7117SOL    HW122250   4.975   6.853   2.902
 7117SOL    HW222251   5.089   6.940   2.980
 7118SOL     OW22252   4.378   4.662   6.199
 7118SOL    HW122253   4.476   4.676   6.181
 7118SOL    HW222254   4.334   4.628   6.115
 7119SOL     OW22255   3.159   6.522   5.476
 7119SOL    HW122256   3.073   6.484   5.511
 7119SOL    HW222257   3.197   6.585   5.544
 7120SOL     OW22258   4.342   1.196   0.775
 7120SOL    HW122259   4.404   1.240   0.710
 7120SOL    HW222260   4.379   1.207   0.868
 7121SOL     OW22261   1.016   5.959   2.570
 7121SOL    HW122262   1.018   5.965   2.670
 7121SOL    HW222263   0.978   6.044   2.533
 7122SOL     OW22264   3.701   2.121   6.746
 7122SOL    HW122265   3.639   2.056   6.703
 7122SOL    HW222266   3.781   2.134   6.688
 7123SOL     OW22267   5.522   4.953   5.871
 7123SOL    HW122268   5.538   4.986   5.778
 7123SOL    HW222269   5.606   4.912   5.906
 7124SOL     OW22270   1.737   3.177   1.101
 7124SOL    HW122271   1.754   3.194   1.198
 7124SOL    HW222272   1.773   3.087   1.076
 7125SOL     OW22273   0.699   6.568   2.281
 7125SOL    HW122274   0.785   6.614   2.261
 7125SOL    HW222275   0.686   6.492   2.218
 7126SOL     OW22276   3.745   5.396   1.560
 7126SOL    HW122277   3.829   5.438   1.594
 7126SOL    HW222278   3.688   5.368   1.638
 7127SOL     OW22279   2.884   6.140   6.445
 7127SOL    HW122280   2.893   6.040   6.441
 7127SOL    HW222281   2.841   6.166   6.531
 7128SOL     OW22282   2.998   4.100   0.064
 7128SOL    HW122283   2.955   4.010   0.055
 7128SOL    HW222284   3.060   4.099   0.143
 7129SOL     OW22285   0.479   0.196   0.345
 7129SOL    HW122286   0.416   0.147   0.285
 7129SOL    HW222287   0.567   0.207   0.300
 7130SOL     OW22288   3.004   6.948   4.079
 7130SOL    HW122289   2.927   6.963   4.140
 7130SOL    HW222290   3.046   6.860   4.099
 7131SOL     OW22291   2.340   1.592   1.763
 7131SOL    HW122292   2.400   1.520   1.728
 7131SOL    HW222293   2.351   1.600   1.862
 7132SOL     OW22294   4.652   4.316   1.084
 7132SOL    HW122295   4.638   4.230   1.134
 7132SOL    HW222296   4.605   4.390   1.132
 7133SOL     OW22297   4.793   5.944   2.853
 7133SOL    HW122298   4.862   5.962   2.922
 7133SOL    HW222299   4.836   5.903   2.772
 7134SOL     OW22300   5.283   5.128   0.029
 7134SOL    HW122301   5.262   5.054   0.092
 7134SOL    HW222302   5.346   5.192   0.073
 7135SOL     OW22303   2.001   3.663   1.580
 7135SOL    HW122304   2.006   3.589   1.647
 7135SOL    HW222305   2.040   3.746   1.619
 7136SOL     OW22306   1.095   2.479   1.891
 7136SOL    HW122307   1.106   2.446   1.798
 7136SOL    HW222308   1.115   2.404   1.955
 7137SOL     OW22309   2.930   0.925   2.123
 7137SOL    HW122310   2.928   1.020   2.153
 7137SOL    HW222311   2.839   0.885   2.131
 7138SOL     OW22312   0.228   3.291   0.338
 7138SOL    HW122313   0.203   3.364   0.274
 7138SOL    HW222314   0.269   3.330   0.420
 7139SOL     OW22315   5.714   6.122   0.823
 7139SOL    HW122316   5.765   6.051   0.873
 7139SOL    HW222317   5.749   6.212   0.849
 7140SOL     OW22318   6.814   4.533   0.011
 7140SOL    HW122319   6.776   4.469   0.077
 7140SOL    HW222320   6.824   4.488   6.940
 7141SOL     OW22321   3.237   0.810   0.951
 7141SOL    HW122322   3.210   0.831   0.857
 7141SOL    HW222323   3.229   0.893   1.007
 7142SOL     OW22324   4.645   0.292   4.728
 7142SOL    HW122325   4.661   0.233   4.649
 7142SOL    HW222326   4.568   0.353   4.709
 7143SOL     OW22327   2.539   2.863   6.435
 7143SOL    HW122328   2.482   2.945   6.441
 7143SOL    HW222329   2.530   2.809   6.519
 7144SOL     OW22330   6.997   0.797   6.152
 7144SOL    HW122331   0.026   0.766   6.069
 7144SOL    HW222332   6.905   0.758   6.155
 7145SOL     OW22333   5.649   1.778   6.263
 7145SOL    HW122334   5.633   1.805   6.168
 7145SOL    HW222335   5.566   1.791   6.316
 7146SOL     OW22336   0.692   2.415   5.220
 7146SOL    HW122337   0.786   2.449   5.211
 7146SOL    HW222338   0.665   2.413   5.316
 7147SOL     OW22339   6.481   6.490   1.944
 7147SOL    HW122340   6.404   6.534   1.898
 7147SOL    HW222341   6.461   6.482   2.042
 7148SOL     OW22342   6.659   6.822   1.378
 7148SOL    HW122343   6.560   6.820   1.394
 7148SOL    HW222344   6.685   6.744   1.321
 7149SOL     OW22345   5.389   4.635   5.674
 7149SOL    HW122346   5.304   4.658   5.627
 7149SOL    HW222347   5.410   4.538   5.660
 7150SOL     OW22348   2.959   2.459   7.008
 7150SOL    HW122349   2.951   2.364   0.019
 7150SOL    HW222350   3.036   2.502   0.038
 7151SOL     OW22351   5.428   1.464   6.911
 7151SOL    HW122352   5.409   1.516   6.828
 7151SOL    HW222353   5.507   1.404   6.896
 7152SOL     OW22354   4.772   0.575   5.683
 7152SOL    HW122355   4.871   0.577   5.697
 7152SOL    HW222356   4.731   0.507   5.743
 7153SOL     OW22357   3.188   5.814   0.398
 7153SOL    HW122358   3.125   5.872   0.450
 7153SOL    HW222359   3.204   5.730   0.449
 7154SOL     OW22360   4.537   1.076   2.315
 7154SOL    HW122361   4.630   1.108   2.330
 7154SOL    HW222362   4.487   1.143   2.260
 7155SOL     OW22363   1.347   0.535   2.076
 7155SOL    HW122364   1.418   0.484   2.125
 7155SOL    HW222365   1.260   0.528   2.125
 7156SOL     OW22366   6.455   3.776   5.497
 7156SOL    HW122367   6.536   3.793   5.440
 7156SOL    HW222368   6.382   3.739   5.440
 7157SOL     OW22369   0.273   4.400   5.880
 7157SOL    HW122370   0.180   4.367   5.900
 7157SOL    HW222371   0.317   4.338   5.816
 7158SOL     OW22372   5.238   0.257   4.207
 7158SOL    HW122373   5.187   0.213   4.133
 7158SOL    HW222374   5.277   0.343   4.173
 7159SOL     OW22375   0.846   6.525   3.253
 7159SOL    HW122376   0.918   6.497   3.189
 7159SOL    HW222377   0.781   6.451   3.265
 7160SOL     OW22378   5.922   6.978   3.044
 7160SOL    HW122379   5.965   6.889   3.031
 7160SOL    HW222380   5.958   0.002   3.128
 7161SOL     OW22381   3.865   4.013   2.318
 7161SOL    HW122382   3.953   3.966   2.334
 7161SOL    HW222383   3.826   4.039   2.406
 7162SOL     OW22384   0.356   6.148   1.011
 7162SOL    HW122385   0.419   6.224   1.000
 7162SOL    HW222386   0.275   6.178   1.062
 7163SOL     OW22387   6.569   0.764   1.215
 7163SOL    HW122388   6.647   0.821   1.241
 7163SOL    HW222389   6.565   0.756   1.115
 7164SOL     OW22390   1.182   1.069   6.984
 7164SOL    HW122391   1.180   1.117   6.897
 7164SOL    HW222392   1.271   1.023   6.996
 7165SOL     OW22393   5.824   2.350   0.350
 7165SOL    HW122394   5.923   2.362   0.350
 7165SOL    HW222395   5.788   2.372   0.441
 7166SOL     OW22396   0.155   5.598   5.765
 7166SOL    HW122397   0.147   5.571   5.861
 7166SOL    HW222398   0.236   5.555   5.725
 7167SOL     OW22399   0.082   2.919   5.300
 7167SOL    HW122400   0.041   2.920   5.209
 7167SOL    HW222401   0.027   2.976   5.362
 7168SOL     OW22402   2.039   1.818   2.318
 7168SOL    HW122403   1.988   1.860   2.242
 7168SOL    HW222404   1.975   1.778   2.383
 7169SOL     OW22405   1.521   4.688   5.478
 7169SOL    HW122406   1.427   4.655   5.467
 7169SOL    HW222407   1.584   4.616   5.450
 7170SOL     OW22408   3.337   1.523   1.274
 7170SOL    HW122409   3.415   1.473   1.313
 7170SOL    HW222410   3.293   1.577   1.345
 7171SOL     OW22411   6.683   3.857   0.679
 7171SOL    HW122412   6.719   3.832   0.588
 7171SOL    HW222413   6.699   3.954   0.695
 7172SOL     OW22414   0.769   2.054   3.631
 7172SOL    HW122415   0.757   2.152   3.651
 7172SOL    HW222416   0.857   2.041   3.586
 7173SOL     OW22417   4.509   5.752   5.727
 7173SOL    HW122418   4.416   5.765   5.691
 7173SOL    HW222419   4.516   5.661   5.768
 7174SOL     OW22420   6.632   4.336   2.223
 7174SOL    HW122421   6.600   4.242   2.210
 7174SOL    HW222422   6.574   4.398   2.171
 7175SOL     OW22423   6.399   4.068   5.661
 7175SOL    HW122424   6.423   3.989   5.605
 7175SOL    HW222425   6.388   4.149   5.602
 7176SOL     OW22426   0.168   1.083   6.052
 7176SOL    HW122427   0.204   1.141   6.125
 7176SOL    HW222428   0.171   1.133   5.965
 7177SOL     OW22429   1.458   6.083   3.671
 7177SOL    HW122430   1.368   6.055   3.638
 7177SOL    HW222431   1.451   6.174   3.712
 7178SOL     OW22432   1.421   6.954   4.973
 7178SOL    HW122433   1.342   6.976   4.916
 7178SOL    HW222434   1.429   0.004   5.046
 7179SOL     OW22435   4.392   4.988   5.770
 7179SOL    HW122436   4.315   4.999   5.833
 7179SOL    HW222437   4.367   5.023   5.680
 7180SOL     OW22438   1.900   3.057   1.809
 7180SOL    HW122439   1.997   3.082   1.815
 7180SOL    HW222440   1.844   3.134   1.839
 7181SOL     OW22441   2.026   1.231   6.879
 7181SOL    HW122442   2.112   1.195   6.843
 7181SOL    HW222443   1.954   1.163   6.868
 7182SOL     OW22444   1.729   1.129   3.779
 7182SOL    HW122445   1.781   1.213   3.793
 7182SOL    HW222446   1.762   1.058   3.842
 7183SOL     OW22447   1.769   0.115   2.184
 7183SOL    HW122448   1.752   0.179   2.259
 7183SOL    HW222449   1.741   0.156   2.097
 7184SOL     OW22450   6.469   0.925   3.760
 7184SOL    HW122451   6.380   0.952   3.798
 7184SOL    HW222452   6.527   0.891   3.834
 7185SOL     OW22453   3.995   0.845   3.868
 7185SOL    HW122454   4.039   0.895   3.794
 7185SOL    HW222455   4.061   0.783   3.911
 7186SOL     OW22456   6.454   0.770   6.806
 7186SOL    HW122457   6.415   0.835   6.871
 7186SOL    HW222458   6.549   0.796   6.787
 7187SOL     OW22459   3.806   3.514   3.861
 7187SOL    HW122460   3.849   3.438   3.812
 7187SOL    HW222461   3.713   3.488   3.887
 7188SOL     OW22462   4.705   4.448   0.242
 7188SOL    HW122463   4.689   4.490   0.153
 7188SOL    HW222464   4.722   4.519   0.310
 7189SOL     OW22465   6.770   2.648   5.825
 7189SOL    HW122466   6.781   2.558   5.866
 7189SOL    HW222467   6.751   2.638   5.728
 7190SOL     OW22468   6.306   5.382   6.855
 7190SOL    HW122469   6.336   5.364   6.949
 7190SOL    HW222470   6.241   5.311   6.827
 7191SOL     OW22471   6.665   4.853   2.487
 7191SOL    HW122472   6.593   4.889   2.546
 7191SOL    HW222473   6.710   4.776   2.532
 7192SOL     OW22474   2.352   4.040   5.469
 7192SOL    HW122475   2.344   3.964   5.405
 7192SOL    HW222476   2.356   4.126   5.418
 7193SOL     OW22477   3.352   1.804   3.275
 7193SOL    HW122478   3.283   1.867   3.240
 7193SOL    HW222479   3.380   1.741   3.202
 7194SOL     OW22480   2.950   2.506   6.328
 7194SOL    HW122481   2.931   2.576   6.259
 7194SOL    HW222482   2.987   2.550   6.410
 7195SOL     OW22483   0.850   4.159   5.714
 7195SOL    HW122484   0.837   4.227   5.642
 7195SOL    HW222485   0.943   4.121   5.707
 7196SOL     OW22486   3.400   4.115   1.699
 7196SOL    HW122487   3.445   4.109   1.788
 7196SOL    HW222488   3.305   4.141   1.711
 7197SOL     OW22489   3.333   4.656   6.643
 7197SOL    HW122490   3.405   4.603   6.686
 7197SOL    HW222491   3.354   4.668   6.546
 7198SOL     OW22492   0.812   0.424   1.682
 7198SOL    HW122493   0.881   0.433   1.610
 7198SOL    HW222494   0.843   0.356   1.749
 7199SOL     OW22495   6.117   1.558   2.731
 7199SOL    HW122496   6.143   1.479   2.788
 7199SOL    HW222497   6.025   1.588   2.756
 7200SOL     OW22498   0.898   2.606   0.311
 7200SOL    HW122499   0.874   2.552   0.392
 7200SOL    HW222500   0.816   2.645   0.271
 7201SOL     OW22501   5.929   5.376   3.975
 7201SOL    HW122502   5.994   5.329   4.035
 7201SOL    HW222503   5.976   5.448   3.924
 7202SOL     OW22504   4.579   6.622   5.695
 7202SOL    HW122505   4.505   6.690   5.693
 7202SOL    HW222506   4.619   6.620   5.787
 7203SOL     OW22507   0.214   1.694   1.050
 7203SOL    HW122508   0.248   1.750   0.975
 7203SOL    HW222509   0.202   1.600   1.020
 7204SOL     OW22510   6.443   0.850   2.473
 7204SOL    HW122511   6.450   0.930   2.532
 7204SOL    HW222512   6.353   0.809   2.484
 7205SOL     OW22513   3.162   1.802   4.525
 7205SOL    HW122514   3.211   1.882   4.560
 7205SOL    HW222515   3.128   1.821   4.433
 7206SOL     OW22516   2.021   3.992   6.828
 7206SOL    HW122517   2.052   3.992   6.923
 7206SOL    HW222518   1.948   3.925   6.816
 7207SOL     OW22519   2.074   1.210   3.558
 7207SOL    HW122520   2.015   1.247   3.630
 7207SOL    HW222521   2.059   1.260   3.473
 7208SOL     OW22522   3.884   0.948   4.112
 7208SOL    HW122523   3.954   0.895   4.064
 7208SOL    HW222524   3.794   0.927   4.073
 7209SOL     OW22525   3.404   0.994   1.685
 7209SOL    HW122526   3.454   0.992   1.598
 7209SOL    HW222527   3.356   0.908   1.698
 7210SOL     OW22528   3.446   1.291   3.634
 7210SOL    HW122529   3.471   1.283   3.538
 7210SOL    HW222530   3.455   1.386   3.664
 7211SOL     OW22531   4.333   6.539   5.489
 7211SOL    HW122532   4.343   6.630   5.529
 7211SOL    HW222533   4.237   6.512   5.491
 7212SOL     OW22534   0.596   4.998   5.279
 7212SOL    HW122535   0.685   4.954   5.287
 7212SOL    HW222536   0.591   5.077   5.341
 7213SOL     OW22537   4.046   2.300   0.125
 7213SOL    HW122538   4.115   2.240   0.085
 7213SOL    HW222539   4.052   2.296   0.225
 7214SOL     OW22540   6.317   6.966   6.407
 7214SOL    HW122541   6.366   0.034   6.391
 7214SOL    HW222542   6.237   6.960   6.348
 7215SOL     OW22543   6.496   1.227   2.462
 7215SOL    HW122544   6.492   1.280   2.377
 7215SOL    HW222545   6.590   1.199   2.480
 7216SOL     OW22546   4.475   0.061   2.937
 7216SOL    HW122547   4.565   0.018   2.935
 7216SOL    HW222548   4.405   7.008   2.928
 7217SOL     OW22549   1.165   2.319   3.013
 7217SOL    HW122550   1.124   2.302   3.103
 7217SOL    HW222551   1.123   2.259   2.945
 7218SOL     OW22552   6.314   2.606   4.614
 7218SOL    HW122553   6.267   2.522   4.587
 7218SOL    HW222554   6.395   2.619   4.558
 7219SOL     OW22555   2.917   6.018   2.841
 7219SOL    HW122556   2.964   6.001   2.927
 7219SOL    HW222557   2.850   6.092   2.854
 7220SOL     OW22558   6.257   4.184   3.462
 7220SOL    HW122559   6.307   4.098   3.453
 7220SOL    HW222560   6.260   4.234   3.375
 7221SOL     OW22561   3.853   5.376   3.525
 7221SOL    HW122562   3.827   5.441   3.453
 7221SOL    HW222563   3.952   5.374   3.534
 7222SOL     OW22564   6.882   6.004   4.191
 7222SOL    HW122565   6.951   5.975   4.125
 7222SOL    HW222566   6.848   6.094   4.166
 7223SOL     OW22567   0.260   4.318   1.458
 7223SOL    HW122568   0.306   4.407   1.460
 7223SOL    HW222569   0.323   4.249   1.421
 7224SOL     OW22570   4.289   2.278   2.527
 7224SOL    HW122571   4.274   2.180   2.512
 7224SOL    HW222572   4.206   2.328   2.506
 7225SOL     OW22573   1.525   5.945   0.747
 7225SOL    HW122574   1.582   5.912   0.672
 7225SOL    HW222575   1.577   6.011   0.802
 7226SOL     OW22576   6.844   6.317   0.314
 7226SOL    HW122577   6.888   6.386   0.256
 7226SOL    HW222578   6.892   6.311   0.401
 7227SOL     OW22579   1.976   1.227   2.529
 7227SOL    HW122580   1.949   1.134   2.505
 7227SOL    HW222581   2.048   1.224   2.600
 7228SOL     OW22582   6.296   3.359   2.237
 7228SOL    HW122583   6.234   3.314   2.172
 7228SOL    HW222584   6.386   3.369   2.196
 7229SOL     OW22585   6.226   1.181   5.096
 7229SOL    HW122586   6.264   1.142   5.013
 7229SOL    HW222587   6.173   1.111   5.144
 7230SOL     OW22588   2.208   4.931   4.560
 7230SOL    HW122589   2.273   4.855   4.557
 7230SOL    HW222590   2.116   4.895   4.577
 7231SOL     OW22591   4.234   2.882   5.854
 7231SOL    HW122592   4.287   2.808   5.813
 7231SOL    HW222593   4.259   2.890   5.950
 7232SOL     OW22594   4.653   6.251   3.601
 7232SOL    HW122595   4.626   6.262   3.696
 7232SOL    HW222596   4.657   6.341   3.557
 7233SOL     OW22597   0.229   1.473   5.276
 7233SOL    HW122598   0.156   1.505   5.337
 7233SOL    HW222599   0.194   1.465   5.183
 7234SOL     OW22600   5.247   4.329   3.603
 7234SOL    HW122601   5.231   4.241   3.557
 7234SOL    HW222602   5.315   4.318   3.674
 7235SOL     OW22603   6.091   6.143   1.717
 7235SOL    HW122604   6.173   6.091   1.743
 7235SOL    HW222605   6.041   6.170   1.800
 7236SOL     OW22606   1.610   3.569   2.808
 7236SOL    HW122607   1.550   3.601   2.882
 7236SOL    HW222608   1.571   3.596   2.720
 7237SOL     OW22609   5.661   1.111   0.534
 7237SOL    HW122610   5.630   1.047   0.605
 7237SOL    HW222611   5.759   1.099   0.519
 7238SOL     OW22612   4.286   3.761   0.005
 7238SOL    HW122613   4.373   3.715   0.020
 7238SOL    HW222614   4.302   3.849   6.979
 7239SOL     OW22615   5.945   2.430   2.322
 7239SOL    HW122616   5.905   2.519   2.346
 7239SOL    HW222617   6.044   2.436   2.324
 7240SOL     OW22618   6.889   1.553   0.772
 7240SOL    HW122619   6.972   1.608   0.760
 7240SOL    HW222620   6.855   1.564   0.866
 7241SOL     OW22621   2.029   0.655   2.334
 7241SOL    HW122622   1.997   0.718   2.264
 7241SOL    HW222623   1.953   0.628   2.392
 7242SOL     OW22624   0.020   4.363   4.788
 7242SOL    HW122625   0.094   4.430   4.781
 7242SOL    HW222626   0.016   4.309   4.704
 7243SOL     OW22627   5.747   4.725   6.392
 7243SOL    HW122628   5.760   4.626   6.383
 7243SOL    HW222629   5.758   4.768   6.303
 7244SOL     OW22630   6.924   5.980   0.139
 7244SOL    HW122631   6.990   5.907   0.121
 7244SOL    HW222632   6.868   5.955   0.218
 7245SOL     OW22633   1.081   3.400   0.404
 7245SOL    HW122634   1.039   3.447   0.482
 7245SOL    HW222635   1.022   3.411   0.324
 7246SOL     OW22636   4.316   6.597   3.078
 7246SOL    HW122637   4.269   6.509   3.081
 7246SOL    HW222638   4.337   6.627   3.171
 7247SOL     OW22639   3.150   3.765   4.641
 7247SOL    HW122640   3.112   3.845   4.687
 7247SOL    HW222641   3.095   3.742   4.562
 7248SOL     OW22642   2.926   1.842   5.468
 7248SOL    HW122643   2.864   1.879   5.398
 7248SOL    HW222644   3.006   1.802   5.425
 7249SOL     OW22645   4.088   5.102   2.616
 7249SOL    HW122646   4.177   5.127   2.579
 7249SOL    HW222647   4.035   5.185   2.634
 7250SOL     OW22648   5.651   5.144   5.131
 7250SOL    HW122649   5.725   5.208   5.148
 7250SOL    HW222650   5.684   5.067   5.076
 7251SOL     OW22651   0.326   5.800   5.422
 7251SOL    HW122652   0.327   5.836   5.328
 7251SOL    HW222653   0.264   5.854   5.478
 7252SOL     OW22654   3.639   4.089   2.179
 7252SOL    HW122655   3.600   4.161   2.236
 7252SOL    HW222656   3.726   4.059   2.217
 7253SOL     OW22657   2.524   5.572   4.824
 7253SOL    HW122658   2.427   5.560   4.804
 7253SOL    HW222659   2.574   5.490   4.798
 7254SOL     OW22660   5.820   3.001   4.417
 7254SOL    HW122661   5.872   3.086   4.424
 7254SOL    HW222662   5.805   2.964   4.509
 7255SOL     OW22663   5.170   3.778   6.813
 7255SOL    HW122664   5.102   3.705   6.824
 7255SOL    HW222665   5.179   3.828   6.899
 7256SOL     OW22666   3.123   6.798   4.939
 7256SOL    HW122667   3.083   6.745   4.864
 7256SOL    HW222668   3.085   6.891   4.938
 7257SOL     OW22669   0.776   1.314   4.446
 7257SOL    HW122670   0.817   1.295   4.535
 7257SOL    HW222671   0.680   1.284   4.446
 7258SOL     OW22672   5.587   3.034   2.510
 7258SOL    HW122673   5.591   3.020   2.411
 7258SOL    HW222674   5.674   3.007   2.551
 7259SOL     OW22675   1.359   4.150   2.572
 7259SOL    HW122676   1.338   4.098   2.489
 7259SOL    HW222677   1.386   4.087   2.645
 7260SOL     OW22678   5.677   3.235   0.617
 7260SOL    HW122679   5.597   3.242   0.558
 7260SOL    HW222680   5.666   3.295   0.696
 7261SOL     OW22681   6.638   4.419   0.235
 7261SOL    HW122682   6.587   4.333   0.240
 7261SOL    HW222683   6.576   4.495   0.255
 7262SOL     OW22684   5.650   1.078   4.977
 7262SOL    HW122685   5.570   1.072   5.037
 7262SOL    HW222686   5.661   1.173   4.946
 7263SOL     OW22687   6.807   5.893   6.910
 7263SOL    HW122688   6.829   5.905   7.007
 7263SOL    HW222689   6.708   5.902   6.897
 7264SOL     OW22690   5.967   1.148   0.866
 7264SOL    HW122691   5.931   1.238   0.895
 7264SOL    HW222692   6.064   1.156   0.845
 7265SOL     OW22693   3.848   0.100   5.680
 7265SOL    HW122694   3.832   0.012   5.635
 7265SOL    HW222695   3.844   0.088   5.779
 7266SOL     OW22696   0.426   0.935   3.727
 7266SOL    HW122697   0.388   0.974   3.811
 7266SOL    HW222698   0.397   0.840   3.719
 7267SOL     OW22699   6.397   4.461   4.901
 7267SOL    HW122700   6.478   4.515   4.927
 7267SOL    HW222701   6.415   4.413   4.815
 7268SOL     OW22702   6.224   6.832   4.587
 7268SOL    HW122703   6.274   6.747   4.572
 7268SOL    HW222704   6.150   6.839   4.520
 7269SOL     OW22705   2.733   4.796   4.805
 7269SOL    HW122706   2.754   4.743   4.887
 7269SOL    HW222707   2.786   4.760   4.728
 7270SOL     OW22708   0.898   1.252   4.746
 7270SOL    HW122709   0.849   1.166   4.758
 7270SOL    HW222710   0.996   1.234   4.744
 7271SOL     OW22711   0.805   4.670   2.954
 7271SOL    HW122712   0.779   4.664   3.051
 7271SOL    HW222713   0.806   4.579   2.914
 7272SOL     OW22714   6.423   4.426   1.611
 7272SOL    HW122715   6.354   4.462   1.548
 7272SOL    HW222716   6.441   4.492   1.684
 7273SOL     OW22717   0.706   2.535   5.477
 7273SOL    HW122718   0.614   2.531   5.516
 7273SOL    HW222719   0.774   2.521   5.549
 7274SOL     OW22720   0.643   4.609   6.868
 7274SOL    HW122721   0.658   4.704   6.895
 7274SOL    HW222722   0.545   4.591   6.865
 7275SOL     OW22723   0.370   6.623   3.421
 7275SOL    HW122724   0.364   6.695   3.489
 7275SOL    HW222725   0.405   6.660   3.335
 7276SOL     OW22726   5.575   6.724   4.517
 7276SOL    HW122727   5.668   6.702   4.548
 7276SOL    HW222728   5.518   6.642   4.522
 7277SOL     OW22729   4.640   0.410   6.819
 7277SOL    HW122730   4.704   0.401   6.896
 7277SOL    HW222731   4.674   0.478   6.754
 7278SOL     OW22732   3.657   2.906   2.142
 7278SOL    HW122733   3.578   2.956   2.107
 7278SOL    HW222734   3.643   2.808   2.128
 7279SOL     OW22735   3.425   6.412   5.978
 7279SOL    HW122736   3.412   6.350   6.055
 7279SOL    HW222737   3.506   6.384   5.926
 7280SOL     OW22738   4.712   1.318   6.024
 7280SOL    HW122739   4.768   1.377   5.966
 7280SOL    HW222740   4.648   1.266   5.966
 7281SOL     OW22741   4.779   1.176   6.273
 7281SOL    HW122742   4.878   1.186   6.271
 7281SOL    HW222743   4.740   1.222   6.193
 7282SOL     OW22744   5.797   5.315   2.277
 7282SOL    HW122745   5.832   5.256   2.205
 7282SOL    HW222746   5.839   5.289   2.364
 7283SOL     OW22747   1.920   0.874   3.808
 7283SOL    HW122748   1.867   0.790   3.816
 7283SOL    HW222749   1.992   0.861   3.740
 7284SOL     OW22750   0.412   2.941   4.892
 7284SOL    HW122751   0.391   2.844   4.880
 7284SOL    HW222752   0.445   2.956   4.986
 7285SOL     OW22753   5.538   5.397   2.251
 7285SOL    HW122754   5.499   5.355   2.333
 7285SOL    HW222755   5.636   5.381   2.249
 7286SOL     OW22756   2.342   3.686   1.462
 7286SOL    HW122757   2.433   3.728   1.461
 7286SOL    HW222758   2.293   3.709   1.378
 7287SOL     OW22759   6.051   1.834   6.625
 7287SOL    HW122760   6.007   1.832   6.535
 7287SOL    HW222761   5.982   1.843   6.696
 7288SOL     OW22762   3.218   6.202   6.919
 7288SOL    HW122763   3.132   6.162   6.887
 7288SOL    HW222764   3.227   6.189   7.018
 7289SOL     OW22765   4.988   1.813   3.733
 7289SOL    HW122766   5.041   1.753   3.674
 7289SOL    HW222767   5.037   1.828   3.819
 7290SOL     OW22768   2.860   4.971   3.921
 7290SOL    HW122769   2.843   4.955   4.018
 7290SOL    HW222770   2.790   5.033   3.884
 7291SOL     OW22771   2.806   5.264   2.237
 7291SOL    HW122772   2.754   5.239   2.155
 7291SOL    HW222773   2.760   5.340   2.283
 7292SOL     OW22774   2.725   6.957   4.437
 7292SOL    HW122775   2.638   6.908   4.433
 7292SOL    HW222776   2.738   7.008   4.352
 7293SOL     OW22777   1.349   2.243   5.679
 7293SOL    HW122778   1.370   2.316   5.745
 7293SOL    HW222779   1.251   2.242   5.659
 7294SOL     OW22780   3.535   5.501   0.337
 7294SOL    HW122781   3.456   5.501   0.397
 7294SOL    HW222782   3.567   5.595   0.323
 7295SOL     OW22783   5.667   0.130   1.549
 7295SOL    HW122784   5.676   0.189   1.629
 7295SOL    HW222785   5.667   0.035   1.578
 7296SOL     OW22786   4.330   4.980   2.003
 7296SOL    HW122787   4.249   5.019   2.046
 7296SOL    HW222788   4.412   5.017   2.047
 7297SOL     OW22789   5.154   0.069   1.815
 7297SOL    HW122790   5.087   0.069   1.741
 7297SOL    HW222791   5.106   0.068   1.903
 7298SOL     OW22792   6.279   3.578   4.155
 7298SOL    HW122793   6.302   3.510   4.086
 7298SOL    HW222794   6.241   3.532   4.236
 7299SOL     OW22795   6.093   3.609   6.445
 7299SOL    HW122796   6.103   3.585   6.542
 7299SOL    HW222797   6.169   3.569   6.393
 7300SOL     OW22798   4.496   4.890   1.113
 7300SOL    HW122799   4.418   4.844   1.071
 7300SOL    HW222800   4.471   4.983   1.137
 7301SOL     OW22801   6.859   0.696   6.523
 7301SOL    HW122802   6.794   0.734   6.589
 7301SOL    HW222803   6.811   0.670   6.440
 7302SOL     OW22804   4.981   0.875   6.332
 7302SOL    HW122805   4.888   0.889   6.364
 7302SOL    HW222806   5.045   0.922   6.394
 7303SOL     OW22807   3.678   1.147   0.431
 7303SOL    HW122808   3.593   1.098   0.451
 7303SOL    HW222809   3.659   1.245   0.424
 7304SOL     OW22810   3.537   4.350   5.313
 7304SOL    HW122811   3.637   4.352   5.311
 7304SOL    HW222812   3.505   4.258   5.288
 7305SOL     OW22813   5.281   1.244   0.315
 7305SOL    HW122814   5.264   1.163   0.259
 7305SOL    HW222815   5.292   1.324   0.256
 7306SOL     OW22816   4.868   4.833   1.516
 7306SOL    HW122817   4.965   4.840   1.539
 7306SOL    HW222818   4.836   4.919   1.476
 7307SOL     OW22819   3.962   6.750   2.497
 7307SOL    HW122820   4.015   6.783   2.575
 7307SOL    HW222821   3.992   6.798   2.414
 7308SOL     OW22822   6.273   1.404   4.795
 7308SOL    HW122823   6.256   1.497   4.826
 7308SOL    HW222824   6.258   1.397   4.697
 7309SOL     OW22825   4.713   6.003   1.566
 7309SOL    HW122826   4.789   5.986   1.503
 7309SOL    HW222827   4.730   6.089   1.616
 7310SOL     OW22828   2.765   5.146   1.221
 7310SOL    HW122829   2.697   5.099   1.277
 7310SOL    HW222830   2.854   5.102   1.232
 7311SOL     OW22831   2.735   2.130   2.119
 7311SOL    HW122832   2.812   2.191   2.100
 7311SOL    HW222833   2.670   2.134   2.044
 7312SOL     OW22834   6.842   1.821   5.961
 7312SOL    HW122835   6.749   1.799   5.991
 7312SOL    HW222836   6.873   1.751   5.897
 7313SOL     OW22837   4.416   2.932   6.481
 7313SOL    HW122838   4.483   2.859   6.492
 7313SOL    HW222839   4.367   2.945   6.567
 7314SOL     OW22840   0.314   3.086   4.453
 7314SOL    HW122841   0.218   3.102   4.474
 7314SOL    HW222842   0.347   3.006   4.503
 7315SOL     OW22843   0.004   0.668   4.807
 7315SOL    HW122844   6.978   0.756   4.826
 7315SOL    HW222845   6.967   0.595   4.848
 7316SOL     OW22846   3.449   4.107   5.246
 7316SOL    HW122847   3.429   4.041   5.319
 7316SOL    HW222848   3.447   4.060   5.158
 7317SOL     OW22849   3.239   1.193   4.088
 7317SOL    HW122850   3.295   1.147   4.019
 7317SOL    HW222851   3.178   1.258   4.044
 7318SOL     OW22852   1.622   1.834   1.514
 7318SOL    HW122853   1.562   1.754   1.519
 7318SOL    HW222854   1.677   1.829   1.431
 7319SOL     OW22855   6.411   4.515   6.401
 7319SOL    HW122856   6.386   4.424   6.368
 7319SOL    HW222857   6.464   4.563   6.331
 7320SOL     OW22858   6.862   2.755   1.907
 7320SOL    HW122859   6.800   2.733   1.982
 7320SOL    HW222860   6.816   2.735   1.820
 7321SOL     OW22861   3.064   1.231   4.731
 7321SOL    HW122862   3.153   1.267   4.759
 7321SOL    HW222863   3.007   1.307   4.700
 7322SOL     OW22864   0.398   3.675   2.768
 7322SOL    HW122865   0.356   3.735   2.836
 7322SOL    HW222866   0.393   3.580   2.800
 7323SOL     OW22867   1.968   3.440   3.215
 7323SOL    HW122868   1.870   3.432   3.234
 7323SOL    HW222869   2.002   3.527   3.250
 7324SOL     OW22870   5.495   6.347   3.114
 7324SOL    HW122871   5.522   6.253   3.137
 7324SOL    HW222872   5.530   6.370   3.023
 7325SOL     OW22873   2.859   6.381   6.909
 7325SOL    HW122874   2.805   6.389   6.993
 7325SOL    HW222875   2.909   6.466   6.893
 7326SOL     OW22876   2.683   6.597   5.511
 7326SOL    HW122877   2.662   6.500   5.522
 7326SOL    HW222878   2.644   6.631   5.425
 7327SOL     OW22879   1.457   2.688   5.688
 7327SOL    HW122880   1.500   2.765   5.736
 7327SOL    HW222881   1.364   2.714   5.660
 7328SOL     OW22882   3.011   0.395   7.016
 7328SOL    HW122883   2.927   0.340   7.012
 7328SOL    HW222884   3.089   0.336   6.996
 7329SOL     OW22885   4.412   3.215   1.381
 7329SOL    HW122886   4.381   3.120   1.380
 7329SOL    HW222887   4.355   3.270   1.320
 7330SOL     OW22888   4.085   1.625   0.333
 7330SOL    HW122889   4.093   1.722   0.310
 7330SOL    HW222890   4.134   1.606   0.418
 7331SOL     OW22891   5.334   0.714   1.225
 7331SOL    HW122892   5.358   0.672   1.138
 7331SOL    HW222893   5.354   0.812   1.221
 7332SOL     OW22894   3.728   5.439   1.300
 7332SOL    HW122895   3.629   5.452   1.295
 7332SOL    HW222896   3.756   5.434   1.396
 7333SOL     OW22897   1.053   5.055   2.915
 7333SOL    HW122898   1.019   5.148   2.902
 7333SOL    HW222899   1.153   5.056   2.917
 7334SOL     OW22900   3.888   6.738   4.185
 7334SOL    HW122901   3.950   6.690   4.247
 7334SOL    HW222902   3.838   6.808   4.236
 7335SOL     OW22903   1.708   2.395   2.750
 7335SOL    HW122904   1.681   2.487   2.780
 7335SOL    HW222905   1.630   2.350   2.707
 7336SOL     OW22906   1.949   6.757   3.438
 7336SOL    HW122907   2.009   6.833   3.413
 7336SOL    HW222908   1.976   6.721   3.528
 7337SOL     OW22909   5.856   2.685   2.350
 7337SOL    HW122910   5.937   2.694   2.407
 7337SOL    HW222911   5.847   2.765   2.291
 7338SOL     OW22912   6.233   3.142   0.183
 7338SOL    HW122913   6.290   3.066   0.213
 7338SOL    HW222914   6.218   3.205   0.260
 7339SOL     OW22915   0.428   5.338   4.782
 7339SOL    HW122916   0.527   5.322   4.779
 7339SOL    HW222917   0.398   5.347   4.877
 7340SOL     OW22918   1.891   0.099   6.364
 7340SOL    HW122919   1.893   0.103   6.464
 7340SOL    HW222920   1.807   0.142   6.331
 7341SOL     OW22921   6.534   2.615   0.202
 7341SOL    HW122922   6.589   2.546   0.250
 7341SOL    HW222923   6.587   2.699   0.192
 7342SOL     OW22924   6.807   0.011   2.393
 7342SOL    HW122925   6.764   0.097   2.419
 7342SOL    HW222926   6.784   7.008   2.298
 7343SOL     OW22927   5.195   2.951   0.614
 7343SOL    HW122928   5.109   2.976   0.569
 7343SOL    HW222929   5.183   2.864   0.663
 7344SOL     OW22930   1.304   6.508   5.749
 7344SOL    HW122931   1.249   6.575   5.800
 7344SOL    HW222932   1.401   6.534   5.754
 7345SOL     OW22933   3.092   4.923   6.333
 7345SOL    HW122934   3.185   4.956   6.318
 7345SOL    HW222935   3.077   4.839   6.282
 7346SOL     OW22936   4.766   4.784   2.599
 7346SOL    HW122937   4.769   4.812   2.503
 7346SOL    HW222938   4.841   4.828   2.649
 7347SOL     OW22939   6.165   2.353   6.374
 7347SOL    HW122940   6.082   2.343   6.319
 7347SOL    HW222941   6.206   2.263   6.389
 7348SOL     OW22942   6.985   4.288   1.355
 7348SOL    HW122943   0.027   4.311   1.432
 7348SOL    HW222944   0.014   4.224   1.294
 7349SOL     OW22945   3.983   1.847   2.140
 7349SOL    HW122946   4.035   1.799   2.069
 7349SOL    HW222947   4.037   1.923   2.176
 7350SOL     OW22948   3.654   0.899   4.341
 7350SOL    HW122949   3.653   0.872   4.245
 7350SOL    HW222950   3.566   0.941   4.365
 7351SOL     OW22951   3.176   4.917   4.051
 7351SOL    HW122952   3.268   4.944   4.080
 7351SOL    HW222953   3.175   4.904   3.952
 7352SOL     OW22954   6.446   2.764   3.770
 7352SOL    HW122955   6.380   2.698   3.733
 7352SOL    HW222956   6.539   2.732   3.751
 7353SOL     OW22957   6.204   0.195   6.548
 7353SOL    HW122958   6.164   0.169   6.461
 7353SOL    HW222959   6.224   0.293   6.548
 7354SOL     OW22960   0.115   1.651   2.920
 7354SOL    HW122961   0.047   1.664   2.992
 7354SOL    HW222962   0.135   1.739   2.877
 7355SOL     OW22963   2.495   1.929   0.054
 7355SOL    HW122964   2.507   1.833   0.079
 7355SOL    HW222965   2.398   1.952   0.054
 7356SOL     OW22966   4.243   4.073   6.029
 7356SOL    HW122967   4.215   3.978   6.045
 7356SOL    HW222968   4.179   4.117   5.966
 7357SOL     OW22969   5.233   5.874   2.491
 7357SOL    HW122970   5.228   5.934   2.411
 7357SOL    HW222971   5.326   5.876   2.528
 7358SOL     OW22972   5.673   1.236   3.092
 7358SOL    HW122973   5.642   1.164   3.153
 7358SOL    HW222974   5.594   1.283   3.053
 7359SOL     OW22975   4.893   0.333   1.389
 7359SOL    HW122976   4.865   0.389   1.312
 7359SOL    HW222977   4.948   0.388   1.452
 7360SOL     OW22978   2.972   3.404   5.013
 7360SOL    HW122979   3.006   3.320   4.971
 7360SOL    HW222980   2.982   3.480   4.950
 7361SOL     OW22981   5.791   0.558   3.330
 7361SOL    HW122982   5.817   0.620   3.256
 7361SOL    HW222983   5.821   0.465   3.307
 7362SOL     OW22984   3.337   4.886   6.816
 7362SOL    HW122985   3.332   4.796   6.773
 7362SOL    HW222986   3.423   4.930   6.793
 7363SOL     OW22987   3.804   0.719   0.659
 7363SOL    HW122988   3.882   0.776   0.683
 7363SOL    HW222989   3.720   0.774   0.665
 7364SOL     OW22990   5.608   6.789   1.478
 7364SOL    HW122991   5.601   6.831   1.568
 7364SOL    HW222992   5.696   6.814   1.436
 7365SOL     OW22993   5.293   4.859   2.643
 7365SOL    HW122994   5.386   4.834   2.671
 7365SOL    HW222995   5.235   4.867   2.724
 7366SOL     OW22996   1.784   0.315   3.932
 7366SOL    HW122997   1.848   0.382   3.893
 7366SOL    HW222998   1.814   0.223   3.908
 7367SOL     OW22999   4.068   0.388   6.984
 7367SOL    HW123000   4.012   0.310   7.011
 7367SOL    HW223001   4.116   0.424   0.046
 7368SOL     OW23002   3.739   3.657   3.533
 7368SOL    HW123003   3.816   3.712   3.565
 7368SOL    HW223004   3.654   3.698   3.566
 7369SOL     OW23005   5.157   1.994   0.549
 7369SOL    HW123006   5.083   2.018   0.487
 7369SOL    HW223007   5.238   2.050   0.528
 7370SOL     OW23008   1.558   1.099   4.476
 7370SOL    HW123009   1.508   1.083   4.391
 7370SOL    HW223010   1.495   1.131   4.546
 7371SOL     OW23011   3.797   1.182   3.807
 7371SOL    HW123012   3.848   1.196   3.892
 7371SOL    HW223013   3.824   1.251   3.740
 7372SOL     OW23014   5.845   1.037   5.617
 7372SOL    HW123015   5.830   1.049   5.716
 7372SOL    HW223016   5.926   1.090   5.590
 7373SOL     OW23017   5.899   3.556   4.401
 7373SOL    HW123018   5.933   3.634   4.349
 7373SOL    HW223019   5.811   3.579   4.443
 7374SOL     OW23020   6.497   2.638   5.316
 7374SOL    HW123021   6.410   2.590   5.329
 7374SOL    HW223022   6.503   2.671   5.221
 7375SOL     OW23023   1.416   3.491   2.238
 7375SOL    HW123024   1.411   3.400   2.198
 7375SOL    HW223025   1.502   3.535   2.212
 7376SOL     OW23026   6.585   3.673   0.318
 7376SOL    HW123027   6.512   3.684   0.386
 7376SOL    HW223028   6.667   3.722   0.348
 7377SOL     OW23029   2.205   6.164   1.279
 7377SOL    HW123030   2.247   6.174   1.188
 7377SOL    HW223031   2.107   6.180   1.273
 7378SOL     OW23032   1.198   5.430   4.551
 7378SOL    HW123033   1.122   5.382   4.507
 7378SOL    HW223034   1.162   5.507   4.605
 7379SOL     OW23035   3.979   1.215   1.524
 7379SOL    HW123036   4.059   1.159   1.546
 7379SOL    HW223037   3.899   1.181   1.573
 7380SOL     OW23038   5.038   4.162   1.732
 7380SOL    HW123039   5.006   4.088   1.672
 7380SOL    HW223040   4.968   4.181   1.801
 7381SOL     OW23041   3.643   0.394   1.364
 7381SOL    HW123042   3.607   0.303   1.384
 7381SOL    HW223043   3.609   0.459   1.432
 7382SOL     OW23044   6.229   0.959   6.334
 7382SOL    HW123045   6.262   0.959   6.428
 7382SOL    HW223046   6.306   0.964   6.271
 7383SOL     OW23047   2.193   0.303   0.747
 7383SOL    HW123048   2.267   0.300   0.814
 7383SOL    HW223049   2.177   0.397   0.719
 7384SOL     OW23050   6.836   6.527   1.015
 7384SOL    HW123051   6.918   6.510   1.070
 7384SOL    HW223052   6.863   6.562   0.925
 7385SOL     OW23053   6.206   4.071   2.791
 7385SOL    HW123054   6.190   4.021   2.876
 7385SOL    HW223055   6.297   4.113   2.794
 7386SOL     OW23056   5.318   3.257   0.089
 7386SOL    HW123057   5.392   3.318   0.059
 7386SOL    HW223058   5.333   3.166   0.051
 7387SOL     OW23059   6.562   5.783   5.223
 7387SOL    HW123060   6.498   5.844   5.271
 7387SOL    HW223061   6.510   5.724   5.161
 7388SOL     OW23062   2.145   4.556   3.406
 7388SOL    HW123063   2.092   4.602   3.334
 7388SOL    HW223064   2.175   4.623   3.473
 7389SOL     OW23065   5.906   2.525   0.144
 7389SOL    HW123066   6.002   2.543   0.164
 7389SOL    HW223067   5.863   2.481   0.223
 7390SOL     OW23068   2.143   2.468   3.452
 7390SOL    HW123069   2.079   2.437   3.523
 7390SOL    HW223070   2.209   2.531   3.493
 7391SOL     OW23071   3.250   3.482   3.079
 7391SOL    HW123072   3.153   3.457   3.076
 7391SOL    HW223073   3.264   3.565   3.025
 7392SOL     OW23074   3.296   6.398   6.755
 7392SOL    HW123075   3.270   6.327   6.821
 7392SOL    HW223076   3.217   6.455   6.734
 7393SOL     OW23077   5.562   4.980   4.123
 7393SOL    HW123078   5.565   5.074   4.155
 7393SOL    HW223079   5.469   4.944   4.133
 7394SOL     OW23080   2.720   2.133   5.981
 7394SOL    HW123081   2.772   2.051   5.956
 7394SOL    HW223082   2.623   2.116   5.966
 7395SOL     OW23083   2.437   6.277   0.975
 7395SOL    HW123084   2.499   6.328   1.034
 7395SOL    HW223085   2.446   6.179   0.993
 7396SOL     OW23086   2.374   5.093   2.345
 7396SOL    HW123087   2.463   5.059   2.376
 7396SOL    HW223088   2.384   5.184   2.307
 7397SOL     OW23089   6.189   4.096   3.874
 7397SOL    HW123090   6.252   4.022   3.850
 7397SOL    HW223091   6.173   4.153   3.794
 7398SOL     OW23092   2.854   4.904   2.319
 7398SOL    HW123093   2.806   4.821   2.347
 7398SOL    HW223094   2.944   4.880   2.282
 7399SOL     OW23095   5.233   1.825   6.108
 7399SOL    HW123096   5.333   1.828   6.097
 7399SOL    HW223097   5.200   1.733   6.085
 7400SOL     OW23098   5.020   3.309   5.788
 7400SOL    HW123099   5.025   3.223   5.737
 7400SOL    HW223100   5.005   3.289   5.885
 7401SOL     OW23101   1.424   2.707   3.868
 7401SOL    HW123102   1.373   2.792   3.880
 7401SOL    HW223103   1.453   2.699   3.773
 7402SOL     OW23104   3.847   5.658   4.394
 7402SOL    HW123105   3.751   5.649   4.367
 7402SOL    HW223106   3.904   5.664   4.311
 7403SOL     OW23107   1.577   3.946   4.421
 7403SOL    HW123108   1.527   3.980   4.342
 7403SOL    HW223109   1.638   3.872   4.392
 7404SOL     OW23110   3.537   3.552   1.069
 7404SOL    HW123111   3.468   3.605   1.119
 7404SOL    HW223112   3.522   3.454   1.087
 7405SOL     OW23113   3.760   6.924   3.740
 7405SOL    HW123114   3.721   6.845   3.693
 7405SOL    HW223115   3.703   7.004   3.724
 7406SOL     OW23116   1.226   1.845   5.024
 7406SOL    HW123117   1.259   1.929   4.979
 7406SOL    HW223118   1.159   1.801   4.965
 7407SOL     OW23119   0.929   5.725   5.438
 7407SOL    HW123120   0.904   5.820   5.456
 7407SOL    HW223121   0.908   5.669   5.518
 7408SOL     OW23122   4.091   5.213   5.313
 7408SOL    HW123123   4.057   5.267   5.237
 7408SOL    HW223124   4.038   5.234   5.396
 7409SOL     OW23125   6.862   3.770   1.211
 7409SOL    HW123126   6.820   3.777   1.301
 7409SOL    HW223127   6.900   3.678   1.199
 7410SOL     OW23128   0.149   0.612   1.256
 7410SOL    HW123129   0.143   0.514   1.271
 7410SOL    HW223130   0.245   0.641   1.259
 7411SOL     OW23131   2.490   1.973   5.059
 7411SOL    HW123132   2.520   1.931   4.973
 7411SOL    HW223133   2.468   1.901   5.125
 7412SOL     OW23134   3.773   6.829   0.207
 7412SOL    HW123135   3.850   6.873   0.253
 7412SOL    HW223136   3.806   6.768   0.135
 7413SOL     OW23137   4.820   0.185   2.883
 7413SOL    HW123138   4.896   0.146   2.831
 7413SOL    HW223139   4.840   0.279   2.907
 7414SOL     OW23140   3.029   1.331   3.922
 7414SOL    HW123141   2.946   1.311   3.973
 7414SOL    HW223142   3.029   1.428   3.897
 7415SOL     OW23143   3.920   6.722   6.083
 7415SOL    HW123144   3.951   6.747   5.991
 7415SOL    HW223145   3.963   6.782   6.150
 7416SOL     OW23146   1.550   0.875   1.957
 7416SOL    HW123147   1.606   0.952   1.927
 7416SOL    HW223148   1.506   0.832   1.878
 7417SOL     OW23149   0.377   1.095   2.794
 7417SOL    HW123150   0.289   1.062   2.759
 7417SOL    HW223151   0.361   1.163   2.865
 7418SOL     OW23152   1.546   4.391   5.778
 7418SOL    HW123153   1.593   4.440   5.704
 7418SOL    HW223154   1.612   4.368   5.849
 7419SOL     OW23155   6.998   3.940   4.100
 7419SOL    HW123156   6.986   3.986   4.188
 7419SOL    HW223157   6.909   3.916   4.062
 7420SOL     OW23158   0.108   0.033   1.777
 7420SOL    HW123159   0.151   0.111   1.821
 7420SOL    HW223160   0.178   6.984   1.752
 7421SOL     OW23161   5.742   3.760   1.058
 7421SOL    HW123162   5.654   3.793   1.092
 7421SOL    HW223163   5.754   3.789   0.963
 7422SOL     OW23164   5.410   2.747   2.464
 7422SOL    HW123165   5.374   2.826   2.513
 7422SOL    HW223166   5.474   2.697   2.523
 7423SOL     OW23167   4.920   1.920   5.644
 7423SOL    HW123168   4.823   1.939   5.658
 7423SOL    HW223169   4.974   2.000   5.670
 7424SOL     OW23170   7.003   2.224   3.567
 7424SOL    HW123171   6.910   2.243   3.600
 7424SOL    HW223172   6.998   2.193   3.472
 7425SOL     OW23173   5.805   0.787   1.015
 7425SOL    HW123174   5.738   0.822   1.081
 7425SOL    HW223175   5.885   0.846   1.015
 7426SOL     OW23176   3.857   3.152   5.831
 7426SOL    HW123177   3.866   3.205   5.747
 7426SOL    HW223178   3.839   3.213   5.908
 7427SOL     OW23179   3.443   0.896   3.292
 7427SOL    HW123180   3.439   0.925   3.388
 7427SOL    HW223181   3.534   0.858   3.273
 7428SOL     OW23182   4.079   6.212   4.945
 7428SOL    HW123183   4.129   6.253   5.022
 7428SOL    HW223184   4.128   6.130   4.914
 7429SOL     OW23185   0.877   0.141   2.852
 7429SOL    HW123186   0.950   0.196   2.811
 7429SOL    HW223187   0.894   0.132   2.951
 7430SOL     OW23188   6.539   5.302   2.794
 7430SOL    HW123189   6.637   5.286   2.782
 7430SOL    HW223190   6.504   5.354   2.716
 7431SOL     OW23191   1.270   1.645   3.320
 7431SOL    HW123192   1.175   1.629   3.348
 7431SOL    HW223193   1.331   1.611   3.392
 7432SOL     OW23194   2.478   1.195   3.362
 7432SOL    HW123195   2.548   1.124   3.353
 7432SOL    HW223196   2.419   1.195   3.282
 7433SOL     OW23197   2.778   6.809   6.651
 7433SOL    HW123198   2.793   6.907   6.660
 7433SOL    HW223199   2.718   6.791   6.573
 7434SOL     OW23200   3.722   6.629   3.969
 7434SOL    HW123201   3.769   6.560   3.914
 7434SOL    HW223202   3.783   6.660   4.042
 7435SOL     OW23203   5.294   4.158   2.855
 7435SOL    HW123204   5.261   4.167   2.761
 7435SOL    HW223205   5.217   4.135   2.915
 7436SOL     OW23206   5.360   2.936   6.068
 7436SOL    HW123207   5.368   3.030   6.099
 7436SOL    HW223208   5.268   2.921   6.031
 7437SOL     OW23209   3.133   0.409   0.815
 7437SOL    HW123210   3.045   0.398   0.860
 7437SOL    HW223211   3.198   0.449   0.880
 7438SOL     OW23212   2.138   0.418   0.148
 7438SOL    HW123213   2.161   0.362   0.227
 7438SOL    HW223214   2.218   0.425   0.087
 7439SOL     OW23215   1.176   4.590   6.571
 7439SOL    HW123216   1.090   4.589   6.521
 7439SOL    HW223217   1.224   4.676   6.553
 7440SOL     OW23218   5.956   3.584   3.948
 7440SOL    HW123219   5.943   3.506   4.009
 7440SOL    HW223220   5.879   3.647   3.957
 7441SOL     OW23221   5.718   5.606   0.682
 7441SOL    HW123222   5.657   5.563   0.614
 7441SOL    HW223223   5.686   5.584   0.774
 7442SOL     OW23224   5.552   0.777   5.869
 7442SOL    HW123225   5.547   0.872   5.836
 7442SOL    HW223226   5.470   0.728   5.838
 7443SOL     OW23227   0.714   1.407   1.920
 7443SOL    HW123228   0.784   1.360   1.973
 7443SOL    HW223229   0.757   1.460   1.846
 7444SOL     OW23230   1.464   6.605   6.959
 7444SOL    HW123231   1.464   6.588   0.040
 7444SOL    HW223232   1.421   6.693   6.940
 7445SOL     OW23233   3.807   5.837   1.436
 7445SOL    HW123234   3.839   5.769   1.501
 7445SOL    HW223235   3.725   5.882   1.472
 7446SOL     OW23236   5.213   4.634   6.887
 7446SOL    HW123237   5.163   4.615   6.971
 7446SOL    HW223238   5.214   4.552   6.829
 7447SOL     OW23239   0.160   4.468   0.314
 7447SOL    HW123240   0.156   4.441   0.411
 7447SOL    HW223241   0.254   4.462   0.282
 7448SOL     OW23242   4.691   6.077   6.679
 7448SOL    HW123243   4.686   6.006   6.608
 7448SOL    HW223244   4.702   6.167   6.636
 7449SOL     OW23245   6.767   4.478   5.728
 7449SOL    HW123246   6.832   4.553   5.737
 7449SOL    HW223247   6.701   4.482   5.802
 7450SOL     OW23248   5.440   1.989   5.509
 7450SOL    HW123249   5.432   1.952   5.601
 7450SOL    HW223250   5.536   2.000   5.485
 7451SOL     OW23251   4.638   4.340   3.370
 7451SOL    HW123252   4.626   4.289   3.284
 7451SOL    HW223253   4.570   4.413   3.375
 7452SOL     OW23254   6.398   5.633   5.912
 7452SOL    HW123255   6.308   5.629   5.868
 7452SOL    HW223256   6.470   5.626   5.843
 7453SOL     OW23257   3.815   5.800   6.058
 7453SOL    HW123258   3.890   5.768   6.000
 7453SOL    HW223259   3.843   5.800   6.153
 7454SOL     OW23260   4.035   2.244   1.038
 7454SOL    HW123261   4.073   2.303   0.967
 7454SOL    HW223262   4.109   2.209   1.096
 7455SOL     OW23263   6.537   1.929   2.886
 7455SOL    HW123264   6.453   1.972   2.919
 7455SOL    HW223265   6.517   1.879   2.802
 7456SOL     OW23266   2.827   2.068   6.670
 7456SOL    HW123267   2.759   2.054   6.598
 7456SOL    HW223268   2.781   2.077   6.758
 7457SOL     OW23269   1.694   1.041   2.198
 7457SOL    HW123270   1.660   1.131   2.222
 7457SOL    HW223271   1.707   1.035   2.098
 7458SOL     OW23272   1.601   5.382   5.573
 7458SOL    HW123273   1.528   5.349   5.513
 7458SOL    HW223274   1.618   5.478   5.554
 7459SOL     OW23275   5.734   0.475   2.531
 7459SOL    HW123276   5.691   0.386   2.547
 7459SOL    HW223277   5.832   0.468   2.550
 7460SOL     OW23278   1.912   6.566   1.367
 7460SOL    HW123279   1.931   6.522   1.455
 7460SOL    HW223280   1.820   6.607   1.370
 7461SOL     OW23281   2.307   4.431   5.660
 7461SOL    HW123282   2.270   4.495   5.728
 7461SOL    HW223283   2.381   4.377   5.702
 7462SOL     OW23284   1.419   3.801   0.729
 7462SOL    HW123285   1.384   3.855   0.652
 7462SOL    HW223286   1.480   3.858   0.785
 7463SOL     OW23287   4.179   4.871   1.114
 7463SOL    HW123288   4.153   4.857   1.019
 7463SOL    HW223289   4.139   4.956   1.148
 7464SOL     OW23290   6.006   6.626   5.549
 7464SOL    HW123291   5.921   6.573   5.548
 7464SOL    HW223292   6.016   6.671   5.638
 7465SOL     OW23293   1.821   4.704   7.009
 7465SOL    HW123294   1.817   4.605   0.003
 7465SOL    HW223295   1.875   4.726   6.928
 7466SOL     OW23296   0.457   0.193   5.367
 7466SOL    HW123297   0.542   0.219   5.321
 7466SOL    HW223298   0.394   0.271   5.365
 7467SOL     OW23299   0.984   3.709   4.920
 7467SOL    HW123300   1.045   3.688   4.843
 7467SOL    HW223301   1.027   3.679   5.005
 7468SOL     OW23302   5.937   3.027   5.621
 7468SOL    HW123303   5.932   3.094   5.695
 7468SOL    HW223304   5.869   2.956   5.636
 7469SOL     OW23305   0.478   1.804   0.633
 7469SOL    HW123306   0.509   1.899   0.632
 7469SOL    HW223307   0.396   1.796   0.690
 7470SOL     OW23308   5.702   2.505   3.500
 7470SOL    HW123309   5.670   2.412   3.485
 7470SOL    HW223310   5.801   2.504   3.512
 7471SOL     OW23311   4.042   6.157   6.372
 7471SOL    HW123312   3.984   6.199   6.302
 7471SOL    HW223313   4.066   6.225   6.440
 7472SOL     OW23314   6.696   0.070   6.377
 7472SOL    HW123315   6.602   0.097   6.356
 7472SOL    HW223316   6.721   0.104   6.468
 7473SOL     OW23317   3.234   6.040   3.768
 7473SOL    HW123318   3.226   5.941   3.781
 7473SOL    HW223319   3.329   6.068   3.778
 7474SOL     OW23320   6.104   2.167   6.852
 7474SOL    HW123321   6.201   2.184   6.834
 7474SOL    HW223322   6.084   2.185   6.948
 7475SOL     OW23323   4.901   2.102   1.025
 7475SOL    HW123324   4.942   2.162   0.957
 7475SOL    HW223325   4.832   2.152   1.076
 7476SOL     OW23326   2.136   0.327   3.444
 7476SOL    HW123327   2.117   0.327   3.346
 7476SOL    HW223328   2.135   0.233   3.478
 7477SOL     OW23329   1.480   3.054   5.552
 7477SOL    HW123330   1.507   3.137   5.600
 7477SOL    HW223331   1.559   2.993   5.543
 7478SOL     OW23332   0.191   1.329   5.598
 7478SOL    HW123333   0.281   1.371   5.600
 7478SOL    HW223334   0.191   1.252   5.533
 7479SOL     OW23335   5.237   2.699   0.985
 7479SOL    HW123336   5.321   2.677   1.035
 7479SOL    HW223337   5.172   2.624   0.994
 7480SOL     OW23338   3.631   4.849   2.556
 7480SOL    HW123339   3.725   4.882   2.551
 7480SOL    HW223340   3.589   4.855   2.465
 7481SOL     OW23341   0.284   3.785   6.858
 7481SOL    HW123342   0.192   3.815   6.880
 7481SOL    HW223343   0.323   3.844   6.787
 7482SOL     OW23344   5.257   2.147   2.827
 7482SOL    HW123345   5.167   2.126   2.790
 7482SOL    HW223346   5.273   2.091   2.908
 7483SOL     OW23347   4.642   2.005   5.653
 7483SOL    HW123348   4.570   1.993   5.585
 7483SOL    HW223349   4.604   2.050   5.734
 7484SOL     OW23350   3.027   0.136   3.896
 7484SOL    HW123351   3.013   0.069   3.969
 7484SOL    HW223352   3.111   0.187   3.913
 7485SOL     OW23353   3.701   6.557   6.127
 7485SOL    HW123354   3.644   6.607   6.193
 7485SOL    HW223355   3.775   6.617   6.095
 7486SOL     OW23356   2.669   6.367   0.752
 7486SOL    HW123357   2.760   6.399   0.776
 7486SOL    HW223358   2.604   6.443   0.754
 7487SOL     OW23359   3.450   6.362   4.591
 7487SOL    HW123360   3.547   6.351   4.612
 7487SOL    HW223361   3.426   6.459   4.591
 7488SOL     OW23362   0.600   5.595   4.032
 7488SOL    HW123363   0.517   5.645   4.006
 7488SOL    HW223364   0.680   5.651   4.013
 7489SOL     OW23365   5.314   3.231   6.403
 7489SOL    HW123366   5.275   3.161   6.463
 7489SOL    HW223367   5.362   3.187   6.327
 7490SOL     OW23368   1.286   2.642   2.393
 7490SOL    HW123369   1.320   2.679   2.479
 7490SOL    HW223370   1.337   2.559   2.369
 7491SOL     OW23371   4.123   4.183   6.928
 7491SOL    HW123372   4.144   4.111   6.862
 7491SOL    HW223373   4.193   4.183   7.000
 7492SOL     OW23374   1.429   0.345   4.091
 7492SOL    HW123375   1.358   0.277   4.072
 7492SOL    HW223376   1.507   0.300   4.133
 7493SOL     OW23377   6.304   4.311   5.100
 7493SOL    HW123378   6.347   4.370   5.032
 7493SOL    HW223379   6.207   4.300   5.078
 7494SOL     OW23380   6.511   1.556   1.895
 7494SOL    HW123381   6.486   1.459   1.904
 7494SOL    HW223382   6.471   1.593   1.811
 7495SOL     OW23383   1.451   3.035   5.013
 7495SOL    HW123384   1.512   3.083   4.950
 7495SOL    HW223385   1.360   3.077   5.010
 7496SOL     OW23386   5.849   3.846   2.485
 7496SOL    HW123387   5.832   3.747   2.488
 7496SOL    HW223388   5.763   3.893   2.465
 7497SOL     OW23389   6.681   6.999   1.602
 7497SOL    HW123390   6.766   6.998   1.655
 7497SOL    HW223391   6.692   6.939   1.522
 7498SOL     OW23392   3.046   6.267   3.173
 7498SOL    HW123393   2.997   6.332   3.231
 7498SOL    HW223394   3.079   6.313   3.091
 7499SOL     OW23395   2.709   1.451   4.055
 7499SOL    HW123396   2.673   1.467   3.963
 7499SOL    HW223397   2.753   1.361   4.058
 7500SOL     OW23398   4.183   0.915   3.118
 7500SOL    HW123399   4.162   0.912   3.215
 7500SOL    HW223400   4.282   0.920   3.105
 7501SOL     OW23401   6.663   2.632   5.550
 7501SOL    HW123402   6.754   2.668   5.530
 7501SOL    HW223403   6.604   2.641   5.469
 7502SOL     OW23404   4.407   0.716   4.084
 7502SOL    HW123405   4.476   0.644   4.079
 7502SOL    HW223406   4.452   0.804   4.093
 7503SOL     OW23407   2.023   5.539   2.088
 7503SOL    HW123408   2.049   5.636   2.098
 7503SOL    HW223409   1.999   5.502   2.177
 7504SOL     OW23410   5.991   6.285   4.952
 7504SOL    HW123411   6.063   6.233   4.905
 7504SOL    HW223412   5.916   6.223   4.977
 7505SOL     OW23413   0.077   6.647   4.726
 7505SOL    HW123414   0.129   6.732   4.736
 7505SOL    HW223415   0.122   6.574   4.778
 7506SOL     OW23416   3.877   1.670   3.712
 7506SOL    HW123417   3.977   1.675   3.721
 7506SOL    HW223418   3.853   1.615   3.633
 7507SOL     OW23419   5.753   4.596   5.628
 7507SOL    HW123420   5.698   4.675   5.602
 7507SOL    HW223421   5.762   4.535   5.550
 7508SOL     OW23422   2.488   5.593   0.182
 7508SOL    HW123423   2.577   5.619   0.146
 7508SOL    HW223424   2.440   5.534   0.117
 7509SOL     OW23425   5.940   4.936   2.357
 7509SOL    HW123426   5.984   4.883   2.285
 7509SOL    HW223427   5.984   4.915   2.445
 7510SOL     OW23428   3.028   3.985   2.503
 7510SOL    HW123429   2.986   4.070   2.471
 7510SOL    HW223430   3.042   3.923   2.425
 7511SOL     OW23431   4.927   6.695   4.415
 7511SOL    HW123432   4.863   6.772   4.415
 7511SOL    HW223433   4.950   6.670   4.321
 7512SOL     OW23434   3.734   1.071   0.725
 7512SOL    HW123435   3.668   0.997   0.735
 7512SOL    HW223436   3.818   1.036   0.685
 7513SOL     OW23437   1.690   1.811   2.146
 7513SOL    HW123438   1.759   1.738   2.145
 7513SOL    HW223439   1.734   1.898   2.166
 7514SOL     OW23440   1.471   6.269   1.714
 7514SOL    HW123441   1.486   6.224   1.802
 7514SOL    HW223442   1.412   6.348   1.726
 7515SOL     OW23443   0.675   4.627   5.114
 7515SOL    HW123444   0.593   4.667   5.074
 7515SOL    HW223445   0.726   4.577   5.044
 7516SOL     OW23446   1.664   6.774   5.293
 7516SOL    HW123447   1.626   6.684   5.318
 7516SOL    HW223448   1.757   6.782   5.329
 7517SOL     OW23449   1.303   1.495   5.908
 7517SOL    HW123450   1.386   1.512   5.854
 7517SOL    HW223451   1.283   1.575   5.964
 7518SOL     OW23452   5.078   2.020   4.284
 7518SOL    HW123453   5.022   1.971   4.351
 7518SOL    HW223454   5.081   2.117   4.308
 7519SOL     OW23455   3.704   6.184   4.072
 7519SOL    HW123456   3.676   6.126   4.149
 7519SOL    HW223457   3.704   6.280   4.101
 7520SOL     OW23458   1.600   1.877   0.380
 7520SOL    HW123459   1.587   1.929   0.295
 7520SOL    HW223460   1.697   1.856   0.391
 7521SOL     OW23461   4.164   1.291   4.943
 7521SOL    HW123462   4.150   1.248   4.854
 7521SOL    HW223463   4.130   1.231   5.016
 7522SOL     OW23464   2.077   7.012   3.399
 7522SOL    HW123465   2.105   0.037   3.485
 7522SOL    HW223466   1.990   0.034   3.369
 7523SOL     OW23467   5.478   1.001   0.817
 7523SOL    HW123468   5.508   0.909   0.789
 7523SOL    HW223469   5.391   0.994   0.866
 7524SOL     OW23470   0.730   3.476   4.269
 7524SOL    HW123471   0.812   3.469   4.212
 7524SOL    HW223472   0.737   3.410   4.344
 7525SOL     OW23473   3.987   5.306   5.974
 7525SOL    HW123474   3.976   5.374   6.047
 7525SOL    HW223475   3.948   5.342   5.889
 7526SOL     OW23476   2.595   3.781   1.332
 7526SOL    HW123477   2.564   3.875   1.352
 7526SOL    HW223478   2.640   3.779   1.243
 7527SOL     OW23479   3.926   5.134   3.321
 7527SOL    HW123480   3.992   5.176   3.384
 7527SOL    HW223481   3.942   5.036   3.317
 7528SOL     OW23482   6.622   2.746   6.082
 7528SOL    HW123483   6.709   2.786   6.110
 7528SOL    HW223484   6.623   2.728   5.984
 7529SOL     OW23485   6.308   3.385   3.941
 7529SOL    HW123486   6.210   3.377   3.925
 7529SOL    HW223487   6.355   3.306   3.902
 7530SOL     OW23488   0.639   2.124   1.995
 7530SOL    HW123489   0.553   2.111   1.945
 7530SOL    HW223490   0.625   2.190   2.069
 7531SOL     OW23491   4.027   1.942   3.966
 7531SOL    HW123492   4.015   1.850   4.004
 7531SOL    HW223493   3.971   2.007   4.017
 7532SOL     OW23494   4.915   5.513   6.169
 7532SOL    HW123495   4.982   5.449   6.207
 7532SOL    HW223496   4.847   5.535   6.238
 7533SOL     OW23497   4.307   4.385   1.655
 7533SOL    HW123498   4.228   4.332   1.624
 7533SOL    HW223499   4.354   4.335   1.728
 7534SOL     OW23500   4.287   0.116   5.239
 7534SOL    HW123501   4.203   0.062   5.245
 7534SOL    HW223502   4.271   0.197   5.183
 7535SOL     OW23503   0.630   6.675   3.647
 7535SOL    HW123504   0.677   6.750   3.693
 7535SOL    HW223505   0.531   6.688   3.656
 7536SOL     OW23506   5.927   6.070   4.266
 7536SOL    HW123507   5.975   6.022   4.194
 7536SOL    HW223508   5.990   6.092   4.340
 7537SOL     OW23509   2.231   6.298   2.934
 7537SOL    HW123510   2.309   6.352   2.905
 7537SOL    HW223511   2.164   6.294   2.860
 7538SOL     OW23512   0.807   3.944   0.705
 7538SOL    HW123513   0.889   3.985   0.665
 7538SOL    HW223514   0.800   3.849   0.674
 7539SOL     OW23515   6.774   0.398   4.723
 7539SOL    HW123516   6.750   0.481   4.772
 7539SOL    HW223517   6.693   0.340   4.715
 7540SOL     OW23518   5.758   5.074   3.031
 7540SOL    HW123519   5.846   5.101   3.069
 7540SOL    HW223520   5.735   4.982   3.062
 7541SOL     OW23521   2.687   4.153   5.436
 7541SOL    HW123522   2.603   4.194   5.401
 7541SOL    HW223523   2.764   4.183   5.381
 7542SOL     OW23524   5.935   5.631   4.250
 7542SOL    HW123525   6.028   5.661   4.274
 7542SOL    HW223526   5.896   5.581   4.327
 7543SOL     OW23527   2.817   1.055   6.972
 7543SOL    HW123528   2.741   1.040   0.017
 7543SOL    HW223529   2.793   1.128   6.908
 7544SOL     OW23530   6.524   1.598   4.524
 7544SOL    HW123531   6.603   1.659   4.534
 7544SOL    HW223532   6.448   1.634   4.578
 7545SOL     OW23533   1.431   5.764   5.851
 7545SOL    HW123534   1.449   5.760   5.753
 7545SOL    HW223535   1.493   5.700   5.898
 7546SOL     OW23536   2.387   2.708   2.084
 7546SOL    HW123537   2.419   2.672   2.171
 7546SOL    HW223538   2.440   2.667   2.009
 7547SOL     OW23539   4.108   0.361   1.727
 7547SOL    HW123540   4.174   0.305   1.677
 7547SOL    HW223541   4.025   0.309   1.742
 7548SOL     OW23542   3.419   3.208   6.328
 7548SOL    HW123543   3.409   3.285   6.264
 7548SOL    HW223544   3.482   3.141   6.289
 7549SOL     OW23545   5.569   1.213   4.341
 7549SOL    HW123546   5.647   1.175   4.292
 7549SOL    HW223547   5.594   1.228   4.436
 7550SOL     OW23548   2.667   5.316   4.761
 7550SOL    HW123549   2.688   5.280   4.670
 7550SOL    HW223550   2.730   5.277   4.828
 7551SOL     OW23551   6.645   2.371   6.217
 7551SOL    HW123552   6.738   2.340   6.236
 7551SOL    HW223553   6.634   2.465   6.250
 7552SOL     OW23554   2.253   0.044   5.208
 7552SOL    HW123555   2.213   7.008   5.134
 7552SOL    HW223556   2.204   0.131   5.216
 7553SOL     OW23557   5.645   6.342   5.760
 7553SOL    HW123558   5.555   6.362   5.721
 7553SOL    HW223559   5.652   6.385   5.850
 7554SOL     OW23560   4.558   1.297   0.622
 7554SOL    HW123561   4.646   1.265   0.657
 7554SOL    HW223562   4.557   1.397   0.623
 7555SOL     OW23563   4.559   5.338   4.194
 7555SOL    HW123564   4.493   5.282   4.144
 7555SOL    HW223565   4.570   5.426   4.149
 7556SOL     OW23566   0.584   6.663   2.013
 7556SOL    HW123567   0.545   6.613   2.091
 7556SOL    HW223568   0.530   6.746   1.996
 7557SOL     OW23569   4.947   6.978   1.047
 7557SOL    HW123570   4.989   6.907   0.990
 7557SOL    HW223571   4.849   6.981   1.028
 7558SOL     OW23572   0.677   1.689   3.890
 7558SOL    HW123573   0.632   1.772   3.858
 7558SOL    HW223574   0.652   1.612   3.831
 7559SOL     OW23575   2.749   1.759   5.090
 7559SOL    HW123576   2.849   1.753   5.090
 7559SOL    HW223577   2.719   1.808   5.008
 7560SOL     OW23578   1.358   1.102   6.027
 7560SOL    HW123579   1.280   1.159   6.001
 7560SOL    HW223580   1.443   1.148   6.001
 7561SOL     OW23581   6.049   1.875   5.698
 7561SOL    HW123582   6.059   1.825   5.612
 7561SOL    HW223583   6.020   1.812   5.770
 7562SOL     OW23584   1.896   5.603   3.597
 7562SOL    HW123585   1.813   5.603   3.541
 7562SOL    HW223586   1.876   5.642   3.686
 7563SOL     OW23587   3.988   6.001   1.866
 7563SOL    HW123588   4.043   5.982   1.784
 7563SOL    HW223589   4.047   6.004   1.946
 7564SOL     OW23590   4.032   1.662   5.295
 7564SOL    HW123591   4.039   1.758   5.321
 7564SOL    HW223592   3.936   1.634   5.297
 7565SOL     OW23593   6.555   3.548   5.932
 7565SOL    HW123594   6.532   3.641   5.903
 7565SOL    HW223595   6.595   3.551   6.024
 7566SOL     OW23596   4.242   4.787   1.394
 7566SOL    HW123597   4.273   4.695   1.417
 7566SOL    HW223598   4.222   4.791   1.296
 7567SOL     OW23599   0.772   6.833   4.003
 7567SOL    HW123600   0.729   6.862   3.917
 7567SOL    HW223601   0.707   6.776   4.055
 7568SOL     OW23602   6.007   5.531   1.452
 7568SOL    HW123603   6.076   5.473   1.494
 7568SOL    HW223604   6.044   5.623   1.438
 7569SOL     OW23605   5.035   3.625   0.196
 7569SOL    HW123606   5.056   3.562   0.121
 7569SOL    HW223607   4.936   3.630   0.208
 7570SOL     OW23608   0.761   3.383   2.408
 7570SOL    HW123609   0.786   3.469   2.454
 7570SOL    HW223610   0.665   3.387   2.382
 7571SOL     OW23611   4.721   2.298   2.222
 7571SOL    HW123612   4.768   2.361   2.159
 7571SOL    HW223613   4.650   2.348   2.272
 7572SOL     OW23614   4.417   0.259   3.588
 7572SOL    HW123615   4.319   0.240   3.586
 7572SOL    HW223616   4.468   0.175   3.569
 7573SOL     OW23617   4.329   6.697   6.070
 7573SOL    HW123618   4.400   6.767   6.073
 7573SOL    HW223619   4.239   6.740   6.077
 7574SOL     OW23620   0.741   2.306   3.672
 7574SOL    HW123621   0.809   2.358   3.724
 7574SOL    HW223622   0.741   2.338   3.577
 7575SOL     OW23623   0.186   6.494   2.513
 7575SOL    HW123624   0.178   6.537   2.602
 7575SOL    HW223625   0.217   6.561   2.445
 7576SOL     OW23626   5.175   2.729   0.241
 7576SOL    HW123627   5.144   2.814   0.282
 7576SOL    HW223628   5.096   2.673   0.216
 7577SOL     OW23629   0.961   0.384   0.351
 7577SOL    HW123630   1.008   0.362   0.266
 7577SOL    HW223631   0.995   0.325   0.424
 7578SOL     OW23632   6.433   6.005   3.382
 7578SOL    HW123633   6.340   6.042   3.383
 7578SOL    HW223634   6.431   5.913   3.343
 7579SOL     OW23635   0.711   1.392   6.575
 7579SOL    HW123636   0.688   1.472   6.632
 7579SOL    HW223637   0.673   1.405   6.483
 7580SOL     OW23638   1.968   4.880   3.840
 7580SOL    HW123639   1.947   4.936   3.760
 7580SOL    HW223640   1.933   4.788   3.827
 7581SOL     OW23641   6.910   0.917   2.284
 7581SOL    HW123642   6.914   0.868   2.197
 7581SOL    HW223643   6.817   0.947   2.301
 7582SOL     OW23644   2.710   1.746   6.793
 7582SOL    HW123645   2.630   1.701   6.752
 7582SOL    HW223646   2.778   1.765   6.723
 7583SOL     OW23647   5.002   2.927   3.042
 7583SOL    HW123648   4.950   3.011   3.057
 7583SOL    HW223649   5.096   2.949   3.018
 7584SOL     OW23650   0.385   1.098   3.245
 7584SOL    HW123651   0.389   1.015   3.191
 7584SOL    HW223652   0.465   1.101   3.306
 7585SOL     OW23653   0.918   1.298   6.220
 7585SOL    HW123654   0.907   1.263   6.127
 7585SOL    HW223655   0.991   1.367   6.221
 7586SOL     OW23656   1.942   0.314   2.982
 7586SOL    HW123657   1.939   0.399   2.928
 7586SOL    HW223658   1.933   0.236   2.920
 7587SOL     OW23659   4.168   0.131   0.919
 7587SOL    HW123660   4.135   0.119   1.013
 7587SOL    HW223661   4.236   0.205   0.917
 7588SOL     OW23662   2.408   2.636   4.690
 7588SOL    HW123663   2.425   2.597   4.600
 7588SOL    HW223664   2.490   2.625   4.747
 7589SOL     OW23665   0.410   0.395   2.981
 7589SOL    HW123666   0.352   0.460   3.030
 7589SOL    HW223667   0.506   0.420   2.992
 7590SOL     OW23668   6.722   0.963   0.056
 7590SOL    HW123669   6.784   0.977   6.996
 7590SOL    HW223670   6.676   1.050   0.077
 7591SOL     OW23671   3.541   2.930   4.578
 7591SOL    HW123672   3.634   2.937   4.614
 7591SOL    HW223673   3.481   2.894   4.649
 7592SOL     OW23674   6.611   6.733   4.234
 7592SOL    HW123675   6.688   6.761   4.291
 7592SOL    HW223676   6.641   6.724   4.139
 7593SOL     OW23677   0.533   1.353   5.275
 7593SOL    HW123678   0.462   1.423   5.282
 7593SOL    HW223679   0.490   1.265   5.252
 7594SOL     OW23680   0.080   3.973   6.895
 7594SOL    HW123681   0.024   3.947   6.974
 7594SOL    HW223682   0.121   4.063   6.911
 7595SOL     OW23683   1.045   3.623   6.955
 7595SOL    HW123684   1.132   3.670   6.969
 7595SOL    HW223685   1.052   3.529   6.988
 7596SOL     OW23686   2.820   1.639   5.740
 7596SOL    HW123687   2.788   1.723   5.697
 7596SOL    HW223688   2.795   1.640   5.837
 7597SOL     OW23689   1.586   4.896   1.521
 7597SOL    HW123690   1.549   4.823   1.578
 7597SOL    HW223691   1.518   4.922   1.452
 7598SOL     OW23692   6.239   0.701   2.181
 7598SOL    HW123693   6.260   0.797   2.161
 7598SOL    HW223694   6.238   0.687   2.280
 7599SOL     OW23695   3.271   3.951   1.188
 7599SOL    HW123696   3.284   3.942   1.287
 7599SOL    HW223697   3.175   3.934   1.165
 7600SOL     OW23698   1.455   6.655   3.923
 7600SOL    HW123699   1.371   6.638   3.974
 7600SOL    HW223700   1.433   6.681   3.829
 7601SOL     OW23701   3.041   6.617   2.421
 7601SOL    HW123702   3.043   6.717   2.413
 7601SOL    HW223703   3.074   6.590   2.511
 7602SOL     OW23704   0.437   1.259   1.060
 7602SOL    HW123705   0.428   1.194   0.984
 7602SOL    HW223706   0.506   1.226   1.124
 7603SOL     OW23707   3.736   0.705   6.242
 7603SOL    HW123708   3.758   0.658   6.156
 7603SOL    HW223709   3.777   0.796   6.242
 7604SOL     OW23710   0.646   2.593   4.986
 7604SOL    HW123711   0.626   2.530   5.061
 7604SOL    HW223712   0.718   2.554   4.929
 7605SOL     OW23713   2.069   6.128   0.016
 7605SOL    HW123714   2.030   6.219   0.002
 7605SOL    HW223715   2.015   6.080   0.085
 7606SOL     OW23716   6.920   0.997   3.230
 7606SOL    HW123717   6.889   1.069   3.168
 7606SOL    HW223718   7.009   1.023   3.268
 7607SOL     OW23719   2.005   5.926   5.475
 7607SOL    HW123720   1.932   5.978   5.520
 7607SOL    HW223721   2.072   5.897   5.543
 7608SOL     OW23722   6.224   2.589   6.490
 7608SOL    HW123723   6.195   2.499   6.459
 7608SOL    HW223724   6.257   2.643   6.413
 7609SOL     OW23725   1.761   1.718   4.658
 7609SOL    HW123726   1.806   1.631   4.676
 7609SOL    HW223727   1.813   1.792   4.701
 7610SOL     OW23728   4.278   5.118   4.385
 7610SOL    HW123729   4.206   5.187   4.384
 7610SOL    HW223730   4.242   5.031   4.352
 7611SOL     OW23731   4.834   3.007   0.581
 7611SOL    HW123732   4.852   3.102   0.607
 7611SOL    HW223733   4.755   2.972   0.631
 7612SOL     OW23734   4.100   1.785   2.616
 7612SOL    HW123735   4.149   1.724   2.678
 7612SOL    HW223736   4.034   1.840   2.667
 7613SOL     OW23737   0.755   0.814   1.162
 7613SOL    HW123738   0.714   0.841   1.074
 7613SOL    HW223739   0.852   0.797   1.149
 7614SOL     OW23740   5.467   4.009   6.507
 7614SOL    HW123741   5.373   3.983   6.529
 7614SOL    HW223742   5.505   3.944   6.441
 7615SOL     OW23743   6.190   2.907   4.958
 7615SOL    HW123744   6.196   3.006   4.971
 7615SOL    HW223745   6.212   2.885   4.863
 7616SOL     OW23746   6.268   0.248   3.348
 7616SOL    HW123747   6.315   0.264   3.261
 7616SOL    HW223748   6.325   0.190   3.407
 7617SOL     OW23749   6.414   3.965   3.434
 7617SOL    HW123750   6.489   3.921   3.484
 7617SOL    HW223751   6.432   3.961   3.336
 7618SOL     OW23752   2.013   2.691   0.464
 7618SOL    HW123753   2.049   2.765   0.520
 7618SOL    HW223754   2.083   2.620   0.452
 7619SOL     OW23755   1.640   1.544   4.350
 7619SOL    HW123756   1.727   1.592   4.361
 7619SOL    HW223757   1.653   1.466   4.289
 7620SOL     OW23758   3.557   4.955   1.246
 7620SOL    HW123759   3.524   5.027   1.307
 7620SOL    HW223760   3.500   4.953   1.163
 7621SOL     OW23761   6.298   3.935   0.303
 7621SOL    HW123762   6.225   3.896   0.247
 7621SOL    HW223763   6.283   3.913   0.399
 7622SOL     OW23764   3.201   3.803   1.639
 7622SOL    HW123765   3.272   3.753   1.690
 7622SOL    HW223766   3.127   3.829   1.702
 7623SOL     OW23767   4.939   3.915   1.631
 7623SOL    HW123768   5.015   3.850   1.635
 7623SOL    HW223769   4.861   3.877   1.681
 7624SOL     OW23770   1.096   3.642   2.626
 7624SOL    HW123771   1.166   3.630   2.696
 7624SOL    HW223772   1.100   3.565   2.561
 7625SOL     OW23773   5.158   0.733   1.946
 7625SOL    HW123774   5.203   0.689   1.868
 7625SOL    HW223775   5.195   0.696   2.031
 7626SOL     OW23776   4.790   0.325   6.296
 7626SOL    HW123777   4.713   0.359   6.351
 7626SOL    HW223778   4.779   0.227   6.281
 7627SOL     OW23779   4.238   3.392   6.571
 7627SOL    HW123780   4.276   3.484   6.560
 7627SOL    HW223781   4.166   3.377   6.503
 7628SOL     OW23782   3.240   2.346   0.461
 7628SOL    HW123783   3.276   2.403   0.534
 7628SOL    HW223784   3.216   2.403   0.383
 7629SOL     OW23785   5.499   2.374   2.933
 7629SOL    HW123786   5.498   2.405   2.838
 7629SOL    HW223787   5.456   2.284   2.938
 7630SOL     OW23788   1.246   6.588   4.076
 7630SOL    HW123789   1.170   6.627   4.024
 7630SOL    HW223790   1.211   6.519   4.140
 7631SOL     OW23791   0.781   0.418   5.581
 7631SOL    HW123792   0.716   0.448   5.512
 7631SOL    HW223793   0.860   0.480   5.581
 7632SOL     OW23794   4.815   5.489   0.353
 7632SOL    HW123795   4.819   5.585   0.325
 7632SOL    HW223796   4.826   5.431   0.272
 7633SOL     OW23797   6.499   1.085   1.172
 7633SOL    HW123798   6.575   1.089   1.107
 7633SOL    HW223799   6.431   1.153   1.147
 7634SOL     OW23800   0.053   1.977   6.818
 7634SOL    HW123801   0.066   2.020   6.729
 7634SOL    HW223802   6.982   1.932   6.821
 7635SOL     OW23803   2.143   2.896   5.529
 7635SOL    HW123804   2.045   2.913   5.529
 7635SOL    HW223805   2.182   2.925   5.442
 7636SOL     OW23806   0.067   3.761   4.527
 7636SOL    HW123807   0.134   3.688   4.543
 7636SOL    HW223808   7.010   3.725   4.471
 7637SOL     OW23809   0.802   4.719   4.728
 7637SOL    HW123810   0.741   4.798   4.725
 7637SOL    HW223811   0.785   4.661   4.648
 7638SOL     OW23812   0.371   5.897   1.299
 7638SOL    HW123813   0.304   5.928   1.366
 7638SOL    HW223814   0.329   5.896   1.208
 7639SOL     OW23815   1.848   1.074   0.251
 7639SOL    HW123816   1.895   0.987   0.236
 7639SOL    HW223817   1.753   1.067   0.223
 7640SOL     OW23818   3.288   1.384   0.852
 7640SOL    HW123819   3.247   1.472   0.828
 7640SOL    HW223820   3.218   1.322   0.886
 7641SOL     OW23821   0.449   3.936   4.116
 7641SOL    HW123822   0.413   4.013   4.063
 7641SOL    HW223823   0.457   3.856   4.057
 7642SOL     OW23824   5.366   0.697   3.042
 7642SOL    HW123825   5.349   0.644   3.125
 7642SOL    HW223826   5.427   0.646   2.982
 7643SOL     OW23827   5.480   3.405   4.181
 7643SOL    HW123828   5.527   3.372   4.263
 7643SOL    HW223829   5.489   3.338   4.108
 7644SOL     OW23830   5.091   3.488   1.264
 7644SOL    HW123831   5.112   3.510   1.359
 7644SOL    HW223832   5.106   3.390   1.248
 7645SOL     OW23833   3.586   5.065   6.774
 7645SOL    HW123834   3.621   5.057   6.867
 7645SOL    HW223835   3.634   5.000   6.715
 7646SOL     OW23836   6.387   1.778   0.409
 7646SOL    HW123837   6.304   1.820   0.448
 7646SOL    HW223838   6.372   1.759   0.312
 7647SOL     OW23839   0.213   2.362   3.576
 7647SOL    HW123840   0.285   2.300   3.605
 7647SOL    HW223841   0.127   2.312   3.569
 7648SOL     OW23842   2.276   2.108   2.057
 7648SOL    HW123843   2.372   2.103   2.027
 7648SOL    HW223844   2.267   2.180   2.126
 7649SOL     OW23845   3.773   1.282   6.639
 7649SOL    HW123846   3.776   1.217   6.714
 7649SOL    HW223847   3.811   1.370   6.669
 7650SOL     OW23848   4.228   2.522   0.254
 7650SOL    HW123849   4.210   2.495   0.349
 7650SOL    HW223850   4.194   2.615   0.240
 7651SOL     OW23851   3.337   5.070   6.436
 7651SOL    HW123852   3.339   5.079   6.535
 7651SOL    HW223853   3.420   5.109   6.397
 7652SOL     OW23854   1.092   0.688   3.912
 7652SOL    HW123855   1.141   0.755   3.856
 7652SOL    HW223856   1.132   0.685   4.004
 7653SOL     OW23857   2.088   0.634   6.693
 7653SOL    HW123858   2.155   0.694   6.647
 7653SOL    HW223859   2.019   0.606   6.627
 7654SOL     OW23860   6.146   2.020   6.149
 7654SOL    HW123861   6.198   2.032   6.233
 7654SOL    HW223862   6.180   2.082   6.079
 7655SOL     OW23863   3.553   1.529   3.754
 7655SOL    HW123864   3.594   1.507   3.843
 7655SOL    HW223865   3.615   1.502   3.681
 7656SOL     OW23866   6.329   4.238   0.015
 7656SOL    HW123867   6.374   4.191   0.091
 7656SOL    HW223868   6.353   4.193   6.947
 7657SOL     OW23869   1.279   3.835   5.006
 7657SOL    HW123870   1.377   3.831   5.027
 7657SOL    HW223871   1.230   3.774   5.068
 7658SOL     OW23872   2.705   0.752   1.074
 7658SOL    HW123873   2.799   0.784   1.084
 7658SOL    HW223874   2.653   0.776   1.155
 7659SOL     OW23875   4.818   4.084   5.731
 7659SOL    HW123876   4.851   3.993   5.756
 7659SOL    HW223877   4.868   4.153   5.783
 7660SOL     OW23878   6.688   5.328   5.389
 7660SOL    HW123879   6.604   5.273   5.386
 7660SOL    HW223880   6.763   5.275   5.349
 7661SOL     OW23881   3.918   1.449   5.080
 7661SOL    HW123882   3.890   1.431   4.986
 7661SOL    HW223883   4.017   1.460   5.084
 7662SOL     OW23884   6.853   6.066   1.281
 7662SOL    HW123885   6.786   6.001   1.318
 7662SOL    HW223886   6.851   6.150   1.336
 7663SOL     OW23887   0.280   5.600   5.134
 7663SOL    HW123888   0.202   5.558   5.181
 7663SOL    HW223889   0.266   5.699   5.127
 7664SOL     OW23890   3.617   2.072   2.354
 7664SOL    HW123891   3.590   2.007   2.425
 7664SOL    HW223892   3.542   2.135   2.336
 7665SOL     OW23893   3.483   0.346   5.762
 7665SOL    HW123894   3.516   0.399   5.684
 7665SOL    HW223895   3.419   0.402   5.815
 7666SOL     OW23896   5.428   4.249   3.783
 7666SOL    HW123897   5.416   4.248   3.882
 7666SOL    HW223898   5.516   4.290   3.760
 7667SOL     OW23899   4.260   6.299   2.577
 7667SOL    HW123900   4.197   6.376   2.570
 7667SOL    HW223901   4.298   6.295   2.669
 7668SOL     OW23902   2.027   5.541   0.878
 7668SOL    HW123903   1.959   5.524   0.951
 7668SOL    HW223904   1.997   5.618   0.822
 7669SOL     OW23905   2.324   1.115   6.600
 7669SOL    HW123906   2.239   1.087   6.556
 7669SOL    HW223907   2.306   1.142   6.694
 7670SOL     OW23908   0.775   0.415   1.129
 7670SOL    HW123909   0.725   0.415   1.043
 7670SOL    HW223910   0.737   0.346   1.190
 7671SOL     OW23911   3.208   6.722   1.071
 7671SOL    HW123912   3.158   6.770   1.143
 7671SOL    HW223913   3.294   6.769   1.052
 7672SOL     OW23914   4.925   4.298   2.041
 7672SOL    HW123915   4.900   4.395   2.028
 7672SOL    HW223916   5.014   4.292   2.085
 7673SOL     OW23917   1.634   6.475   4.979
 7673SOL    HW123918   1.609   6.396   5.034
 7673SOL    HW223919   1.572   6.551   4.998
 7674SOL     OW23920   4.670   6.018   4.558
 7674SOL    HW123921   4.575   6.038   4.584
 7674SOL    HW223922   4.699   5.933   4.601
 7675SOL     OW23923   5.147   6.156   3.353
 7675SOL    HW123924   5.141   6.068   3.306
 7675SOL    HW223925   5.144   6.230   3.285
 7676SOL     OW23926   3.711   2.953   5.627
 7676SOL    HW123927   3.642   3.025   5.622
 7676SOL    HW223928   3.787   2.984   5.684
 7677SOL     OW23929   6.521   4.848   6.881
 7677SOL    HW123930   6.449   4.858   6.812
 7677SOL    HW223931   6.512   4.759   6.926
 7678SOL     OW23932   2.721   1.245   5.148
 7678SOL    HW123933   2.802   1.274   5.199
 7678SOL    HW223934   2.642   1.244   5.208
 7679SOL     OW23935   3.826   5.800   4.648
 7679SOL    HW123936   3.728   5.814   4.660
 7679SOL    HW223937   3.844   5.776   4.552
 7680SOL     OW23938   2.153   6.805   4.470
 7680SOL    HW123939   2.070   6.817   4.416
 7680SOL    HW223940   2.128   6.771   4.561
 7681SOL     OW23941   2.080   2.988   6.101
 7681SOL    HW123942   2.161   2.930   6.107
 7681SOL    HW223943   2.089   3.051   6.024
 7682SOL     OW23944   3.008   0.917   2.967
 7682SOL    HW123945   3.071   0.865   2.909
 7682SOL    HW223946   2.933   0.858   2.997
 7683SOL     OW23947   0.537   4.369   4.262
 7683SOL    HW123948   0.491   4.385   4.175
 7683SOL    HW223949   0.470   4.377   4.336
 7684SOL     OW23950   4.930   3.223   1.501
 7684SOL    HW123951   4.905   3.303   1.446
 7684SOL    HW223952   4.853   3.197   1.559
 7685SOL     OW23953   2.562   0.479   0.634
 7685SOL    HW123954   2.509   0.491   0.550
 7685SOL    HW223955   2.547   0.557   0.695
 7686SOL     OW23956   6.648   6.675   4.921
 7686SOL    HW123957   6.676   6.736   4.995
 7686SOL    HW223958   6.724   6.617   4.894
 7687SOL     OW23959   5.398   3.916   5.811
 7687SOL    HW123960   5.325   3.892   5.875
 7687SOL    HW223961   5.406   4.015   5.805
 7688SOL     OW23962   6.786   3.632   6.482
 7688SOL    HW123963   6.785   3.542   6.525
 7688SOL    HW223964   6.814   3.701   6.549
 7689SOL     OW23965   4.792   1.039   2.062
 7689SOL    HW123966   4.802   0.974   1.986
 7689SOL    HW223967   4.736   1.116   2.032
 7690SOL     OW23968   6.250   5.133   2.195
 7690SOL    HW123969   6.334   5.174   2.160
 7690SOL    HW223970   6.205   5.083   2.121
 7691SOL     OW23971   4.857   3.358   3.997
 7691SOL    HW123972   4.805   3.331   4.077
 7691SOL    HW223973   4.875   3.278   3.940
 7692SOL     OW23974   2.997   6.501   2.730
 7692SOL    HW123975   3.073   6.439   2.749
 7692SOL    HW223976   2.929   6.454   2.675
 7693SOL     OW23977   2.966   0.501   1.818
 7693SOL    HW123978   3.031   0.576   1.832
 7693SOL    HW223979   3.003   0.417   1.859
 7694SOL     OW23980   4.445   1.513   6.097
 7694SOL    HW123981   4.435   1.436   6.034
 7694SOL    HW223982   4.537   1.510   6.138
 7695SOL     OW23983   4.806   0.272   3.472
 7695SOL    HW123984   4.714   0.244   3.443
 7695SOL    HW223985   4.843   0.205   3.535
 7696SOL     OW23986   1.965   2.746   6.114
 7696SOL    HW123987   2.004   2.836   6.133
 7696SOL    HW223988   1.962   2.731   6.015
 7697SOL     OW23989   5.744   6.935   3.459
 7697SOL    HW123990   5.802   7.012   3.434
 7697SOL    HW223991   5.678   6.963   3.529
 7698SOL     OW23992   6.235   3.197   1.051
 7698SOL    HW123993   6.317   3.188   1.107
 7698SOL    HW223994   6.221   3.293   1.027
 7699SOL     OW23995   4.653   6.322   5.172
 7699SOL    HW123996   4.728   6.303   5.236
 7699SOL    HW223997   4.667   6.270   5.088
 7700SOL     OW23998   5.273   5.717   1.818
 7700SOL    HW123999   5.364   5.732   1.857
 7700SOL    HW224000   5.269   5.625   1.778
 7701SOL     OW24001   1.330   2.254   6.483
 7701SOL    HW124002   1.291   2.205   6.405
 7701SOL    HW224003   1.331   2.352   6.465
 7702SOL     OW24004   4.923   0.011   5.049
 7702SOL    HW124005   4.919   6.976   4.964
 7702SOL    HW224006   4.880   0.100   5.035
 7703SOL     OW24007   6.984   6.993   5.512
 7703SOL    HW124008   0.008   0.067   5.515
 7703SOL    HW224009   6.993   6.956   5.420
 7704SOL     OW24010   1.004   1.744   4.860
 7704SOL    HW124011   0.955   1.680   4.801
 7704SOL    HW224012   0.938   1.792   4.918
 7705SOL     OW24013   1.205   5.277   0.047
 7705SOL    HW124014   1.209   5.368   0.004
 7705SOL    HW224015   1.154   5.283   0.133
 7706SOL     OW24016   3.525   3.084   2.651
 7706SOL    HW124017   3.436   3.039   2.656
 7706SOL    HW224018   3.568   3.084   2.741
 7707SOL     OW24019   6.758   4.068   6.945
 7707SOL    HW124020   6.684   4.040   6.883
 7707SOL    HW224021   6.841   4.085   6.892
 7708SOL     OW24022   1.897   0.623   4.388
 7708SOL    HW124023   1.805   0.628   4.427
 7708SOL    HW224024   1.906   0.539   4.334
 7709SOL     OW24025   0.109   4.823   1.478
 7709SOL    HW124026   0.132   4.760   1.552
 7709SOL    HW224027   0.137   4.784   1.390
 7710SOL     OW24028   6.567   3.048   0.928
 7710SOL    HW124029   6.664   3.046   0.951
 7710SOL    HW224030   6.540   3.142   0.907
 7711SOL     OW24031   0.283   4.485   4.818
 7711SOL    HW124032   0.279   4.558   4.886
 7711SOL    HW224033   0.281   4.523   4.726
 7712SOL     OW24034   7.012   5.051   5.562
 7712SOL    HW124035   0.066   4.987   5.590
 7712SOL    HW224036   6.998   5.120   5.633
 7713SOL     OW24037   1.459   4.652   0.133
 7713SOL    HW124038   1.406   4.679   0.213
 7713SOL    HW224039   1.550   4.622   0.161
 7714SOL     OW24040   6.095   1.873   4.646
 7714SOL    HW124041   6.107   1.866   4.547
 7714SOL    HW224042   6.055   1.962   4.669
 7715SOL     OW24043   3.732   3.358   5.214
 7715SOL    HW124044   3.701   3.432   5.273
 7715SOL    HW224045   3.822   3.327   5.244
 7716SOL     OW24046   0.917   6.590   5.962
 7716SOL    HW124047   0.865   6.657   6.016
 7716SOL    HW224048   1.000   6.633   5.927
 7717SOL     OW24049   0.029   2.402   6.470
 7717SOL    HW124050   0.111   2.441   6.428
 7717SOL    HW224051   0.015   2.443   6.560
 7718SOL     OW24052   0.451   3.334   3.140
 7718SOL    HW124053   0.436   3.399   3.065
 7718SOL    HW224054   0.389   3.356   3.216
 7719SOL     OW24055   1.710   5.240   5.310
 7719SOL    HW124056   1.733   5.145   5.288
 7719SOL    HW224057   1.611   5.249   5.322
 7720SOL     OW24058   4.438   1.165   6.487
 7720SOL    HW124059   4.517   1.219   6.516
 7720SOL    HW224060   4.356   1.199   6.533
 7721SOL     OW24061   6.954   6.830   2.551
 7721SOL    HW124062   6.905   6.916   2.534
 7721SOL    HW224063   0.028   6.835   2.512
 7722SOL     OW24064   1.075   5.932   3.789
 7722SOL    HW124065   1.130   5.950   3.707
 7722SOL    HW224066   1.077   5.834   3.809
 7723SOL     OW24067   4.786   3.702   6.692
 7723SOL    HW124068   4.783   3.658   6.602
 7723SOL    HW224069   4.880   3.698   6.727
 7724SOL     OW24070   2.285   3.715   0.936
 7724SOL    HW124071   2.298   3.771   1.018
 7724SOL    HW224072   2.357   3.647   0.929
 7725SOL     OW24073   5.369   2.678   4.676
 7725SOL    HW124074   5.384   2.628   4.762
 7725SOL    HW224075   5.338   2.771   4.696
 7726SOL     OW24076   1.389   3.514   6.887
 7726SOL    HW124077   1.413   3.456   6.965
 7726SOL    HW224078   1.343   3.596   6.920
 7727SOL     OW24079   4.218   0.941   2.103
 7727SOL    HW124080   4.203   0.976   2.010
 7727SOL    HW224081   4.201   1.014   2.169
 7728SOL     OW24082   2.022   4.103   4.764
 7728SOL    HW124083   2.059   4.095   4.671
 7728SOL    HW224084   2.074   4.044   4.825
 7729SOL     OW24085   6.706   1.276   2.820
 7729SOL    HW124086   6.754   1.215   2.882
 7729SOL    HW224087   6.682   1.226   2.736
 7730SOL     OW24088   6.693   4.428   5.462
 7730SOL    HW124089   6.595   4.431   5.484
 7730SOL    HW224090   6.746   4.461   5.540
 7731SOL     OW24091   6.584   0.161   6.034
 7731SOL    HW124092   6.633   0.075   6.018
 7731SOL    HW224093   6.608   0.196   6.124
 7732SOL     OW24094   3.868   0.330   6.282
 7732SOL    HW124095   3.800   0.287   6.221
 7732SOL    HW224096   3.920   0.259   6.329
 7733SOL     OW24097   6.975   5.512   1.520
 7733SOL    HW124098   6.965   5.604   1.483
 7733SOL    HW224099   7.004   5.450   1.447
 7734SOL     OW24100   3.323   4.081   4.038
 7734SOL    HW124101   3.409   4.110   4.081
 7734SOL    HW224102   3.342   4.023   3.959
 7735SOL     OW24103   0.485   6.518   1.131
 7735SOL    HW124104   0.525   6.460   1.060
 7735SOL    HW224105   0.391   6.541   1.107
 7736SOL     OW24106   1.231   2.275   0.043
 7736SOL    HW124107   1.218   2.371   0.016
 7736SOL    HW224108   1.212   2.266   0.141
 7737SOL     OW24109   4.636   4.593   0.007
 7737SOL    HW124110   4.731   4.600   6.993
 7737SOL    HW224111   4.600   4.684   0.025
 7738SOL     OW24112   1.915   0.460   5.366
 7738SOL    HW124113   1.928   0.480   5.463
 7738SOL    HW224114   1.822   0.426   5.351
 7739SOL     OW24115   1.934   2.231   0.461
 7739SOL    HW124116   1.915   2.326   0.485
 7739SOL    HW224117   2.020   2.203   0.503
 7740SOL     OW24118   2.233   0.490   5.043
 7740SOL    HW124119   2.154   0.430   5.054
 7740SOL    HW224120   2.283   0.464   4.961
 7741SOL     OW24121   0.751   4.788   5.937
 7741SOL    HW124122   0.752   4.693   5.908
 7741SOL    HW224123   0.723   4.794   6.032
 7742SOL     OW24124   4.765   2.169   3.999
 7742SOL    HW124125   4.747   2.101   4.069
 7742SOL    HW224126   4.711   2.251   4.017
 7743SOL     OW24127   3.991   1.631   6.140
 7743SOL    HW124128   4.058   1.657   6.071
 7743SOL    HW224129   3.900   1.628   6.097
 7744SOL     OW24130   1.258   6.918   4.594
 7744SOL    HW124131   1.353   6.936   4.572
 7744SOL    HW224132   1.244   6.820   4.608
 7745SOL     OW24133   3.179   6.954   1.316
 7745SOL    HW124134   3.086   6.941   1.282
 7745SOL    HW224135   3.181   6.934   1.414
 7746SOL     OW24136   0.722   5.655   2.298
 7746SOL    HW124137   0.792   5.661   2.369
 7746SOL    HW224138   0.637   5.621   2.339
 7747SOL     OW24139   6.973   5.793   0.879
 7747SOL    HW124140   6.904   5.720   0.870
 7747SOL    HW224141   6.929   5.875   0.917
 7748SOL     OW24142   4.447   1.638   5.719
 7748SOL    HW124143   4.494   1.677   5.797
 7748SOL    HW224144   4.442   1.706   5.646
 7749SOL     OW24145   3.954   3.972   3.255
 7749SOL    HW124146   3.997   3.885   3.231
 7749SOL    HW224147   3.984   4.000   3.346
 7750SOL     OW24148   5.182   5.058   5.562
 7750SOL    HW124149   5.166   5.155   5.579
 7750SOL    HW224150   5.113   5.024   5.498
 7751SOL     OW24151   6.792   1.705   4.506
 7751SOL    HW124152   6.839   1.786   4.469
 7751SOL    HW224153   6.825   1.686   4.598
 7752SOL     OW24154   6.276   5.080   5.131
 7752SOL    HW124155   6.186   5.108   5.098
 7752SOL    HW224156   6.298   4.990   5.093
 7753SOL     OW24157   2.581   0.765   5.411
 7753SOL    HW124158   2.531   0.700   5.468
 7753SOL    HW224159   2.516   0.826   5.366
 7754SOL     OW24160   6.548   1.191   1.429
 7754SOL    HW124161   6.508   1.117   1.483
 7754SOL    HW224162   6.572   1.157   1.338
 7755SOL     OW24163   1.293   5.866   5.120
 7755SOL    HW124164   1.200   5.884   5.086
 7755SOL    HW224165   1.307   5.915   5.206
 7756SOL     OW24166   3.877   5.500   3.192
 7756SOL    HW124167   3.957   5.550   3.158
 7756SOL    HW224168   3.839   5.445   3.118
 7757SOL     OW24169   3.420   6.475   5.651
 7757SOL    HW124170   3.342   6.531   5.623
 7757SOL    HW224171   3.428   6.477   5.750
 7758SOL     OW24172   3.017   2.911   6.665
 7758SOL    HW124173   2.968   2.889   6.750
 7758SOL    HW224174   2.952   2.915   6.589
 7759SOL     OW24175   2.062   1.412   5.257
 7759SOL    HW124176   2.073   1.339   5.189
 7759SOL    HW224177   2.152   1.442   5.288
 7760SOL     OW24178   4.584   1.550   3.373
 7760SOL    HW124179   4.591   1.506   3.284
 7760SOL    HW224180   4.654   1.514   3.434
 7761SOL     OW24181   4.296   0.329   6.381
 7761SOL    HW124182   4.240   0.402   6.421
 7761SOL    HW224183   4.263   0.307   6.290
 7762SOL     OW24184   1.540   2.372   0.629
 7762SOL    HW124185   1.466   2.329   0.680
 7762SOL    HW224186   1.588   2.303   0.575
 7763SOL     OW24187   2.097   2.416   1.283
 7763SOL    HW124188   2.124   2.322   1.304
 7763SOL    HW224189   2.047   2.454   1.361
 7764SOL     OW24190   4.109   3.570   2.203
 7764SOL    HW124191   4.075   3.479   2.181
 7764SOL    HW224192   4.146   3.570   2.296
 7765SOL     OW24193   0.260   1.883   2.276
 7765SOL    HW124194   0.279   1.979   2.258
 7765SOL    HW224195   0.163   1.865   2.263
 7766SOL     OW24196   6.955   3.630   0.026
 7766SOL    HW124197   6.966   3.604   6.948
 7766SOL    HW224198   6.858   3.641   0.047
 7767SOL     OW24199   5.756   4.000   5.313
 7767SOL    HW124200   5.822   3.963   5.247
 7767SOL    HW224201   5.799   4.005   5.403
 7768SOL     OW24202   4.449   5.351   2.148
 7768SOL    HW124203   4.480   5.268   2.194
 7768SOL    HW224204   4.350   5.357   2.153
 7769SOL     OW24205   6.774   1.927   2.048
 7769SOL    HW124206   6.841   1.871   2.000
 7769SOL    HW224207   6.689   1.932   1.995
 7770SOL     OW24208   3.740   5.856   1.806
 7770SOL    HW124209   3.664   5.916   1.830
 7770SOL    HW224210   3.826   5.905   1.816
 7771SOL     OW24211   2.196   1.287   4.721
 7771SOL    HW124212   2.229   1.371   4.765
 7771SOL    HW224213   2.273   1.228   4.700
 7772SOL     OW24214   5.562   0.766   5.220
 7772SOL    HW124215   5.520   0.855   5.208
 7772SOL    HW224216   5.556   0.739   5.316
 7773SOL     OW24217   4.028   4.574   5.382
 7773SOL    HW124218   4.083   4.541   5.306
 7773SOL    HW224219   4.066   4.659   5.418
 7774SOL     OW24220   4.947   1.667   6.823
 7774SOL    HW124221   5.021   1.707   6.769
 7774SOL    HW224222   4.970   1.572   6.845
 7775SOL     OW24223   2.780   6.729   2.043
 7775SOL    HW124224   2.853   6.676   2.001
 7775SOL    HW224225   2.708   6.668   2.074
 7776SOL     OW24226   3.701   4.221   0.839
 7776SOL    HW124227   3.702   4.181   0.930
 7776SOL    HW224228   3.684   4.150   0.771
 7777SOL     OW24229   1.481   0.414   6.703
 7777SOL    HW124230   1.553   0.415   6.774
 7777SOL    HW224231   1.417   0.340   6.722
 7778SOL     OW24232   5.090   1.086   1.263
 7778SOL    HW124233   5.007   1.101   1.209
 7778SOL    HW224234   5.084   0.999   1.311
 7779SOL     OW24235   3.934   3.360   0.416
 7779SOL    HW124236   3.871   3.289   0.448
 7779SOL    HW224237   3.882   3.430   0.367
 7780SOL     OW24238   1.034   0.248   4.831
 7780SOL    HW124239   0.969   0.269   4.904
 7780SOL    HW224240   0.987   0.253   4.742
 7781SOL     OW24241   1.228   4.942   5.468
 7781SOL    HW124242   1.168   4.972   5.393
 7781SOL    HW224243   1.322   4.935   5.434
 7782SOL     OW24244   3.765   4.862   6.594
 7782SOL    HW124245   3.819   4.834   6.673
 7782SOL    HW224246   3.744   4.781   6.538
 7783SOL     OW24247   2.846   5.101   6.696
 7783SOL    HW124248   2.866   5.012   6.656
 7783SOL    HW224249   2.758   5.098   6.742
 7784SOL     OW24250   0.131   2.668   6.928
 7784SOL    HW124251   0.045   2.691   6.884
 7784SOL    HW224252   0.148   2.732   7.003
 7785SOL     OW24253   1.772   5.828   4.456
 7785SOL    HW124254   1.791   5.916   4.412
 7785SOL    HW224255   1.858   5.783   4.479
 7786SOL     OW24256   3.104   3.999   4.779
 7786SOL    HW124257   3.046   4.034   4.852
 7786SOL    HW224258   3.197   3.987   4.813
 7787SOL     OW24259   3.041   2.228   5.332
 7787SOL    HW124260   2.964   2.243   5.270
 7787SOL    HW224261   3.117   2.288   5.305
 7788SOL     OW24262   0.532   1.583   0.318
 7788SOL    HW124263   0.551   1.489   0.347
 7788SOL    HW224264   0.599   1.645   0.357
 7789SOL     OW24265   1.844   0.544   1.346
 7789SOL    HW124266   1.757   0.495   1.333
 7789SOL    HW224267   1.912   0.507   1.283
 7790SOL     OW24268   6.537   3.692   2.748
 7790SOL    HW124269   6.616   3.632   2.745
 7790SOL    HW224270   6.565   3.785   2.723
 7791SOL     OW24271   1.096   4.510   5.051
 7791SOL    HW124272   1.098   4.452   5.132
 7791SOL    HW224273   1.169   4.483   4.988
 7792SOL     OW24274   2.314   5.563   5.972
 7792SOL    HW124275   2.228   5.552   5.923
 7792SOL    HW224276   2.351   5.473   5.996
 7793SOL     OW24277   1.318   0.613   6.617
 7793SOL    HW124278   1.355   0.531   6.661
 7793SOL    HW224279   1.388   0.683   6.613
 7794SOL     OW24280   5.436   5.781   3.486
 7794SOL    HW124281   5.411   5.807   3.393
 7794SOL    HW224282   5.448   5.682   3.492
 7795SOL     OW24283   1.836   5.183   5.583
 7795SOL    HW124284   1.754   5.240   5.583
 7795SOL    HW224285   1.917   5.241   5.590
 7796SOL     OW24286   4.096   3.176   4.240
 7796SOL    HW124287   4.030   3.246   4.265
 7796SOL    HW224288   4.166   3.169   4.311
 7797SOL     OW24289   1.107   0.337   3.280
 7797SOL    HW124290   1.183   0.389   3.319
 7797SOL    HW224291   1.112   0.341   3.180
 7798SOL     OW24292   4.121   5.872   6.504
 7798SOL    HW124293   4.165   5.952   6.463
 7798SOL    HW224294   4.040   5.902   6.555
 7799SOL     OW24295   6.316   4.648   1.276
 7799SOL    HW124296   6.292   4.742   1.254
 7799SOL    HW224297   6.332   4.597   1.191
 7800SOL     OW24298   0.711   5.984   2.310
 7800SOL    HW124299   0.633   6.044   2.326
 7800SOL    HW224300   0.711   5.910   2.378
 7801SOL     OW24301   3.712   2.521   6.184
 7801SOL    HW124302   3.690   2.617   6.167
 7801SOL    HW224303   3.630   2.474   6.215
 7802SOL     OW24304   5.673   2.182   1.023
 7802SOL    HW124305   5.599   2.115   1.028
 7802SOL    HW224306   5.700   2.210   1.115
 7803SOL     OW24307   3.789   4.454   5.996
 7803SOL    HW124308   3.885   4.459   6.023
 7803SOL    HW224309   3.753   4.364   6.016
 7804SOL     OW24310   5.166   1.546   6.586
 7804SOL    HW124311   5.256   1.586   6.602
 7804SOL    HW224312   5.130   1.581   6.499
 7805SOL     OW24313   5.332   3.722   2.277
 7805SOL    HW124314   5.423   3.685   2.258
 7805SOL    HW224315   5.263   3.659   2.240
 7806SOL     OW24316   4.732   2.867   6.815
 7806SOL    HW124317   4.725   2.826   6.725
 7806SOL    HW224318   4.665   2.941   6.823
 7807SOL     OW24319   0.112   3.629   6.632
 7807SOL    HW124320   0.190   3.606   6.690
 7807SOL    HW224321   0.132   3.602   6.538
 7808SOL     OW24322   0.890   1.510   5.052
 7808SOL    HW124323   0.816   1.573   5.076
 7808SOL    HW224324   0.892   1.495   4.953
 7809SOL     OW24325   1.595   5.575   5.997
 7809SOL    HW124326   1.591   5.489   6.049
 7809SOL    HW224327   1.686   5.586   5.959
 7810SOL     OW24328   2.323   1.187   6.851
 7810SOL    HW124329   2.328   1.166   6.949
 7810SOL    HW224330   2.400   1.246   6.826
 7811SOL     OW24331   0.278   4.189   4.856
 7811SOL    HW124332   0.267   4.288   4.852
 7811SOL    HW224333   0.347   4.160   4.789
 7812SOL     OW24334   0.336   1.975   3.834
 7812SOL    HW124335   0.251   1.955   3.785
 7812SOL    HW224336   0.341   1.919   3.916
 7813SOL     OW24337   6.272   2.458   0.861
 7813SOL    HW124338   6.188   2.446   0.915
 7813SOL    HW224339   6.290   2.556   0.850
 7814SOL     OW24340   1.838   3.318   3.928
 7814SOL    HW124341   1.936   3.335   3.936
 7814SOL    HW224342   1.792   3.402   3.899
 7815SOL     OW24343   6.921   1.365   6.163
 7815SOL    HW124344   6.911   1.444   6.223
 7815SOL    HW224345   6.985   1.387   6.089
 7816SOL     OW24346   1.114   3.650   5.143
 7816SOL    HW124347   1.093   3.709   5.222
 7816SOL    HW224348   1.184   3.584   5.169
 7817SOL     OW24349   5.400   3.568   5.001
 7817SOL    HW124350   5.419   3.495   5.066
 7817SOL    HW224351   5.331   3.629   5.038
 7818SOL     OW24352   5.064   5.427   2.710
 7818SOL    HW124353   4.966   5.437   2.729
 7818SOL    HW224354   5.089   5.331   2.713
 7819SOL     OW24355   0.039   1.235   1.544
 7819SOL    HW124356   6.963   1.265   1.563
 7819SOL    HW224357   0.040   1.180   1.461
 7820SOL     OW24358   2.092   6.950   6.209
 7820SOL    HW124359   2.006   6.945   6.261
 7820SOL    HW224360   2.165   6.983   6.269
 7821SOL     OW24361   2.984   5.449   0.829
 7821SOL    HW124362   3.024   5.534   0.864
 7821SOL    HW224363   2.933   5.468   0.746
 7822SOL     OW24364   1.423   6.104   5.623
 7822SOL    HW124365   1.478   6.165   5.681
 7822SOL    HW224366   1.424   6.138   5.529
 7823SOL     OW24367   1.872   4.241   5.072
 7823SOL    HW124368   1.850   4.228   5.168
 7823SOL    HW224369   1.797   4.206   5.016
 7824SOL     OW24370   0.940   3.661   5.852
 7824SOL    HW124371   0.974   3.625   5.765
 7824SOL    HW224372   0.870   3.599   5.888
 7825SOL     OW24373   2.968   1.114   6.401
 7825SOL    HW124374   2.939   1.206   6.374
 7825SOL    HW224375   3.044   1.121   6.466
 7826SOL     OW24376   0.688   3.007   5.810
 7826SOL    HW124377   0.676   2.908   5.804
 7826SOL    HW224378   0.776   3.028   5.853
 7827SOL     OW24379   6.701   5.351   4.689
 7827SOL    HW124380   6.662   5.276   4.636
 7827SOL    HW224381   6.730   5.424   4.627
 7828SOL     OW24382   0.415   5.029   0.230
 7828SOL    HW124383   0.421   4.961   0.304
 7828SOL    HW224384   0.506   5.068   0.214
 7829SOL     OW24385   3.578   3.534   0.574
 7829SOL    HW124386   3.661   3.588   0.588
 7829SOL    HW224387   3.499   3.595   0.568
 7830SOL     OW24388   2.375   5.556   4.078
 7830SOL    HW124389   2.337   5.577   4.168
 7830SOL    HW224390   2.459   5.608   4.064
 7831SOL     OW24391   1.748   0.131   6.911
 7831SOL    HW124392   1.760   0.126   6.812
 7831SOL    HW224393   1.742   0.039   6.949
 7832SOL     OW24394   6.353   0.845   4.416
 7832SOL    HW124395   6.367   0.785   4.495
 7832SOL    HW224396   6.272   0.902   4.432
 7833SOL     OW24397   1.391   0.791   3.133
 7833SOL    HW124398   1.344   0.703   3.131
 7833SOL    HW224399   1.326   0.863   3.109
 7834SOL     OW24400   6.202   3.175   5.685
 7834SOL    HW124401   6.154   3.262   5.675
 7834SOL    HW224402   6.137   3.105   5.715
 7835SOL     OW24403   4.197   2.571   5.610
 7835SOL    HW124404   4.186   2.601   5.516
 7835SOL    HW224405   4.143   2.629   5.671
 7836SOL     OW24406   3.191   3.502   3.880
 7836SOL    HW124407   3.184   3.449   3.964
 7836SOL    HW224408   3.265   3.465   3.823
 7837SOL     OW24409   0.418   5.763   0.080
 7837SOL    HW124410   0.468   5.841   0.117
 7837SOL    HW224411   0.320   5.778   0.088
 7838SOL     OW24412   4.464   5.830   2.572
 7838SOL    HW124413   4.445   5.784   2.658
 7838SOL    HW224414   4.387   5.890   2.548
 7839SOL     OW24415   6.273   2.563   4.172
 7839SOL    HW124416   6.219   2.552   4.089
 7839SOL    HW224417   6.218   2.607   4.243
 7840SOL     OW24418   1.909   2.962   4.301
 7840SOL    HW124419   1.985   2.937   4.361
 7840SOL    HW224420   1.933   2.941   4.206
 7841SOL     OW24421   3.604   1.897   6.537
 7841SOL    HW124422   3.658   1.890   6.453
 7841SOL    HW224423   3.623   1.819   6.595
 7842SOL     OW24424   1.146   0.814   1.755
 7842SOL    HW124425   1.188   0.903   1.775
 7842SOL    HW224426   1.215   0.753   1.717
 7843SOL     OW24427   0.116   6.351   3.208
 7843SOL    HW124428   0.136   6.353   3.110
 7843SOL    HW224429   0.052   6.424   3.231
 7844SOL     OW24430   3.671   0.587   2.283
 7844SOL    HW124431   3.601   0.633   2.229
 7844SOL    HW224432   3.630   0.552   2.368
 7845SOL     OW24433   6.617   2.922   0.672
 7845SOL    HW124434   6.582   2.955   0.759
 7845SOL    HW224435   6.668   2.837   0.686
 7846SOL     OW24436   0.963   1.333   0.182
 7846SOL    HW124437   0.957   1.239   0.148
 7846SOL    HW224438   1.008   1.333   0.271
 7847SOL     OW24439   5.833   4.465   6.389
 7847SOL    HW124440   5.817   4.434   6.483
 7847SOL    HW224441   5.904   4.407   6.348
 7848SOL     OW24442   3.434   4.518   0.465
 7848SOL    HW124443   3.376   4.454   0.515
 7848SOL    HW224444   3.380   4.564   0.394
 7849SOL     OW24445   4.486   5.349   0.130
 7849SOL    HW124446   4.505   5.255   0.104
 7849SOL    HW224447   4.393   5.373   0.104
 7850SOL     OW24448   0.048   1.541   4.161
 7850SOL    HW124449   0.136   1.501   4.136
 7850SOL    HW224450   0.009   1.492   4.239
 7851SOL     OW24451   0.204   4.490   1.090
 7851SOL    HW124452   0.124   4.514   1.035
 7851SOL    HW224453   0.236   4.570   1.140
 7852SOL     OW24454   1.334   2.828   6.874
 7852SOL    HW124455   1.349   2.808   6.971
 7852SOL    HW224456   1.421   2.818   6.824
 7853SOL     OW24457   4.132   2.951   1.675
 7853SOL    HW124458   4.040   2.989   1.660
 7853SOL    HW224459   4.199   3.025   1.671
 7854SOL     OW24460   4.838   1.711   0.042
 7854SOL    HW124461   4.888   1.655   0.108
 7854SOL    HW224462   4.891   1.716   6.975
 7855SOL     OW24463   5.315   6.786   4.076
 7855SOL    HW124464   5.388   6.745   4.021
 7855SOL    HW224465   5.355   6.834   4.154
 7856SOL     OW24466   2.089   6.695   4.731
 7856SOL    HW124467   2.056   6.650   4.814
 7856SOL    HW224468   2.144   6.630   4.678
 7857SOL     OW24469   5.814   4.402   1.100
 7857SOL    HW124470   5.783   4.317   1.142
 7857SOL    HW224471   5.837   4.468   1.172
 7858SOL     OW24472   0.183   4.406   6.327
 7858SOL    HW124473   0.270   4.357   6.336
 7858SOL    HW224474   0.113   4.361   6.383
 7859SOL     OW24475   5.164   1.948   0.815
 7859SOL    HW124476   5.126   2.036   0.844
 7859SOL    HW224477   5.143   1.933   0.718
 7860SOL     OW24478   2.594   1.368   4.704
 7860SOL    HW124479   2.679   1.407   4.668
 7860SOL    HW224480   2.535   1.441   4.739
 7861SOL     OW24481   2.089   6.530   0.577
 7861SOL    HW124482   2.083   6.483   0.489
 7861SOL    HW224483   2.174   6.506   0.622
 7862SOL     OW24484   1.590   6.064   6.961
 7862SOL    HW124485   1.547   6.097   6.877
 7862SOL    HW224486   1.689   6.053   6.946
 7863SOL     OW24487   1.661   3.943   3.742
 7863SOL    HW124488   1.755   3.910   3.734
 7863SOL    HW224489   1.657   4.039   3.715
 7864SOL     OW24490   2.476   6.045   5.235
 7864SOL    HW124491   2.416   5.971   5.206
 7864SOL    HW224492   2.423   6.113   5.285
 7865SOL     OW24493   5.876   3.855   3.317
 7865SOL    HW124494   5.958   3.798   3.313
 7865SOL    HW224495   5.795   3.797   3.328
 7866SOL     OW24496   0.920   1.208   5.967
 7866SOL    HW124497   1.015   1.226   5.940
 7866SOL    HW224498   0.858   1.265   5.914
 7867SOL     OW24499   4.644   5.086   3.460
 7867SOL    HW124500   4.629   5.182   3.483
 7867SOL    HW224501   4.625   5.030   3.540
 7868SOL     OW24502   2.789   6.407   1.317
 7868SOL    HW124503   2.879   6.448   1.302
 7868SOL    HW224504   2.774   6.395   1.415
 7869SOL     OW24505   6.063   4.583   0.034
 7869SOL    HW124506   6.061   4.659   6.987
 7869SOL    HW224507   6.001   4.603   0.110
 7870SOL     OW24508   5.934   6.022   3.890
 7870SOL    HW124509   5.963   5.962   3.964
 7870SOL    HW224510   5.834   6.032   3.892
 7871SOL     OW24511   4.741   1.460   0.270
 7871SOL    HW124512   4.717   1.548   0.310
 7871SOL    HW224513   4.801   1.409   0.333
 7872SOL     OW24514   1.403   5.631   3.381
 7872SOL    HW124515   1.400   5.534   3.403
 7872SOL    HW224516   1.388   5.645   3.283
 7873SOL     OW24517   4.987   2.075   0.326
 7873SOL    HW124518   4.899   2.107   0.294
 7873SOL    HW224519   5.057   2.093   0.257
 7874SOL     OW24520   5.987   2.660   0.859
 7874SOL    HW124521   5.942   2.574   0.885
 7874SOL    HW224522   5.928   2.712   0.797
 7875SOL     OW24523   5.831   4.590   5.912
 7875SOL    HW124524   5.804   4.596   5.816
 7875SOL    HW224525   5.760   4.631   5.969
 7876SOL     OW24526   0.809   0.475   4.149
 7876SOL    HW124527   0.831   0.468   4.246
 7876SOL    HW224528   0.894   0.476   4.096
 7877SOL     OW24529   0.004   2.830   3.324
 7877SOL    HW124530   7.013   2.782   3.237
 7877SOL    HW224531   6.963   2.911   3.324
 7878SOL     OW24532   4.293   5.488   3.182
 7878SOL    HW124533   4.391   5.501   3.193
 7878SOL    HW224534   4.276   5.431   3.101
 7879SOL     OW24535   2.986   4.891   3.003
 7879SOL    HW124536   3.039   4.887   3.088
 7879SOL    HW224537   2.904   4.836   3.012
 7880SOL     OW24538   1.045   4.962   2.475
 7880SOL    HW124539   1.117   4.965   2.545
 7880SOL    HW224540   1.084   4.985   2.386
 7881SOL     OW24541   4.863   4.003   3.360
 7881SOL    HW124542   4.920   3.923   3.376
 7881SOL    HW224543   4.826   4.037   3.446
 7882SOL     OW24544   0.739   3.118   6.908
 7882SOL    HW124545   0.772   3.033   6.866
 7882SOL    HW224546   0.721   3.102   7.005
 7883SOL     OW24547   0.618   0.926   5.247
 7883SOL    HW124548   0.572   0.840   5.225
 7883SOL    HW224549   0.717   0.914   5.235
 7884SOL     OW24550   1.088   2.743   4.473
 7884SOL    HW124551   0.998   2.700   4.470
 7884SOL    HW224552   1.104   2.794   4.389
 7885SOL     OW24553   6.677   6.210   6.586
 7885SOL    HW124554   6.688   6.207   6.487
 7885SOL    HW224555   6.620   6.288   6.611
 7886SOL     OW24556   5.152   4.524   0.993
 7886SOL    HW124557   5.062   4.544   0.953
 7886SOL    HW224558   5.188   4.607   1.035
 7887SOL     OW24559   4.735   2.907   6.051
 7887SOL    HW124560   4.724   3.001   6.084
 7887SOL    HW224561   4.657   2.853   6.081
 7888SOL     OW24562   5.426   6.491   4.549
 7888SOL    HW124563   5.469   6.406   4.578
 7888SOL    HW224564   5.354   6.516   4.613
 7889SOL     OW24565   6.852   4.723   2.839
 7889SOL    HW124566   6.839   4.698   2.743
 7889SOL    HW224567   6.922   4.794   2.847
 7890SOL     OW24568   1.898   3.034   2.470
 7890SOL    HW124569   1.933   3.051   2.377
 7890SOL    HW224570   1.805   3.069   2.477
 7891SOL     OW24571   1.075   4.742   3.082
 7891SOL    HW124572   1.168   4.779   3.087
 7891SOL    HW224573   1.069   4.678   3.005
 7892SOL     OW24574   2.214   2.328   5.649
 7892SOL    HW124575   2.312   2.308   5.646
 7892SOL    HW224576   2.192   2.374   5.735
 7893SOL     OW24577   6.085   6.482   1.584
 7893SOL    HW124578   6.006   6.428   1.555
 7893SOL    HW224579   6.055   6.575   1.607
 7894SOL     OW24580   3.000   7.017   1.914
 7894SOL    HW124581   2.904   7.009   1.940
 7894SOL    HW224582   3.017   6.959   1.834
 7895SOL     OW24583   6.581   1.208   3.137
 7895SOL    HW124584   6.673   1.176   3.115
 7895SOL    HW224585   6.583   1.308   3.147
 7896SOL     OW24586   4.299   1.767   6.084
 7896SOL    HW124587   4.342   1.697   6.141
 7896SOL    HW224588   4.244   1.722   6.014
 7897SOL     OW24589   2.998   3.213   6.569
 7897SOL    HW124590   3.091   3.203   6.605
 7897SOL    HW224591   2.952   3.125   6.572
 7898SOL     OW24592   4.785   2.104   3.364
 7898SOL    HW124593   4.876   2.064   3.352
 7898SOL    HW224594   4.783   2.158   3.448
 7899SOL     OW24595   4.625   1.618   2.938
 7899SOL    HW124596   4.531   1.652   2.948
 7899SOL    HW224597   4.677   1.641   3.020
 7900SOL     OW24598   1.266   5.174   0.911
 7900SOL    HW124599   1.343   5.198   0.852
 7900SOL    HW224600   1.181   5.177   0.858
 7901SOL     OW24601   6.195   5.366   0.875
 7901SOL    HW124602   6.177   5.464   0.878
 7901SOL    HW224603   6.139   5.324   0.803
 7902SOL     OW24604   5.144   5.085   5.843
 7902SOL    HW124605   5.160   5.076   5.744
 7902SOL    HW224606   5.092   5.006   5.875
 7903SOL     OW24607   0.231   2.462   0.092
 7903SOL    HW124608   0.218   2.538   0.028
 7903SOL    HW224609   0.243   2.497   0.184
 7904SOL     OW24610   6.373   1.701   2.099
 7904SOL    HW124611   6.439   1.760   2.145
 7904SOL    HW224612   6.418   1.652   2.025
 7905SOL     OW24613   2.536   2.124   1.394
 7905SOL    HW124614   2.606   2.052   1.398
 7905SOL    HW224615   2.565   2.201   1.452
 7906SOL     OW24616   0.852   4.681   0.357
 7906SOL    HW124617   0.863   4.612   0.286
 7906SOL    HW224618   0.924   4.671   0.425
 7907SOL     OW24619   6.174   3.005   1.956
 7907SOL    HW124620   6.249   2.960   2.004
 7907SOL    HW224621   6.112   2.936   1.918
 7908SOL     OW24622   6.319   1.227   3.074
 7908SOL    HW124623   6.403   1.199   3.121
 7908SOL    HW224624   6.243   1.170   3.104
 7909SOL     OW24625   4.309   6.288   5.079
 7909SOL    HW124626   4.382   6.238   5.126
 7909SOL    HW224627   4.305   6.381   5.115
 7910SOL     OW24628   6.195   3.620   6.104
 7910SOL    HW124629   6.268   3.686   6.091
 7910SOL    HW224630   6.119   3.662   6.154
 7911SOL     OW24631   6.986   4.951   6.963
 7911SOL    HW124632   0.041   4.963   6.895
 7911SOL    HW224633   6.962   5.039   7.003
 7912SOL     OW24634   6.992   5.458   5.614
 7912SOL    HW124635   0.027   5.521   5.670
 7912SOL    HW224636   6.916   5.507   5.571
 7913SOL     OW24637   0.840   6.007   6.655
 7913SOL    HW124638   0.892   6.076   6.706
 7913SOL    HW224639   0.780   5.958   6.718
 7914SOL     OW24640   6.865   3.606   1.918
 7914SOL    HW124641   6.780   3.560   1.890
 7914SOL    HW224642   6.844   3.675   1.986
 7915SOL     OW24643   4.189   1.250   1.887
 7915SOL    HW124644   4.098   1.290   1.893
 7915SOL    HW224645   4.245   1.303   1.823
 7916SOL     OW24646   4.817   3.635   5.540
 7916SOL    HW124647   4.793   3.727   5.508
 7916SOL    HW224648   4.826   3.635   5.640
 7917SOL     OW24649   3.558   4.048   3.746
 7917SOL    HW124650   3.639   4.018   3.695
 7917SOL    HW224651   3.586   4.082   3.836
 7918SOL     OW24652   6.590   2.449   2.661
 7918SOL    HW124653   6.598   2.370   2.723
 7918SOL    HW224654   6.671   2.454   2.603
 7919SOL     OW24655   5.943   4.710   1.848
 7919SOL    HW124656   5.896   4.625   1.873
 7919SOL    HW224657   5.950   4.769   1.928
 7920SOL     OW24658   0.354   6.597   2.309
 7920SOL    HW124659   0.338   6.509   2.263
 7920SOL    HW224660   0.445   6.597   2.350
 7921SOL     OW24661   2.918   6.094   1.919
 7921SOL    HW124662   2.825   6.065   1.940
 7921SOL    HW224663   2.983   6.024   1.950
 7922SOL     OW24664   1.009   4.868   5.865
 7922SOL    HW124665   1.058   4.947   5.902
 7922SOL    HW224666   0.918   4.864   5.906
 7923SOL     OW24667   0.732   1.729   3.047
 7923SOL    HW124668   0.826   1.701   3.063
 7923SOL    HW224669   0.701   1.786   3.123
 7924SOL     OW24670   2.532   1.139   3.918
 7924SOL    HW124671   2.460   1.081   3.882
 7924SOL    HW224672   2.527   1.140   4.018
 7925SOL     OW24673   0.541   1.138   6.419
 7925SOL    HW124674   0.627   1.143   6.369
 7925SOL    HW224675   0.557   1.098   6.510
 7926SOL     OW24676   3.666   6.814   1.725
 7926SOL    HW124677   3.730   6.891   1.730
 7926SOL    HW224678   3.657   6.784   1.630
 7927SOL     OW24679   4.738   4.275   4.402
 7927SOL    HW124680   4.820   4.238   4.445
 7927SOL    HW224681   4.662   4.210   4.415
 7928SOL     OW24682   0.884   4.599   6.694
 7928SOL    HW124683   0.784   4.601   6.689
 7928SOL    HW224684   0.920   4.540   6.622
 7929SOL     OW24685   3.983   3.956   4.343
 7929SOL    HW124686   3.986   3.908   4.255
 7929SOL    HW224687   4.069   4.005   4.356
 7930SOL     OW24688   5.793   6.183   3.685
 7930SOL    HW124689   5.791   6.140   3.775
 7930SOL    HW224690   5.712   6.155   3.633
 7931SOL     OW24691   2.273   3.240   0.213
 7931SOL    HW124692   2.210   3.164   0.230
 7931SOL    HW224693   2.366   3.205   0.205
 7932SOL     OW24694   3.019   6.753   0.898
 7932SOL    HW124695   3.052   6.794   0.813
 7932SOL    HW224696   3.092   6.757   0.967
 7933SOL     OW24697   1.678   1.013   6.386
 7933SOL    HW124698   1.693   1.107   6.355
 7933SOL    HW224699   1.597   1.009   6.444
 7934SOL     OW24700   3.977   2.884   5.502
 7934SOL    HW124701   3.993   2.887   5.600
 7934SOL    HW224702   4.055   2.842   5.456
 7935SOL     OW24703   4.967   5.977   1.428
 7935SOL    HW124704   4.955   5.941   1.336
 7935SOL    HW224705   5.020   5.912   1.483
 7936SOL     OW24706   4.213   5.946   2.803
 7936SOL    HW124707   4.116   5.920   2.803
 7936SOL    HW224708   4.269   5.865   2.785
 7937SOL     OW24709   6.547   0.352   5.836
 7937SOL    HW124710   6.532   0.295   5.756
 7937SOL    HW224711   6.564   0.294   5.916
 7938SOL     OW24712   6.368   4.885   4.138
 7938SOL    HW124713   6.420   4.825   4.199
 7938SOL    HW224714   6.305   4.941   4.192
 7939SOL     OW24715   0.396   6.805   4.160
 7939SOL    HW124716   0.321   6.802   4.226
 7939SOL    HW224717   0.475   6.757   4.198
 7940SOL     OW24718   2.118   6.169   0.830
 7940SOL    HW124719   2.172   6.209   0.756
 7940SOL    HW224720   2.043   6.230   0.853
 7941SOL     OW24721   0.176   0.183   0.728
 7941SOL    HW124722   0.161   0.169   0.630
 7941SOL    HW224723   0.160   0.279   0.750
 7942SOL     OW24724   1.251   1.279   1.062
 7942SOL    HW124725   1.186   1.352   1.039
 7942SOL    HW224726   1.280   1.233   0.978
 7943SOL     OW24727   6.071   2.252   0.101
 7943SOL    HW124728   6.057   2.342   0.060
 7943SOL    HW224729   6.012   2.242   0.181
 7944SOL     OW24730   0.024   3.315   2.386
 7944SOL    HW124731   0.073   3.241   2.340
 7944SOL    HW224732   6.959   3.336   2.334
 7945SOL     OW24733   5.354   6.790   1.216
 7945SOL    HW124734   5.449   6.766   1.192
 7945SOL    HW224735   5.297   6.708   1.206
 7946SOL     OW24736   1.612   1.610   6.013
 7946SOL    HW124737   1.592   1.624   6.110
 7946SOL    HW224738   1.570   1.683   5.960
 7947SOL     OW24739   4.665   5.084   5.656
 7947SOL    HW124740   4.691   5.092   5.753
 7947SOL    HW224741   4.667   4.987   5.630
 7948SOL     OW24742   0.460   5.042   6.083
 7948SOL    HW124743   0.412   4.991   6.012
 7948SOL    HW224744   0.408   5.039   6.168
 7949SOL     OW24745   6.739   3.858   4.033
 7949SOL    HW124746   6.665   3.794   4.054
 7949SOL    HW224747   6.725   3.896   3.941
 7950SOL     OW24748   3.851   5.222   4.202
 7950SOL    HW124749   3.795   5.139   4.200
 7950SOL    HW224750   3.793   5.301   4.225
 7951SOL     OW24751   3.360   3.686   0.879
 7951SOL    HW124752   3.435   3.651   0.935
 7951SOL    HW224753   3.281   3.626   0.887
 7952SOL     OW24754   5.038   5.112   0.230
 7952SOL    HW124755   5.013   5.100   0.134
 7952SOL    HW224756   5.132   5.082   0.244
 7953SOL     OW24757   2.095   3.294   2.990
 7953SOL    HW124758   2.164   3.235   3.032
 7953SOL    HW224759   2.037   3.334   3.061
 7954SOL     OW24760   5.404   5.643   4.554
 7954SOL    HW124761   5.389   5.712   4.483
 7954SOL    HW224762   5.359   5.558   4.528
 7955SOL     OW24763   1.495   0.002   6.178
 7955SOL    HW124764   1.510   6.923   6.200
 7955SOL    HW224765   1.397   0.019   6.171
 7956SOL     OW24766   6.061   0.084   3.232
 7956SOL    HW124767   6.074   0.031   3.317
 7956SOL    HW224768   6.131   0.155   3.228
 7957SOL     OW24769   0.733   2.512   1.109
 7957SOL    HW124770   0.679   2.593   1.084
 7957SOL    HW224771   0.672   2.438   1.137
 7958SOL     OW24772   1.966   5.327   3.715
 7958SOL    HW124773   1.983   5.407   3.658
 7958SOL    HW224774   1.878   5.338   3.762
 7959SOL     OW24775   4.984   5.420   0.575
 7959SOL    HW124776   4.944   5.490   0.635
 7959SOL    HW224777   4.946   5.430   0.483
 7960SOL     OW24778   2.124   2.605   0.859
 7960SOL    HW124779   2.181   2.670   0.909
 7960SOL    HW224780   2.046   2.653   0.819
 7961SOL     OW24781   1.613   5.825   0.099
 7961SOL    HW124782   1.605   5.865   0.190
 7961SOL    HW224783   1.598   5.895   0.030
 7962SOL     OW24784   1.721   6.556   2.147
 7962SOL    HW124785   1.807   6.590   2.185
 7962SOL    HW224786   1.644   6.599   2.194
 7963SOL     OW24787   0.420   6.500   4.980
 7963SOL    HW124788   0.479   6.425   4.950
 7963SOL    HW224789   0.425   6.509   5.079
 7964SOL     OW24790   6.364   5.717   3.372
 7964SOL    HW124791   6.393   5.648   3.306
 7964SOL    HW224792   6.407   5.699   3.460
 7965SOL     OW24793   5.643   1.799   0.586
 7965SOL    HW124794   5.596   1.734   0.526
 7965SOL    HW224795   5.705   1.855   0.532
 7966SOL     OW24796   6.850   6.492   3.433
 7966SOL    HW124797   6.851   6.415   3.369
 7966SOL    HW224798   6.846   6.456   3.527
 7967SOL     OW24799   2.973   6.960   3.414
 7967SOL    HW124800   3.030   0.000   3.356
 7967SOL    HW224801   2.987   6.986   3.510
 7968SOL     OW24802   2.036   0.778   1.731
 7968SOL    HW124803   2.061   0.813   1.822
 7968SOL    HW224804   2.092   0.823   1.662
 7969SOL     OW24805   3.395   1.816   3.528
 7969SOL    HW124806   3.338   1.758   3.587
 7969SOL    HW224807   3.363   1.809   3.433
 7970SOL     OW24808   0.468   5.031   3.114
 7970SOL    HW124809   0.474   5.120   3.159
 7970SOL    HW224810   0.377   4.992   3.129
 7971SOL     OW24811   2.869   1.487   1.858
 7971SOL    HW124812   2.863   1.583   1.887
 7971SOL    HW224813   2.959   1.470   1.819
 7972SOL     OW24814   0.392   5.294   1.577
 7972SOL    HW124815   0.445   5.365   1.624
 7972SOL    HW224816   0.304   5.282   1.624
 7973SOL     OW24817   4.567   2.348   2.597
 7973SOL    HW124818   4.576   2.264   2.543
 7973SOL    HW224819   4.487   2.341   2.656
 7974SOL     OW24820   5.689   6.829   3.968
 7974SOL    HW124821   5.667   6.756   4.032
 7974SOL    HW224822   5.736   6.791   3.888
 7975SOL     OW24823   2.382   0.840   2.965
 7975SOL    HW124824   2.427   0.768   3.018
 7975SOL    HW224825   2.350   0.803   2.879
 7976SOL     OW24826   0.646   6.243   6.276
 7976SOL    HW124827   0.656   6.338   6.248
 7976SOL    HW224828   0.613   6.189   6.199
 7977SOL     OW24829   5.069   6.528   1.454
 7977SOL    HW124830   4.976   6.556   1.430
 7977SOL    HW224831   5.071   6.431   1.476
 7978SOL     OW24832   3.562   2.634   5.898
 7978SOL    HW124833   3.490   2.679   5.846
 7978SOL    HW224834   3.523   2.557   5.949
 7979SOL     OW24835   4.715   0.146   4.484
 7979SOL    HW124836   4.657   0.176   4.409
 7979SOL    HW224837   4.811   0.162   4.460
 7980SOL     OW24838   2.757   0.565   2.383
 7980SOL    HW124839   2.719   0.526   2.467
 7980SOL    HW224840   2.685   0.571   2.314
 7981SOL     OW24841   1.009   5.948   2.830
 7981SOL    HW124842   1.017   6.029   2.887
 7981SOL    HW224843   0.966   5.874   2.882
 7982SOL     OW24844   0.465   2.261   0.520
 7982SOL    HW124845   0.368   2.240   0.510
 7982SOL    HW224846   0.485   2.350   0.479
 7983SOL     OW24847   4.661   2.666   2.297
 7983SOL    HW124848   4.698   2.754   2.266
 7983SOL    HW224849   4.713   2.634   2.376
 7984SOL     OW24850   0.100   0.400   0.279
 7984SOL    HW124851   0.186   0.435   0.242
 7984SOL    HW224852   0.052   0.475   0.326
 7985SOL     OW24853   0.196   1.051   1.052
 7985SOL    HW124854   0.202   0.979   0.983
 7985SOL    HW224855   0.280   1.053   1.106
 7986SOL     OW24856   4.687   3.157   0.092
 7986SOL    HW124857   4.662   3.141   7.014
 7986SOL    HW224858   4.606   3.189   0.142
 7987SOL     OW24859   0.926   2.334   4.571
 7987SOL    HW124860   0.843   2.375   4.610
 7987SOL    HW224861   0.915   2.323   4.473
 7988SOL     OW24862   2.752   2.253   5.747
 7988SOL    HW124863   2.769   2.182   5.815
 7988SOL    HW224864   2.781   2.220   5.657
 7989SOL     OW24865   3.744   3.543   5.426
 7989SOL    HW124866   3.706   3.636   5.425
 7989SOL    HW224867   3.839   3.547   5.456
 7990SOL     OW24868   2.175   2.817   4.749
 7990SOL    HW124869   2.185   2.832   4.847
 7990SOL    HW224870   2.218   2.731   4.724
 7991SOL     OW24871   0.729   3.153   5.121
 7991SOL    HW124872   0.706   3.145   5.024
 7991SOL    HW224873   0.828   3.140   5.133
 7992SOL     OW24874   2.201   0.812   0.604
 7992SOL    HW124875   2.192   0.902   0.560
 7992SOL    HW224876   2.182   0.821   0.702
 7993SOL     OW24877   2.341   6.410   6.338
 7993SOL    HW124878   2.356   6.398   6.436
 7993SOL    HW224879   2.266   6.474   6.323
 7994SOL     OW24880   6.014   0.779   4.449
 7994SOL    HW124881   6.061   0.867   4.462
 7994SOL    HW224882   5.973   0.751   4.536
 7995SOL     OW24883   4.471   5.881   3.662
 7995SOL    HW124884   4.568   5.899   3.647
 7995SOL    HW224885   4.457   5.782   3.673
 7996SOL     OW24886   3.892   0.821   5.302
 7996SOL    HW124887   3.899   0.735   5.353
 7996SOL    HW224888   3.905   0.803   5.204
 7997SOL     OW24889   5.488   2.761   2.185
 7997SOL    HW124890   5.429   2.809   2.120
 7997SOL    HW224891   5.446   2.765   2.276
 7998SOL     OW24892   5.999   4.852   6.454
 7998SOL    HW124893   5.903   4.825   6.457
 7998SOL    HW224894   6.057   4.773   6.474
 7999SOL     OW24895   1.550   0.473   5.829
 7999SOL    HW124896   1.527   0.400   5.764
 7999SOL    HW224897   1.647   0.468   5.851
 8000SOL     OW24898   5.761   0.258   5.863
 8000SOL    HW124899   5.784   0.344   5.908
 8000SOL    HW224900   5.668   0.263   5.828
 8001SOL     OW24901   2.250   6.381   1.435
 8001SOL    HW124902   2.225   6.299   1.384
 8001SOL    HW224903   2.266   6.357   1.531
 8002SOL     OW24904   5.037   2.764   5.584
 8002SOL    HW124905   4.939   2.754   5.601
 8002SOL    HW224906   5.053   2.767   5.485
 8003SOL     OW24907   3.904   5.907   3.767
 8003SOL    HW124908   3.922   5.991   3.818
 8003SOL    HW224909   3.887   5.928   3.671
 8004SOL     OW24910   1.088   4.127   2.746
 8004SOL    HW124911   1.149   4.188   2.695
 8004SOL    HW224912   1.131   4.038   2.758
 8005SOL     OW24913   2.556   0.432   2.525
 8005SOL    HW124914   2.504   0.359   2.482
 8005SOL    HW224915   2.560   0.417   2.624
 8006SOL     OW24916   3.619   6.315   0.993
 8006SOL    HW124917   3.624   6.239   0.927
 8006SOL    HW224918   3.666   6.395   0.955
 8007SOL     OW24919   0.317   1.458   4.167
 8007SOL    HW124920   0.342   1.470   4.071
 8007SOL    HW224921   0.323   1.361   4.191
 8008SOL     OW24922   6.198   5.393   0.544
 8008SOL    HW124923   6.221   5.303   0.506
 8008SOL    HW224924   6.099   5.404   0.547
 8009SOL     OW24925   6.909   6.993   4.095
 8009SOL    HW124926   6.842   6.950   4.034
 8009SOL    HW224927   6.973   6.924   4.128
 8010SOL     OW24928   1.815   3.056   6.553
 8010SOL    HW124929   1.748   3.131   6.556
 8010SOL    HW224930   1.817   3.017   6.462
 8011SOL     OW24931   2.246   2.373   0.765
 8011SOL    HW124932   2.269   2.303   0.832
 8011SOL    HW224933   2.219   2.457   0.812
 8012SOL     OW24934   2.843   0.287   3.526
 8012SOL    HW124935   2.859   0.372   3.476
 8012SOL    HW224936   2.928   0.235   3.531
 8013SOL     OW24937   6.008   5.328   4.633
 8013SOL    HW124938   5.963   5.347   4.720
 8013SOL    HW224939   6.098   5.372   4.631
 8014SOL     OW24940   2.144   0.109   6.684
 8014SOL    HW124941   2.131   0.066   6.773
 8014SOL    HW224942   2.210   0.183   6.692
 8015SOL     OW24943   1.732   1.945   6.559
 8015SOL    HW124944   1.771   1.929   6.650
 8015SOL    HW224945   1.643   1.990   6.568
 8016SOL     OW24946   3.817   6.630   1.380
 8016SOL    HW124947   3.877   6.711   1.383
 8016SOL    HW224948   3.864   6.556   1.332
 8017SOL     OW24949   5.933   3.850   5.160
 8017SOL    HW124950   5.998   3.780   5.188
 8017SOL    HW224951   5.893   3.825   5.072
 8018SOL     OW24952   5.425   2.863   4.420
 8018SOL    HW124953   5.404   2.937   4.356
 8018SOL    HW224954   5.353   2.794   4.416
 8019SOL     OW24955   1.949   4.960   1.563
 8019SOL    HW124956   2.002   4.893   1.616
 8019SOL    HW224957   1.863   4.980   1.611
 8020SOL     OW24958   5.632   6.471   6.347
 8020SOL    HW124959   5.581   6.409   6.407
 8020SOL    HW224960   5.690   6.418   6.286
 8021SOL     OW24961   0.235   0.909   0.840
 8021SOL    HW124962   0.230   0.822   0.791
 8021SOL    HW224963   0.248   0.984   0.775
 8022SOL     OW24964   4.453   5.548   3.426
 8022SOL    HW124965   4.431   5.625   3.366
 8022SOL    HW224966   4.368   5.501   3.452
 8023SOL     OW24967   6.473   6.734   3.666
 8023SOL    HW124968   6.448   6.676   3.744
 8023SOL    HW224969   6.569   6.720   3.643
 8024SOL     OW24970   4.819   5.491   4.269
 8024SOL    HW124971   4.812   5.396   4.300
 8024SOL    HW224972   4.747   5.546   4.312
 8025SOL     OW24973   3.094   6.227   0.372
 8025SOL    HW124974   3.158   6.162   0.413
 8025SOL    HW224975   3.052   6.282   0.444
 8026SOL     OW24976   1.786   2.710   0.795
 8026SOL    HW124977   1.762   2.613   0.804
 8026SOL    HW224978   1.719   2.756   0.737
 8027SOL     OW24979   5.216   3.497   5.808
 8027SOL    HW124980   5.169   3.547   5.880
 8027SOL    HW224981   5.165   3.414   5.787
 8028SOL     OW24982   5.469   5.515   0.561
 8028SOL    HW124983   5.446   5.417   0.563
 8028SOL    HW224984   5.392   5.568   0.598
 8029SOL     OW24985   3.349   4.635   0.240
 8029SOL    HW124986   3.416   4.679   0.181
 8029SOL    HW224987   3.309   4.703   0.301
 8030SOL     OW24988   6.136   3.730   0.176
 8030SOL    HW124989   6.116   3.713   0.079
 8030SOL    HW224990   6.184   3.651   0.215
 8031SOL     OW24991   3.330   6.019   1.091
 8031SOL    HW124992   3.346   6.116   1.107
 8031SOL    HW224993   3.286   6.006   1.002
 8032SOL     OW24994   4.744   4.812   5.485
 8032SOL    HW124995   4.824   4.808   5.545
 8032SOL    HW224996   4.665   4.774   5.533
 8033SOL     OW24997   5.909   2.154   0.850
 8033SOL    HW124998   5.987   2.188   0.903
 8033SOL    HW224999   5.826   2.159   0.906
 8034SOL     OW25000   6.062   0.968   4.762
 8034SOL    HW125001   6.072   0.948   4.664
 8034SOL    HW225002   6.152   0.985   4.801
 8035SOL     OW25003   5.559   6.211   6.982
 8035SOL    HW125004   5.468   6.174   6.963
 8035SOL    HW225005   5.603   6.155   0.035
 8036SOL     OW25006   1.955   4.674   1.125
 8036SOL    HW125007   1.902   4.748   1.166
 8036SOL    HW225008   1.905   4.588   1.134
 8037SOL     OW25009   2.077   3.333   1.246
 8037SOL    HW125010   2.127   3.397   1.305
 8037SOL    HW225011   2.009   3.284   1.300
 8038SOL     OW25012   6.479   1.541   3.798
 8038SOL    HW125013   6.578   1.556   3.806
 8038SOL    HW225014   6.436   1.559   3.887
 8039SOL     OW25015   3.031   6.806   4.494
 8039SOL    HW125016   2.993   6.884   4.445
 8039SOL    HW225017   3.070   6.741   4.429
 8040SOL     OW25018   6.163   6.035   0.855
 8040SOL    HW125019   6.078   6.008   0.811
 8040SOL    HW225020   6.240   6.017   0.794
 8041SOL     OW25021   4.042   1.846   0.521
 8041SOL    HW125022   3.997   1.925   0.562
 8041SOL    HW225023   4.135   1.871   0.493
 8042SOL     OW25024   2.605   4.185   0.792
 8042SOL    HW125025   2.677   4.219   0.853
 8042SOL    HW225026   2.644   4.163   0.703
 8043SOL     OW25027   2.295   0.213   1.487
 8043SOL    HW125028   2.259   0.174   1.402
 8043SOL    HW225029   2.384   0.254   1.470
 8044SOL     OW25030   3.312   3.974   1.466
 8044SOL    HW125031   3.253   3.909   1.514
 8044SOL    HW225032   3.371   4.020   1.533
 8045SOL     OW25033   6.267   2.813   3.411
 8045SOL    HW125034   6.246   2.832   3.507
 8045SOL    HW225035   6.345   2.869   3.382
 8046SOL     OW25036   0.116   5.235   5.949
 8046SOL    HW125037   0.098   5.138   5.965
 8046SOL    HW225038   0.094   5.287   6.032
 8047SOL     OW25039   2.834   6.167   3.899
 8047SOL    HW125040   2.764   6.231   3.869
 8047SOL    HW225041   2.848   6.177   3.998
 8048SOL     OW25042   6.268   0.487   5.939
 8048SOL    HW125043   6.361   0.459   5.916
 8048SOL    HW225044   6.231   0.543   5.864
 8049SOL     OW25045   1.461   6.162   0.447
 8049SOL    HW125046   1.425   6.165   0.354
 8049SOL    HW225047   1.493   6.254   0.473
 8050SOL     OW25048   0.966   3.217   0.674
 8050SOL    HW125049   1.022   3.158   0.615
 8050SOL    HW225050   0.877   3.174   0.689
 8051SOL     OW25051   3.685   1.793   3.869
 8051SOL    HW125052   3.586   1.790   3.855
 8051SOL    HW225053   3.731   1.736   3.800
 8052SOL     OW25054   3.312   2.100   3.136
 8052SOL    HW125055   3.326   2.196   3.113
 8052SOL    HW225056   3.214   2.078   3.133
 8053SOL     OW25057   3.832   3.294   1.884
 8053SOL    HW125058   3.826   3.387   1.922
 8053SOL    HW225059   3.786   3.230   1.945
 8054SOL     OW25060   4.548   6.059   4.280
 8054SOL    HW125061   4.542   5.969   4.238
 8054SOL    HW225062   4.592   6.051   4.370
 8055SOL     OW25063   1.043   6.899   4.998
 8055SOL    HW125064   1.089   6.920   4.911
 8055SOL    HW225065   1.098   6.832   5.049
 8056SOL     OW25066   4.322   1.622   2.745
 8056SOL    HW125067   4.291   1.627   2.840
 8056SOL    HW225068   4.352   1.529   2.725
 8057SOL     OW25069   3.865   0.112   3.379
 8057SOL    HW125070   3.959   0.092   3.352
 8057SOL    HW225071   3.803   0.056   3.324
 8058SOL     OW25072   2.497   0.201   3.708
 8058SOL    HW125073   2.407   0.234   3.735
 8058SOL    HW225074   2.551   0.277   3.670
 8059SOL     OW25075   2.645   1.368   4.365
 8059SOL    HW125076   2.634   1.420   4.280
 8059SOL    HW225077   2.559   1.368   4.416
 8060SOL     OW25078   0.771   1.959   4.959
 8060SOL    HW125079   0.803   2.009   4.879
 8060SOL    HW225080   0.739   2.023   5.029
 8061SOL     OW25081   6.806   5.707   1.905
 8061SOL    HW125082   6.712   5.730   1.931
 8061SOL    HW225083   6.870   5.762   1.959
 8062SOL     OW25084   2.122   3.321   2.234
 8062SOL    HW125085   2.107   3.391   2.305
 8062SOL    HW225086   2.162   3.364   2.153
 8063SOL     OW25087   2.570   3.462   6.907
 8063SOL    HW125088   2.564   3.393   6.980
 8063SOL    HW225089   2.665   3.492   6.897
 8064SOL     OW25090   6.371   3.269   7.003
 8064SOL    HW125091   6.302   3.257   6.932
 8064SOL    HW225092   6.334   3.240   0.073
 8065SOL     OW25093   4.343   6.598   6.353
 8065SOL    HW125094   4.360   6.579   6.256
 8065SOL    HW225095   4.269   6.540   6.386
 8066SOL     OW25096   2.738   7.003   1.961
 8066SOL    HW125097   2.712   6.919   2.008
 8066SOL    HW225098   2.714   0.064   2.019
 8067SOL     OW25099   4.944   2.071   1.970
 8067SOL    HW125100   4.845   2.063   1.964
 8067SOL    HW225101   4.969   2.128   2.048
 8068SOL     OW25102   6.689   4.536   4.376
 8068SOL    HW125103   6.678   4.499   4.283
 8068SOL    HW225104   6.700   4.460   4.441
 8069SOL     OW25105   1.078   6.312   2.374
 8069SOL    HW125106   0.990   6.296   2.419
 8069SOL    HW225107   1.105   6.408   2.387
 8070SOL     OW25108   3.764   6.946   2.120
 8070SOL    HW125109   3.749   0.014   2.071
 8070SOL    HW225110   3.856   6.946   2.160
 8071SOL     OW25111   3.587   6.151   0.769
 8071SOL    HW125112   3.534   6.227   0.733
 8071SOL    HW225113   3.561   6.067   0.721
 8072SOL     OW25114   5.301   1.116   2.631
 8072SOL    HW125115   5.328   1.104   2.536
 8072SOL    HW225116   5.250   1.037   2.662
 8073SOL     OW25117   4.792   0.073   6.260
 8073SOL    HW125118   4.798   6.997   6.226
 8073SOL    HW225119   4.828   0.077   6.353
 8074SOL     OW25120   3.273   4.097   6.930
 8074SOL    HW125121   3.266   4.103   0.012
 8074SOL    HW225122   3.279   4.000   6.904
 8075SOL     OW25123   5.624   2.100   2.949
 8075SOL    HW125124   5.660   2.186   2.984
 8075SOL    HW225125   5.554   2.065   3.012
 8076SOL     OW25126   4.905   2.887   6.281
 8076SOL    HW125127   4.838   2.893   6.207
 8076SOL    HW225128   4.884   2.956   6.351
 8077SOL     OW25129   1.292   0.693   0.346
 8077SOL    HW125130   1.223   0.704   0.418
 8077SOL    HW225131   1.361   0.628   0.377
 8078SOL     OW25132   5.884   3.155   0.486
 8078SOL    HW125133   5.869   3.174   0.389
 8078SOL    HW225134   5.808   3.192   0.539
 8079SOL     OW25135   0.756   1.399   1.459
 8079SOL    HW125136   0.663   1.380   1.491
 8079SOL    HW225137   0.820   1.336   1.503
 8080SOL     OW25138   3.191   5.288   0.454
 8080SOL    HW125139   3.260   5.250   0.393
 8080SOL    HW225140   3.108   5.309   0.402
 8081SOL     OW25141   6.004   1.754   5.457
 8081SOL    HW125142   5.932   1.765   5.389
 8081SOL    HW225143   6.060   1.674   5.433
 8082SOL     OW25144   6.271   3.378   4.352
 8082SOL    HW125145   6.367   3.358   4.375
 8082SOL    HW225146   6.234   3.304   4.297
 8083SOL     OW25147   5.684   2.201   4.368
 8083SOL    HW125148   5.650   2.294   4.379
 8083SOL    HW225149   5.692   2.181   4.270
 8084SOL     OW25150   6.908   6.867   0.959
 8084SOL    HW125151   6.832   6.848   0.897
 8084SOL    HW225152   6.881   6.938   1.024
 8085SOL     OW25153   6.088   1.908   0.774
 8085SOL    HW125154   6.070   1.861   0.860
 8085SOL    HW225155   6.010   1.966   0.751
 8086SOL     OW25156   3.136   6.283   5.733
 8086SOL    HW125157   3.226   6.239   5.727
 8086SOL    HW225158   3.098   6.269   5.824
 8087SOL     OW25159   2.699   3.785   0.622
 8087SOL    HW125160   2.616   3.760   0.571
 8087SOL    HW225161   2.698   3.741   0.711
 8088SOL     OW25162   4.364   0.446   2.628
 8088SOL    HW125163   4.334   0.377   2.694
 8088SOL    HW225164   4.426   0.404   2.562
 8089SOL     OW25165   5.982   2.903   0.427
 8089SOL    HW125166   6.074   2.918   0.462
 8089SOL    HW225167   5.924   2.980   0.452
 8090SOL     OW25168   4.474   2.418   5.091
 8090SOL    HW125169   4.375   2.408   5.094
 8090SOL    HW225170   4.517   2.328   5.083
 8091SOL     OW25171   2.729   4.975   5.643
 8091SOL    HW125172   2.778   5.037   5.705
 8091SOL    HW225173   2.636   5.009   5.629
 8092SOL     OW25174   6.749   2.095   4.000
 8092SOL    HW125175   6.742   2.184   4.044
 8092SOL    HW225176   6.832   2.049   4.031
 8093SOL     OW25177   5.439   5.651   1.390
 8093SOL    HW125178   5.433   5.751   1.392
 8093SOL    HW225179   5.359   5.614   1.343
 8094SOL     OW25180   1.294   3.961   4.590
 8094SOL    HW125181   1.249   3.986   4.676
 8094SOL    HW225182   1.386   4.000   4.588
 8095SOL     OW25183   6.140   3.499   4.553
 8095SOL    HW125184   6.062   3.548   4.513
 8095SOL    HW225185   6.179   3.438   4.484
 8096SOL     OW25186   3.782   0.507   0.158
 8096SOL    HW125187   3.853   0.437   0.162
 8096SOL    HW225188   3.771   0.548   0.248
 8097SOL     OW25189   4.600   1.023   4.531
 8097SOL    HW125190   4.603   1.039   4.432
 8097SOL    HW225191   4.693   1.032   4.569
 8098SOL     OW25192   3.005   1.146   4.335
 8098SOL    HW125193   2.956   1.231   4.354
 8098SOL    HW225194   3.088   1.166   4.283
 8099SOL     OW25195   4.905   6.031   4.719
 8099SOL    HW125196   4.848   6.042   4.638
 8099SOL    HW225197   4.863   6.080   4.796
 8100SOL     OW25198   6.794   6.095   0.677
 8100SOL    HW125199   6.719   6.038   0.709
 8100SOL    HW225200   6.788   6.106   0.578
 8101SOL     OW25201   0.865   5.411   2.959
 8101SOL    HW125202   0.885   5.347   3.033
 8101SOL    HW225203   0.781   5.460   2.979
 8102SOL     OW25204   0.195   0.038   6.344
 8102SOL    HW125205   0.273   0.050   6.282
 8102SOL    HW225206   0.186   6.959   6.368
 8103SOL     OW25207   2.657   1.663   2.324
 8103SOL    HW125208   2.687   1.754   2.351
 8103SOL    HW225209   2.671   1.599   2.399
 8104SOL     OW25210   2.686   6.053   5.764
 8104SOL    HW125211   2.763   6.012   5.812
 8104SOL    HW225212   2.639   6.116   5.826
 8105SOL     OW25213   2.192   2.869   2.700
 8105SOL    HW125214   2.241   2.940   2.650
 8105SOL    HW225215   2.099   2.861   2.664
 8106SOL     OW25216   0.347   4.123   5.161
 8106SOL    HW125217   0.338   4.136   5.062
 8106SOL    HW225218   0.258   4.134   5.205
 8107SOL     OW25219   1.129   5.831   6.652
 8107SOL    HW125220   1.069   5.842   6.573
 8107SOL    HW225221   1.083   5.775   6.721
 8108SOL     OW25222   2.114   3.431   5.110
 8108SOL    HW125223   2.189   3.474   5.060
 8108SOL    HW225224   2.128   3.445   5.208
 8109SOL     OW25225   1.197   5.577   5.132
 8109SOL    HW125226   1.272   5.635   5.100
 8109SOL    HW225227   1.182   5.591   5.230
 8110SOL     OW25228   1.347   4.384   0.648
 8110SOL    HW125229   1.407   4.431   0.713
 8110SOL    HW225230   1.362   4.285   0.655
 8111SOL     OW25231   3.101   5.929   4.172
 8111SOL    HW125232   3.186   5.980   4.160
 8111SOL    HW225233   3.068   5.896   4.083
 8112SOL     OW25234   4.294   1.103   4.778
 8112SOL    HW125235   4.242   1.021   4.804
 8112SOL    HW225236   4.392   1.087   4.794
 8113SOL     OW25237   3.871   3.005   6.128
 8113SOL    HW125238   3.884   2.907   6.114
 8113SOL    HW225239   3.859   3.023   6.226
 8114SOL     OW25240   3.314   3.593   1.804
 8114SOL    HW125241   3.262   3.541   1.871
 8114SOL    HW225242   3.409   3.561   1.803
 8115SOL     OW25243   3.663   1.953   0.710
 8115SOL    HW125244   3.577   1.923   0.752
 8115SOL    HW225245   3.734   1.886   0.729
 8116SOL     OW25246   4.894   1.255   5.579
 8116SOL    HW125247   4.919   1.352   5.588
 8116SOL    HW225248   4.968   1.198   5.615
 8117SOL     OW25249   2.458   2.005   5.934
 8117SOL    HW125250   2.463   1.960   6.023
 8117SOL    HW225251   2.362   2.009   5.905
 8118SOL     OW25252   1.148   2.357   4.161
 8118SOL    HW125253   1.153   2.270   4.113
 8118SOL    HW225254   1.163   2.432   4.097
 8119SOL     OW25255   1.243   6.033   1.732
 8119SOL    HW125256   1.270   5.988   1.647
 8119SOL    HW225257   1.325   6.052   1.787
 8120SOL     OW25258   4.609   4.098   1.671
 8120SOL    HW125259   4.545   4.165   1.707
 8120SOL    HW225260   4.560   4.029   1.618
 8121SOL     OW25261   6.740   6.818   3.254
 8121SOL    HW125262   6.782   6.759   3.185
 8121SOL    HW225263   6.797   6.899   3.268
 8122SOL     OW25264   0.833   5.681   1.644
 8122SOL    HW125265   0.878   5.597   1.614
 8122SOL    HW225266   0.858   5.756   1.582
 8123SOL     OW25267   0.555   5.595   0.458
 8123SOL    HW125268   0.593   5.504   0.446
 8123SOL    HW225269   0.575   5.629   0.550
 8124SOL     OW25270   1.073   6.475   3.103
 8124SOL    HW125271   1.143   6.425   3.052
 8124SOL    HW225272   1.103   6.568   3.119
 8125SOL     OW25273   5.991   5.505   2.847
 8125SOL    HW125274   5.927   5.478   2.919
 8125SOL    HW225275   5.965   5.595   2.811
 8126SOL     OW25276   6.799   4.615   2.561
 8126SOL    HW125277   6.886   4.602   2.513
 8126SOL    HW225278   6.772   4.529   2.603
 8127SOL     OW25279   3.816   4.810   1.070
 8127SOL    HW125280   3.742   4.769   1.124
 8127SOL    HW225281   3.871   4.869   1.129
 8128SOL     OW25282   3.609   2.165   5.411
 8128SOL    HW125283   3.515   2.199   5.401
 8128SOL    HW225284   3.609   2.065   5.402
 8129SOL     OW25285   5.070   6.177   6.754
 8129SOL    HW125286   5.160   6.215   6.733
 8129SOL    HW225287   5.026   6.231   6.825
 8130SOL     OW25288   0.838   6.709   0.606
 8130SOL    HW125289   0.773   6.638   0.582
 8130SOL    HW225290   0.929   6.669   0.619
 8131SOL     OW25291   1.611   1.277   0.317
 8131SOL    HW125292   1.544   1.204   0.306
 8131SOL    HW225293   1.695   1.253   0.268
 8132SOL     OW25294   6.303   4.524   2.744
 8132SOL    HW125295   6.325   4.588   2.671
 8132SOL    HW225296   6.335   4.433   2.720
 8133SOL     OW25297   0.373   5.956   2.235
 8133SOL    HW125298   0.408   5.958   2.141
 8133SOL    HW225299   0.433   6.011   2.294
 8134SOL     OW25300   1.767   2.844   2.236
 8134SOL    HW125301   1.714   2.890   2.307
 8134SOL    HW225302   1.771   2.901   2.154
 8135SOL     OW25303   3.819   6.240   2.413
 8135SOL    HW125304   3.875   6.322   2.426
 8135SOL    HW225305   3.872   6.170   2.366
 8136SOL     OW25306   2.709   5.928   1.578
 8136SOL    HW125307   2.753   5.953   1.492
 8136SOL    HW225308   2.708   6.008   1.639
 8137SOL     OW25309   3.261   3.337   4.795
 8137SOL    HW125310   3.329   3.364   4.727
 8137SOL    HW225311   3.304   3.334   4.886
 8138SOL     OW25312   5.100   0.769   3.782
 8138SOL    HW125313   5.020   0.748   3.837
 8138SOL    HW225314   5.074   0.826   3.704
 8139SOL     OW25315   1.706   3.154   4.893
 8139SOL    HW125316   1.660   3.238   4.867
 8139SOL    HW225317   1.749   3.113   4.812
 8140SOL     OW25318   4.460   0.988   1.155
 8140SOL    HW125319   4.457   1.079   1.115
 8140SOL    HW225320   4.471   0.996   1.254
 8141SOL     OW25321   6.316   0.090   5.869
 8141SOL    HW125322   6.333   0.135   5.957
 8141SOL    HW225323   6.234   0.129   5.827
 8142SOL     OW25324   2.417   5.488   0.648
 8142SOL    HW125325   2.411   5.484   0.548
 8142SOL    HW225326   2.499   5.540   0.673
 8143SOL     OW25327   5.639   4.887   0.875
 8143SOL    HW125328   5.727   4.864   0.918
 8143SOL    HW225329   5.637   4.986   0.856
 8144SOL     OW25330   0.916   5.843   0.470
 8144SOL    HW125331   0.839   5.827   0.409
 8144SOL    HW225332   0.890   5.908   0.541
 8145SOL     OW25333   5.629   5.905   0.009
 8145SOL    HW125334   5.680   5.892   0.094
 8145SOL    HW225335   5.534   5.927   0.030
 8146SOL     OW25336   6.646   6.397   4.647
 8146SOL    HW125337   6.724   6.435   4.696
 8146SOL    HW225338   6.563   6.446   4.673
 8147SOL     OW25339   1.946   0.774   5.996
 8147SOL    HW125340   1.874   0.826   6.042
 8147SOL    HW225341   1.910   0.734   5.911
 8148SOL     OW25342   4.661   3.826   0.453
 8148SOL    HW125343   4.591   3.856   0.518
 8148SOL    HW225344   4.726   3.900   0.437
 8149SOL     OW25345   1.058   0.249   5.273
 8149SOL    HW125346   1.087   0.282   5.363
 8149SOL    HW225347   1.013   0.323   5.223
 8150SOL     OW25348   0.578   4.081   0.598
 8150SOL    HW125349   0.502   4.016   0.602
 8150SOL    HW225350   0.663   4.032   0.579
 8151SOL     OW25351   6.441   5.518   3.192
 8151SOL    HW125352   6.514   5.459   3.157
 8151SOL    HW225353   6.377   5.539   3.117
 8152SOL     OW25354   5.074   1.423   2.782
 8152SOL    HW125355   5.067   1.491   2.710
 8152SOL    HW225356   5.171   1.404   2.800
 8153SOL     OW25357   0.389   1.828   2.543
 8153SOL    HW125358   0.378   1.730   2.530
 8153SOL    HW225359   0.362   1.876   2.459
 8154SOL     OW25360   1.867   0.868   2.944
 8154SOL    HW125361   1.925   0.879   2.863
 8154SOL    HW225362   1.924   0.864   3.026
 8155SOL     OW25363   1.650   4.766   3.992
 8155SOL    HW125364   1.736   4.727   3.958
 8155SOL    HW225365   1.573   4.720   3.947
 8156SOL     OW25366   1.003   3.929   0.450
 8156SOL    HW125367   1.089   3.912   0.498
 8156SOL    HW225368   1.020   3.930   0.351
 8157SOL     OW25369   6.721   4.177   5.088
 8157SOL    HW125370   6.644   4.138   5.036
 8157SOL    HW225371   6.803   4.178   5.031
 8158SOL     OW25372   6.203   5.711   6.376
 8158SOL    HW125373   6.127   5.772   6.400
 8158SOL    HW225374   6.191   5.678   6.283
 8159SOL     OW25375   2.523   0.081   5.203
 8159SOL    HW125376   2.546   0.060   5.298
 8159SOL    HW225377   2.425   0.099   5.195
 8160SOL     OW25378   5.939   1.615   2.190
 8160SOL    HW125379   5.969   1.624   2.285
 8160SOL    HW225380   5.928   1.519   2.167
 8161SOL     OW25381   6.224   2.499   2.250
 8161SOL    HW125382   6.265   2.450   2.327
 8161SOL    HW225383   6.259   2.462   2.164
 8162SOL     OW25384   0.643   5.531   4.857
 8162SOL    HW125385   0.589   5.611   4.829
 8162SOL    HW225386   0.637   5.520   4.956
 8163SOL     OW25387   4.535   4.784   5.639
 8163SOL    HW125388   4.499   4.691   5.634
 8163SOL    HW225389   4.474   4.841   5.694
 8164SOL     OW25390   5.556   1.633   0.812
 8164SOL    HW125391   5.600   1.665   0.727
 8164SOL    HW225392   5.502   1.707   0.851
 8165SOL     OW25393   0.732   1.681   6.404
 8165SOL    HW125394   0.697   1.688   6.497
 8165SOL    HW225395   0.790   1.760   6.384
 8166SOL     OW25396   1.985   1.846   4.749
 8166SOL    HW125397   2.055   1.818   4.815
 8166SOL    HW225398   2.001   1.941   4.722
 8167SOL     OW25399   1.637   3.114   3.433
 8167SOL    HW125400   1.635   3.112   3.533
 8167SOL    HW225401   1.673   3.026   3.400
 8168SOL     OW25402   2.048   0.106   2.834
 8168SOL    HW125403   2.051   0.151   2.745
 8168SOL    HW225404   2.131   0.052   2.848
 8169SOL     OW25405   5.147   3.767   1.000
 8169SOL    HW125406   5.116   3.741   0.908
 8169SOL    HW225407   5.228   3.824   0.992
 8170SOL     OW25408   6.829   5.076   2.475
 8170SOL    HW125409   6.790   4.985   2.486
 8170SOL    HW225410   6.913   5.070   2.421
 8171SOL     OW25411   2.501   1.798   1.268
 8171SOL    HW125412   2.594   1.775   1.243
 8171SOL    HW225413   2.453   1.836   1.188
 8172SOL     OW25414   1.354   2.777   0.790
 8172SOL    HW125415   1.304   2.727   0.860
 8172SOL    HW225416   1.318   2.753   0.700
 8173SOL     OW25417   5.652   0.532   1.569
 8173SOL    HW125418   5.671   0.572   1.480
 8173SOL    HW225419   5.617   0.603   1.631
 8174SOL     OW25420   2.438   6.158   3.722
 8174SOL    HW125421   2.437   6.167   3.623
 8174SOL    HW225422   2.485   6.236   3.762
 8175SOL     OW25423   1.018   2.099   5.975
 8175SOL    HW125424   0.934   2.099   6.029
 8175SOL    HW225425   1.037   2.192   5.944
 8176SOL     OW25426   2.845   4.622   0.239
 8176SOL    HW125427   2.831   4.626   0.338
 8176SOL    HW225428   2.762   4.590   0.194
 8177SOL     OW25429   3.105   1.441   3.630
 8177SOL    HW125430   3.120   1.440   3.531
 8177SOL    HW225431   3.008   1.461   3.648
 8178SOL     OW25432   2.593   6.451   1.146
 8178SOL    HW125433   2.507   6.486   1.184
 8178SOL    HW225434   2.666   6.462   1.214
 8179SOL     OW25435   5.558   0.537   3.554
 8179SOL    HW125436   5.467   0.577   3.552
 8179SOL    HW225437   5.627   0.610   3.546
 8180SOL     OW25438   4.990   5.962   0.312
 8180SOL    HW125439   4.980   6.012   0.226
 8180SOL    HW225440   5.070   5.995   0.361
 8181SOL     OW25441   0.169   0.489   6.760
 8181SOL    HW125442   0.103   0.452   6.826
 8181SOL    HW225443   0.121   0.517   6.677
 8182SOL     OW25444   3.148   3.775   3.847
 8182SOL    HW125445   3.115   3.802   3.938
 8182SOL    HW225446   3.178   3.680   3.850
 8183SOL     OW25447   6.813   0.527   5.668
 8183SOL    HW125448   6.829   0.441   5.619
 8183SOL    HW225449   6.867   0.600   5.626
 8184SOL     OW25450   0.017   6.088   6.379
 8184SOL    HW125451   6.960   6.034   6.341
 8184SOL    HW225452   0.078   6.028   6.431
 8185SOL     OW25453   0.033   5.974   5.858
 8185SOL    HW125454   6.991   5.950   5.934
 8185SOL    HW225455   0.096   6.046   5.887
 8186SOL     OW25456   1.725   5.548   0.304
 8186SOL    HW125457   1.658   5.586   0.368
 8186SOL    HW225458   1.764   5.465   0.342
 8187SOL     OW25459   1.482   0.097   5.233
 8187SOL    HW125460   1.387   0.127   5.237
 8187SOL    HW225461   1.498   0.028   5.304
 8188SOL     OW25462   1.946   2.802   2.605
 8188SOL    HW125463   1.898   2.883   2.570
 8188SOL    HW225464   1.909   2.721   2.560
 8189SOL     OW25465   5.637   5.132   3.341
 8189SOL    HW125466   5.678   5.046   3.369
 8189SOL    HW225467   5.690   5.209   3.377
 8190SOL     OW25468   6.453   4.212   2.806
 8190SOL    HW125469   6.431   4.231   2.902
 8190SOL    HW225470   6.548   4.184   2.798
 8191SOL     OW25471   4.182   5.348   1.181
 8191SOL    HW125472   4.120   5.272   1.199
 8191SOL    HW225473   4.138   5.434   1.206
 8192SOL     OW25474   0.306   5.926   3.292
 8192SOL    HW125475   0.314   6.026   3.292
 8192SOL    HW225476   0.321   5.892   3.199
 8193SOL     OW25477   0.960   4.557   4.155
 8193SOL    HW125478   0.901   4.635   4.179
 8193SOL    HW225479   1.034   4.589   4.096
 8194SOL     OW25480   4.547   0.387   1.756
 8194SOL    HW125481   4.583   0.330   1.683
 8194SOL    HW225482   4.449   0.404   1.739
 8195SOL     OW25483   6.423   0.244   4.030
 8195SOL    HW125484   6.420   0.156   4.079
 8195SOL    HW225485   6.332   0.264   3.993
 8196SOL     OW25486   4.666   1.229   1.914
 8196SOL    HW125487   4.648   1.325   1.935
 8196SOL    HW225488   4.736   1.223   1.842
 8197SOL     OW25489   3.654   2.007   3.121
 8197SOL    HW125490   3.724   1.936   3.127
 8197SOL    HW225491   3.613   2.020   3.212
 8198SOL     OW25492   1.432   5.861   1.604
 8198SOL    HW125493   1.501   5.811   1.654
 8198SOL    HW225494   1.346   5.810   1.604
 8199SOL     OW25495   5.819   2.673   0.402
 8199SOL    HW125496   5.838   2.606   0.474
 8199SOL    HW225497   5.881   2.751   0.412
 8200SOL     OW25498   4.553   3.575   0.519
 8200SOL    HW125499   4.580   3.529   0.603
 8200SOL    HW225500   4.602   3.662   0.511
 8201SOL     OW25501   6.102   6.867   5.398
 8201SOL    HW125502   6.072   6.781   5.440
 8201SOL    HW225503   6.201   6.873   5.402
 8202SOL     OW25504   1.039   6.360   1.626
 8202SOL    HW125505   1.059   6.422   1.549
 8202SOL    HW225506   1.070   6.268   1.603
 8203SOL     OW25507   1.874   3.541   1.347
 8203SOL    HW125508   1.931   3.580   1.419
 8203SOL    HW225509   1.923   3.465   1.304
 8204SOL     OW25510   2.852   3.347   0.867
 8204SOL    HW125511   2.848   3.442   0.838
 8204SOL    HW225512   2.761   3.306   0.860
 8205SOL     OW25513   1.070   4.400   6.817
 8205SOL    HW125514   1.026   4.470   6.760
 8205SOL    HW225515   1.161   4.432   6.844
 8206SOL     OW25516   2.919   0.940   1.127
 8206SOL    HW125517   2.992   0.991   1.083
 8206SOL    HW225518   2.909   0.969   1.222
 8207SOL     OW25519   3.735   3.827   4.208
 8207SOL    HW125520   3.810   3.857   4.148
 8207SOL    HW225521   3.751   3.861   4.300
 8208SOL     OW25522   1.935   0.616   0.309
 8208SOL    HW125523   1.997   0.694   0.299
 8208SOL    HW225524   1.980   0.533   0.277
 8209SOL     OW25525   6.213   1.685   4.824
 8209SOL    HW125526   6.253   1.740   4.897
 8209SOL    HW225527   6.169   1.745   4.757
 8210SOL     OW25528   2.245   2.625   0.111
 8210SOL    HW125529   2.297   2.554   0.063
 8210SOL    HW225530   2.164   2.584   0.153
 8211SOL     OW25531   3.945   4.856   1.355
 8211SOL    HW125532   4.027   4.805   1.380
 8211SOL    HW225533   3.920   4.917   1.429
 8212SOL     OW25534   1.653   2.665   2.878
 8212SOL    HW125535   1.746   2.693   2.903
 8212SOL    HW225536   1.589   2.739   2.900
 8213SOL     OW25537   6.489   5.122   1.266
 8213SOL    HW125538   6.445   5.208   1.291
 8213SOL    HW225539   6.575   5.112   1.317
 8214SOL     OW25540   5.597   3.558   3.600
 8214SOL    HW125541   5.592   3.460   3.616
 8214SOL    HW225542   5.509   3.600   3.622
 8215SOL     OW25543   3.424   4.903   2.944
 8215SOL    HW125544   3.492   4.914   3.016
 8215SOL    HW225545   3.336   4.937   2.976
 8216SOL     OW25546   5.802   4.002   3.820
 8216SOL    HW125547   5.740   4.035   3.891
 8216SOL    HW225548   5.804   4.067   3.744
 8217SOL     OW25549   1.958   6.024   1.093
 8217SOL    HW125550   1.955   5.958   1.017
 8217SOL    HW225551   1.978   6.115   1.057
 8218SOL     OW25552   6.313   2.500   6.908
 8218SOL    HW125553   6.382   2.553   6.958
 8218SOL    HW225554   6.358   2.439   6.843
 8219SOL     OW25555   5.679   1.840   0.121
 8219SOL    HW125556   5.669   1.866   0.025
 8219SOL    HW225557   5.608   1.774   0.145
 8220SOL     OW25558   4.235   3.811   1.640
 8220SOL    HW125559   4.148   3.766   1.663
 8220SOL    HW225560   4.234   3.905   1.676
 8221SOL     OW25561   5.317   5.539   2.844
 8221SOL    HW125562   5.222   5.517   2.819
 8221SOL    HW225563   5.379   5.477   2.796
 8222SOL     OW25564   6.416   2.116   2.068
 8222SOL    HW125565   6.450   2.038   2.016
 8222SOL    HW225566   6.415   2.094   2.166
 8223SOL     OW25567   0.324   5.358   5.803
 8223SOL    HW125568   0.238   5.317   5.832
 8223SOL    HW225569   0.384   5.287   5.765
 8224SOL     OW25570   1.278   2.949   3.335
 8224SOL    HW125571   1.191   2.904   3.351
 8224SOL    HW225572   1.293   2.959   3.237
 8225SOL     OW25573   5.087   1.542   0.468
 8225SOL    HW125574   5.073   1.446   0.493
 8225SOL    HW225575   5.030   1.600   0.526
 8226SOL     OW25576   4.181   0.080   0.420
 8226SOL    HW125577   4.093   0.092   0.373
 8226SOL    HW225578   4.166   0.076   0.518
 8227SOL     OW25579   6.299   3.388   2.712
 8227SOL    HW125580   6.263   3.470   2.757
 8227SOL    HW225581   6.224   3.339   2.667
 8228SOL     OW25582   0.129   2.536   4.704
 8228SOL    HW125583   0.093   2.489   4.784
 8228SOL    HW225584   0.228   2.545   4.712
 8229SOL     OW25585   3.623   5.447   0.670
 8229SOL    HW125586   3.597   5.360   0.712
 8229SOL    HW225587   3.593   5.523   0.728
 8230SOL     OW25588   4.962   0.159   4.338
 8230SOL    HW125589   4.910   0.100   4.277
 8230SOL    HW225590   5.047   0.113   4.365
 8231SOL     OW25591   4.536   5.847   1.383
 8231SOL    HW125592   4.594   5.869   1.462
 8231SOL    HW225593   4.542   5.920   1.316
 8232SOL     OW25594   3.099   1.683   6.710
 8232SOL    HW125595   3.186   1.714   6.673
 8232SOL    HW225596   3.051   1.760   6.752
 8233SOL     OW25597   0.353   5.033   6.513
 8233SOL    HW125598   0.425   5.008   6.576
 8233SOL    HW225599   0.342   5.133   6.511
 8234SOL     OW25600   3.558   2.939   6.967
 8234SOL    HW125601   3.583   2.973   6.876
 8234SOL    HW225602   3.601   2.997   0.019
 8235SOL     OW25603   4.453   2.195   0.016
 8235SOL    HW125604   4.447   2.286   0.057
 8235SOL    HW225605   4.360   2.162   7.013
 8236SOL     OW25606   5.850   2.455   0.961
 8236SOL    HW125607   5.827   2.510   1.041
 8236SOL    HW225608   5.768   2.407   0.930
 8237SOL     OW25609   3.823   5.899   5.415
 8237SOL    HW125610   3.724   5.910   5.422
 8237SOL    HW225611   3.865   5.987   5.393
 8238SOL     OW25612   1.857   0.887   6.580
 8238SOL    HW125613   1.896   0.797   6.559
 8238SOL    HW225614   1.797   0.915   6.505
 8239SOL     OW25615   0.024   1.270   6.570
 8239SOL    HW125616   0.082   1.325   6.631
 8239SOL    HW225617   6.977   1.217   6.625
 8240SOL     OW25618   3.786   4.052   3.564
 8240SOL    HW125619   3.850   3.977   3.546
 8240SOL    HW225620   3.768   4.101   3.479
 8241SOL     OW25621   4.519   6.718   1.151
 8241SOL    HW125622   4.585   6.651   1.118
 8241SOL    HW225623   4.542   6.809   1.114
 8242SOL     OW25624   1.085   3.845   5.355
 8242SOL    HW125625   0.998   3.893   5.365
 8242SOL    HW225626   1.160   3.911   5.351
 8243SOL     OW25627   0.960   3.367   4.784
 8243SOL    HW125628   0.994   3.320   4.865
 8243SOL    HW225629   1.021   3.444   4.763
 8244SOL     OW25630   1.160   5.832   4.784
 8244SOL    HW125631   1.195   5.926   4.793
 8244SOL    HW225632   1.236   5.770   4.767
 8245SOL     OW25633   4.032   3.483   0.745
 8245SOL    HW125634   4.068   3.479   0.652
 8245SOL    HW225635   4.033   3.391   0.785
 8246SOL     OW25636   5.216   4.116   5.591
 8246SOL    HW125637   5.143   4.098   5.525
 8246SOL    HW225638   5.288   4.048   5.581
 8247SOL     OW25639   1.063   6.722   1.953
 8247SOL    HW125640   1.053   6.799   2.015
 8247SOL    HW225641   1.103   6.753   1.866
 8248SOL     OW25642   0.496   4.387   3.519
 8248SOL    HW125643   0.423   4.319   3.508
 8248SOL    HW225644   0.583   4.348   3.488
 8249SOL     OW25645   1.676   5.583   3.419
 8249SOL    HW125646   1.724   5.581   3.331
 8249SOL    HW225647   1.623   5.667   3.426
 8250SOL     OW25648   4.051   3.814   2.359
 8250SOL    HW125649   4.081   3.770   2.444
 8250SOL    HW225650   4.109   3.784   2.284
 8251SOL     OW25651   6.145   1.554   5.326
 8251SOL    HW125652   6.107   1.591   5.241
 8251SOL    HW225653   6.116   1.459   5.337
 8252SOL     OW25654   1.234   3.195   4.655
 8252SOL    HW125655   1.292   3.275   4.638
 8252SOL    HW225656   1.289   3.112   4.649
 8253SOL     OW25657   2.897   2.560   5.608
 8253SOL    HW125658   2.936   2.606   5.687
 8253SOL    HW225659   2.965   2.554   5.535
 8254SOL     OW25660   4.008   6.241   3.590
 8254SOL    HW125661   3.962   6.155   3.566
 8254SOL    HW225662   4.030   6.291   3.506
 8255SOL     OW25663   4.537   5.294   3.676
 8255SOL    HW125664   4.625   5.318   3.716
 8255SOL    HW225665   4.490   5.228   3.735
 8256SOL     OW25666   6.688   1.949   4.233
 8256SOL    HW125667   6.593   1.929   4.258
 8256SOL    HW225668   6.690   2.012   4.156
 8257SOL     OW25669   6.615   4.512   4.110
 8257SOL    HW125670   6.519   4.503   4.085
 8257SOL    HW225671   6.671   4.455   4.050
 8258SOL     OW25672   4.600   1.745   6.916
 8258SOL    HW125673   4.627   1.765   6.822
 8258SOL    HW225674   4.682   1.725   6.970
 8259SOL     OW25675   3.618   1.278   1.747
 8259SOL    HW125676   3.668   1.313   1.667
 8259SOL    HW225677   3.583   1.355   1.800
 8260SOL     OW25678   2.673   5.950   0.111
 8260SOL    HW125679   2.714   5.993   0.192
 8260SOL    HW225680   2.577   5.929   0.131
 8261SOL     OW25681   5.521   1.303   1.290
 8261SOL    HW125682   5.443   1.262   1.337
 8261SOL    HW225683   5.540   1.253   1.206
 8262SOL     OW25684   1.006   2.043   0.449
 8262SOL    HW125685   1.047   2.111   0.509
 8262SOL    HW225686   0.929   2.084   0.400
 8263SOL     OW25687   5.903   0.812   0.289
 8263SOL    HW125688   5.962   0.879   0.244
 8263SOL    HW225689   5.906   0.827   0.388
 8264SOL     OW25690   2.204   4.159   2.887
 8264SOL    HW125691   2.175   4.172   2.792
 8264SOL    HW225692   2.183   4.066   2.915
 8265SOL     OW25693   1.979   1.124   1.798
 8265SOL    HW125694   2.038   1.196   1.836
 8265SOL    HW225695   1.938   1.157   1.713
 8266SOL     OW25696   3.369   0.569   3.070
 8266SOL    HW125697   3.385   0.627   2.990
 8266SOL    HW225698   3.310   0.617   3.134
 8267SOL     OW25699   0.509   3.421   0.561
 8267SOL    HW125700   0.504   3.331   0.604
 8267SOL    HW225701   0.543   3.488   0.627
 8268SOL     OW25702   3.280   5.906   5.825
 8268SOL    HW125703   3.351   5.916   5.894
 8268SOL    HW225704   3.195   5.946   5.859
 8269SOL     OW25705   5.810   1.898   1.239
 8269SOL    HW125706   5.759   1.920   1.156
 8269SOL    HW225707   5.752   1.843   1.299
 8270SOL     OW25708   3.242   6.314   4.026
 8270SOL    HW125709   3.183   6.320   3.945
 8270SOL    HW225710   3.316   6.382   4.018
 8271SOL     OW25711   6.800   2.230   1.793
 8271SOL    HW125712   6.881   2.183   1.829
 8271SOL    HW225713   6.826   2.323   1.764
 8272SOL     OW25714   3.560   1.077   3.840
 8272SOL    HW125715   3.512   1.151   3.793
 8272SOL    HW225716   3.658   1.099   3.844
 8273SOL     OW25717   2.088   6.683   1.185
 8273SOL    HW125718   2.136   6.760   1.226
 8273SOL    HW225719   2.029   6.640   1.254
 8274SOL     OW25720   5.252   4.388   3.227
 8274SOL    HW125721   5.179   4.403   3.294
 8274SOL    HW225722   5.326   4.335   3.269
 8275SOL     OW25723   4.789   2.312   6.599
 8275SOL    HW125724   4.841   2.229   6.621
 8275SOL    HW225725   4.786   2.371   6.680
 8276SOL     OW25726   0.639   2.177   2.983
 8276SOL    HW125727   0.549   2.148   3.016
 8276SOL    HW225728   0.710   2.124   3.029
 8277SOL     OW25729   6.470   0.492   6.850
 8277SOL    HW125730   6.517   0.429   6.788
 8277SOL    HW225731   6.477   0.585   6.816
 8278SOL     OW25732   1.602   2.735   6.895
 8278SOL    HW125733   1.684   2.780   6.860
 8278SOL    HW225734   1.592   2.755   6.992
 8279SOL     OW25735   6.723   6.344   3.960
 8279SOL    HW125736   6.709   6.320   4.056
 8279SOL    HW225737   6.706   6.264   3.902
 8280SOL     OW25738   2.796   2.189   6.230
 8280SOL    HW125739   2.767   2.179   6.135
 8280SOL    HW225740   2.825   2.284   6.247
 8281SOL     OW25741   6.069   5.536   2.246
 8281SOL    HW125742   5.997   5.535   2.177
 8281SOL    HW225743   6.029   5.525   2.336
 8282SOL     OW25744   5.500   2.266   5.715
 8282SOL    HW125745   5.540   2.357   5.706
 8282SOL    HW225746   5.463   2.237   5.627
 8283SOL     OW25747   1.946   3.595   5.321
 8283SOL    HW125748   1.978   3.644   5.401
 8283SOL    HW225749   1.862   3.545   5.344
 8284SOL     OW25750   6.209   4.454   1.438
 8284SOL    HW125751   6.245   4.371   1.396
 8284SOL    HW225752   6.214   4.529   1.373
 8285SOL     OW25753   3.707   3.563   4.324
 8285SOL    HW125754   3.694   3.662   4.320
 8285SOL    HW225755   3.623   3.518   4.295
 8286SOL     OW25756   6.854   2.006   6.428
 8286SOL    HW125757   6.765   2.011   6.474
 8286SOL    HW225758   6.871   1.913   6.398
 8287SOL     OW25759   0.829   5.698   4.579
 8287SOL    HW125760   0.900   5.641   4.620
 8287SOL    HW225761   0.836   5.791   4.613
 8288SOL     OW25762   2.682   2.371   3.237
 8288SOL    HW125763   2.753   2.301   3.244
 8288SOL    HW225764   2.697   2.425   3.154
 8289SOL     OW25765   0.136   6.273   0.087
 8289SOL    HW125766   0.168   6.364   0.060
 8289SOL    HW225767   0.054   6.249   0.035
 8290SOL     OW25768   6.813   2.722   0.733
 8290SOL    HW125769   6.810   2.637   0.785
 8290SOL    HW225770   6.837   2.703   0.638
 8291SOL     OW25771   4.310   6.976   1.123
 8291SOL    HW125772   4.291   6.904   1.056
 8291SOL    HW225773   4.226   0.006   1.146
 8292SOL     OW25774   3.287   6.632   6.389
 8292SOL    HW125775   3.210   6.594   6.338
 8292SOL    HW225776   3.329   6.560   6.444
 8293SOL     OW25777   5.489   5.622   4.798
 8293SOL    HW125778   5.461   5.622   4.702
 8293SOL    HW225779   5.421   5.671   4.853
 8294SOL     OW25780   5.568   2.671   0.276
 8294SOL    HW125781   5.569   2.722   0.190
 8294SOL    HW225782   5.655   2.684   0.323
 8295SOL     OW25783   5.099   3.984   0.412
 8295SOL    HW125784   5.108   4.048   0.488
 8295SOL    HW225785   5.118   3.891   0.443
 8296SOL     OW25786   1.277   5.531   6.955
 8296SOL    HW125787   1.271   5.621   6.997
 8296SOL    HW225788   1.367   5.492   6.971
 8297SOL     OW25789   0.555   2.573   3.102
 8297SOL    HW125790   0.486   2.501   3.110
 8297SOL    HW225791   0.620   2.548   3.030
 8298SOL     OW25792   4.737   1.678   1.612
 8298SOL    HW125793   4.836   1.685   1.626
 8298SOL    HW225794   4.690   1.707   1.695
 8299SOL     OW25795   6.700   2.368   1.495
 8299SOL    HW125796   6.642   2.448   1.509
 8299SOL    HW225797   6.677   2.299   1.564
 8300SOL     OW25798   0.667   4.806   3.364
 8300SOL    HW125799   0.720   4.750   3.301
 8300SOL    HW225800   0.634   4.888   3.317
 8301SOL     OW25801   3.474   3.271   6.807
 8301SOL    HW125802   3.439   3.330   6.880
 8301SOL    HW225803   3.398   3.226   6.761
 8302SOL     OW25804   5.472   5.808   6.178
 8302SOL    HW125805   5.537   5.768   6.115
 8302SOL    HW225806   5.420   5.736   6.223
 8303SOL     OW25807   0.318   0.446   5.411
 8303SOL    HW125808   0.299   0.432   5.508
 8303SOL    HW225809   0.334   0.544   5.395
 8304SOL     OW25810   0.250   3.348   6.671
 8304SOL    HW125811   0.340   3.318   6.640
 8304SOL    HW225812   0.261   3.413   6.746
 8305SOL     OW25813   2.915   5.891   3.626
 8305SOL    HW125814   2.985   5.820   3.639
 8305SOL    HW225815   2.870   5.910   3.713
 8306SOL     OW25816   0.971   3.379   4.147
 8306SOL    HW125817   1.055   3.382   4.201
 8306SOL    HW225818   0.954   3.285   4.117
 8307SOL     OW25819   2.643   5.515   1.150
 8307SOL    HW125820   2.741   5.492   1.152
 8307SOL    HW225821   2.595   5.460   1.219
 8308SOL     OW25822   3.842   6.510   3.125
 8308SOL    HW125823   3.747   6.522   3.094
 8308SOL    HW225824   3.903   6.563   3.065
 8309SOL     OW25825   5.167   6.097   2.290
 8309SOL    HW125826   5.175   6.195   2.307
 8309SOL    HW225827   5.072   6.075   2.268
 8310SOL     OW25828   6.707   4.078   0.473
 8310SOL    HW125829   6.704   4.130   0.388
 8310SOL    HW225830   6.695   4.140   0.551
 8311SOL     OW25831   6.710   0.122   0.860
 8311SOL    HW125832   6.739   0.160   0.948
 8311SOL    HW225833   6.625   0.070   0.872
 8312SOL     OW25834   5.301   6.663   1.478
 8312SOL    HW125835   5.223   6.611   1.511
 8312SOL    HW225836   5.338   6.619   1.396
 8313SOL     OW25837   3.458   1.286   2.924
 8313SOL    HW125838   3.468   1.352   2.849
 8313SOL    HW225839   3.417   1.202   2.889
 8314SOL     OW25840   6.483   6.892   3.294
 8314SOL    HW125841   6.450   6.821   3.355
 8314SOL    HW225842   6.576   6.869   3.263
 8315SOL     OW25843   4.885   4.432   6.349
 8315SOL    HW125844   4.786   4.436   6.333
 8315SOL    HW225845   4.910   4.498   6.420
 8316SOL     OW25846   2.106   5.330   6.717
 8316SOL    HW125847   2.163   5.387   6.777
 8316SOL    HW225848   2.012   5.363   6.720
 8317SOL     OW25849   2.086   4.555   2.155
 8317SOL    HW125850   2.006   4.607   2.183
 8317SOL    HW225851   2.057   4.473   2.104
 8318SOL     OW25852   3.771   1.222   5.716
 8318SOL    HW125853   3.846   1.262   5.768
 8318SOL    HW225854   3.712   1.295   5.681
 8319SOL     OW25855   3.523   0.651   4.817
 8319SOL    HW125856   3.560   0.713   4.747
 8319SOL    HW225857   3.476   0.575   4.772
 8320SOL     OW25858   3.527   4.391   1.729
 8320SOL    HW125859   3.551   4.332   1.806
 8320SOL    HW225860   3.556   4.485   1.749
 8321SOL     OW25861   0.634   0.707   1.492
 8321SOL    HW125862   0.589   0.796   1.485
 8321SOL    HW225863   0.574   0.642   1.538
 8322SOL     OW25864   6.191   6.663   0.078
 8322SOL    HW125865   6.189   6.759   0.050
 8322SOL    HW225866   6.147   6.653   0.167
 8323SOL     OW25867   1.646   2.029   1.738
 8323SOL    HW125868   1.634   1.968   1.660
 8323SOL    HW225869   1.744   2.045   1.752
 8324SOL     OW25870   6.802   1.224   1.835
 8324SOL    HW125871   6.860   1.294   1.875
 8324SOL    HW225872   6.793   1.239   1.737
 8325SOL     OW25873   3.460   2.901   3.590
 8325SOL    HW125874   3.431   2.996   3.582
 8325SOL    HW225875   3.496   2.885   3.682
 8326SOL     OW25876   3.695   3.477   5.840
 8326SOL    HW125877   3.788   3.457   5.871
 8326SOL    HW225878   3.671   3.416   5.765
 8327SOL     OW25879   4.931   1.933   6.032
 8327SOL    HW125880   4.948   1.989   5.951
 8327SOL    HW225881   5.016   1.920   6.082
 8328SOL     OW25882   2.796   2.374   5.172
 8328SOL    HW125883   2.752   2.460   5.199
 8328SOL    HW225884   2.732   2.298   5.184
 8329SOL     OW25885   6.939   2.962   5.078
 8329SOL    HW125886   6.848   2.992   5.048
 8329SOL    HW225887   6.986   2.919   5.001
 8330SOL     OW25888   3.010   6.683   6.746
 8330SOL    HW125889   2.925   6.726   6.717
 8330SOL    HW225890   3.028   6.707   6.842
 8331SOL     OW25891   2.647   0.200   0.758
 8331SOL    HW125892   2.608   0.278   0.710
 8331SOL    HW225893   2.663   0.126   0.694
 8332SOL     OW25894   5.041   6.051   2.771
 8332SOL    HW125895   5.054   6.134   2.825
 8332SOL    HW225896   5.031   5.972   2.832
 8333SOL     OW25897   0.681   5.839   6.286
 8333SOL    HW125898   0.762   5.898   6.284
 8333SOL    HW225899   0.688   5.775   6.363
 8334SOL     OW25900   6.011   1.255   3.736
 8334SOL    HW125901   6.095   1.203   3.719
 8334SOL    HW225902   6.034   1.347   3.767
 8335SOL     OW25903   5.727   6.744   5.638
 8335SOL    HW125904   5.781   6.717   5.558
 8335SOL    HW225905   5.762   6.699   5.720
 8336SOL     OW25906   0.358   2.183   2.246
 8336SOL    HW125907   0.432   2.240   2.281
 8336SOL    HW225908   0.333   2.214   2.154
 8337SOL     OW25909   0.379   6.322   2.543
 8337SOL    HW125910   0.358   6.259   2.617
 8337SOL    HW225911   0.296   6.372   2.518
 8338SOL     OW25912   1.613   4.594   0.391
 8338SOL    HW125913   1.561   4.617   0.473
 8338SOL    HW225914   1.708   4.575   0.416
 8339SOL     OW25915   5.663   1.210   2.651
 8339SOL    HW125916   5.592   1.166   2.706
 8339SOL    HW225917   5.623   1.249   2.568
 8340SOL     OW25918   5.207   3.216   0.331
 8340SOL    HW125919   5.258   3.227   0.246
 8340SOL    HW225920   5.123   3.164   0.313
 8341SOL     OW25921   2.203   6.717   0.951
 8341SOL    HW125922   2.211   6.621   0.925
 8341SOL    HW225923   2.166   6.724   1.044
 8342SOL     OW25924   4.287   0.933   0.765
 8342SOL    HW125925   4.299   1.032   0.763
 8342SOL    HW225926   4.369   0.890   0.803
 8343SOL     OW25927   1.622   5.231   6.008
 8343SOL    HW125928   1.577   5.256   6.094
 8343SOL    HW225929   1.606   5.134   5.990
 8344SOL     OW25930   3.745   6.908   5.515
 8344SOL    HW125931   3.668   6.967   5.489
 8344SOL    HW225932   3.710   6.824   5.556
 8345SOL     OW25933   6.313   1.066   2.611
 8345SOL    HW125934   6.328   1.028   2.702
 8345SOL    HW225935   6.369   1.148   2.599
 8346SOL     OW25936   3.307   5.320   1.858
 8346SOL    HW125937   3.240   5.348   1.789
 8346SOL    HW225938   3.260   5.306   1.945
 8347SOL     OW25939   3.631   5.379   4.082
 8347SOL    HW125940   3.556   5.338   4.134
 8347SOL    HW225941   3.621   5.479   4.081
 8348SOL     OW25942   1.677   0.345   0.276
 8348SOL    HW125943   1.754   0.305   0.326
 8348SOL    HW225944   1.662   0.293   0.192
 8349SOL     OW25945   5.845   5.347   1.977
 8349SOL    HW125946   5.920   5.352   1.911
 8349SOL    HW225947   5.847   5.258   2.023
 8350SOL     OW25948   6.364   0.715   4.662
 8350SOL    HW125949   6.332   0.758   4.747
 8350SOL    HW225950   6.401   0.624   4.683
 8351SOL     OW25951   3.165   6.128   2.834
 8351SOL    HW125952   3.191   6.225   2.834
 8351SOL    HW225953   3.144   6.100   2.740
 8352SOL     OW25954   6.856   6.544   1.714
 8352SOL    HW125955   6.772   6.583   1.750
 8352SOL    HW225956   6.933   6.603   1.739
 8353SOL     OW25957   0.290   3.702   2.201
 8353SOL    HW125958   0.389   3.714   2.196
 8353SOL    HW225959   0.248   3.736   2.117
 8354SOL     OW25960   2.528   0.871   0.282
 8354SOL    HW125961   2.587   0.879   0.363
 8354SOL    HW225962   2.555   0.940   0.215
 8355SOL     OW25963   3.219   0.968   0.260
 8355SOL    HW125964   3.236   0.996   0.165
 8355SOL    HW225965   3.121   0.963   0.276
 8356SOL     OW25966   2.087   5.074   6.837
 8356SOL    HW125967   2.116   5.151   6.780
 8356SOL    HW225968   2.019   5.105   6.904
 8357SOL     OW25969   5.212   5.421   4.424
 8357SOL    HW125970   5.249   5.401   4.334
 8357SOL    HW225971   5.139   5.489   4.416
 8358SOL     OW25972   2.073   2.536   5.865
 8358SOL    HW125973   2.025   2.544   5.777
 8358SOL    HW225974   2.143   2.607   5.870
 8359SOL     OW25975   4.352   5.186   4.071
 8359SOL    HW125976   4.315   5.194   3.979
 8359SOL    HW225977   4.291   5.128   4.126
 8360SOL     OW25978   4.760   0.430   3.124
 8360SOL    HW125979   4.736   0.504   3.061
 8360SOL    HW225980   4.701   0.351   3.108
 8361SOL     OW25981   2.110   0.446   2.681
 8361SOL    HW125982   2.116   0.350   2.653
 8361SOL    HW225983   2.033   0.489   2.636
 8362SOL     OW25984   2.553   2.550   0.173
 8362SOL    HW125985   2.563   2.469   0.115
 8362SOL    HW225986   2.535   2.630   0.116
 8363SOL     OW25987   0.039   3.237   0.685
 8363SOL    HW125988   0.015   3.286   0.769
 8363SOL    HW225989   0.128   3.193   0.696
 8364SOL     OW25990   6.635   4.105   3.534
 8364SOL    HW125991   6.696   4.039   3.489
 8364SOL    HW225992   6.571   4.142   3.466
 8365SOL     OW25993   2.089   3.342   6.001
 8365SOL    HW125994   2.098   3.314   5.905
 8365SOL    HW225995   1.995   3.369   6.019
 8366SOL     OW25996   2.991   6.516   3.025
 8366SOL    HW125997   2.909   6.493   3.078
 8366SOL    HW225998   2.966   6.529   2.929
 8367SOL     OW25999   5.506   5.255   3.811
 8367SOL    HW126000   5.459   5.323   3.755
 8367SOL    HW226001   5.450   5.233   3.890
 8368SOL     OW26002   3.065   5.055   6.867
 8368SOL    HW126003   3.009   5.056   6.784
 8368SOL    HW226004   3.152   5.009   6.849
 8369SOL     OW26005   2.432   1.396   1.068
 8369SOL    HW126006   2.383   1.377   0.983
 8369SOL    HW226007   2.499   1.469   1.053
 8370SOL     OW26008   1.294   1.587   6.442
 8370SOL    HW126009   1.216   1.553   6.388
 8370SOL    HW226010   1.270   1.585   6.539
 8371SOL     OW26011   1.920   3.432   1.043
 8371SOL    HW126012   1.989   3.389   1.101
 8371SOL    HW226013   1.854   3.363   1.011
 8372SOL     OW26014   0.196   0.446   1.821
 8372SOL    HW126015   0.230   0.437   1.727
 8372SOL    HW226016   0.271   0.475   1.881
 8373SOL     OW26017   1.525   6.683   5.073
 8373SOL    HW126018   1.478   6.746   5.011
 8373SOL    HW226019   1.584   6.735   5.134
 8374SOL     OW26020   6.746   0.008   6.662
 8374SOL    HW126021   6.807   6.949   6.642
 8374SOL    HW226022   6.717   0.002   6.758
 8375SOL     OW26023   3.531   0.590   6.624
 8375SOL    HW126024   3.574   0.555   6.541
 8375SOL    HW226025   3.548   0.689   6.632
 8376SOL     OW26026   3.563   0.151   4.786
 8376SOL    HW126027   3.573   0.244   4.822
 8376SOL    HW226028   3.471   0.139   4.751
 8377SOL     OW26029   5.664   4.399   0.841
 8377SOL    HW126030   5.749   4.360   0.876
 8377SOL    HW226031   5.630   4.468   0.904
 8378SOL     OW26032   4.998   2.747   3.760
 8378SOL    HW126033   5.060   2.757   3.682
 8378SOL    HW226034   4.917   2.804   3.746
 8379SOL     OW26035   5.790   2.324   2.147
 8379SOL    HW126036   5.694   2.352   2.144
 8379SOL    HW226037   5.838   2.379   2.215
 8380SOL     OW26038   4.502   1.840   3.410
 8380SOL    HW126039   4.575   1.774   3.429
 8380SOL    HW226040   4.506   1.915   3.476
 8381SOL     OW26041   1.750   5.400   4.563
 8381SOL    HW126042   1.755   5.365   4.469
 8381SOL    HW226043   1.661   5.444   4.577
 8382SOL     OW26044   1.218   3.147   2.302
 8382SOL    HW126045   1.154   3.209   2.257
 8382SOL    HW226046   1.169   3.067   2.337
 8383SOL     OW26047   3.393   2.057   6.714
 8383SOL    HW126048   3.462   1.984   6.714
 8383SOL    HW226049   3.305   2.019   6.685
 8384SOL     OW26050   0.715   6.259   1.764
 8384SOL    HW126051   0.791   6.230   1.821
 8384SOL    HW226052   0.713   6.359   1.760
 8385SOL     OW26053   4.697   2.337   1.004
 8385SOL    HW126054   4.680   2.381   0.916
 8385SOL    HW226055   4.736   2.403   1.067
 8386SOL     OW26056   1.299   4.896   2.609
 8386SOL    HW126057   1.347   4.983   2.618
 8386SOL    HW226058   1.348   4.826   2.662
 8387SOL     OW26059   0.336   2.122   1.402
 8387SOL    HW126060   0.294   2.064   1.332
 8387SOL    HW226061   0.336   2.217   1.370
 8388SOL     OW26062   1.280   0.076   2.351
 8388SOL    HW126063   1.191   0.061   2.395
 8388SOL    HW226064   1.352   0.038   2.409
 8389SOL     OW26065   5.180   2.644   2.357
 8389SOL    HW126066   5.275   2.662   2.381
 8389SOL    HW226067   5.166   2.546   2.345
 8390SOL     OW26068   4.989   1.498   5.842
 8390SOL    HW126069   5.060   1.479   5.774
 8390SOL    HW226070   4.902   1.512   5.796
 8391SOL     OW26071   6.708   0.248   1.525
 8391SOL    HW126072   6.685   0.328   1.581
 8391SOL    HW226073   6.700   0.165   1.580
 8392SOL     OW26074   5.004   2.641   5.132
 8392SOL    HW126075   5.043   2.559   5.174
 8392SOL    HW226076   4.979   2.622   5.037
 8393SOL     OW26077   5.230   0.528   1.771
 8393SOL    HW126078   5.151   0.512   1.831
 8393SOL    HW226079   5.278   0.442   1.754
 8394SOL     OW26080   5.687   3.346   2.008
 8394SOL    HW126081   5.722   3.316   2.097
 8394SOL    HW226082   5.600   3.393   2.021
 8395SOL     OW26083   1.927   1.494   4.670
 8395SOL    HW126084   1.949   1.403   4.635
 8395SOL    HW226085   1.921   1.491   4.769
 8396SOL     OW26086   4.433   5.806   4.413
 8396SOL    HW126087   4.368   5.730   4.415
 8396SOL    HW226088   4.416   5.865   4.492
 8397SOL     OW26089   6.051   1.286   2.827
 8397SOL    HW126090   5.963   1.325   2.853
 8397SOL    HW226091   6.037   1.202   2.776
 8398SOL     OW26092   4.664   2.409   6.321
 8398SOL    HW126093   4.709   2.395   6.409
 8398SOL    HW226094   4.580   2.353   6.317
 8399SOL     OW26095   0.126   5.017   1.109
 8399SOL    HW126096   0.043   4.961   1.110
 8399SOL    HW226097   0.174   5.005   1.023
 8400SOL     OW26098   1.566   1.866   4.465
 8400SOL    HW126099   1.588   1.832   4.374
 8400SOL    HW226100   1.636   1.837   4.530
 8401SOL     OW26101   2.573   6.750   5.742
 8401SOL    HW126102   2.586   6.768   5.840
 8401SOL    HW226103   2.627   6.670   5.716
 8402SOL     OW26104   3.421   0.622   6.174
 8402SOL    HW126105   3.520   0.630   6.176
 8402SOL    HW226106   3.383   0.655   6.261
 8403SOL     OW26107   5.714   4.435   4.505
 8403SOL    HW126108   5.784   4.458   4.437
 8403SOL    HW226109   5.740   4.351   4.552
 8404SOL     OW26110   1.016   1.814   6.540
 8404SOL    HW126111   1.018   1.872   6.621
 8404SOL    HW226112   0.970   1.862   6.465
 8405SOL     OW26113   4.020   0.452   5.950
 8405SOL    HW126114   4.054   0.542   5.976
 8405SOL    HW226115   3.973   0.459   5.862
 8406SOL     OW26116   5.417   0.194   6.085
 8406SOL    HW126117   5.485   0.195   6.158
 8406SOL    HW226118   5.325   0.199   6.124
 8407SOL     OW26119   3.408   6.960   4.324
 8407SOL    HW126120   3.423   6.957   4.423
 8407SOL    HW226121   3.443   6.876   4.282
 8408SOL     OW26122   3.766   1.430   1.552
 8408SOL    HW126123   3.790   1.518   1.592
 8408SOL    HW226124   3.847   1.388   1.513
 8409SOL     OW26125   4.424   2.409   2.062
 8409SOL    HW126126   4.449   2.396   2.158
 8409SOL    HW226127   4.358   2.340   2.035
 8410SOL     OW26128   6.669   1.734   1.655
 8410SOL    HW126129   6.569   1.745   1.656
 8410SOL    HW226130   6.695   1.663   1.721
 8411SOL     OW26131   1.373   5.719   0.750
 8411SOL    HW126132   1.351   5.739   0.655
 8411SOL    HW226133   1.434   5.790   0.786
 8412SOL     OW26134   2.880   2.360   6.682
 8412SOL    HW126135   2.838   2.270   6.669
 8412SOL    HW226136   2.825   2.429   6.635
 8413SOL     OW26137   4.278   5.583   4.357
 8413SOL    HW126138   4.226   5.575   4.442
 8413SOL    HW226139   4.220   5.622   4.286
 8414SOL     OW26140   1.137   0.465   1.391
 8414SOL    HW126141   1.044   0.491   1.363
 8414SOL    HW226142   1.192   0.548   1.405
 8415SOL     OW26143   2.438   1.626   5.544
 8415SOL    HW126144   2.421   1.629   5.643
 8415SOL    HW226145   2.525   1.581   5.527
 8416SOL     OW26146   6.334   1.724   5.618
 8416SOL    HW126147   6.250   1.672   5.632
 8416SOL    HW226148   6.313   1.808   5.567
 8417SOL     OW26149   1.489   3.319   5.617
 8417SOL    HW126150   1.485   3.374   5.700
 8417SOL    HW226151   1.579   3.330   5.575
 8418SOL     OW26152   0.528   6.172   2.362
 8418SOL    HW126153   0.458   6.196   2.429
 8418SOL    HW226154   0.525   6.236   2.286
 8419SOL     OW26155   4.649   1.938   4.167
 8419SOL    HW126156   4.655   1.852   4.219
 8419SOL    HW226157   4.573   1.933   4.103
 8420SOL     OW26158   3.075   0.270   1.927
 8420SOL    HW126159   3.031   0.180   1.918
 8420SOL    HW226160   3.168   0.266   1.890
 8421SOL     OW26161   4.615   6.316   6.279
 8421SOL    HW126162   4.650   6.409   6.273
 8421SOL    HW226163   4.636   6.267   6.195
 8422SOL     OW26164   4.944   2.388   3.186
 8422SOL    HW126165   4.928   2.484   3.164
 8422SOL    HW226166   4.985   2.381   3.277
 8423SOL     OW26167   6.899   4.805   6.422
 8423SOL    HW126168   6.971   4.744   6.453
 8423SOL    HW226169   6.909   4.894   6.466
 8424SOL     OW26170   3.068   0.587   4.448
 8424SOL    HW126171   3.108   0.505   4.489
 8424SOL    HW226172   3.055   0.572   4.350
 8425SOL     OW26173   3.318   4.059   2.248
 8425SOL    HW126174   3.336   3.962   2.264
 8425SOL    HW226175   3.345   4.084   2.156
 8426SOL     OW26176   3.989   3.018   2.004
 8426SOL    HW126177   3.951   3.107   1.980
 8426SOL    HW226178   4.071   3.001   1.949
 8427SOL     OW26179   3.478   3.779   3.632
 8427SOL    HW126180   3.483   3.847   3.705
 8427SOL    HW226181   3.485   3.824   3.543
 8428SOL     OW26182   6.122   6.802   1.348
 8428SOL    HW126183   6.218   6.826   1.360
 8428SOL    HW226184   6.115   6.712   1.304
 8429SOL     OW26185   2.787   5.811   5.217
 8429SOL    HW126186   2.859   5.772   5.275
 8429SOL    HW226187   2.701   5.764   5.236
 8430SOL     OW26188   4.514   6.920   4.747
 8430SOL    HW126189   4.473   6.946   4.834
 8430SOL    HW226190   4.441   6.901   4.681
 8431SOL     OW26191   2.404   3.127   6.430
 8431SOL    HW126192   2.442   3.177   6.507
 8431SOL    HW226193   2.421   3.176   6.345
 8432SOL     OW26194   6.346   5.073   6.083
 8432SOL    HW126195   6.432   5.093   6.128
 8432SOL    HW226196   6.289   5.016   6.142
 8433SOL     OW26197   5.335   2.363   1.101
 8433SOL    HW126198   5.347   2.267   1.128
 8433SOL    HW226199   5.309   2.417   1.181
 8434SOL     OW26200   2.513   5.822   4.942
 8434SOL    HW126201   2.510   5.724   4.923
 8434SOL    HW226202   2.465   5.841   5.027
 8435SOL     OW26203   5.224   1.749   2.618
 8435SOL    HW126204   5.245   1.843   2.590
 8435SOL    HW226205   5.299   1.689   2.591
 8436SOL     OW26206   2.271   5.712   2.349
 8436SOL    HW126207   2.255   5.798   2.397
 8436SOL    HW226208   2.291   5.640   2.416
 8437SOL     OW26209   1.344   5.137   2.362
 8437SOL    HW126210   1.245   5.130   2.350
 8437SOL    HW226211   1.384   5.046   2.368
 8438SOL     OW26212   0.823   4.039   2.452
 8438SOL    HW126213   0.771   4.045   2.367
 8438SOL    HW226214   0.821   4.127   2.499
 8439SOL     OW26215   5.750   4.701   2.856
 8439SOL    HW126216   5.701   4.615   2.849
 8439SOL    HW226217   5.827   4.701   2.792
 8440SOL     OW26218   2.085   1.914   2.702
 8440SOL    HW126219   2.020   1.975   2.655
 8440SOL    HW226220   2.039   1.870   2.778
 8441SOL     OW26221   6.586   1.604   5.524
 8441SOL    HW126222   6.527   1.617   5.604
 8441SOL    HW226223   6.531   1.605   5.441
 8442SOL     OW26224   3.558   1.407   6.410
 8442SOL    HW126225   3.546   1.401   6.311
 8442SOL    HW226226   3.644   1.455   6.430
 8443SOL     OW26227   1.296   3.877   3.411
 8443SOL    HW126228   1.340   3.794   3.444
 8443SOL    HW226229   1.307   3.950   3.479
 8444SOL     OW26230   5.457   5.108   4.949
 8444SOL    HW126231   5.532   5.143   5.005
 8444SOL    HW226232   5.446   5.010   4.965
 8445SOL     OW26233   4.422   6.008   6.192
 8445SOL    HW126234   4.343   6.062   6.163
 8445SOL    HW226235   4.453   6.039   6.282
 8446SOL     OW26236   0.023   5.099   4.949
 8446SOL    HW126237   0.032   5.053   5.036
 8446SOL    HW226238   0.022   5.198   4.963
 8447SOL     OW26239   4.123   2.152   3.400
 8447SOL    HW126240   4.111   2.052   3.400
 8447SOL    HW226241   4.217   2.174   3.373
 8448SOL     OW26242   3.248   6.147   3.316
 8448SOL    HW126243   3.210   6.074   3.373
 8448SOL    HW226244   3.178   6.217   3.301
 8449SOL     OW26245   1.949   2.182   3.059
 8449SOL    HW126246   1.919   2.154   3.150
 8449SOL    HW226247   1.870   2.184   2.997
 8450SOL     OW26248   0.179   1.411   6.751
 8450SOL    HW126249   0.260   1.439   6.700
 8450SOL    HW226250   0.154   1.482   6.817
 8451SOL     OW26251   4.136   2.691   0.666
 8451SOL    HW126252   4.159   2.787   0.649
 8451SOL    HW226253   4.218   2.641   0.694
 8452SOL     OW26254   5.116   1.800   5.440
 8452SOL    HW126255   5.117   1.823   5.343
 8452SOL    HW226256   5.052   1.861   5.488
 8453SOL     OW26257   6.813   5.827   0.366
 8453SOL    HW126258   6.881   5.782   0.425
 8453SOL    HW226259   6.797   5.920   0.399
 8454SOL     OW26260   6.390   3.729   6.950
 8454SOL    HW126261   6.425   3.798   7.014
 8454SOL    HW226262   6.446   3.647   6.955
 8455SOL     OW26263   6.712   1.795   2.599
 8455SOL    HW126264   6.756   1.714   2.638
 8455SOL    HW226265   6.614   1.778   2.589
 8456SOL     OW26266   6.547   0.473   3.441
 8456SOL    HW126267   6.580   0.557   3.398
 8456SOL    HW226268   6.609   0.398   3.418
 8457SOL     OW26269   6.638   6.907   5.354
 8457SOL    HW126270   6.701   6.934   5.427
 8457SOL    HW226271   6.666   6.819   5.316
 8458SOL     OW26272   0.587   6.869   6.675
 8458SOL    HW126273   0.543   6.790   6.718
 8458SOL    HW226274   0.517   6.933   6.643
 8459SOL     OW26275   1.721   6.215   3.654
 8459SOL    HW126276   1.818   6.197   3.674
 8459SOL    HW226277   1.665   6.143   3.695
 8460SOL     OW26278   3.244   3.876   3.374
 8460SOL    HW126279   3.339   3.905   3.366
 8460SOL    HW226280   3.203   3.918   3.455
 8461SOL     OW26281   6.607   3.491   4.058
 8461SOL    HW126282   6.582   3.413   4.002
 8461SOL    HW226283   6.577   3.575   4.013
 8462SOL     OW26284   2.335   2.819   1.542
 8462SOL    HW126285   2.413   2.880   1.528
 8462SOL    HW226286   2.251   2.868   1.521
 8463SOL     OW26287   5.341   0.952   2.029
 8463SOL    HW126288   5.283   1.034   2.027
 8463SOL    HW226289   5.301   0.881   1.970
 8464SOL     OW26290   6.329   1.780   5.054
 8464SOL    HW126291   6.399   1.727   5.102
 8464SOL    HW226292   6.330   1.874   5.086
 8465SOL     OW26293   2.133   1.880   6.801
 8465SOL    HW126294   2.193   1.959   6.790
 8465SOL    HW226295   2.038   1.908   6.793
 8466SOL     OW26296   0.348   0.132   4.066
 8466SOL    HW126297   0.404   0.184   4.002
 8466SOL    HW226298   0.363   0.034   4.052
 8467SOL     OW26299   3.229   5.785   1.225
 8467SOL    HW126300   3.189   5.723   1.157
 8467SOL    HW226301   3.268   5.864   1.178
 8468SOL     OW26302   4.575   2.411   0.376
 8468SOL    HW126303   4.533   2.359   0.450
 8468SOL    HW226304   4.519   2.404   0.293
 8469SOL     OW26305   3.984   2.552   0.043
 8469SOL    HW126306   3.994   2.470   0.099
 8469SOL    HW226307   4.053   2.551   6.988
 8470SOL     OW26308   1.411   3.092   6.744
 8470SOL    HW126309   1.336   3.150   6.713
 8470SOL    HW226310   1.377   3.028   6.813
 8471SOL     OW26311   4.605   1.041   4.247
 8471SOL    HW126312   4.649   0.953   4.227
 8471SOL    HW226313   4.534   1.059   4.178
 8472SOL     OW26314   1.617   6.948   2.905
 8472SOL    HW126315   1.608   6.859   2.950
 8472SOL    HW226316   1.624   0.001   2.975
 8473SOL     OW26317   6.145   5.574   6.681
 8473SOL    HW126318   6.196   5.581   6.596
 8473SOL    HW226319   6.194   5.515   6.745
 8474SOL     OW26320   4.057   5.359   0.690
 8474SOL    HW126321   4.072   5.341   0.787
 8474SOL    HW226322   4.089   5.281   0.636
 8475SOL     OW26323   4.565   1.293   2.982
 8475SOL    HW126324   4.586   1.370   2.923
 8475SOL    HW226325   4.625   1.294   3.062
 8476SOL     OW26326   4.726   0.561   2.717
 8476SOL    HW126327   4.693   0.467   2.712
 8476SOL    HW226328   4.805   0.572   2.657
 8477SOL     OW26329   2.410   0.882   2.189
 8477SOL    HW126330   2.436   0.797   2.236
 8477SOL    HW226331   2.397   0.954   2.256
 8478SOL     OW26332   1.575   0.230   5.716
 8478SOL    HW126333   1.628   0.177   5.783
 8478SOL    HW226334   1.503   0.173   5.678
 8479SOL     OW26335   4.600   1.356   2.201
 8479SOL    HW126336   4.641   1.416   2.132
 8479SOL    HW226337   4.672   1.326   2.265
 8480SOL     OW26338   1.213   1.381   1.352
 8480SOL    HW126339   1.168   1.467   1.325
 8480SOL    HW226340   1.221   1.321   1.272
 8481SOL     OW26341   4.162   0.126   4.650
 8481SOL    HW126342   4.150   0.082   4.561
 8481SOL    HW226343   4.144   0.061   4.723
 8482SOL     OW26344   0.395   0.488   1.987
 8482SOL    HW126345   0.486   0.482   1.945
 8482SOL    HW226346   0.404   0.507   2.085
 8483SOL     OW26347   4.664   6.167   2.077
 8483SOL    HW126348   4.645   6.265   2.071
 8483SOL    HW226349   4.606   6.117   2.012
 8484SOL     OW26350   0.820   4.258   4.568
 8484SOL    HW126351   0.872   4.221   4.491
 8484SOL    HW226352   0.799   4.185   4.632
 8485SOL     OW26353   2.605   3.264   5.926
 8485SOL    HW126354   2.518   3.308   5.906
 8485SOL    HW226355   2.680   3.330   5.913
 8486SOL     OW26356   4.001   0.085   2.354
 8486SOL    HW126357   3.913   0.125   2.331
 8486SOL    HW226358   4.069   0.158   2.362
 8487SOL     OW26359   4.619   0.101   1.239
 8487SOL    HW126360   4.525   0.095   1.206
 8487SOL    HW226361   4.653   0.194   1.226
 8488SOL     OW26362   5.567   3.225   4.954
 8488SOL    HW126363   5.496   3.219   4.884
 8488SOL    HW226364   5.531   3.268   5.036
 8489SOL     OW26365   4.437   5.250   2.987
 8489SOL    HW126366   4.498   5.234   2.909
 8489SOL    HW226367   4.478   5.315   3.050
 8490SOL     OW26368   3.570   5.621   2.302
 8490SOL    HW126369   3.518   5.541   2.333
 8490SOL    HW226370   3.597   5.608   2.207
 8491SOL     OW26371   1.736   1.059   1.900
 8491SOL    HW126372   1.701   1.151   1.914
 8491SOL    HW226373   1.820   1.063   1.846
 8492SOL     OW26374   5.551   3.972   4.487
 8492SOL    HW126375   5.548   3.929   4.577
 8492SOL    HW226376   5.646   3.991   4.462
 8493SOL     OW26377   3.098   2.133   0.881
 8493SOL    HW126378   3.116   2.111   0.785
 8493SOL    HW226379   3.036   2.211   0.886
 8494SOL     OW26380   3.835   5.812   0.017
 8494SOL    HW126381   3.783   5.896   0.026
 8494SOL    HW226382   3.928   5.834   7.003
 8495SOL     OW26383   0.702   2.675   0.145
 8495SOL    HW126384   0.626   2.733   0.116
 8495SOL    HW226385   0.683   2.581   0.120
 8496SOL     OW26386   6.417   2.471   3.014
 8496SOL    HW126387   6.456   2.560   3.038
 8496SOL    HW226388   6.318   2.479   3.004
 8497SOL     OW26389   6.082   5.076   3.475
 8497SOL    HW126390   6.105   4.979   3.469
 8497SOL    HW226391   6.149   5.129   3.425
 8498SOL     OW26392   6.451   0.975   0.411
 8498SOL    HW126393   6.453   0.983   0.511
 8498SOL    HW226394   6.503   0.895   0.383
 8499SOL     OW26395   2.938   4.152   6.169
 8499SOL    HW126396   2.886   4.180   6.250
 8499SOL    HW226397   2.941   4.227   6.104
 8500SOL     OW26398   3.342   0.333   6.199
 8500SOL    HW126399   3.392   0.419   6.211
 8500SOL    HW226400   3.303   0.304   6.286
 8501SOL     OW26401   2.596   4.790   5.879
 8501SOL    HW126402   2.546   4.865   5.835
 8501SOL    HW226403   2.565   4.779   5.973
 8502SOL     OW26404   0.230   0.190   1.971
 8502SOL    HW126405   0.266   0.269   1.922
 8502SOL    HW226406   0.305   0.128   1.993
 8503SOL     OW26407   3.328   6.043   3.063
 8503SOL    HW126408   3.261   6.061   2.991
 8503SOL    HW226409   3.291   6.073   3.151
 8504SOL     OW26410   1.104   5.754   3.459
 8504SOL    HW126411   1.039   5.828   3.443
 8504SOL    HW226412   1.089   5.716   3.550
 8505SOL     OW26413   4.933   3.035   4.093
 8505SOL    HW126414   5.032   3.023   4.099
 8505SOL    HW226415   4.900   2.996   4.007
 8506SOL     OW26416   1.033   6.495   0.653
 8506SOL    HW126417   1.088   6.442   0.588
 8506SOL    HW226418   1.084   6.577   0.680
 8507SOL     OW26419   1.645   0.627   4.531
 8507SOL    HW126420   1.709   0.576   4.589
 8507SOL    HW226421   1.629   0.717   4.571
 8508SOL     OW26422   0.964   2.977   6.433
 8508SOL    HW126423   0.895   3.046   6.411
 8508SOL    HW226424   1.055   3.012   6.409
 8509SOL     OW26425   6.005   2.165   4.569
 8509SOL    HW126426   5.969   2.180   4.477
 8509SOL    HW226427   5.929   2.151   4.633
 8510SOL     OW26428   4.554   0.330   2.477
 8510SOL    HW126429   4.603   0.271   2.541
 8510SOL    HW226430   4.618   0.394   2.435
 8511SOL     OW26431   0.256   4.547   2.093
 8511SOL    HW126432   0.236   4.497   2.177
 8511SOL    HW226433   0.310   4.490   2.032
 8512SOL     OW26434   3.900   2.727   0.556
 8512SOL    HW126435   3.970   2.692   0.618
 8512SOL    HW226436   3.846   2.796   0.603
 8513SOL     OW26437   0.608   4.588   1.412
 8513SOL    HW126438   0.517   4.594   1.453
 8513SOL    HW226439   0.601   4.565   1.315
 8514SOL     OW26440   2.373   2.223   6.161
 8514SOL    HW126441   2.451   2.285   6.165
 8514SOL    HW226442   2.380   2.156   6.234
 8515SOL     OW26443   1.853   0.416   0.890
 8515SOL    HW126444   1.765   0.450   0.856
 8515SOL    HW226445   1.837   0.356   0.968
 8516SOL     OW26446   5.320   2.484   4.238
 8516SOL    HW126447   5.265   2.433   4.172
 8516SOL    HW226448   5.389   2.538   4.189
 8517SOL     OW26449   2.200   1.707   6.206
 8517SOL    HW126450   2.249   1.627   6.241
 8517SOL    HW226451   2.179   1.694   6.109
 8518SOL     OW26452   5.554   4.829   6.596
 8518SOL    HW126453   5.600   4.784   6.520
 8518SOL    HW226454   5.572   4.927   6.593
 8519SOL     OW26455   1.151   2.991   0.867
 8519SOL    HW126456   1.161   3.082   0.825
 8519SOL    HW226457   1.223   2.931   0.833
 8520SOL     OW26458   3.761   4.052   6.041
 8520SOL    HW126459   3.676   4.083   5.997
 8520SOL    HW226460   3.751   3.956   6.069
 8521SOL     OW26461   2.060   6.543   5.420
 8521SOL    HW126462   2.041   6.485   5.341
 8521SOL    HW226463   2.041   6.493   5.504
 8522SOL     OW26464   0.723   6.925   0.437
 8522SOL    HW126465   0.776   6.859   0.490
 8522SOL    HW226466   0.784   6.998   0.405
 8523SOL     OW26467   3.645   1.414   0.420
 8523SOL    HW126468   3.665   1.510   0.398
 8523SOL    HW226469   3.567   1.411   0.483
 8524SOL     OW26470   2.044   5.235   4.421
 8524SOL    HW126471   1.964   5.275   4.377
 8524SOL    HW226472   2.015   5.164   4.486
 8525SOL     OW26473   6.175   4.467   1.856
 8525SOL    HW126474   6.189   4.389   1.795
 8525SOL    HW226475   6.110   4.441   1.928
 8526SOL     OW26476   0.542   4.701   0.812
 8526SOL    HW126477   0.560   4.741   0.902
 8526SOL    HW226478   0.602   4.623   0.797
 8527SOL     OW26479   2.859   0.760   5.448
 8527SOL    HW126480   2.843   0.845   5.498
 8527SOL    HW226481   2.774   0.732   5.404
 8528SOL     OW26482   5.329   1.037   0.522
 8528SOL    HW126483   5.368   0.956   0.478
 8528SOL    HW226484   5.327   1.113   0.457
 8529SOL     OW26485   0.847   6.062   6.368
 8529SOL    HW126486   0.767   6.121   6.355
 8529SOL    HW226487   0.851   6.032   6.463
 8530SOL     OW26488   3.125   3.928   3.611
 8530SOL    HW126489   3.134   3.891   3.703
 8530SOL    HW226490   3.186   4.006   3.600
 8531SOL     OW26491   6.968   5.050   4.538
 8531SOL    HW126492   0.023   5.109   4.573
 8531SOL    HW226493   6.999   4.955   4.538
 8532SOL     OW26494   2.717   4.741   6.175
 8532SOL    HW126495   2.765   4.733   6.263
 8532SOL    HW226496   2.627   4.781   6.190
 8533SOL     OW26497   2.306   6.364   5.320
 8533SOL    HW126498   2.276   6.296   5.386
 8533SOL    HW226499   2.292   6.330   5.227
 8534SOL     OW26500   2.245   2.365   3.225
 8534SOL    HW126501   2.179   2.393   3.295
 8534SOL    HW226502   2.197   2.352   3.138
 8535SOL     OW26503   6.443   0.055   2.666
 8535SOL    HW126504   6.359   0.072   2.718
 8535SOL    HW226505   6.507   0.131   2.679
 8536SOL     OW26506   0.575   1.497   4.838
 8536SOL    HW126507   0.532   1.570   4.786
 8536SOL    HW226508   0.506   1.430   4.866
 8537SOL     OW26509   6.724   1.075   2.507
 8537SOL    HW126510   6.690   1.041   2.419
 8537SOL    HW226511   6.752   0.998   2.564
 8538SOL     OW26512   0.679   2.380   0.163
 8538SOL    HW126513   0.737   2.354   0.085
 8538SOL    HW226514   0.640   2.298   0.204
 8539SOL     OW26515   5.446   2.757   2.771
 8539SOL    HW126516   5.364   2.730   2.822
 8539SOL    HW226517   5.523   2.701   2.801
 8540SOL     OW26518   3.937   0.105   0.307
 8540SOL    HW126519   3.928   0.144   0.216
 8540SOL    HW226520   3.895   0.167   0.374
 8541SOL     OW26521   1.953   2.787   4.607
 8541SOL    HW126522   1.880   2.783   4.674
 8541SOL    HW226523   2.039   2.812   4.652
 8542SOL     OW26524   3.334   4.942   0.786
 8542SOL    HW126525   3.288   4.967   0.701
 8542SOL    HW226526   3.388   4.860   0.771
 8543SOL     OW26527   2.380   2.123   6.466
 8543SOL    HW126528   2.365   2.221   6.478
 8543SOL    HW226529   2.296   2.081   6.432
 8544SOL     OW26530   6.130   2.536   3.396
 8544SOL    HW126531   6.176   2.623   3.412
 8544SOL    HW226532   6.065   2.519   3.470
 8545SOL     OW26533   4.098   6.485   4.869
 8545SOL    HW126534   4.114   6.393   4.904
 8545SOL    HW226535   4.185   6.526   4.843
 8546SOL     OW26536   4.501   2.272   6.508
 8546SOL    HW126537   4.584   2.217   6.498
 8546SOL    HW226538   4.465   2.262   6.600
 8547SOL     OW26539   0.884   4.368   2.843
 8547SOL    HW126540   0.839   4.284   2.812
 8547SOL    HW226541   0.935   4.409   2.768
 8548SOL     OW26542   6.108   1.575   5.660
 8548SOL    HW126543   6.014   1.575   5.695
 8548SOL    HW226544   6.116   1.510   5.584
 8549SOL     OW26545   5.359   2.816   5.100
 8549SOL    HW126546   5.434   2.882   5.089
 8549SOL    HW226547   5.332   2.812   5.196
 8550SOL     OW26548   0.797   4.492   6.158
 8550SOL    HW126549   0.889   4.516   6.128
 8550SOL    HW226550   0.790   4.392   6.168
 8551SOL     OW26551   3.229   4.234   1.322
 8551SOL    HW126552   3.270   4.274   1.404
 8551SOL    HW226553   3.203   4.139   1.341
 8552SOL     OW26554   3.178   6.643   4.322
 8552SOL    HW126555   3.167   6.678   4.229
 8552SOL    HW226556   3.162   6.544   4.322
 8553SOL     OW26557   6.072   4.766   6.835
 8553SOL    HW126558   6.149   4.814   6.793
 8553SOL    HW226559   6.053   4.683   6.782
 8554SOL     OW26560   6.129   3.884   6.526
 8554SOL    HW126561   6.110   3.795   6.485
 8554SOL    HW226562   6.135   3.874   6.626
 8555SOL     OW26563   1.243   6.784   4.312
 8555SOL    HW126564   1.307   6.860   4.306
 8555SOL    HW226565   1.235   6.740   4.223
 8556SOL     OW26566   6.347   0.438   4.287
 8556SOL    HW126567   6.268   0.494   4.313
 8556SOL    HW226568   6.322   0.342   4.289
 8557SOL     OW26569   0.173   0.771   0.060
 8557SOL    HW126570   0.225   0.851   0.030
 8557SOL    HW226571   0.223   0.688   0.034
 8558SOL     OW26572   0.962   5.805   2.104
 8558SOL    HW126573   0.946   5.711   2.073
 8558SOL    HW226574   1.038   5.805   2.170
 8559SOL     OW26575   0.379   1.523   5.647
 8559SOL    HW126576   0.475   1.504   5.629
 8559SOL    HW226577   0.335   1.555   5.563
 8560SOL     OW26578   6.596   2.615   6.300
 8560SOL    HW126579   6.605   2.653   6.208
 8560SOL    HW226580   6.637   2.678   6.366
 8561SOL     OW26581   4.913   6.566   5.345
 8561SOL    HW126582   4.845   6.625   5.390
 8561SOL    HW226583   5.003   6.584   5.383
 8562SOL     OW26584   3.441   0.212   4.321
 8562SOL    HW126585   3.524   0.233   4.371
 8562SOL    HW226586   3.421   0.114   4.328
 8563SOL     OW26587   2.837   2.888   6.444
 8563SOL    HW126588   2.837   2.976   6.396
 8563SOL    HW226589   2.743   2.864   6.469
 8564SOL     OW26590   6.995   6.475   4.101
 8564SOL    HW126591   0.007   6.460   4.007
 8564SOL    HW226592   6.905   6.433   4.114
 8565SOL     OW26593   4.011   0.501   2.008
 8565SOL    HW126594   4.021   0.402   2.006
 8565SOL    HW226595   4.044   0.537   2.096
 8566SOL     OW26596   2.023   3.671   3.378
 8566SOL    HW126597   2.080   3.742   3.337
 8566SOL    HW226598   2.076   3.622   3.448
 8567SOL     OW26599   5.189   6.374   0.592
 8567SOL    HW126600   5.218   6.324   0.511
 8567SOL    HW226601   5.265   6.378   0.657
 8568SOL     OW26602   5.497   1.653   0.194
 8568SOL    HW126603   5.527   1.567   0.153
 8568SOL    HW226604   5.493   1.642   0.294
 8569SOL     OW26605   4.022   1.726   5.686
 8569SOL    HW126606   4.082   1.806   5.690
 8569SOL    HW226607   4.065   1.655   5.630
 8570SOL     OW26608   0.544   4.429   6.552
 8570SOL    HW126609   0.519   4.504   6.614
 8570SOL    HW226610   0.617   4.375   6.593
 8571SOL     OW26611   6.761   4.354   4.587
 8571SOL    HW126612   6.802   4.403   4.664
 8571SOL    HW226613   6.833   4.324   4.524
 8572SOL     OW26614   3.203   4.904   5.518
 8572SOL    HW126615   3.113   4.884   5.557
 8572SOL    HW226616   3.192   4.967   5.441
 8573SOL     OW26617   4.034   5.949   4.536
 8573SOL    HW126618   4.020   5.919   4.441
 8573SOL    HW226619   3.958   5.916   4.592
 8574SOL     OW26620   0.550   3.680   4.452
 8574SOL    HW126621   0.622   3.648   4.390
 8574SOL    HW226622   0.558   3.779   4.463
 8575SOL     OW26623   2.605   3.465   6.329
 8575SOL    HW126624   2.515   3.484   6.369
 8575SOL    HW226625   2.673   3.459   6.402
 8576SOL     OW26626   1.457   0.266   1.701
 8576SOL    HW126627   1.518   0.236   1.627
 8576SOL    HW226628   1.463   0.201   1.777
 8577SOL     OW26629   6.864   5.438   3.329
 8577SOL    HW126630   6.841   5.361   3.269
 8577SOL    HW226631   6.936   5.493   3.286
 8578SOL     OW26632   4.842   6.852   4.169
 8578SOL    HW126633   4.844   6.947   4.137
 8578SOL    HW226634   4.771   6.802   4.120
 8579SOL     OW26635   0.726   5.175   3.285
 8579SOL    HW126636   0.673   5.256   3.259
 8579SOL    HW226637   0.823   5.194   3.272
 8580SOL     OW26638   3.248   4.545   5.618
 8580SOL    HW126639   3.322   4.608   5.643
 8580SOL    HW226640   3.165   4.569   5.669
 8581SOL     OW26641   3.325   3.193   0.456
 8581SOL    HW126642   3.420   3.220   0.443
 8581SOL    HW226643   3.297   3.133   0.381
 8582SOL     OW26644   4.579   4.248   1.412
 8582SOL    HW126645   4.568   4.347   1.400
 8582SOL    HW226646   4.489   4.205   1.421
 8583SOL     OW26647   5.495   0.420   5.350
 8583SOL    HW126648   5.466   0.424   5.254
 8583SOL    HW226649   5.565   0.488   5.366
 8584SOL     OW26650   0.602   5.437   6.413
 8584SOL    HW126651   0.622   5.385   6.496
 8584SOL    HW226652   0.535   5.388   6.358
 8585SOL     OW26653   1.084   0.927   0.849
 8585SOL    HW126654   1.032   1.007   0.820
 8585SOL    HW226655   1.174   0.929   0.805
 8586SOL     OW26656   4.173   5.389   4.125
 8586SOL    HW126657   4.255   5.332   4.131
 8586SOL    HW226658   4.121   5.382   4.210
 8587SOL     OW26659   0.131   2.048   1.546
 8587SOL    HW126660   0.213   2.094   1.514
 8587SOL    HW226661   0.052   2.110   1.536
 8588SOL     OW26662   3.955   2.139   0.561
 8588SOL    HW126663   3.900   2.098   0.488
 8588SOL    HW226664   3.914   2.226   0.589
 8589SOL     OW26665   2.876   1.651   4.578
 8589SOL    HW126666   2.864   1.641   4.677
 8589SOL    HW226667   2.849   1.743   4.551
 8590SOL     OW26668   6.213   4.920   5.387
 8590SOL    HW126669   6.292   4.954   5.439
 8590SOL    HW226670   6.213   4.961   5.296
 8591SOL     OW26671   0.762   2.890   0.328
 8591SOL    HW126672   0.671   2.893   0.370
 8591SOL    HW226673   0.760   2.831   0.248
 8592SOL     OW26674   6.417   6.081   6.355
 8592SOL    HW126675   6.439   5.988   6.387
 8592SOL    HW226676   6.362   6.128   6.425
 8593SOL     OW26677   0.467   6.727   3.159
 8593SOL    HW126678   0.383   6.725   3.104
 8593SOL    HW226679   0.536   6.783   3.113
 8594SOL     OW26680   3.023   3.351   3.355
 8594SOL    HW126681   2.992   3.350   3.450
 8594SOL    HW226682   3.048   3.444   3.329
 8595SOL     OW26683   2.113   2.963   1.449
 8595SOL    HW126684   2.130   2.904   1.370
 8595SOL    HW226685   2.015   2.971   1.464
 8596SOL     OW26686   6.864   4.240   2.297
 8596SOL    HW126687   6.772   4.276   2.281
 8596SOL    HW226688   6.861   4.175   2.373
 8597SOL     OW26689   2.110   1.726   0.668
 8597SOL    HW126690   2.195   1.739   0.616
 8597SOL    HW226691   2.095   1.805   0.728
 8598SOL     OW26692   5.011   4.122   1.253
 8598SOL    HW126693   5.091   4.183   1.251
 8598SOL    HW226694   4.958   4.140   1.336
 8599SOL     OW26695   1.002   3.590   1.646
 8599SOL    HW126696   0.928   3.637   1.694
 8599SOL    HW226697   1.038   3.517   1.704
 8600SOL     OW26698   6.340   3.361   5.992
 8600SOL    HW126699   6.354   3.329   6.086
 8600SOL    HW226700   6.407   3.432   5.971
 8601SOL     OW26701   0.227   0.757   5.006
 8601SOL    HW126702   0.320   0.727   4.984
 8601SOL    HW226703   0.165   0.726   4.935
 8602SOL     OW26704   2.150   5.797   2.097
 8602SOL    HW126705   2.185   5.872   2.041
 8602SOL    HW226706   2.203   5.790   2.182
 8603SOL     OW26707   4.578   3.712   1.297
 8603SOL    HW126708   4.665   3.755   1.322
 8603SOL    HW226709   4.563   3.631   1.353
 8604SOL     OW26710   5.688   1.884   2.598
 8604SOL    HW126711   5.620   1.956   2.613
 8604SOL    HW226712   5.643   1.805   2.556
 8605SOL     OW26713   2.800   6.340   2.135
 8605SOL    HW126714   2.885   6.344   2.187
 8605SOL    HW226715   2.799   6.257   2.079
 8606SOL     OW26716   4.358   5.403   5.646
 8606SOL    HW126717   4.292   5.471   5.615
 8606SOL    HW226718   4.404   5.436   5.728
 8607SOL     OW26719   3.061   5.682   1.522
 8607SOL    HW126720   2.982   5.644   1.474
 8607SOL    HW226721   3.082   5.626   1.602
 8608SOL     OW26722   5.402   6.317   2.202
 8608SOL    HW126723   5.408   6.217   2.192
 8608SOL    HW226724   5.334   6.340   2.271
 8609SOL     OW26725   4.547   0.721   6.485
 8609SOL    HW126726   4.589   0.798   6.437
 8609SOL    HW226727   4.585   0.635   6.450
 8610SOL     OW26728   6.925   6.833   4.617
 8610SOL    HW126729   6.848   6.854   4.676
 8610SOL    HW226730   6.970   6.749   4.649
 8611SOL     OW26731   1.558   1.863   3.313
 8611SOL    HW126732   1.517   1.896   3.228
 8611SOL    HW226733   1.487   1.844   3.380
 8612SOL     OW26734   4.655   2.783   4.665
 8612SOL    HW126735   4.561   2.796   4.696
 8612SOL    HW226736   4.716   2.780   4.744
 8613SOL     OW26737   1.551   1.670   0.047
 8613SOL    HW126738   1.481   1.639   0.112
 8613SOL    HW226739   1.607   1.740   0.091
 8614SOL     OW26740   1.279   1.291   3.484
 8614SOL    HW126741   1.233   1.333   3.562
 8614SOL    HW226742   1.353   1.351   3.453
 8615SOL     OW26743   4.463   2.216   5.358
 8615SOL    HW126744   4.558   2.241   5.374
 8615SOL    HW226745   4.456   2.117   5.346
 8616SOL     OW26746   1.305   3.079   0.050
 8616SOL    HW126747   1.316   2.983   0.076
 8616SOL    HW226748   1.208   3.102   0.046
 8617SOL     OW26749   6.454   2.976   1.267
 8617SOL    HW126750   6.428   3.066   1.232
 8617SOL    HW226751   6.415   2.905   1.209
 8618SOL     OW26752   4.713   0.688   2.976
 8618SOL    HW126753   4.707   0.653   2.882
 8618SOL    HW226754   4.719   0.788   2.973
 8619SOL     OW26755   4.337   6.015   0.868
 8619SOL    HW126756   4.288   5.938   0.910
 8619SOL    HW226757   4.272   6.076   0.824
 8620SOL     OW26758   6.469   6.553   3.194
 8620SOL    HW126759   6.563   6.560   3.160
 8620SOL    HW226760   6.459   6.470   3.248
 8621SOL     OW26761   5.765   0.752   2.853
 8621SOL    HW126762   5.711   0.668   2.843
 8621SOL    HW226763   5.737   0.818   2.784
 8622SOL     OW26764   5.503   5.281   0.113
 8622SOL    HW126765   5.599   5.257   0.125
 8622SOL    HW226766   5.491   5.379   0.124
 8623SOL     OW26767   6.358   3.000   2.649
 8623SOL    HW126768   6.388   2.943   2.726
 8623SOL    HW226769   6.421   3.077   2.638
 8624SOL     OW26770   0.476   4.629   3.976
 8624SOL    HW126771   0.404   4.561   3.991
 8624SOL    HW226772   0.553   4.587   3.930
 8625SOL     OW26773   3.344   0.782   6.430
 8625SOL    HW126774   3.434   0.822   6.412
 8625SOL    HW226775   3.352   0.712   6.501
 8626SOL     OW26776   3.468   3.068   1.984
 8626SOL    HW126777   3.383   3.039   2.028
 8626SOL    HW226778   3.467   3.167   1.971
 8627SOL     OW26779   2.532   0.009   6.677
 8627SOL    HW126780   2.469   0.018   6.754
 8627SOL    HW226781   2.603   0.079   6.685
 8628SOL     OW26782   5.701   0.922   0.029
 8628SOL    HW126783   5.783   0.866   0.038
 8628SOL    HW226784   5.683   0.970   0.114
 8629SOL     OW26785   1.415   5.212   4.063
 8629SOL    HW126786   1.467   5.127   4.075
 8629SOL    HW226787   1.368   5.234   4.149
 8630SOL     OW26788   5.568   4.614   3.947
 8630SOL    HW126789   5.506   4.578   4.017
 8630SOL    HW226790   5.532   4.700   3.912
 8631SOL     OW26791   4.243   6.136   3.677
 8631SOL    HW126792   4.163   6.176   3.633
 8631SOL    HW226793   4.268   6.052   3.628
 8632SOL     OW26794   4.373   0.722   3.289
 8632SOL    HW126795   4.410   0.666   3.363
 8632SOL    HW226796   4.304   0.785   3.325
 8633SOL     OW26797   5.753   0.439   3.790
 8633SOL    HW126798   5.677   0.476   3.735
 8633SOL    HW226799   5.834   0.429   3.732
 8634SOL     OW26800   6.599   5.497   1.676
 8634SOL    HW126801   6.586   5.534   1.768
 8634SOL    HW226802   6.582   5.398   1.678
 8635SOL     OW26803   6.125   3.495   5.608
 8635SOL    HW126804   6.194   3.505   5.537
 8635SOL    HW226805   6.137   3.565   5.678
 8636SOL     OW26806   5.534   5.714   0.374
 8636SOL    HW126807   5.581   5.668   0.299
 8636SOL    HW226808   5.519   5.649   0.448
 8637SOL     OW26809   1.484   0.739   1.735
 8637SOL    HW126810   1.438   0.656   1.764
 8637SOL    HW226811   1.583   0.722   1.727
 8638SOL     OW26812   4.675   5.375   1.089
 8638SOL    HW126813   4.697   5.334   1.001
 8638SOL    HW226814   4.642   5.468   1.076
 8639SOL     OW26815   6.676   3.151   1.747
 8639SOL    HW126816   6.623   3.126   1.666
 8639SOL    HW226817   6.614   3.163   1.825
 8640SOL     OW26818   5.302   6.242   1.348
 8640SOL    HW126819   5.253   6.239   1.261
 8640SOL    HW226820   5.395   6.276   1.333
 8641SOL     OW26821   5.239   4.701   3.437
 8641SOL    HW126822   5.207   4.718   3.530
 8641SOL    HW226823   5.308   4.628   3.438
 8642SOL     OW26824   4.757   1.821   1.371
 8642SOL    HW126825   4.718   1.908   1.400
 8642SOL    HW226826   4.728   1.748   1.434
 8643SOL     OW26827   4.770   0.913   6.711
 8643SOL    HW126828   4.704   0.973   6.755
 8643SOL    HW226829   4.858   0.959   6.706
 8644SOL     OW26830   6.669   3.557   5.654
 8644SOL    HW126831   6.640   3.519   5.566
 8644SOL    HW226832   6.597   3.615   5.691
 8645SOL     OW26833   6.137   4.705   1.651
 8645SOL    HW126834   6.101   4.687   1.742
 8645SOL    HW226835   6.134   4.621   1.597
 8646SOL     OW26836   5.180   0.516   0.956
 8646SOL    HW126837   5.279   0.529   0.948
 8646SOL    HW226838   5.161   0.435   1.012
 8647SOL     OW26839   4.600   4.885   2.069
 8647SOL    HW126840   4.678   4.907   2.011
 8647SOL    HW226841   4.530   4.838   2.015
 8648SOL     OW26842   5.745   1.584   4.567
 8648SOL    HW126843   5.711   1.618   4.479
 8648SOL    HW226844   5.737   1.656   4.635
 8649SOL     OW26845   0.437   4.740   5.521
 8649SOL    HW126846   0.410   4.679   5.447
 8649SOL    HW226847   0.403   4.705   5.608
 8650SOL     OW26848   0.818   4.904   2.281
 8650SOL    HW126849   0.848   4.873   2.371
 8650SOL    HW226850   0.851   4.997   2.265
 8651SOL     OW26851   3.375   2.618   1.144
 8651SOL    HW126852   3.468   2.601   1.111
 8651SOL    HW226853   3.329   2.530   1.162
 8652SOL     OW26854   1.676   3.114   4.231
 8652SOL    HW126855   1.747   3.055   4.269
 8652SOL    HW226856   1.596   3.060   4.207
 8653SOL     OW26857   5.930   3.206   6.233
 8653SOL    HW126858   6.005   3.144   6.209
 8653SOL    HW226859   5.945   3.240   6.326
 8654SOL     OW26860   6.839   6.633   3.023
 8654SOL    HW126861   6.805   6.643   2.929
 8654SOL    HW226862   6.939   6.633   3.021
 8655SOL     OW26863   6.154   6.179   3.814
 8655SOL    HW126864   6.087   6.112   3.847
 8655SOL    HW226865   6.132   6.204   3.720
 8656SOL     OW26866   6.679   2.066   1.393
 8656SOL    HW126867   6.628   2.060   1.479
 8656SOL    HW226868   6.774   2.038   1.408
 8657SOL     OW26869   3.017   4.161   0.817
 8657SOL    HW126870   3.007   4.258   0.791
 8657SOL    HW226871   3.113   4.142   0.837
 8658SOL     OW26872   0.478   5.380   7.006
 8658SOL    HW126873   0.471   5.412   0.083
 8658SOL    HW226874   0.470   5.457   6.944
 8659SOL     OW26875   4.704   0.623   3.683
 8659SOL    HW126876   4.706   0.589   3.589
 8659SOL    HW226877   4.611   0.618   3.719
 8660SOL     OW26878   5.334   4.910   0.857
 8660SOL    HW126879   5.330   4.997   0.906
 8660SOL    HW226880   5.427   4.873   0.862
 8661SOL     OW26881   6.391   3.655   1.348
 8661SOL    HW126882   6.338   3.690   1.426
 8661SOL    HW226883   6.328   3.631   1.274
 8662SOL     OW26884   0.225   0.417   0.950
 8662SOL    HW126885   0.166   0.439   0.873
 8662SOL    HW226886   0.296   0.487   0.959
 8663SOL     OW26887   2.499   5.980   0.655
 8663SOL    HW126888   2.487   6.065   0.603
 8663SOL    HW226889   2.501   5.902   0.593
 8664SOL     OW26890   4.254   5.105   1.740
 8664SOL    HW126891   4.352   5.103   1.760
 8664SOL    HW226892   4.204   5.131   1.822
 8665SOL     OW26893   4.653   5.147   5.186
 8665SOL    HW126894   4.644   5.246   5.178
 8665SOL    HW226895   4.715   5.126   5.262
 8666SOL     OW26896   5.658   3.653   4.508
 8666SOL    HW126897   5.617   3.730   4.459
 8666SOL    HW226898   5.593   3.618   4.576
 8667SOL     OW26899   5.120   1.911   3.073
 8667SOL    HW126900   5.193   1.979   3.080
 8667SOL    HW226901   5.060   1.934   2.996
 8668SOL     OW26902   3.537   1.533   4.421
 8668SOL    HW126903   3.532   1.582   4.335
 8668SOL    HW226904   3.609   1.572   4.479
 8669SOL     OW26905   4.438   0.096   5.639
 8669SOL    HW126906   4.463   0.040   5.561
 8669SOL    HW226907   4.441   0.041   5.723
 8670SOL     OW26908   4.199   4.800   3.857
 8670SOL    HW126909   4.237   4.757   3.775
 8670SOL    HW226910   4.274   4.825   3.918
 8671SOL     OW26911   5.691   6.170   2.837
 8671SOL    HW126912   5.788   6.194   2.823
 8671SOL    HW226913   5.637   6.254   2.846
 8672SOL     OW26914   3.325   4.764   5.186
 8672SOL    HW126915   3.228   4.782   5.203
 8672SOL    HW226916   3.359   4.699   5.254
 8673SOL     OW26917   5.555   2.040   0.766
 8673SOL    HW126918   5.625   2.028   0.696
 8673SOL    HW226919   5.535   2.137   0.776
 8674SOL     OW26920   0.814   0.534   2.479
 8674SOL    HW126921   0.762   0.601   2.533
 8674SOL    HW226922   0.897   0.577   2.443
 8675SOL     OW26923   1.664   2.055   2.539
 8675SOL    HW126924   1.763   2.058   2.554
 8675SOL    HW226925   1.631   1.962   2.558
 8676SOL     OW26926   4.712   6.763   3.557
 8676SOL    HW126927   4.710   6.793   3.653
 8676SOL    HW226928   4.667   6.832   3.500
 8677SOL     OW26929   2.149   4.433   5.234
 8677SOL    HW126930   2.123   4.406   5.326
 8677SOL    HW226931   2.213   4.366   5.196
 8678SOL     OW26932   1.216   0.696   6.099
 8678SOL    HW126933   1.237   0.783   6.053
 8678SOL    HW226934   1.293   0.634   6.090
 8679SOL     OW26935   6.627   2.426   4.980
 8679SOL    HW126936   6.650   2.329   4.981
 8679SOL    HW226937   6.540   2.439   4.931
 8680SOL     OW26938   1.064   3.695   0.251
 8680SOL    HW126939   0.996   3.621   0.244
 8680SOL    HW226940   1.129   3.673   0.323
 8681SOL     OW26941   4.596   3.785   1.047
 8681SOL    HW126942   4.516   3.768   0.989
 8681SOL    HW226943   4.575   3.756   1.140
 8682SOL     OW26944   2.135   5.806   2.684
 8682SOL    HW126945   2.162   5.875   2.752
 8682SOL    HW226946   2.116   5.720   2.730
 8683SOL     OW26947   5.986   3.299   6.476
 8683SOL    HW126948   6.049   3.226   6.504
 8683SOL    HW226949   6.020   3.387   6.510
 8684SOL     OW26950   6.531   2.473   4.332
 8684SOL    HW126951   6.510   2.571   4.334
 8684SOL    HW226952   6.466   2.427   4.271
 8685SOL     OW26953   0.680   2.130   5.158
 8685SOL    HW126954   0.648   2.081   5.239
 8685SOL    HW226955   0.649   2.224   5.162
 8686SOL     OW26956   6.263   2.051   3.479
 8686SOL    HW126957   6.226   2.110   3.407
 8686SOL    HW226958   6.252   1.955   3.453
 8687SOL     OW26959   4.171   0.611   2.725
 8687SOL    HW126960   4.246   0.563   2.681
 8687SOL    HW226961   4.186   0.612   2.824
 8688SOL     OW26962   1.977   6.995   2.298
 8688SOL    HW126963   1.897   0.033   2.277
 8688SOL    HW226964   2.057   0.014   2.251
 8689SOL     OW26965   4.564   5.662   0.599
 8689SOL    HW126966   4.547   5.588   0.534
 8689SOL    HW226967   4.478   5.693   0.638
 8690SOL     OW26968   1.145   1.121   2.356
 8690SOL    HW126969   1.090   1.204   2.365
 8690SOL    HW226970   1.134   1.084   2.263
 8691SOL     OW26971   6.176   1.514   0.586
 8691SOL    HW126972   6.123   1.577   0.644
 8691SOL    HW226973   6.113   1.456   0.535
 8692SOL     OW26974   1.374   1.675   4.300
 8692SOL    HW126975   1.433   1.636   4.371
 8692SOL    HW226976   1.366   1.774   4.314
 8693SOL     OW26977   5.673   2.190   0.118
 8693SOL    HW126978   5.736   2.114   0.138
 8693SOL    HW226979   5.721   2.259   0.064
 8694SOL     OW26980   3.979   6.175   6.000
 8694SOL    HW126981   3.907   6.203   6.063
 8694SOL    HW226982   3.953   6.088   5.956
 8695SOL     OW26983   4.441   3.990   5.407
 8695SOL    HW126984   4.363   3.939   5.370
 8695SOL    HW226985   4.511   3.999   5.336
 8696SOL     OW26986   1.659   5.552   1.065
 8696SOL    HW126987   1.749   5.509   1.066
 8696SOL    HW226988   1.613   5.537   1.152
 8697SOL     OW26989   5.421   4.626   0.065
 8697SOL    HW126990   5.423   4.527   0.050
 8697SOL    HW226991   5.384   4.671   7.001
 8698SOL     OW26992   6.011   5.864   4.102
 8698SOL    HW126993   6.087   5.889   4.163
 8698SOL    HW226994   5.946   5.806   4.151
 8699SOL     OW26995   1.389   1.692   5.489
 8699SOL    HW126996   1.318   1.704   5.420
 8699SOL    HW226997   1.479   1.692   5.444
 8700SOL     OW26998   2.648   2.081   6.453
 8700SOL    HW126999   2.553   2.098   6.478
 8700SOL    HW227000   2.672   2.133   6.371
 8701SOL     OW27001   1.176   2.112   4.026
 8701SOL    HW127002   1.248   2.045   4.008
 8701SOL    HW227003   1.096   2.065   4.063
 8702SOL     OW27004   5.357   5.900   6.793
 8702SOL    HW127005   5.269   5.923   6.835
 8702SOL    HW227006   5.387   5.810   6.825
 8703SOL     OW27007   1.937   5.755   1.245
 8703SOL    HW127008   1.925   5.761   1.344
 8703SOL    HW227009   2.026   5.714   1.225
 8704SOL     OW27010   0.714   4.416   1.787
 8704SOL    HW127011   0.757   4.326   1.778
 8704SOL    HW227012   0.748   4.476   1.715
 8705SOL     OW27013   5.132   6.612   4.995
 8705SOL    HW127014   5.034   6.607   5.015
 8705SOL    HW227015   5.179   6.657   5.071
 8706SOL     OW27016   5.040   2.274   6.778
 8706SOL    HW127017   5.087   2.362   6.766
 8706SOL    HW227018   5.042   2.248   6.875
 8707SOL     OW27019   4.614   2.518   5.692
 8707SOL    HW127020   4.669   2.435   5.687
 8707SOL    HW227021   4.540   2.513   5.626
 8708SOL     OW27022   4.103   1.581   0.806
 8708SOL    HW127023   4.102   1.495   0.755
 8708SOL    HW227024   4.084   1.563   0.902
 8709SOL     OW27025   6.537   3.598   1.088
 8709SOL    HW127026   6.524   3.696   1.101
 8709SOL    HW227027   6.539   3.552   1.177
 8710SOL     OW27028   0.695   3.311   3.266
 8710SOL    HW127029   0.724   3.217   3.248
 8710SOL    HW227030   0.605   3.327   3.226
 8711SOL     OW27031   0.660   1.668   4.156
 8711SOL    HW127032   0.681   1.572   4.174
 8711SOL    HW227033   0.653   1.682   4.057
 8712SOL     OW27034   3.483   1.082   6.018
 8712SOL    HW127035   3.473   1.074   5.918
 8712SOL    HW227036   3.577   1.060   6.044
 8713SOL     OW27037   6.478   4.911   2.700
 8713SOL    HW127038   6.499   4.910   2.798
 8713SOL    HW227039   6.434   4.998   2.677
 8714SOL     OW27040   1.580   1.169   4.860
 8714SOL    HW127041   1.627   1.250   4.895
 8714SOL    HW227042   1.519   1.195   4.786
 8715SOL     OW27043   6.055   1.544   1.732
 8715SOL    HW127044   5.971   1.524   1.783
 8715SOL    HW227045   6.051   1.498   1.643
 8716SOL     OW27046   1.342   1.711   1.705
 8716SOL    HW127047   1.337   1.616   1.674
 8716SOL    HW227048   1.423   1.725   1.762
 8717SOL     OW27049   4.094   3.223   0.839
 8717SOL    HW127050   4.049   3.173   0.765
 8717SOL    HW227051   4.033   3.228   0.918
 8718SOL     OW27052   6.642   3.055   6.097
 8718SOL    HW127053   6.597   3.017   6.178
 8718SOL    HW227054   6.578   3.114   6.048
 8719SOL     OW27055   6.611   0.714   6.099
 8719SOL    HW127056   6.638   0.810   6.091
 8719SOL    HW227057   6.677   0.656   6.052
 8720SOL     OW27058   4.950   3.765   5.899
 8720SOL    HW127059   4.992   3.677   5.920
 8720SOL    HW227060   4.876   3.784   5.964
 8721SOL     OW27061   0.353   1.814   4.443
 8721SOL    HW127062   0.421   1.854   4.382
 8721SOL    HW227063   0.338   1.718   4.417
 8722SOL     OW27064   3.763   2.918   0.687
 8722SOL    HW127065   3.799   2.879   0.771
 8722SOL    HW227066   3.667   2.944   0.701
 8723SOL     OW27067   6.882   4.765   0.165
 8723SOL    HW127068   6.851   4.692   0.104
 8723SOL    HW227069   6.946   4.824   0.116
 8724SOL     OW27070   5.568   6.670   6.551
 8724SOL    HW127071   5.645   6.611   6.525
 8724SOL    HW227072   5.484   6.617   6.551
 8725SOL     OW27073   2.311   5.983   0.893
 8725SOL    HW127074   2.362   5.967   0.808
 8725SOL    HW227075   2.245   6.056   0.878
 8726SOL     OW27076   4.905   0.637   1.346
 8726SOL    HW127077   4.903   0.595   1.437
 8726SOL    HW227078   4.814   0.668   1.322
 8727SOL     OW27079   6.041   5.683   0.791
 8727SOL    HW127080   6.097   5.730   0.722
 8727SOL    HW227081   5.947   5.717   0.787
 8728SOL     OW27082   2.298   6.799   5.772
 8728SOL    HW127083   2.382   6.781   5.720
 8728SOL    HW227084   2.320   6.814   5.868
 8729SOL     OW27085   5.751   6.243   4.661
 8729SOL    HW127086   5.666   6.191   4.670
 8729SOL    HW227087   5.735   6.339   4.683
 8730SOL     OW27088   0.331   0.046   1.405
 8730SOL    HW127089   0.269   0.043   1.327
 8730SOL    HW227090   0.343   6.972   1.443
 8731SOL     OW27091   1.036   1.802   2.625
 8731SOL    HW127092   1.035   1.707   2.593
 8731SOL    HW227093   0.943   1.836   2.633
 8732SOL     OW27094   5.393   4.663   1.523
 8732SOL    HW127095   5.294   4.665   1.511
 8732SOL    HW227096   5.429   4.756   1.529
 8733SOL     OW27097   0.100   6.221   1.344
 8733SOL    HW127098   0.044   6.140   1.334
 8733SOL    HW227099   0.182   6.199   1.398
 8734SOL     OW27100   6.802   4.973   0.324
 8734SOL    HW127101   6.891   5.007   0.356
 8734SOL    HW227102   6.815   4.891   0.268
 8735SOL     OW27103   6.684   2.496   6.846
 8735SOL    HW127104   6.752   2.424   6.836
 8735SOL    HW227105   6.625   2.498   6.765
 8736SOL     OW27106   0.674   4.853   6.300
 8736SOL    HW127107   0.742   4.858   6.373
 8736SOL    HW227108   0.643   4.946   6.277
 8737SOL     OW27109   3.780   5.662   6.383
 8737SOL    HW127110   3.817   5.751   6.355
 8737SOL    HW227111   3.840   5.622   6.453
 8738SOL     OW27112   1.567   3.404   4.844
 8738SOL    HW127113   1.474   3.410   4.880
 8738SOL    HW227114   1.610   3.494   4.848
 8739SOL     OW27115   1.453   2.902   5.232
 8739SOL    HW127116   1.429   2.966   5.159
 8739SOL    HW227117   1.552   2.896   5.241
 8740SOL     OW27118   1.886   6.438   1.647
 8740SOL    HW127119   1.795   6.436   1.688
 8740SOL    HW227120   1.907   6.349   1.607
 8741SOL     OW27121   1.171   3.663   2.227
 8741SOL    HW127122   1.238   3.596   2.258
 8741SOL    HW227123   1.183   3.749   2.276
 8742SOL     OW27124   4.712   6.974   2.206
 8742SOL    HW127125   4.749   6.919   2.132
 8742SOL    HW227126   4.687   0.047   2.171
 8743SOL     OW27127   2.367   4.386   3.364
 8743SOL    HW127128   2.278   4.430   3.378
 8743SOL    HW227129   2.404   4.357   3.453
 8744SOL     OW27130   3.079   3.055   5.970
 8744SOL    HW127131   3.075   3.127   5.901
 8744SOL    HW227132   3.170   3.012   5.967
 8745SOL     OW27133   6.434   1.854   6.932
 8745SOL    HW127134   6.344   1.812   6.916
 8745SOL    HW227135   6.497   1.821   6.862
 8746SOL     OW27136   5.250   4.215   5.172
 8746SOL    HW127137   5.228   4.123   5.204
 8746SOL    HW227138   5.311   4.209   5.093
 8747SOL     OW27139   1.707   2.687   4.078
 8747SOL    HW127140   1.632   2.752   4.090
 8747SOL    HW227141   1.679   2.616   4.013
 8748SOL     OW27142   2.743   0.609   6.835
 8748SOL    HW127143   2.832   0.654   6.848
 8748SOL    HW227144   2.674   0.676   6.809
 8749SOL     OW27145   4.145   1.311   3.958
 8749SOL    HW127146   4.071   1.378   3.969
 8749SOL    HW227147   4.210   1.321   4.034
 8750SOL     OW27148   2.345   0.904   5.239
 8750SOL    HW127149   2.291   0.846   5.300
 8750SOL    HW227150   2.386   0.848   5.167
 8751SOL     OW27151   2.252   6.938   2.872
 8751SOL    HW127152   2.241   6.844   2.905
 8751SOL    HW227153   2.317   6.987   2.930
 8752SOL     OW27154   1.842   2.535   6.954
 8752SOL    HW127155   1.812   2.605   6.890
 8752SOL    HW227156   1.809   2.445   6.925
 8753SOL     OW27157   5.478   1.050   5.245
 8753SOL    HW127158   5.558   1.053   5.305
 8753SOL    HW227159   5.395   1.038   5.300
 8754SOL     OW27160   1.713   0.978   5.493
 8754SOL    HW127161   1.771   1.051   5.457
 8754SOL    HW227162   1.699   0.909   5.422
 8755SOL     OW27163   2.335   2.006   0.481
 8755SOL    HW127164   2.410   2.068   0.456
 8755SOL    HW227165   2.272   2.053   0.542
 8756SOL     OW27166   2.216   3.120   3.845
 8756SOL    HW127167   2.207   3.112   3.746
 8756SOL    HW227168   2.228   3.029   3.885
 8757SOL     OW27169   4.867   5.794   4.142
 8757SOL    HW127170   4.790   5.730   4.135
 8757SOL    HW227171   4.845   5.865   4.208
 8758SOL     OW27172   5.019   6.261   2.042
 8758SOL    HW127173   4.981   6.173   2.013
 8758SOL    HW227174   5.051   6.311   1.962
 8759SOL     OW27175   5.083   1.104   5.979
 8759SOL    HW127176   5.029   1.161   6.041
 8759SOL    HW227177   5.115   1.023   6.027
 8760SOL     OW27178   1.727   2.848   3.390
 8760SOL    HW127179   1.825   2.868   3.384
 8760SOL    HW227180   1.708   2.763   3.341
 8761SOL     OW27181   5.305   6.494   0.904
 8761SOL    HW127182   5.228   6.440   0.940
 8761SOL    HW227183   5.369   6.433   0.857
 8762SOL     OW27184   1.069   4.182   6.984
 8762SOL    HW127185   1.065   4.268   6.932
 8762SOL    HW227186   1.136   4.121   6.942
 8763SOL     OW27187   6.996   6.305   5.658
 8763SOL    HW127188   6.993   6.217   5.610
 8763SOL    HW227189   0.045   6.300   5.732
 8764SOL     OW27190   3.377   2.286   5.392
 8764SOL    HW127191   3.341   2.328   5.308
 8764SOL    HW227192   3.310   2.299   5.466
 8765SOL     OW27193   0.108   0.437   5.215
 8765SOL    HW127194   0.017   0.400   5.232
 8765SOL    HW227195   0.151   0.462   5.302
 8766SOL     OW27196   2.376   4.358   2.532
 8766SOL    HW127197   2.410   4.332   2.442
 8766SOL    HW227198   2.378   4.457   2.542
 8767SOL     OW27199   5.236   1.515   4.951
 8767SOL    HW127200   5.138   1.521   4.970
 8767SOL    HW227201   5.268   1.602   4.914
 8768SOL     OW27202   1.306   4.417   6.915
 8768SOL    HW127203   1.351   4.335   6.950
 8768SOL    HW227204   1.300   4.486   6.987
 8769SOL     OW27205   2.231   0.798   5.453
 8769SOL    HW127206   2.304   0.776   5.517
 8769SOL    HW227207   2.186   0.713   5.423
 8770SOL     OW27208   5.356   2.083   2.086
 8770SOL    HW127209   5.360   2.182   2.079
 8770SOL    HW227210   5.311   2.057   2.172
 8771SOL     OW27211   1.765   2.628   6.524
 8771SOL    HW127212   1.680   2.578   6.507
 8771SOL    HW227213   1.842   2.573   6.491
 8772SOL     OW27214   5.892   6.317   6.553
 8772SOL    HW127215   5.821   6.307   6.623
 8772SOL    HW227216   5.859   6.281   6.466
 8773SOL     OW27217   2.933   2.178   3.516
 8773SOL    HW127218   2.852   2.128   3.488
 8773SOL    HW227219   2.961   2.148   3.608
 8774SOL     OW27220   0.940   1.091   0.077
 8774SOL    HW127221   0.889   1.053   7.018
 8774SOL    HW227222   1.038   1.088   0.057
 8775SOL     OW27223   6.395   0.015   4.187
 8775SOL    HW127224   6.475   6.972   4.192
 8775SOL    HW227225   6.361   0.032   4.279
 8776SOL     OW27226   2.899   3.327   4.685
 8776SOL    HW127227   2.963   3.401   4.703
 8776SOL    HW227228   2.806   3.359   4.703
 8777SOL     OW27229   6.486   5.868   2.272
 8777SOL    HW127230   6.409   5.819   2.313
 8777SOL    HW227231   6.508   5.827   2.183
 8778SOL     OW27232   0.842   2.063   3.141
 8778SOL    HW127233   0.809   1.976   3.178
 8778SOL    HW227234   0.942   2.066   3.147
 8779SOL     OW27235   1.581   4.393   0.841
 8779SOL    HW127236   1.651   4.340   0.890
 8779SOL    HW227237   1.494   4.387   0.890
 8780SOL     OW27238   2.034   5.677   4.428
 8780SOL    HW127239   2.060   5.758   4.480
 8780SOL    HW227240   2.114   5.616   4.420
 8781SOL     OW27241   0.808   2.259   2.522
 8781SOL    HW127242   0.808   2.202   2.440
 8781SOL    HW227243   0.742   2.224   2.588
 8782SOL     OW27244   4.992   1.662   2.899
 8782SOL    HW127245   4.930   1.657   2.977
 8782SOL    HW227246   5.015   1.570   2.868
 8783SOL     OW27247   5.073   2.195   5.439
 8783SOL    HW127248   5.037   2.283   5.471
 8783SOL    HW227249   5.124   2.151   5.512
 8784SOL     OW27250   5.349   4.212   5.874
 8784SOL    HW127251   5.312   4.197   5.782
 8784SOL    HW227252   5.278   4.190   5.942
 8785SOL     OW27253   5.284   4.811   6.556
 8785SOL    HW127254   5.379   4.833   6.531
 8785SOL    HW227255   5.263   4.718   6.526
 8786SOL     OW27256   1.257   6.021   0.579
 8786SOL    HW127257   1.345   6.054   0.545
 8786SOL    HW227258   1.266   5.996   0.675
 8787SOL     OW27259   1.279   2.957   0.341
 8787SOL    HW127260   1.263   2.872   0.391
 8787SOL    HW227261   1.242   3.034   0.394
 8788SOL     OW27262   1.206   1.717   5.281
 8788SOL    HW127263   1.128   1.655   5.283
 8788SOL    HW227264   1.198   1.779   5.204
 8789SOL     OW27265   0.404   0.014   6.617
 8789SOL    HW127266   0.379   0.031   6.522
 8789SOL    HW227267   0.388   0.097   6.671
 8790SOL     OW27268   5.280   1.442   0.126
 8790SOL    HW127269   5.318   1.489   0.047
 8790SOL    HW227270   5.199   1.492   0.158
 8791SOL     OW27271   4.818   6.317   4.919
 8791SOL    HW127272   4.860   6.366   4.843
 8791SOL    HW227273   4.842   6.361   5.006
 8792SOL     OW27274   5.302   0.119   3.049
 8792SOL    HW127275   5.330   0.108   3.144
 8792SOL    HW227276   5.203   0.104   3.041
 8793SOL     OW27277   1.314   4.277   4.263
 8793SOL    HW127278   1.270   4.250   4.348
 8793SOL    HW227279   1.401   4.323   4.283
 8794SOL     OW27280   2.415   6.443   2.786
 8794SOL    HW127281   2.489   6.423   2.721
 8794SOL    HW227282   2.440   6.524   2.840
 8795SOL     OW27283   1.859   6.192   5.289
 8795SOL    HW127284   1.881   6.269   5.229
 8795SOL    HW227285   1.942   6.163   5.336
 8796SOL     OW27286   5.783   2.204   5.236
 8796SOL    HW127287   5.827   2.242   5.317
 8796SOL    HW227288   5.760   2.108   5.252
 8797SOL     OW27289   0.465   6.664   6.837
 8797SOL    HW127290   0.503   6.585   6.885
 8797SOL    HW227291   0.414   6.721   6.902
 8798SOL     OW27292   3.964   3.452   5.891
 8798SOL    HW127293   3.959   3.550   5.874
 8798SOL    HW227294   4.057   3.428   5.920
 8799SOL     OW27295   3.654   6.508   2.332
 8799SOL    HW127296   3.677   6.420   2.374
 8799SOL    HW227297   3.607   6.492   2.245
 8800SOL     OW27298   4.702   5.145   0.314
 8800SOL    HW127299   4.792   5.127   0.355
 8800SOL    HW227300   4.634   5.154   0.387
 8801SOL     OW27301   2.881   6.756   4.744
 8801SOL    HW127302   2.931   6.768   4.658
 8801SOL    HW227303   2.892   6.662   4.775
 8802SOL     OW27304   2.350   6.939   2.196
 8802SOL    HW127305   2.441   6.950   2.155
 8802SOL    HW227306   2.360   6.913   2.292
 8803SOL     OW27307   3.620   5.972   0.549
 8803SOL    HW127308   3.534   5.927   0.575
 8803SOL    HW227309   3.684   5.905   0.512
 8804SOL     OW27310   3.790   0.323   0.895
 8804SOL    HW127311   3.702   0.364   0.919
 8804SOL    HW227312   3.840   0.384   0.833
 8805SOL     OW27313   0.343   0.048   3.083
 8805SOL    HW127314   0.315   0.086   3.172
 8805SOL    HW227315   0.441   0.059   3.072
 8806SOL     OW27316   2.239   5.123   0.183
 8806SOL    HW127317   2.200   5.059   0.249
 8806SOL    HW227318   2.339   5.117   0.185
 8807SOL     OW27319   1.734   6.080   5.952
 8807SOL    HW127320   1.814   6.139   5.941
 8807SOL    HW227321   1.765   5.985   5.966
 8808SOL     OW27322   6.052   1.555   0.988
 8808SOL    HW127323   6.140   1.566   1.034
 8808SOL    HW227324   6.005   1.475   1.024
 8809SOL     OW27325   6.001   4.404   0.906
 8809SOL    HW127326   5.923   4.422   0.966
 8809SOL    HW227327   6.076   4.467   0.929
 8810SOL     OW27328   5.020   1.360   3.627
 8810SOL    HW127329   5.072   1.317   3.554
 8810SOL    HW227330   5.071   1.354   3.713
 8811SOL     OW27331   1.279   1.464   4.101
 8811SOL    HW127332   1.286   1.538   4.168
 8811SOL    HW227333   1.182   1.447   4.081
 8812SOL     OW27334   1.895   0.862   0.577
 8812SOL    HW127335   1.843   0.792   0.625
 8812SOL    HW227336   1.955   0.819   0.509
 8813SOL     OW27337   1.593   5.547   0.804
 8813SOL    HW127338   1.518   5.609   0.784
 8813SOL    HW227339   1.621   5.557   0.899
 8814SOL     OW27340   5.508   6.856   0.331
 8814SOL    HW127341   5.536   6.794   0.258
 8814SOL    HW227342   5.581   6.923   0.348
 8815SOL     OW27343   6.986   5.732   2.686
 8815SOL    HW127344   0.011   5.708   2.599
 8815SOL    HW227345   6.889   5.707   2.684
 8816SOL     OW27346   0.980   6.025   1.679
 8816SOL    HW127347   1.061   6.057   1.728
 8816SOL    HW227348   0.905   6.010   1.745
 8817SOL     OW27349   2.603   4.457   5.240
 8817SOL    HW127350   2.543   4.536   5.223
 8817SOL    HW227351   2.697   4.481   5.218
 8818SOL     OW27352   0.131   5.173   4.719
 8818SOL    HW127353   0.207   5.118   4.683
 8818SOL    HW227354   0.120   5.155   4.817
 8819SOL     OW27355   5.290   0.299   3.931
 8819SOL    HW127356   5.379   0.254   3.926
 8819SOL    HW227357   5.265   0.334   3.840
 8820SOL     OW27358   1.497   2.864   4.119
 8820SOL    HW127359   1.437   2.856   4.198
 8820SOL    HW227360   1.449   2.912   4.045
 8821SOL     OW27361   1.848   0.373   6.526
 8821SOL    HW127362   1.772   0.364   6.462
 8821SOL    HW227363   1.924   0.419   6.481
 8822SOL     OW27364   0.339   1.774   4.012
 8822SOL    HW127365   0.242   1.769   4.035
 8822SOL    HW227366   0.368   1.685   3.976
 8823SOL     OW27367   2.724   4.995   2.092
 8823SOL    HW127368   2.787   4.933   2.047
 8823SOL    HW227369   2.751   5.007   2.188
 8824SOL     OW27370   4.512   3.916   0.680
 8824SOL    HW127371   4.451   3.942   0.754
 8824SOL    HW227372   4.598   3.881   0.718
 8825SOL     OW27373   1.611   2.636   1.332
 8825SOL    HW127374   1.530   2.620   1.276
 8825SOL    HW227375   1.583   2.675   1.420
 8826SOL     OW27376   5.870   0.528   0.226
 8826SOL    HW127377   5.810   0.459   0.268
 8826SOL    HW227378   5.876   0.608   0.286
 8827SOL     OW27379   0.651   1.443   3.441
 8827SOL    HW127380   0.730   1.398   3.482
 8827SOL    HW227381   0.651   1.428   3.342
 8828SOL     OW27382   1.283   6.188   2.597
 8828SOL    HW127383   1.191   6.157   2.573
 8828SOL    HW227384   1.325   6.232   2.518
 8829SOL     OW27385   0.705   1.780   6.990
 8829SOL    HW127386   0.724   1.872   6.957
 8829SOL    HW227387   0.791   1.734   7.010
 8830SOL     OW27388   1.016   1.751   0.526
 8830SOL    HW127389   0.999   1.846   0.499
 8830SOL    HW227390   1.077   1.707   0.460
 8831SOL     OW27391   0.127   1.089   2.644
 8831SOL    HW127392   0.055   1.143   2.686
 8831SOL    HW227393   0.185   1.149   2.589
 8832SOL     OW27394   7.011   0.885   2.529
 8832SOL    HW127395   6.982   0.923   2.441
 8832SOL    HW227396   6.994   0.953   2.601
 8833SOL     OW27397   1.836   4.585   3.382
 8833SOL    HW127398   1.761   4.535   3.338
 8833SOL    HW227399   1.824   4.583   3.481
 8834SOL     OW27400   6.062   3.750   4.207
 8834SOL    HW127401   6.141   3.694   4.184
 8834SOL    HW227402   6.000   3.755   4.128
 8835SOL     OW27403   0.462   0.128   6.352
 8835SOL    HW127404   0.538   0.077   6.393
 8835SOL    HW227405   0.476   0.136   6.253
 8836SOL     OW27406   5.004   1.832   1.250
 8836SOL    HW127407   4.924   1.850   1.308
 8836SOL    HW227408   4.983   1.758   1.186
 8837SOL     OW27409   1.137   1.720   2.121
 8837SOL    HW127410   1.171   1.814   2.124
 8837SOL    HW227411   1.055   1.712   2.178
 8838SOL     OW27412   2.203   5.791   3.875
 8838SOL    HW127413   2.106   5.808   3.891
 8838SOL    HW227414   2.217   5.763   3.780
 8839SOL     OW27415   5.864   0.013   4.072
 8839SOL    HW127416   5.793   6.966   4.044
 8839SOL    HW227417   5.860   0.026   4.171
 8840SOL     OW27418   4.773   1.434   2.603
 8840SOL    HW127419   4.712   1.509   2.628
 8840SOL    HW227420   4.868   1.463   2.615
 8841SOL     OW27421   1.929   0.022   4.211
 8841SOL    HW127422   1.927   6.948   4.252
 8841SOL    HW227423   1.971   0.086   4.275
 8842SOL     OW27424   1.643   2.596   2.158
 8842SOL    HW127425   1.690   2.523   2.109
 8842SOL    HW227426   1.705   2.674   2.170
 8843SOL     OW27427   0.595   3.533   4.667
 8843SOL    HW127428   0.556   3.446   4.638
 8843SOL    HW227429   0.564   3.605   4.605
 8844SOL     OW27430   5.837   1.285   6.229
 8844SOL    HW127431   5.908   1.350   6.201
 8844SOL    HW227432   5.880   1.206   6.273
 8845SOL     OW27433   5.740   3.556   6.892
 8845SOL    HW127434   5.715   3.564   6.796
 8845SOL    HW227435   5.820   3.614   6.911
 8846SOL     OW27436   2.770   4.708   3.307
 8846SOL    HW127437   2.691   4.648   3.294
 8846SOL    HW227438   2.779   4.732   3.404
 8847SOL     OW27439   1.869   0.510   2.600
 8847SOL    HW127440   1.840   0.560   2.682
 8847SOL    HW227441   1.828   0.553   2.520
 8848SOL     OW27442   1.381   0.244   2.857
 8848SOL    HW127443   1.380   0.145   2.860
 8848SOL    HW227444   1.472   0.277   2.882
 8849SOL     OW27445   2.449   6.852   1.240
 8849SOL    HW127446   2.454   6.782   1.312
 8849SOL    HW227447   2.533   6.906   1.241
 8850SOL     OW27448   2.371   2.421   6.969
 8850SOL    HW127449   2.364   2.461   6.877
 8850SOL    HW227450   2.460   2.378   6.980
 8851SOL     OW27451   1.723   3.548   2.453
 8851SOL    HW127452   1.764   3.465   2.491
 8851SOL    HW227453   1.631   3.559   2.488
 8852SOL     OW27454   1.056   2.187   5.651
 8852SOL    HW127455   1.110   2.143   5.579
 8852SOL    HW227456   0.959   2.186   5.626
 8853SOL     OW27457   5.276   0.796   1.651
 8853SOL    HW127458   5.267   0.696   1.653
 8853SOL    HW227459   5.196   0.835   1.606
 8854SOL     OW27460   0.978   2.507   5.203
 8854SOL    HW127461   0.992   2.588   5.146
 8854SOL    HW227462   1.045   2.508   5.277
 8855SOL     OW27463   5.068   4.965   1.184
 8855SOL    HW127464   5.018   4.957   1.098
 8855SOL    HW227465   5.015   5.020   1.248
 8856SOL     OW27466   6.458   0.992   5.940
 8856SOL    HW127467   6.492   0.987   5.846
 8856SOL    HW227468   6.533   0.972   6.003
 8857SOL     OW27469   6.466   2.065   6.140
 8857SOL    HW127470   6.449   1.996   6.069
 8857SOL    HW227471   6.565   2.076   6.152
 8858SOL     OW27472   6.682   6.009   5.112
 8858SOL    HW127473   6.605   6.065   5.081
 8858SOL    HW227474   6.650   5.916   5.131
 8859SOL     OW27475   0.970   6.008   3.370
 8859SOL    HW127476   0.891   6.056   3.409
 8859SOL    HW227477   0.948   5.978   3.277
 8860SOL     OW27478   0.020   4.009   2.920
 8860SOL    HW127479   6.989   4.096   2.924
 8860SOL    HW227480   7.001   3.953   2.846
 8861SOL     OW27481   3.553   2.537   1.364
 8861SOL    HW127482   3.466   2.583   1.382
 8861SOL    HW227483   3.557   2.451   1.414
 8862SOL     OW27484   4.426   4.601   4.753
 8862SOL    HW127485   4.416   4.613   4.852
 8862SOL    HW227486   4.484   4.521   4.735
 8863SOL     OW27487   1.875   3.770   3.168
 8863SOL    HW127488   1.857   3.691   3.110
 8863SOL    HW227489   1.936   3.744   3.242
 8864SOL     OW27490   6.365   2.276   5.420
 8864SOL    HW127491   6.440   2.248   5.480
 8864SOL    HW227492   6.326   2.196   5.376
 8865SOL     OW27493   2.863   1.823   0.543
 8865SOL    HW127494   2.828   1.801   0.452
 8865SOL    HW227495   2.795   1.796   0.612
 8866SOL     OW27496   5.911   6.728   1.937
 8866SOL    HW127497   5.820   6.700   1.967
 8866SOL    HW227498   5.956   6.780   2.011
 8867SOL     OW27499   6.494   3.236   2.613
 8867SOL    HW127500   6.565   3.299   2.580
 8867SOL    HW227501   6.424   3.288   2.662
 8868SOL     OW27502   0.115   3.680   4.105
 8868SOL    HW127503   0.027   3.701   4.148
 8868SOL    HW227504   0.147   3.759   4.053
 8869SOL     OW27505   4.597   0.111   3.406
 8869SOL    HW127506   4.562   0.170   3.333
 8869SOL    HW227507   4.559   0.019   3.395
 8870SOL     OW27508   1.694   0.664   2.069
 8870SOL    HW127509   1.646   0.747   2.040
 8870SOL    HW227510   1.751   0.631   1.994
 8871SOL     OW27511   6.990   0.653   1.819
 8871SOL    HW127512   0.008   0.586   1.884
 8871SOL    HW227513   0.004   0.630   1.727
 8872SOL     OW27514   6.964   4.019   3.753
 8872SOL    HW127515   6.933   4.110   3.727
 8872SOL    HW227516   0.016   4.025   3.824
 8873SOL     OW27517   2.504   2.301   2.601
 8873SOL    HW127518   2.504   2.221   2.541
 8873SOL    HW227519   2.470   2.276   2.691
 8874SOL     OW27520   2.673   6.389   0.126
 8874SOL    HW127521   2.642   6.294   0.119
 8874SOL    HW227522   2.694   6.410   0.221
 8875SOL     OW27523   6.471   3.063   4.440
 8875SOL    HW127524   6.534   3.137   4.414
 8875SOL    HW227525   6.480   3.044   4.538
 8876SOL     OW27526   4.338   0.332   6.906
 8876SOL    HW127527   4.240   0.346   6.922
 8876SOL    HW227528   4.351   0.280   6.822
 8877SOL     OW27529   1.616   5.061   1.154
 8877SOL    HW127530   1.640   5.058   1.251
 8877SOL    HW227531   1.517   5.057   1.144
 8878SOL     OW27532   4.828   4.138   1.453
 8878SOL    HW127533   4.736   4.170   1.430
 8878SOL    HW227534   4.823   4.073   1.528
 8879SOL     OW27535   6.749   4.377   2.659
 8879SOL    HW127536   6.659   4.388   2.617
 8879SOL    HW227537   6.747   4.299   2.722
 8880SOL     OW27538   4.005   2.040   3.078
 8880SOL    HW127539   4.096   2.037   3.117
 8880SOL    HW227540   3.942   1.988   3.135
 8881SOL     OW27541   3.988   4.864   3.327
 8881SOL    HW127542   4.078   4.824   3.344
 8881SOL    HW227543   3.933   4.800   3.274
 8882SOL     OW27544   4.135   0.609   0.629
 8882SOL    HW127545   4.158   0.550   0.551
 8882SOL    HW227546   4.164   0.703   0.610
 8883SOL     OW27547   0.044   6.615   3.692
 8883SOL    HW127548   0.113   6.546   3.669
 8883SOL    HW227549   6.974   6.570   3.705
 8884SOL     OW27550   4.992   3.075   5.380
 8884SOL    HW127551   5.042   3.151   5.337
 8884SOL    HW227552   5.028   2.988   5.347
 8885SOL     OW27553   5.866   5.796   0.474
 8885SOL    HW127554   5.819   5.724   0.525
 8885SOL    HW227555   5.892   5.870   0.536
 8886SOL     OW27556   4.042   5.730   6.792
 8886SOL    HW127557   4.106   5.674   6.740
 8886SOL    HW227558   4.091   5.805   6.836
 8887SOL     OW27559   4.225   0.583   1.804
 8887SOL    HW127560   4.187   0.499   1.765
 8887SOL    HW227561   4.203   0.588   1.901
 8888SOL     OW27562   3.224   1.902   2.471
 8888SOL    HW127563   3.161   1.945   2.407
 8888SOL    HW227564   3.175   1.836   2.527
 8889SOL     OW27565   1.643   5.255   0.109
 8889SOL    HW127566   1.588   5.217   0.035
 8889SOL    HW227567   1.583   5.292   0.180
 8890SOL     OW27568   1.104   6.748   0.207
 8890SOL    HW127569   1.050   6.733   0.124
 8890SOL    HW227570   1.133   6.660   0.245
 8891SOL     OW27571   5.799   4.066   5.573
 8891SOL    HW127572   5.749   3.998   5.627
 8891SOL    HW227573   5.771   4.158   5.600
 8892SOL     OW27574   2.716   5.445   5.107
 8892SOL    HW127575   2.778   5.367   5.116
 8892SOL    HW227576   2.766   5.523   5.069
 8893SOL     OW27577   1.082   5.116   5.655
 8893SOL    HW127578   1.113   5.042   5.595
 8893SOL    HW227579   0.984   5.105   5.674
 8894SOL     OW27580   4.988   1.620   1.729
 8894SOL    HW127581   4.991   1.719   1.739
 8894SOL    HW227582   5.039   1.577   1.804
 8895SOL     OW27583   6.475   3.249   1.201
 8895SOL    HW127584   6.555   3.224   1.146
 8895SOL    HW227585   6.498   3.328   1.258
 8896SOL     OW27586   0.953   1.826   3.473
 8896SOL    HW127587   1.036   1.864   3.432
 8896SOL    HW227588   0.962   1.829   3.573
 8897SOL     OW27589   1.916   5.572   4.155
 8897SOL    HW127590   1.957   5.628   4.228
 8897SOL    HW227591   1.842   5.623   4.112
 8898SOL     OW27592   4.975   3.753   2.682
 8898SOL    HW127593   4.942   3.668   2.640
 8898SOL    HW227594   4.940   3.831   2.630
 8899SOL     OW27595   1.689   3.920   2.977
 8899SOL    HW127596   1.734   3.976   3.047
 8899SOL    HW227597   1.652   3.838   3.019
 8900SOL     OW27598   4.909   1.775   4.386
 8900SOL    HW127599   4.874   1.804   4.474
 8900SOL    HW227600   4.926   1.677   4.387
 8901SOL     OW27601   1.339   5.301   4.810
 8901SOL    HW127602   1.300   5.356   4.736
 8901SOL    HW227603   1.375   5.216   4.772
 8902SOL     OW27604   0.512   4.752   0.348
 8902SOL    HW127605   0.607   4.762   0.317
 8902SOL    HW227606   0.476   4.664   0.317
 8903SOL     OW27607   1.225   0.171   5.805
 8903SOL    HW127608   1.260   0.109   5.734
 8903SOL    HW227609   1.173   0.245   5.762
 8904SOL     OW27610   0.939   1.058   3.707
 8904SOL    HW127611   0.849   1.026   3.679
 8904SOL    HW227612   1.009   1.016   3.648
 8905SOL     OW27613   1.248   3.909   2.811
 8905SOL    HW127614   1.260   3.820   2.854
 8905SOL    HW227615   1.336   3.956   2.806
 8906SOL     OW27616   6.005   6.991   0.345
 8906SOL    HW127617   5.944   0.033   0.395
 8906SOL    HW227618   6.064   0.027   0.285
 8907SOL     OW27619   3.106   3.048   5.344
 8907SOL    HW127620   3.043   3.068   5.269
 8907SOL    HW227621   3.103   3.122   5.411
 8908SOL     OW27622   1.280   4.424   6.312
 8908SOL    HW127623   1.291   4.418   6.411
 8908SOL    HW227624   1.318   4.342   6.269
 8909SOL     OW27625   1.769   5.652   1.508
 8909SOL    HW127626   1.691   5.614   1.458
 8909SOL    HW227627   1.851   5.599   1.487
 8910SOL     OW27628   0.969   0.480   3.463
 8910SOL    HW127629   1.020   0.455   3.380
 8910SOL    HW227630   1.025   0.459   3.543
 8911SOL     OW27631   4.321   2.285   4.405
 8911SOL    HW127632   4.403   2.332   4.438
 8911SOL    HW227633   4.329   2.187   4.425
 8912SOL     OW27634   3.563   3.502   3.959
 8912SOL    HW127635   3.525   3.509   3.866
 8912SOL    HW227636   3.544   3.586   4.009
 8913SOL     OW27637   5.137   5.810   0.633
 8913SOL    HW127638   5.088   5.894   0.657
 8913SOL    HW227639   5.192   5.826   0.551
 8914SOL     OW27640   4.824   5.708   5.473
 8914SOL    HW127641   4.921   5.712   5.493
 8914SOL    HW227642   4.799   5.783   5.413
 8915SOL     OW27643   1.641   1.041   2.856
 8915SOL    HW127644   1.717   0.981   2.879
 8915SOL    HW227645   1.585   0.999   2.784
 8916SOL     OW27646   5.233   1.278   1.071
 8916SOL    HW127647   5.242   1.378   1.068
 8916SOL    HW227648   5.213   1.249   1.164
 8917SOL     OW27649   5.975   1.693   0.401
 8917SOL    HW127650   5.910   1.625   0.435
 8917SOL    HW227651   6.039   1.650   0.338
 8918SOL     OW27652   0.829   3.343   2.779
 8918SOL    HW127653   0.920   3.303   2.777
 8918SOL    HW227654   0.814   3.389   2.866
 8919SOL     OW27655   6.233   2.916   1.660
 8919SOL    HW127656   6.163   2.897   1.729
 8919SOL    HW227657   6.253   2.832   1.609
 8920SOL     OW27658   0.461   0.798   0.149
 8920SOL    HW127659   0.433   0.703   0.138
 8920SOL    HW227660   0.545   0.802   0.202
 8921SOL     OW27661   0.979   3.201   1.937
 8921SOL    HW127662   1.010   3.110   1.962
 8921SOL    HW227663   0.970   3.257   2.019
 8922SOL     OW27664   4.373   5.524   3.729
 8922SOL    HW127665   4.287   5.508   3.778
 8922SOL    HW227666   4.416   5.437   3.707
 8923SOL     OW27667   2.367   1.849   4.549
 8923SOL    HW127668   2.297   1.783   4.521
 8923SOL    HW227669   2.327   1.940   4.556
 8924SOL     OW27670   6.334   4.861   5.004
 8924SOL    HW127671   6.396   4.794   5.042
 8924SOL    HW227672   6.348   4.867   4.905
 8925SOL     OW27673   0.851   6.545   2.655
 8925SOL    HW127674   0.767   6.497   2.630
 8925SOL    HW227675   0.892   6.586   2.574
 8926SOL     OW27676   5.950   1.136   7.007
 8926SOL    HW127677   5.884   1.197   0.032
 8926SOL    HW227678   5.910   1.094   6.925
 8927SOL     OW27679   1.670   0.663   6.435
 8927SOL    HW127680   1.597   0.717   6.477
 8927SOL    HW227681   1.648   0.645   6.339
 8928SOL     OW27682   1.129   6.662   5.519
 8928SOL    HW127683   1.190   6.618   5.585
 8928SOL    HW227684   1.035   6.630   5.534
 8929SOL     OW27685   6.775   1.519   3.781
 8929SOL    HW127686   6.803   1.490   3.872
 8929SOL    HW227687   6.785   1.443   3.717
 8930SOL     OW27688   2.044   4.481   3.930
 8930SOL    HW127689   2.127   4.529   3.902
 8930SOL    HW227690   2.040   4.392   3.884
 8931SOL     OW27691   4.167   3.538   0.201
 8931SOL    HW127692   4.221   3.486   0.136
 8931SOL    HW227693   4.224   3.561   0.281
 8932SOL     OW27694   1.012   3.569   3.513
 8932SOL    HW127695   1.087   3.535   3.570
 8932SOL    HW227696   1.048   3.594   3.422
 8933SOL     OW27697   4.204   1.949   5.731
 8933SOL    HW127698   4.215   1.983   5.825
 8933SOL    HW227699   4.172   2.023   5.672
 8934SOL     OW27700   2.571   6.072   2.828
 8934SOL    HW127701   2.509   6.059   2.750
 8934SOL    HW227702   2.637   5.997   2.832
 8935SOL     OW27703   6.775   4.840   0.703
 8935SOL    HW127704   6.724   4.776   0.646
 8935SOL    HW227705   6.731   4.930   0.701
 8936SOL     OW27706   3.785   2.563   0.357
 8936SOL    HW127707   3.758   2.613   0.275
 8936SOL    HW227708   3.824   2.627   0.424
 8937SOL     OW27709   0.434   6.854   6.175
 8937SOL    HW127710   0.518   6.864   6.122
 8937SOL    HW227711   0.409   6.758   6.179
 8938SOL     OW27712   5.077   6.255   1.484
 8938SOL    HW127713   5.040   6.164   1.503
 8938SOL    HW227714   5.147   6.248   1.413
 8939SOL     OW27715   4.659   1.722   5.109
 8939SOL    HW127716   4.608   1.690   5.029
 8939SOL    HW227717   4.656   1.652   5.180
 8940SOL     OW27718   5.594   0.022   2.377
 8940SOL    HW127719   5.561   0.109   2.342
 8940SOL    HW227720   5.677   0.037   2.431
 8941SOL     OW27721   4.658   1.349   6.472
 8941SOL    HW127722   4.732   1.391   6.525
 8941SOL    HW227723   4.695   1.301   6.393
 8942SOL     OW27724   1.249   2.877   5.580
 8942SOL    HW127725   1.236   2.814   5.504
 8942SOL    HW227726   1.317   2.946   5.556
 8943SOL     OW27727   5.143   3.540   0.669
 8943SOL    HW127728   5.125   3.480   0.590
 8943SOL    HW227729   5.170   3.484   0.747
 8944SOL     OW27730   4.340   5.484   1.634
 8944SOL    HW127731   4.333   5.547   1.557
 8944SOL    HW227732   4.387   5.400   1.605
 8945SOL     OW27733   1.569   0.859   4.618
 8945SOL    HW127734   1.576   0.930   4.548
 8945SOL    HW227735   1.541   0.900   4.704
 8946SOL     OW27736   4.072   1.645   4.627
 8946SOL    HW127737   4.146   1.607   4.573
 8946SOL    HW227738   4.109   1.700   4.701
 8947SOL     OW27739   3.610   3.905   5.027
 8947SOL    HW127740   3.675   3.839   5.063
 8947SOL    HW227741   3.657   3.971   4.968
 8948SOL     OW27742   6.050   4.895   2.634
 8948SOL    HW127743   5.982   4.951   2.681
 8948SOL    HW227744   6.133   4.889   2.690
 8949SOL     OW27745   2.423   5.130   6.315
 8949SOL    HW127746   2.329   5.149   6.347
 8949SOL    HW227747   2.484   5.200   6.352
 8950SOL     OW27748   4.858   2.428   4.623
 8950SOL    HW127749   4.814   2.473   4.545
 8950SOL    HW227750   4.814   2.457   4.708
 8951SOL     OW27751   2.208   1.994   5.619
 8951SOL    HW127752   2.180   2.054   5.544
 8951SOL    HW227753   2.307   1.977   5.613
 8952SOL     OW27754   6.429   0.064   3.478
 8952SOL    HW127755   6.444   7.013   3.407
 8952SOL    HW227756   6.384   0.020   3.557
 8953SOL     OW27757   1.636   4.955   6.594
 8953SOL    HW127758   1.636   4.935   6.496
 8953SOL    HW227759   1.556   4.911   6.637
 8954SOL     OW27760   1.931   6.550   5.936
 8954SOL    HW127761   1.981   6.637   5.928
 8954SOL    HW227762   1.883   6.531   5.851
 8955SOL     OW27763   6.449   3.737   4.024
 8955SOL    HW127764   6.409   3.763   3.936
 8955SOL    HW227765   6.391   3.669   4.068
 8956SOL     OW27766   0.969   1.167   5.132
 8956SOL    HW127767   0.874   1.196   5.126
 8956SOL    HW227768   1.000   1.175   5.227
 8957SOL     OW27769   2.582   5.448   2.039
 8957SOL    HW127770   2.571   5.353   2.009
 8957SOL    HW227771   2.666   5.486   2.000
 8958SOL     OW27772   2.435   0.741   4.324
 8958SOL    HW127773   2.391   0.745   4.234
 8958SOL    HW227774   2.428   0.830   4.369
 8959SOL     OW27775   3.055   4.735   0.511
 8959SOL    HW127776   2.956   4.720   0.500
 8959SOL    HW227777   3.086   4.804   0.446
 8960SOL     OW27778   3.801   5.968   1.171
 8960SOL    HW127779   3.747   6.044   1.206
 8960SOL    HW227780   3.813   5.899   1.242
 8961SOL     OW27781   1.748   2.285   3.849
 8961SOL    HW127782   1.686   2.363   3.843
 8961SOL    HW227783   1.706   2.207   3.803
 8962SOL     OW27784   5.022   0.361   3.166
 8962SOL    HW127785   5.081   0.441   3.158
 8962SOL    HW227786   4.927   0.390   3.178
 8963SOL     OW27787   6.941   0.842   3.529
 8963SOL    HW127788   6.983   0.921   3.484
 8963SOL    HW227789   6.844   0.839   3.508
 8964SOL     OW27790   6.713   4.140   2.836
 8964SOL    HW127791   6.717   4.040   2.834
 8964SOL    HW227792   6.751   4.173   2.922
 8965SOL     OW27793   1.362   5.633   1.875
 8965SOL    HW127794   1.354   5.626   1.775
 8965SOL    HW227795   1.376   5.729   1.900
 8966SOL     OW27796   3.264   2.799   5.550
 8966SOL    HW127797   3.283   2.894   5.526
 8966SOL    HW227798   3.258   2.745   5.466
 8967SOL     OW27799   4.538   7.011   0.796
 8967SOL    HW127800   4.592   0.054   0.737
 8967SOL    HW227801   4.494   6.940   0.741
 8968SOL     OW27802   4.983   4.835   2.769
 8968SOL    HW127803   5.054   4.905   2.763
 8968SOL    HW227804   4.970   4.809   2.865
 8969SOL     OW27805   6.751   1.014   4.458
 8969SOL    HW127806   6.847   0.987   4.452
 8969SOL    HW227807   6.720   1.049   4.370
 8970SOL     OW27808   3.533   2.094   0.991
 8970SOL    HW127809   3.483   2.168   0.946
 8970SOL    HW227810   3.628   2.093   0.960
 8971SOL     OW27811   4.626   6.146   3.123
 8971SOL    HW127812   4.566   6.190   3.189
 8971SOL    HW227813   4.572   6.102   3.052
 8972SOL     OW27814   5.390   0.565   4.793
 8972SOL    HW127815   5.415   0.649   4.841
 8972SOL    HW227816   5.471   0.527   4.748
 8973SOL     OW27817   1.915   4.499   0.204
 8973SOL    HW127818   1.900   4.529   0.298
 8973SOL    HW227819   1.951   4.576   0.150
 8974SOL     OW27820   0.226   2.828   3.700
 8974SOL    HW127821   0.241   2.900   3.768
 8974SOL    HW227822   0.172   2.754   3.740
 8975SOL     OW27823   3.307   0.024   6.853
 8975SOL    HW127824   3.377   7.004   6.914
 8975SOL    HW227825   3.266   6.969   6.799
 8976SOL     OW27826   0.456   4.771   4.720
 8976SOL    HW127827   0.506   4.767   4.806
 8976SOL    HW227828   0.361   4.797   4.738
 8977SOL     OW27829   5.662   0.971   6.400
 8977SOL    HW127830   5.736   1.027   6.437
 8977SOL    HW227831   5.656   0.885   6.450
 8978SOL     OW27832   5.699   5.778   1.127
 8978SOL    HW127833   5.701   5.678   1.126
 8978SOL    HW227834   5.678   5.810   1.219
 8979SOL     OW27835   1.815   5.234   4.919
 8979SOL    HW127836   1.892   5.256   4.859
 8979SOL    HW227837   1.751   5.310   4.920
 8980SOL     OW27838   3.846   2.953   4.348
 8980SOL    HW127839   3.857   2.932   4.445
 8980SOL    HW227840   3.928   2.999   4.314
 8981SOL     OW27841   2.892   1.094   5.507
 8981SOL    HW127842   2.906   1.053   5.417
 8981SOL    HW227843   2.813   1.052   5.552
 8982SOL     OW27844   4.254   4.444   0.131
 8982SOL    HW127845   4.233   4.542   0.133
 8982SOL    HW227846   4.276   4.413   0.224
 8983SOL     OW27847   5.414   5.232   0.605
 8983SOL    HW127848   5.316   5.216   0.612
 8983SOL    HW227849   5.445   5.208   0.513
 8984SOL     OW27850   1.599   6.685   2.982
 8984SOL    HW127851   1.607   6.633   3.068
 8984SOL    HW227852   1.598   6.622   2.905
 8985SOL     OW27853   3.311   3.120   5.799
 8985SOL    HW127854   3.322   3.219   5.792
 8985SOL    HW227855   3.363   3.087   5.878
 8986SOL     OW27856   3.639   6.175   2.728
 8986SOL    HW127857   3.697   6.255   2.709
 8986SOL    HW227858   3.689   6.091   2.708
 8987SOL     OW27859   5.004   6.006   1.886
 8987SOL    HW127860   5.084   6.050   1.846
 8987SOL    HW227861   5.033   5.927   1.941
 8988SOL     OW27862   0.837   5.770   5.188
 8988SOL    HW127863   0.886   5.757   5.274
 8988SOL    HW227864   0.772   5.696   5.175
 8989SOL     OW27865   3.030   3.159   0.016
 8989SOL    HW127866   2.966   3.183   0.089
 8989SOL    HW227867   3.074   3.242   6.999
 8990SOL     OW27868   0.174   6.461   3.502
 8990SOL    HW127869   0.123   6.475   3.417
 8990SOL    HW227870   0.255   6.519   3.503
 8991SOL     OW27871   1.510   1.971   5.176
 8991SOL    HW127872   1.454   1.918   5.112
 8991SOL    HW227873   1.507   2.068   5.151
 8992SOL     OW27874   6.290   2.282   0.617
 8992SOL    HW127875   6.280   2.333   0.702
 8992SOL    HW227876   6.300   2.184   0.638
 8993SOL     OW27877   4.597   2.629   0.560
 8993SOL    HW127878   4.588   2.567   0.482
 8993SOL    HW227879   4.582   2.723   0.530
 8994SOL     OW27880   1.784   5.994   3.937
 8994SOL    HW127881   1.829   5.966   4.021
 8994SOL    HW227882   1.801   6.091   3.919
 8995SOL     OW27883   0.220   0.726   0.604
 8995SOL    HW127884   0.245   0.787   0.529
 8995SOL    HW227885   0.120   0.722   0.611
 8996SOL     OW27886   4.468   6.142   5.420
 8996SOL    HW127887   4.523   6.204   5.477
 8996SOL    HW227888   4.508   6.050   5.424
 8997SOL     OW27889   6.124   0.711   5.166
 8997SOL    HW127890   6.085   0.702   5.075
 8997SOL    HW227891   6.173   0.628   5.190
 8998SOL     OW27892   6.139   3.200   4.589
 8998SOL    HW127893   6.125   3.128   4.521
 8998SOL    HW227894   6.223   3.183   4.640
 8999SOL     OW27895   3.674   6.545   5.581
 8999SOL    HW127896   3.725   6.568   5.664
 8999SOL    HW227897   3.576   6.551   5.599
 9000SOL     OW27898   1.655   4.234   1.070
 9000SOL    HW127899   1.660   4.138   1.043
 9000SOL    HW227900   1.568   4.252   1.115
 9001SOL     OW27901   0.743   5.832   2.561
 9001SOL    HW127902   0.737   5.749   2.617
 9001SOL    HW227903   0.828   5.881   2.584
 9002SOL     OW27904   0.976   4.486   0.180
 9002SOL    HW127905   0.926   4.454   0.099
 9002SOL    HW227906   1.068   4.514   0.153
 9003SOL     OW27907   5.487   0.352   1.147
 9003SOL    HW127908   5.538   0.359   1.232
 9003SOL    HW227909   5.505   0.263   1.104
 9004SOL     OW27910   4.409   4.877   6.847
 9004SOL    HW127911   4.437   4.798   6.791
 9004SOL    HW227912   4.324   4.915   6.810
 9005SOL     OW27913   5.084   1.500   5.456
 9005SOL    HW127914   5.139   1.583   5.445
 9005SOL    HW227915   5.017   1.494   5.382
 9006SOL     OW27916   3.820   5.852   0.429
 9006SOL    HW127917   3.860   5.940   0.402
 9006SOL    HW227918   3.885   5.802   0.486
 9007SOL     OW27919   2.229   0.663   2.763
 9007SOL    HW127920   2.164   0.591   2.740
 9007SOL    HW227921   2.297   0.671   2.690
 9008SOL     OW27922   0.826   6.218   2.434
 9008SOL    HW127923   0.759   6.284   2.469
 9008SOL    HW227924   0.778   6.144   2.387
 9009SOL     OW27925   3.372   6.281   1.114
 9009SOL    HW127926   3.460   6.319   1.085
 9009SOL    HW227927   3.300   6.349   1.099
 9010SOL     OW27928   1.458   5.897   4.240
 9010SOL    HW127929   1.494   5.816   4.286
 9010SOL    HW227930   1.360   5.885   4.223
 9011SOL     OW27931   2.499   2.086   1.874
 9011SOL    HW127932   2.509   1.986   1.875
 9011SOL    HW227933   2.477   2.116   1.782
 9012SOL     OW27934   1.906   6.377   6.954
 9012SOL    HW127935   1.837   6.321   6.908
 9012SOL    HW227936   1.977   6.404   6.889
 9013SOL     OW27937   2.056   6.572   4.111
 9013SOL    HW127938   1.982   6.546   4.173
 9013SOL    HW227939   2.020   6.636   4.042
 9014SOL     OW27940   5.333   2.982   3.436
 9014SOL    HW127941   5.418   2.984   3.384
 9014SOL    HW227942   5.264   3.038   3.391
 9015SOL     OW27943   5.181   1.304   6.682
 9015SOL    HW127944   5.181   1.287   6.780
 9015SOL    HW227945   5.166   1.402   6.665
 9016SOL     OW27946   5.039   5.364   6.433
 9016SOL    HW127947   5.133   5.337   6.452
 9016SOL    HW227948   4.977   5.291   6.463
 9017SOL     OW27949   4.025   0.233   4.088
 9017SOL    HW127950   3.943   0.180   4.065
 9017SOL    HW227951   4.034   0.238   4.187
 9018SOL     OW27952   4.159   4.586   6.354
 9018SOL    HW127953   4.163   4.683   6.379
 9018SOL    HW227954   4.218   4.570   6.275
 9019SOL     OW27955   0.625   3.773   3.926
 9019SOL    HW127956   0.609   3.674   3.925
 9019SOL    HW227957   0.694   3.794   3.995
 9020SOL     OW27958   5.448   5.865   2.680
 9020SOL    HW127959   5.397   5.797   2.734
 9020SOL    HW227960   5.514   5.818   2.622
 9021SOL     OW27961   0.391   0.871   4.626
 9021SOL    HW127962   0.330   0.928   4.680
 9021SOL    HW227963   0.486   0.894   4.647
 9022SOL     OW27964   4.741   3.829   6.083
 9022SOL    HW127965   4.789   3.916   6.096
 9022SOL    HW227966   4.722   3.788   6.172
 9023SOL     OW27967   5.838   4.543   0.630
 9023SOL    HW127968   5.790   4.514   0.712
 9023SOL    HW227969   5.773   4.582   0.564
 9024SOL     OW27970   2.379   6.167   6.173
 9024SOL    HW127971   2.364   6.121   6.260
 9024SOL    HW227972   2.333   6.256   6.173
 9025SOL     OW27973   0.886   5.747   1.164
 9025SOL    HW127974   0.933   5.749   1.076
 9025SOL    HW227975   0.788   5.755   1.150
 9026SOL     OW27976   5.293   1.749   0.464
 9026SOL    HW127977   5.242   1.832   0.485
 9026SOL    HW227978   5.229   1.674   0.448
 9027SOL     OW27979   0.828   3.848   3.287
 9027SOL    HW127980   0.895   3.893   3.227
 9027SOL    HW227981   0.792   3.915   3.353
 9028SOL     OW27982   3.244   5.355   5.990
 9028SOL    HW127983   3.339   5.355   5.961
 9028SOL    HW227984   3.237   5.323   6.084
 9029SOL     OW27985   4.413   6.996   4.381
 9029SOL    HW127986   4.349   7.000   4.458
 9029SOL    HW227987   4.379   6.930   4.313
 9030SOL     OW27988   3.000   1.493   2.446
 9030SOL    HW127989   3.084   1.438   2.444
 9030SOL    HW227990   3.007   1.561   2.519
 9031SOL     OW27991   4.652   6.842   4.456
 9031SOL    HW127992   4.595   6.905   4.510
 9031SOL    HW227993   4.647   6.868   4.360
 9032SOL     OW27994   4.833   3.761   2.399
 9032SOL    HW127995   4.885   3.804   2.325
 9032SOL    HW227996   4.756   3.819   2.424
 9033SOL     OW27997   0.975   0.125   3.130
 9033SOL    HW127998   0.895   0.165   3.175
 9033SOL    HW227999   0.993   0.034   3.169
 9034SOL     OW28000   4.512   0.202   4.308
 9034SOL    HW128001   4.434   0.264   4.309
 9034SOL    HW228002   4.486   0.114   4.346
 9035SOL     OW28003   2.315   4.848   6.497
 9035SOL    HW128004   2.401   4.802   6.472
 9035SOL    HW228005   2.282   4.812   6.584
 9036SOL     OW28006   1.583   4.079   5.499
 9036SOL    HW128007   1.655   4.010   5.502
 9036SOL    HW228008   1.610   4.157   5.557
 9037SOL     OW28009   1.382   1.482   3.112
 9037SOL    HW128010   1.367   1.551   3.182
 9037SOL    HW228011   1.365   1.391   3.152
 9038SOL     OW28012   4.466   2.733   5.768
 9038SOL    HW128013   4.502   2.822   5.740
 9038SOL    HW228014   4.512   2.661   5.715
 9039SOL     OW28015   4.049   5.616   6.490
 9039SOL    HW128016   4.083   5.710   6.500
 9039SOL    HW228017   4.106   5.567   6.424
 9040SOL     OW28018   2.337   1.852   1.485
 9040SOL    HW128019   2.399   1.813   1.418
 9040SOL    HW228020   2.387   1.873   1.569
 9041SOL     OW28021   6.857   2.192   2.098
 9041SOL    HW128022   6.816   2.101   2.099
 9041SOL    HW228023   6.784   2.261   2.094
 9042SOL     OW28024   3.605   6.142   0.339
 9042SOL    HW128025   3.620   6.090   0.423
 9042SOL    HW228026   3.690   6.149   0.287
 9043SOL     OW28027   3.255   2.085   0.363
 9043SOL    HW128028   3.223   2.026   0.438
 9043SOL    HW228029   3.256   2.180   0.394
 9044SOL     OW28030   0.693   1.312   0.312
 9044SOL    HW128031   0.731   1.343   0.225
 9044SOL    HW228032   0.743   1.355   0.387
 9045SOL     OW28033   3.850   1.789   3.116
 9045SOL    HW128034   3.879   1.745   3.201
 9045SOL    HW228035   3.865   1.728   3.039
 9046SOL     OW28036   3.259   3.377   2.433
 9046SOL    HW128037   3.182   3.329   2.474
 9046SOL    HW228038   3.327   3.311   2.401
 9047SOL     OW28039   1.368   3.786   6.307
 9047SOL    HW128040   1.273   3.787   6.338
 9047SOL    HW228041   1.429   3.775   6.386
 9048SOL     OW28042   6.713   1.467   6.397
 9048SOL    HW128043   6.765   1.473   6.482
 9048SOL    HW228044   6.634   1.408   6.411
 9049SOL     OW28045   3.074   6.990   6.057
 9049SOL    HW128046   3.016   6.961   5.982
 9049SOL    HW228047   3.138   6.916   6.081
 9050SOL     OW28048   0.970   4.748   0.945
 9050SOL    HW128049   0.896   4.693   0.907
 9050SOL    HW228050   0.945   4.845   0.941
 9051SOL     OW28051   2.693   1.010   1.462
 9051SOL    HW128052   2.770   1.066   1.430
 9051SOL    HW228053   2.714   0.973   1.553
 9052SOL     OW28054   1.196   2.453   5.360
 9052SOL    HW128055   1.238   2.363   5.351
 9052SOL    HW228056   1.158   2.464   5.452
 9053SOL     OW28057   1.604   1.038   0.170
 9053SOL    HW128058   1.585   1.064   0.075
 9053SOL    HW228059   1.522   1.001   0.212
 9054SOL     OW28060   2.216   5.425   2.405
 9054SOL    HW128061   2.284   5.417   2.332
 9054SOL    HW228062   2.261   5.418   2.494
 9055SOL     OW28063   0.054   3.096   4.609
 9055SOL    HW128064   0.023   3.179   4.655
 9055SOL    HW228065   0.118   3.047   4.669
 9056SOL     OW28066   6.570   2.720   2.708
 9056SOL    HW128067   6.490   2.736   2.765
 9056SOL    HW228068   6.581   2.621   2.694
 9057SOL     OW28069   4.309   1.840   4.383
 9057SOL    HW128070   4.216   1.805   4.397
 9057SOL    HW228071   4.327   1.847   4.285
 9058SOL     OW28072   2.403   0.290   5.807
 9058SOL    HW128073   2.457   0.356   5.859
 9058SOL    HW228074   2.442   0.199   5.819
 9059SOL     OW28075   1.229   2.217   2.604
 9059SOL    HW128076   1.217   2.242   2.509
 9059SOL    HW228077   1.209   2.120   2.616
 9060SOL     OW28078   5.250   2.807   5.729
 9060SOL    HW128079   5.311   2.730   5.748
 9060SOL    HW228080   5.166   2.774   5.686
 9061SOL     OW28081   2.954   5.489   2.919
 9061SOL    HW128082   2.998   5.575   2.894
 9061SOL    HW228083   2.930   5.491   3.016
 9062SOL     OW28084   1.526   5.968   1.187
 9062SOL    HW128085   1.584   5.948   1.108
 9062SOL    HW228086   1.552   5.908   1.263
 9063SOL     OW28087   2.887   1.721   1.977
 9063SOL    HW128088   2.931   1.671   2.051
 9063SOL    HW228089   2.893   1.819   1.994
 9064SOL     OW28090   5.579   3.484   0.313
 9064SOL    HW128091   5.538   3.526   0.394
 9064SOL    HW228092   5.660   3.537   0.286
 9065SOL     OW28093   2.266   0.689   6.888
 9065SOL    HW128094   2.196   0.665   6.821
 9065SOL    HW228095   2.298   0.606   6.933
 9066SOL     OW28096   4.962   6.863   0.060
 9066SOL    HW128097   5.032   6.795   0.085
 9066SOL    HW228098   4.952   6.929   0.133
 9067SOL     OW28099   1.581   6.931   2.084
 9067SOL    HW128100   1.644   7.008   2.092
 9067SOL    HW228101   1.491   6.957   2.119
 9068SOL     OW28102   1.211   6.213   6.549
 9068SOL    HW128103   1.278   6.285   6.566
 9068SOL    HW228104   1.173   6.182   6.636
 9069SOL     OW28105   1.263   2.217   6.124
 9069SOL    HW128106   1.214   2.254   6.045
 9069SOL    HW228107   1.199   2.176   6.188
 9070SOL     OW28108   1.375   4.245   3.523
 9070SOL    HW128109   1.435   4.316   3.562
 9070SOL    HW228110   1.329   4.197   3.598
 9071SOL     OW28111   4.837   5.763   0.287
 9071SOL    HW128112   4.901   5.838   0.302
 9071SOL    HW228113   4.786   5.779   0.203
 9072SOL     OW28114   5.901   4.887   7.015
 9072SOL    HW128115   5.973   4.944   0.036
 9072SOL    HW228116   5.936   4.840   6.933
 9073SOL     OW28117   1.806   0.721   1.591
 9073SOL    HW128118   1.895   0.733   1.634
 9073SOL    HW228119   1.815   0.660   1.513
 9074SOL     OW28120   0.361   0.360   3.378
 9074SOL    HW128121   0.408   0.306   3.448
 9074SOL    HW228122   0.417   0.440   3.355
 9075SOL     OW28123   0.650   0.501   1.914
 9075SOL    HW128124   0.685   0.587   1.950
 9075SOL    HW228125   0.667   0.496   1.816
 9076SOL     OW28126   6.855   1.826   5.324
 9076SOL    HW128127   6.768   1.813   5.277
 9076SOL    HW228128   6.871   1.924   5.338
 9077SOL     OW28129   6.443   5.934   1.572
 9077SOL    HW128130   6.408   5.996   1.502
 9077SOL    HW228131   6.388   5.850   1.572
 9078SOL     OW28132   3.887   3.031   5.036
 9078SOL    HW128133   3.951   3.089   4.987
 9078SOL    HW228134   3.797   3.035   4.992
 9079SOL     OW28135   4.080   0.968   5.503
 9079SOL    HW128136   4.085   1.065   5.529
 9079SOL    HW228137   3.997   0.953   5.448
 9080SOL     OW28138   5.521   1.594   0.482
 9080SOL    HW128139   5.491   1.499   0.470
 9080SOL    HW228140   5.442   1.655   0.479
 9081SOL     OW28141   5.310   0.249   2.678
 9081SOL    HW128142   5.410   0.252   2.672
 9081SOL    HW228143   5.282   0.158   2.708
 9082SOL     OW28144   3.279   0.756   2.540
 9082SOL    HW128145   3.243   0.779   2.449
 9082SOL    HW228146   3.377   0.740   2.532
 9083SOL     OW28147   4.573   4.561   4.095
 9083SOL    HW128148   4.590   4.557   4.193
 9083SOL    HW228149   4.481   4.598   4.079
 9084SOL     OW28150   3.423   4.076   2.776
 9084SOL    HW128151   3.367   4.090   2.695
 9084SOL    HW228152   3.465   3.985   2.773
 9085SOL     OW28153   0.579   2.064   0.638
 9085SOL    HW128154   0.532   2.142   0.597
 9085SOL    HW228155   0.673   2.090   0.661
 9086SOL     OW28156   0.036   3.752   0.266
 9086SOL    HW128157   0.007   3.695   0.189
 9086SOL    HW228158   0.021   3.848   0.245
 9087SOL     OW28159   5.119   3.592   2.149
 9087SOL    HW128160   5.136   3.494   2.142
 9087SOL    HW228161   5.022   3.610   2.134
 9088SOL     OW28162   4.987   6.399   0.954
 9088SOL    HW128163   4.924   6.400   1.031
 9088SOL    HW228164   4.945   6.351   0.877
 9089SOL     OW28165   4.331   0.293   6.094
 9089SOL    HW128166   4.407   0.237   6.060
 9089SOL    HW228167   4.248   0.272   6.042
 9090SOL     OW28168   5.579   1.610   3.419
 9090SOL    HW128169   5.555   1.630   3.514
 9090SOL    HW228170   5.504   1.560   3.375
 9091SOL     OW28171   3.771   2.523   6.845
 9091SOL    HW128172   3.688   2.514   6.900
 9091SOL    HW228173   3.844   2.564   6.900
 9092SOL     OW28174   0.126   2.969   6.609
 9092SOL    HW128175   0.210   2.915   6.619
 9092SOL    HW228176   0.112   3.023   6.692
 9093SOL     OW28177   1.850   6.259   4.629
 9093SOL    HW128178   1.921   6.236   4.696
 9093SOL    HW228179   1.760   6.243   4.669
 9094SOL     OW28180   1.237   4.023   1.422
 9094SOL    HW128181   1.305   3.951   1.409
 9094SOL    HW228182   1.146   3.984   1.417
 9095SOL     OW28183   6.975   6.597   5.868
 9095SOL    HW128184   6.945   6.618   5.775
 9095SOL    HW228185   6.941   6.507   5.894
 9096SOL     OW28186   6.465   5.358   3.829
 9096SOL    HW128187   6.443   5.428   3.761
 9096SOL    HW228188   6.548   5.385   3.879
 9097SOL     OW28189   1.073   2.627   5.953
 9097SOL    HW128190   1.042   2.548   5.901
 9097SOL    HW228191   1.069   2.607   6.051
 9098SOL     OW28192   2.207   4.104   3.552
 9098SOL    HW128193   2.251   4.094   3.463
 9098SOL    HW228194   2.143   4.182   3.549
 9099SOL     OW28195   2.417   1.664   6.576
 9099SOL    HW128196   2.388   1.710   6.492
 9099SOL    HW228197   2.336   1.636   6.628
 9100SOL     OW28198   1.667   4.334   4.123
 9100SOL    HW128199   1.760   4.359   4.152
 9100SOL    HW228200   1.602   4.361   4.194
 9101SOL     OW28201   0.503   2.450   0.847
 9101SOL    HW128202   0.561   2.370   0.866
 9101SOL    HW228203   0.421   2.421   0.798
 9102SOL     OW28204   3.936   6.680   2.927
 9102SOL    HW128205   3.854   6.736   2.915
 9102SOL    HW228206   4.017   6.733   2.902
 9103SOL     OW28207   6.346   1.310   1.087
 9103SOL    HW128208   6.437   1.343   1.062
 9103SOL    HW228209   6.300   1.379   1.143
 9104SOL     OW28210   5.917   1.846   6.363
 9104SOL    HW128211   5.821   1.820   6.353
 9104SOL    HW228212   5.952   1.879   6.275
 9105SOL     OW28213   2.677   1.283   5.582
 9105SOL    HW128214   2.577   1.279   5.580
 9105SOL    HW228215   2.714   1.193   5.561
 9106SOL     OW28216   1.773   3.833   6.895
 9106SOL    HW128217   1.726   3.746   6.903
 9106SOL    HW228218   1.817   3.856   6.982
 9107SOL     OW28219   2.981   1.545   0.353
 9107SOL    HW128220   2.895   1.510   0.390
 9107SOL    HW228221   3.000   1.499   0.266
 9108SOL     OW28222   0.042   5.594   6.043
 9108SOL    HW128223   6.979   5.633   5.999
 9108SOL    HW228224   0.014   5.545   6.127
 9109SOL     OW28225   5.892   3.766   2.853
 9109SOL    HW128226   5.829   3.705   2.806
 9109SOL    HW228227   5.853   3.859   2.856
 9110SOL     OW28228   1.523   6.059   3.251
 9110SOL    HW128229   1.474   6.006   3.319
 9110SOL    HW228230   1.471   6.141   3.228
 9111SOL     OW28231   3.870   2.441   6.375
 9111SOL    HW128232   3.809   2.431   6.454
 9111SOL    HW228233   3.820   2.483   6.299
 9112SOL     OW28234   0.749   5.229   1.909
 9112SOL    HW128235   0.719   5.322   1.884
 9112SOL    HW228236   0.694   5.195   1.985
 9113SOL     OW28237   5.700   0.536   4.205
 9113SOL    HW128238   5.708   0.455   4.263
 9113SOL    HW228239   5.767   0.531   4.131
 9114SOL     OW28240   1.000   6.935   5.797
 9114SOL    HW128241   1.060   6.997   5.848
 9114SOL    HW228242   0.907   6.943   5.833
 9115SOL     OW28243   4.948   4.354   5.098
 9115SOL    HW128244   4.862   4.305   5.083
 9115SOL    HW228245   5.018   4.320   5.036
 9116SOL     OW28246   1.845   0.082   3.804
 9116SOL    HW128247   1.893   7.017   3.833
 9116SOL    HW228248   1.747   0.061   3.793
 9117SOL     OW28249   2.147   6.648   0.075
 9117SOL    HW128250   2.081   6.600   0.132
 9117SOL    HW228251   2.240   6.615   0.095
 9118SOL     OW28252   6.709   3.806   2.004
 9118SOL    HW128253   6.613   3.820   1.980
 9118SOL    HW228254   6.758   3.893   1.999
 9119SOL     OW28255   3.111   1.088   0.674
 9119SOL    HW128256   3.114   1.166   0.737
 9119SOL    HW228257   3.075   1.119   0.586
 9120SOL     OW28258   6.349   3.981   4.451
 9120SOL    HW128259   6.390   3.990   4.361
 9120SOL    HW228260   6.351   3.885   4.480
 9121SOL     OW28261   3.914   0.909   4.509
 9121SOL    HW128262   3.855   0.941   4.434
 9121SOL    HW228263   3.884   0.818   4.538
 9122SOL     OW28264   0.686   2.743   1.704
 9122SOL    HW128265   0.699   2.698   1.616
 9122SOL    HW228266   0.670   2.841   1.688
 9123SOL     OW28267   0.575   5.998   4.470
 9123SOL    HW128268   0.481   6.023   4.444
 9123SOL    HW228269   0.576   5.906   4.507
 9124SOL     OW28270   3.121   5.754   0.900
 9124SOL    HW128271   3.053   5.769   0.972
 9124SOL    HW228272   3.156   5.842   0.868
 9125SOL     OW28273   5.257   6.453   1.885
 9125SOL    HW128274   5.286   6.501   1.967
 9125SOL    HW228275   5.321   6.378   1.866
 9126SOL     OW28276   4.520   5.049   0.839
 9126SOL    HW128277   4.429   5.085   0.856
 9126SOL    HW228278   4.588   5.105   0.887
 9127SOL     OW28279   6.481   4.675   5.159
 9127SOL    HW128280   6.528   4.589   5.142
 9127SOL    HW228281   6.511   4.713   5.246
 9128SOL     OW28282   5.661   4.300   5.661
 9128SOL    HW128283   5.631   4.381   5.712
 9128SOL    HW228284   5.654   4.318   5.563
 9129SOL     OW28285   0.574   2.873   0.568
 9129SOL    HW128286   0.573   2.803   0.639
 9129SOL    HW228287   0.486   2.872   0.520
 9130SOL     OW28288   2.916   3.116   5.162
 9130SOL    HW128289   2.935   3.118   5.064
 9130SOL    HW228290   2.839   3.177   5.183
 9131SOL     OW28291   5.410   2.618   0.554
 9131SOL    HW128292   5.331   2.645   0.610
 9131SOL    HW228293   5.377   2.581   0.467
 9132SOL     OW28294   1.129   3.777   3.797
 9132SOL    HW128295   1.221   3.772   3.837
 9132SOL    HW228296   1.064   3.733   3.858
 9133SOL     OW28297   5.808   0.350   1.162
 9133SOL    HW128298   5.791   0.255   1.188
 9133SOL    HW228299   5.777   0.410   1.235
 9134SOL     OW28300   4.929   4.739   0.202
 9134SOL    HW128301   4.859   4.808   0.186
 9134SOL    HW228302   4.934   4.676   0.125
 9135SOL     OW28303   6.377   5.892   2.609
 9135SOL    HW128304   6.431   5.974   2.593
 9135SOL    HW228305   6.435   5.811   2.604
 9136SOL     OW28306   0.454   5.106   0.524
 9136SOL    HW128307   0.378   5.153   0.570
 9136SOL    HW228308   0.469   5.017   0.567
 9137SOL     OW28309   5.571   6.246   5.198
 9137SOL    HW128310   5.657   6.262   5.246
 9137SOL    HW228311   5.527   6.334   5.178
 9138SOL     OW28312   2.511   3.990   6.171
 9138SOL    HW128313   2.560   3.931   6.106
 9138SOL    HW228314   2.576   4.047   6.220
 9139SOL     OW28315   6.757   0.189   1.840
 9139SOL    HW128316   6.830   0.179   1.908
 9139SOL    HW228317   6.675   0.225   1.884
 9140SOL     OW28318   2.102   3.892   2.678
 9140SOL    HW128319   2.055   3.864   2.594
 9140SOL    HW228320   2.108   3.992   2.680
 9141SOL     OW28321   0.380   6.078   4.978
 9141SOL    HW128322   0.386   6.039   4.887
 9141SOL    HW228323   0.437   6.161   4.983
 9142SOL     OW28324   0.993   4.273   3.468
 9142SOL    HW128325   1.018   4.331   3.546
 9142SOL    HW228326   1.054   4.292   3.391
 9143SOL     OW28327   6.485   3.736   3.084
 9143SOL    HW128328   6.516   3.674   3.012
 9143SOL    HW228329   6.564   3.767   3.137
 9144SOL     OW28330   3.143   4.239   5.304
 9144SOL    HW128331   3.160   4.180   5.225
 9144SOL    HW228332   3.216   4.307   5.312
 9145SOL     OW28333   1.581   6.038   5.378
 9145SOL    HW128334   1.495   6.009   5.336
 9145SOL    HW228335   1.655   5.979   5.345
 9146SOL     OW28336   6.184   2.253   3.282
 9146SOL    HW128337   6.101   2.234   3.229
 9146SOL    HW228338   6.190   2.351   3.301
 9147SOL     OW28339   3.871   0.376   5.723
 9147SOL    HW128340   3.817   0.382   5.639
 9147SOL    HW228341   3.915   0.286   5.728
 9148SOL     OW28342   4.941   5.553   1.742
 9148SOL    HW128343   4.953   5.584   1.836
 9148SOL    HW228344   4.843   5.538   1.725
 9149SOL     OW28345   1.207   3.681   1.273
 9149SOL    HW128346   1.302   3.707   1.258
 9149SOL    HW228347   1.181   3.609   1.207
 9150SOL     OW28348   3.046   3.835   6.827
 9150SOL    HW128349   3.004   3.856   6.739
 9150SOL    HW228350   3.141   3.868   6.827
 9151SOL     OW28351   1.968   2.950   3.632
 9151SOL    HW128352   1.886   2.992   3.673
 9151SOL    HW228353   2.035   3.021   3.611
 9152SOL     OW28354   2.075   4.385   2.455
 9152SOL    HW128355   2.007   4.355   2.388
 9152SOL    HW228356   2.164   4.394   2.410
 9153SOL     OW28357   0.252   3.208   0.023
 9153SOL    HW128358   0.176   3.261   0.060
 9153SOL    HW228359   0.222   3.158   6.960
 9154SOL     OW28360   4.578   4.538   3.068
 9154SOL    HW128361   4.652   4.480   3.102
 9154SOL    HW228362   4.536   4.496   2.988
 9155SOL     OW28363   1.006   6.327   2.782
 9155SOL    HW128364   0.936   6.374   2.727
 9155SOL    HW228365   1.089   6.382   2.783
 9156SOL     OW28366   6.996   4.077   5.677
 9156SOL    HW128367   6.938   4.127   5.742
 9156SOL    HW228368   0.059   4.042   5.724
 9157SOL     OW28369   2.054   4.337   5.488
 9157SOL    HW128370   2.112   4.283   5.548
 9157SOL    HW228371   2.031   4.424   5.533
 9158SOL     OW28372   6.898   3.895   4.722
 9158SOL    HW128373   6.958   3.840   4.663
 9158SOL    HW228374   6.895   3.854   4.813
 9159SOL     OW28375   2.211   1.121   4.197
 9159SOL    HW128376   2.174   1.124   4.103
 9159SOL    HW228377   2.309   1.137   4.194
 9160SOL     OW28378   1.118   2.764   6.604
 9160SOL    HW128379   1.213   2.794   6.599
 9160SOL    HW228380   1.063   2.816   6.538
 9161SOL     OW28381   6.325   3.160   2.955
 9161SOL    HW128382   6.234   3.196   2.975
 9161SOL    HW228383   6.317   3.076   2.903
 9162SOL     OW28384   3.807   2.304   1.622
 9162SOL    HW128385   3.826   2.400   1.599
 9162SOL    HW228386   3.742   2.300   1.698
 9163SOL     OW28387   1.973   2.432   4.073
 9163SOL    HW128388   1.923   2.490   4.009
 9163SOL    HW228389   1.935   2.444   4.165
 9164SOL     OW28390   2.421   6.556   6.674
 9164SOL    HW128391   2.419   6.510   6.763
 9164SOL    HW228392   2.400   6.653   6.686
 9165SOL     OW28393   5.061   1.588   6.126
 9165SOL    HW128394   4.987   1.577   6.060
 9165SOL    HW228395   5.117   1.505   6.126
 9166SOL     OW28396   4.216   6.570   1.940
 9166SOL    HW128397   4.253   6.663   1.934
 9166SOL    HW228398   4.152   6.556   1.864
 9167SOL     OW28399   1.464   1.486   4.587
 9167SOL    HW128400   1.540   1.471   4.523
 9167SOL    HW228401   1.499   1.530   4.670
 9168SOL     OW28402   6.091   5.793   5.170
 9168SOL    HW128403   6.037   5.733   5.230
 9168SOL    HW228404   6.047   5.797   5.080
 9169SOL     OW28405   6.430   5.987   0.417
 9169SOL    HW128406   6.435   5.964   0.320
 9169SOL    HW228407   6.355   6.052   0.432
 9170SOL     OW28408   1.925   0.484   5.651
 9170SOL    HW128409   1.931   0.582   5.632
 9170SOL    HW228410   2.017   0.449   5.672
 9171SOL     OW28411   3.574   5.967   0.065
 9171SOL    HW128412   3.594   6.051   0.115
 9171SOL    HW228413   3.495   5.922   0.107
 9172SOL     OW28414   4.452   1.416   5.539
 9172SOL    HW128415   4.510   1.334   5.539
 9172SOL    HW228416   4.481   1.477   5.613
 9173SOL     OW28417   6.219   3.703   5.768
 9173SOL    HW128418   6.172   3.781   5.809
 9173SOL    HW228419   6.312   3.698   5.803
 9174SOL     OW28420   6.088   4.652   1.044
 9174SOL    HW128421   6.184   4.631   1.056
 9174SOL    HW228422   6.036   4.624   1.125
 9175SOL     OW28423   2.084   0.643   1.452
 9175SOL    HW128424   1.997   0.596   1.434
 9175SOL    HW228425   2.141   0.586   1.511
 9176SOL     OW28426   2.105   0.927   1.958
 9176SOL    HW128427   2.057   1.011   1.930
 9176SOL    HW228428   2.195   0.925   1.915
 9177SOL     OW28429   0.948   6.153   3.920
 9177SOL    HW128430   0.976   6.074   3.865
 9177SOL    HW228431   0.998   6.234   3.888
 9178SOL     OW28432   1.309   4.114   0.716
 9178SOL    HW128433   1.390   4.079   0.763
 9178SOL    HW228434   1.230   4.111   0.777
 9179SOL     OW28435   3.988   5.128   3.713
 9179SOL    HW128436   3.903   5.173   3.739
 9179SOL    HW228437   3.970   5.030   3.698
 9180SOL     OW28438   0.314   0.738   5.392
 9180SOL    HW128439   0.220   0.751   5.358
 9180SOL    HW228440   0.350   0.825   5.424
 9181SOL     OW28441   2.742   1.657   4.205
 9181SOL    HW128442   2.719   1.575   4.153
 9181SOL    HW228443   2.711   1.646   4.299
 9182SOL     OW28444   0.145   2.141   2.471
 9182SOL    HW128445   0.181   2.159   2.380
 9182SOL    HW228446   0.220   2.139   2.537
 9183SOL     OW28447   1.801   1.294   6.111
 9183SOL    HW128448   1.799   1.247   6.023
 9183SOL    HW228449   1.879   1.356   6.113
 9184SOL     OW28450   2.801   4.708   1.141
 9184SOL    HW128451   2.722   4.738   1.196
 9184SOL    HW228452   2.864   4.657   1.199
 9185SOL     OW28453   1.659   0.116   5.944
 9185SOL    HW128454   1.725   0.185   5.974
 9185SOL    HW228455   1.605   0.085   6.022
 9186SOL     OW28456   5.529   6.550   6.798
 9186SOL    HW128457   5.612   6.571   6.849
 9186SOL    HW228458   5.530   6.599   6.711
 9187SOL     OW28459   5.167   2.714   0.707
 9187SOL    HW128460   5.194   2.711   0.803
 9187SOL    HW228461   5.105   2.637   0.688
 9188SOL     OW28462   1.204   0.305   1.636
 9188SOL    HW128463   1.200   0.341   1.543
 9188SOL    HW228464   1.298   0.309   1.669
 9189SOL     OW28465   3.272   0.553   5.402
 9189SOL    HW128466   3.186   0.508   5.383
 9189SOL    HW228467   3.255   0.643   5.442
 9190SOL     OW28468   4.372   0.955   5.629
 9190SOL    HW128469   4.352   0.893   5.553
 9190SOL    HW228470   4.394   0.902   5.711
 9191SOL     OW28471   5.376   6.909   1.680
 9191SOL    HW128472   5.300   6.974   1.684
 9191SOL    HW228473   5.380   6.857   1.765
 9192SOL     OW28474   5.132   3.994   4.842
 9192SOL    HW128475   5.073   3.914   4.852
 9192SOL    HW228476   5.143   4.016   4.744
 9193SOL     OW28477   3.682   4.079   3.285
 9193SOL    HW128478   3.765   4.042   3.245
 9193SOL    HW228479   3.630   4.129   3.216
 9194SOL     OW28480   3.849   4.861   3.000
 9194SOL    HW128481   3.863   4.957   3.019
 9194SOL    HW228482   3.762   4.831   3.040
 9195SOL     OW28483   0.591   2.660   2.824
 9195SOL    HW128484   0.552   2.707   2.903
 9195SOL    HW228485   0.688   2.639   2.841
 9196SOL     OW28486   4.864   6.210   3.917
 9196SOL    HW128487   4.777   6.206   3.965
 9196SOL    HW228488   4.897   6.117   3.900
 9197SOL     OW28489   4.476   1.604   6.585
 9197SOL    HW128490   4.443   1.568   6.673
 9197SOL    HW228491   4.571   1.634   6.595
 9198SOL     OW28492   5.665   2.594   5.377
 9198SOL    HW128493   5.742   2.541   5.413
 9198SOL    HW228494   5.665   2.685   5.418
 9199SOL     OW28495   1.223   3.300   6.444
 9199SOL    HW128496   1.244   3.316   6.541
 9199SOL    HW228497   1.130   3.265   6.435
 9200SOL     OW28498   4.978   5.811   1.213
 9200SOL    HW128499   5.036   5.825   1.133
 9200SOL    HW228500   4.981   5.714   1.239
 9201SOL     OW28501   0.021   3.424   2.025
 9201SOL    HW128502   6.996   3.336   2.040
 9201SOL    HW228503   6.969   3.493   2.005
 9202SOL     OW28504   2.679   6.094   4.367
 9202SOL    HW128505   2.711   6.140   4.285
 9202SOL    HW228506   2.593   6.047   4.348
 9203SOL     OW28507   4.960   1.005   7.018
 9203SOL    HW128508   4.862   1.007   6.997
 9203SOL    HW228509   5.011   0.977   6.936
 9204SOL     OW28510   5.187   4.599   2.555
 9204SOL    HW128511   5.147   4.540   2.625
 9204SOL    HW228512   5.255   4.660   2.597
 9205SOL     OW28513   4.305   2.287   1.403
 9205SOL    HW128514   4.247   2.364   1.430
 9205SOL    HW228515   4.363   2.315   1.326
 9206SOL     OW28516   6.331   6.046   4.652
 9206SOL    HW128517   6.355   5.989   4.731
 9206SOL    HW228518   6.351   6.141   4.673
 9207SOL     OW28519   4.586   6.518   0.295
 9207SOL    HW128520   4.586   6.425   0.259
 9207SOL    HW228521   4.501   6.535   0.344
 9208SOL     OW28522   4.414   4.561   1.468
 9208SOL    HW128523   4.377   4.496   1.535
 9208SOL    HW228524   4.487   4.615   1.509
 9209SOL     OW28525   4.424   0.380   3.294
 9209SOL    HW128526   4.464   0.381   3.385
 9209SOL    HW228527   4.342   0.437   3.293
 9210SOL     OW28528   0.764   6.632   0.065
 9210SOL    HW128529   0.699   6.589   0.003
 9210SOL    HW228530   0.717   6.702   0.119
 9211SOL     OW28531   4.740   0.948   6.423
 9211SOL    HW128532   4.746   1.045   6.403
 9211SOL    HW228533   4.713   0.936   6.519
 9212SOL     OW28534   5.868   3.471   5.701
 9212SOL    HW128535   5.865   3.415   5.784
 9212SOL    HW228536   5.964   3.480   5.671
 9213SOL     OW28537   6.537   5.772   1.955
 9213SOL    HW128538   6.524   5.673   1.953
 9213SOL    HW228539   6.455   5.817   1.919
 9214SOL     OW28540   2.014   1.422   6.194
 9214SOL    HW128541   2.018   1.522   6.202
 9214SOL    HW228542   2.011   1.381   6.285
 9215SOL     OW28543   0.285   3.881   3.759
 9215SOL    HW128544   0.256   3.924   3.673
 9215SOL    HW228545   0.328   3.793   3.739
 9216SOL     OW28546   2.181   6.143   3.497
 9216SOL    HW128547   2.277   6.161   3.477
 9216SOL    HW228548   2.124   6.209   3.448
 9217SOL     OW28549   3.906   2.134   6.989
 9217SOL    HW128550   3.840   2.157   6.918
 9217SOL    HW228551   3.914   2.212   0.034
 9218SOL     OW28552   5.117   5.979   6.139
 9218SOL    HW128553   5.121   5.882   6.116
 9218SOL    HW228554   5.187   6.000   6.207
 9219SOL     OW28555   3.459   2.061   5.975
 9219SOL    HW128556   3.471   2.145   5.922
 9219SOL    HW228557   3.365   2.027   5.962
 9220SOL     OW28558   0.642   6.260   3.244
 9220SOL    HW128559   0.582   6.328   3.285
 9220SOL    HW228560   0.620   6.250   3.147
 9221SOL     OW28561   3.003   1.927   1.499
 9221SOL    HW128562   3.029   1.937   1.595
 9221SOL    HW228563   3.073   1.967   1.441
 9222SOL     OW28564   1.500   5.191   3.777
 9222SOL    HW128565   1.541   5.101   3.764
 9222SOL    HW228566   1.438   5.188   3.856
 9223SOL     OW28567   6.505   3.455   4.684
 9223SOL    HW128568   6.529   3.548   4.710
 9223SOL    HW228569   6.425   3.425   4.735
 9224SOL     OW28570   1.871   4.327   2.281
 9224SOL    HW128571   1.818   4.406   2.251
 9224SOL    HW228572   1.815   4.268   2.339
 9225SOL     OW28573   0.027   5.406   6.242
 9225SOL    HW128574   0.010   5.445   6.333
 9225SOL    HW228575   6.968   5.348   6.216
 9226SOL     OW28576   0.916   0.556   5.303
 9226SOL    HW128577   0.946   0.586   5.212
 9226SOL    HW228578   0.829   0.600   5.325
 9227SOL     OW28579   3.661   4.175   1.115
 9227SOL    HW128580   3.590   4.243   1.134
 9227SOL    HW228581   3.633   4.086   1.153
 9228SOL     OW28582   4.112   3.362   4.943
 9228SOL    HW128583   4.055   3.370   5.025
 9228SOL    HW228584   4.080   3.285   4.888
 9229SOL     OW28585   0.250   5.274   0.211
 9229SOL    HW128586   0.302   5.191   0.231
 9229SOL    HW228587   0.312   5.351   0.198
 9230SOL     OW28588   4.741   0.104   5.328
 9230SOL    HW128589   4.762   0.174   5.396
 9230SOL    HW228590   4.659   0.054   5.356
 9231SOL     OW28591   6.313   5.988   1.791
 9231SOL    HW128592   6.356   5.965   1.704
 9231SOL    HW228593   6.354   6.072   1.828
 9232SOL     OW28594   1.158   5.752   2.486
 9232SOL    HW128595   1.113   5.827   2.533
 9232SOL    HW228596   1.203   5.786   2.403
 9233SOL     OW28597   0.871   0.167   5.631
 9233SOL    HW128598   0.826   0.125   5.710
 9233SOL    HW228599   0.816   0.245   5.599
 9234SOL     OW28600   3.525   4.566   5.984
 9234SOL    HW128601   3.477   4.568   5.896
 9234SOL    HW228602   3.616   4.527   5.971
 9235SOL     OW28603   2.393   2.269   2.831
 9235SOL    HW128604   2.404   2.187   2.888
 9235SOL    HW228605   2.306   2.313   2.852
 9236SOL     OW28606   1.162   3.136   6.028
 9236SOL    HW128607   1.144   3.232   6.049
 9236SOL    HW228608   1.220   3.096   6.099
 9237SOL     OW28609   6.111   4.936   3.149
 9237SOL    HW128610   6.091   5.034   3.149
 9237SOL    HW228611   6.027   4.885   3.166
 9238SOL     OW28612   1.544   2.776   4.950
 9238SOL    HW128613   1.468   2.768   4.886
 9238SOL    HW228614   1.531   2.857   5.008
 9239SOL     OW28615   1.503   5.737   6.200
 9239SOL    HW128616   1.535   5.666   6.137
 9239SOL    HW228617   1.521   5.827   6.161
 9240SOL     OW28618   4.138   1.705   3.735
 9240SOL    HW128619   4.215   1.641   3.740
 9240SOL    HW228620   4.173   1.799   3.726
 9241SOL     OW28621   5.612   6.467   0.096
 9241SOL    HW128622   5.593   6.439   0.190
 9241SOL    HW228623   5.596   6.390   0.034
 9242SOL     OW28624   1.566   2.430   1.049
 9242SOL    HW128625   1.655   2.458   1.012
 9242SOL    HW228626   1.535   2.498   1.115
 9243SOL     OW28627   2.082   0.043   0.705
 9243SOL    HW128628   2.150   6.988   0.709
 9243SOL    HW228629   2.127   0.129   0.682
 9244SOL     OW28630   2.475   6.061   6.662
 9244SOL    HW128631   2.433   6.042   6.751
 9244SOL    HW228632   2.557   6.005   6.651
 9245SOL     OW28633   0.745   4.970   3.102
 9245SOL    HW128634   0.651   4.989   3.075
 9245SOL    HW228635   0.773   5.032   3.175
 9246SOL     OW28636   5.387   6.295   6.721
 9246SOL    HW128637   5.446   6.328   6.794
 9246SOL    HW228638   5.352   6.372   6.667
 9247SOL     OW28639   3.684   6.852   2.951
 9247SOL    HW128640   3.651   6.946   2.945
 9247SOL    HW228641   3.622   6.793   2.899
 9248SOL     OW28642   2.720   0.205   6.691
 9248SOL    HW128643   2.741   0.208   6.788
 9248SOL    HW228644   2.684   0.294   6.662
 9249SOL     OW28645   3.022   6.800   6.988
 9249SOL    HW128646   2.938   6.793   0.024
 9249SOL    HW228647   3.098   6.760   0.022
 9250SOL     OW28648   0.303   3.695   3.350
 9250SOL    HW128649   0.378   3.734   3.403
 9250SOL    HW228650   0.219   3.745   3.369
 9251SOL     OW28651   3.517   1.831   1.189
 9251SOL    HW128652   3.485   1.818   1.283
 9251SOL    HW228653   3.537   1.928   1.174
 9252SOL     OW28654   5.812   1.327   4.614
 9252SOL    HW128655   5.786   1.420   4.586
 9252SOL    HW228656   5.732   1.278   4.648
 9253SOL     OW28657   2.312   4.851   4.075
 9253SOL    HW128658   2.396   4.901   4.094
 9253SOL    HW228659   2.237   4.890   4.127
 9254SOL     OW28660   0.025   5.215   2.065
 9254SOL    HW128661   0.114   5.258   2.048
 9254SOL    HW228662   0.006   5.148   1.993
 9255SOL     OW28663   6.195   3.456   0.921
 9255SOL    HW128664   6.240   3.488   0.838
 9255SOL    HW228665   6.102   3.427   0.900
 9256SOL     OW28666   2.687   6.694   0.832
 9256SOL    HW128667   2.762   6.748   0.871
 9256SOL    HW228668   2.617   6.680   0.902
 9257SOL     OW28669   6.361   5.943   4.933
 9257SOL    HW128670   6.362   6.021   4.996
 9257SOL    HW228671   6.333   5.861   4.983
 9258SOL     OW28672   4.880   5.142   2.096
 9258SOL    HW128673   4.974   5.172   2.079
 9258SOL    HW228674   4.880   5.071   2.167
 9259SOL     OW28675   0.398   2.302   6.940
 9259SOL    HW128676   0.353   2.219   6.906
 9259SOL    HW228677   0.349   2.336   0.003
 9260SOL     OW28678   4.960   3.739   4.852
 9260SOL    HW128679   4.904   3.703   4.927
 9260SOL    HW228680   4.953   3.679   4.773
 9261SOL     OW28681   1.352   3.030   1.940
 9261SOL    HW128682   1.255   3.010   1.932
 9261SOL    HW228683   1.387   3.062   1.852
 9262SOL     OW28684   6.724   6.275   5.879
 9262SOL    HW128685   6.796   6.263   5.810
 9262SOL    HW228686   6.660   6.198   5.874
 9263SOL     OW28687   2.538   4.564   2.937
 9263SOL    HW128688   2.524   4.467   2.917
 9263SOL    HW228689   2.470   4.619   2.888
 9264SOL     OW28690   5.337   3.600   5.598
 9264SOL    HW128691   5.414   3.660   5.622
 9264SOL    HW228692   5.309   3.549   5.679
 9265SOL     OW28693   4.727   0.633   1.708
 9265SOL    HW128694   4.665   0.582   1.768
 9265SOL    HW228695   4.790   0.688   1.763
 9266SOL     OW28696   1.884   5.013   0.630
 9266SOL    HW128697   1.846   4.972   0.713
 9266SOL    HW228698   1.811   5.056   0.577
 9267SOL     OW28699   6.887   1.752   3.679
 9267SOL    HW128700   6.840   1.669   3.710
 9267SOL    HW228701   6.829   1.801   3.614
 9268SOL     OW28702   0.431   0.782   1.833
 9268SOL    HW128703   0.430   0.686   1.805
 9268SOL    HW228704   0.514   0.826   1.801
 9269SOL     OW28705   4.491   1.039   0.547
 9269SOL    HW128706   4.484   1.138   0.558
 9269SOL    HW228707   4.458   0.993   0.629
 9270SOL     OW28708   2.411   1.204   5.461
 9270SOL    HW128709   2.332   1.143   5.468
 9270SOL    HW228710   2.434   1.218   5.364
 9271SOL     OW28711   1.464   4.661   5.912
 9271SOL    HW128712   1.479   4.649   6.010
 9271SOL    HW228713   1.454   4.571   5.869
 9272SOL     OW28714   6.147   5.939   5.415
 9272SOL    HW128715   6.245   5.951   5.431
 9272SOL    HW228716   6.133   5.890   5.329
 9273SOL     OW28717   5.739   3.179   3.849
 9273SOL    HW128718   5.733   3.262   3.795
 9273SOL    HW228719   5.739   3.099   3.789
 9274SOL     OW28720   0.232   3.525   0.185
 9274SOL    HW128721   0.323   3.515   0.145
 9274SOL    HW228722   0.218   3.620   0.213
 9275SOL     OW28723   5.884   0.893   0.786
 9275SOL    HW128724   5.923   0.982   0.810
 9275SOL    HW228725   5.844   0.851   0.867
 9276SOL     OW28726   2.149   4.483   6.948
 9276SOL    HW128727   2.056   4.453   6.927
 9276SOL    HW228728   2.145   4.561   7.011
 9277SOL     OW28729   4.225   5.857   2.290
 9277SOL    HW128730   4.291   5.885   2.220
 9277SOL    HW228731   4.200   5.936   2.346
 9278SOL     OW28732   0.754   0.041   5.866
 9278SOL    HW128733   0.754   0.094   5.951
 9278SOL    HW228734   0.697   6.977   5.879
 9279SOL     OW28735   2.649   6.091   2.024
 9279SOL    HW128736   2.570   6.140   2.061
 9279SOL    HW228737   2.618   6.008   1.978
 9280SOL     OW28738   1.270   5.856   2.810
 9280SOL    HW128739   1.293   5.780   2.872
 9280SOL    HW228740   1.171   5.861   2.799
 9281SOL     OW28741   1.488   5.292   0.744
 9281SOL    HW128742   1.550   5.217   0.767
 9281SOL    HW228743   1.525   5.378   0.777
 9282SOL     OW28744   2.651   6.907   5.048
 9282SOL    HW128745   2.731   6.847   5.049
 9282SOL    HW228746   2.659   6.974   5.121
 9283SOL     OW28747   4.967   6.138   0.107
 9283SOL    HW128748   4.940   6.227   0.145
 9283SOL    HW228749   4.893   6.103   0.049
 9284SOL     OW28750   4.365   6.078   0.502
 9284SOL    HW128751   4.301   6.131   0.557
 9284SOL    HW228752   4.448   6.132   0.486
 9285SOL     OW28753   0.030   6.213   3.529
 9285SOL    HW128754   0.062   6.144   3.464
 9285SOL    HW228755   0.098   6.285   3.539
 9286SOL     OW28756   5.025   6.813   1.719
 9286SOL    HW128757   5.001   6.909   1.708
 9286SOL    HW228758   5.123   6.801   1.710
 9287SOL     OW28759   4.193   4.085   6.305
 9287SOL    HW128760   4.220   4.094   6.209
 9287SOL    HW228761   4.144   4.168   6.333
 9288SOL     OW28762   3.776   1.786   2.331
 9288SOL    HW128763   3.840   1.816   2.261
 9288SOL    HW228764   3.774   1.853   2.405
 9289SOL     OW28765   4.508   6.549   1.376
 9289SOL    HW128766   4.480   6.611   1.302
 9289SOL    HW228767   4.436   6.483   1.393
 9290SOL     OW28768   5.839   1.029   3.624
 9290SOL    HW128769   5.937   1.023   3.608
 9290SOL    HW228770   5.821   1.079   3.709
 9291SOL     OW28771   0.401   4.258   5.661
 9291SOL    HW128772   0.401   4.328   5.589
 9291SOL    HW228773   0.410   4.168   5.619
 9292SOL     OW28774   0.535   1.532   6.783
 9292SOL    HW128775   0.600   1.480   6.837
 9292SOL    HW228776   0.479   1.589   6.844
 9293SOL     OW28777   4.447   1.967   5.262
 9293SOL    HW128778   4.545   1.981   5.248
 9293SOL    HW228779   4.412   1.904   5.193
 9294SOL     OW28780   4.971   6.385   6.920
 9294SOL    HW128781   4.954   6.385   0.000
 9294SOL    HW228782   4.982   6.479   6.888
 9295SOL     OW28783   6.088   0.685   3.734
 9295SOL    HW128784   6.015   0.680   3.666
 9295SOL    HW228785   6.071   0.618   3.807
 9296SOL     OW28786   2.105   4.149   5.803
 9296SOL    HW128787   2.201   4.171   5.821
 9296SOL    HW228788   2.050   4.171   5.884
 9297SOL     OW28789   0.003   4.618   1.970
 9297SOL    HW128790   6.942   4.563   1.998
 9297SOL    HW228791   0.086   4.581   2.011
 9298SOL     OW28792   0.219   4.387   6.658
 9298SOL    HW128793   0.261   4.443   6.586
 9298SOL    HW228794   0.237   4.429   6.747
 9299SOL     OW28795   2.799   1.918   4.509
 9299SOL    HW128796   2.881   1.954   4.464
 9299SOL    HW228797   2.756   1.991   4.562
 9300SOL     OW28798   2.305   6.036   4.881
 9300SOL    HW128799   2.310   5.936   4.891
 9300SOL    HW228800   2.328   6.061   4.787
 9301SOL     OW28801   1.160   3.948   4.077
 9301SOL    HW128802   1.187   4.028   4.023
 9301SOL    HW228803   1.061   3.943   4.082
 9302SOL     OW28804   3.180   5.601   4.139
 9302SOL    HW128805   3.085   5.622   4.113
 9302SOL    HW228806   3.188   5.604   4.239
 9303SOL     OW28807   2.965   4.686   7.002
 9303SOL    HW128808   2.921   4.658   0.069
 9303SOL    HW228809   2.959   4.786   6.993
 9304SOL     OW28810   5.310   5.978   6.336
 9304SOL    HW128811   5.315   5.997   6.434
 9304SOL    HW228812   5.368   5.900   6.313
 9305SOL     OW28813   1.489   1.517   1.056
 9305SOL    HW128814   1.409   1.476   1.013
 9305SOL    HW228815   1.569   1.506   0.997
 9306SOL     OW28816   6.663   6.170   4.469
 9306SOL    HW128817   6.619   6.248   4.514
 9306SOL    HW228818   6.596   6.098   4.455
 9307SOL     OW28819   1.655   4.019   1.460
 9307SOL    HW128820   1.742   4.059   1.432
 9307SOL    HW228821   1.659   3.996   1.558
 9308SOL     OW28822   2.322   3.734   1.728
 9308SOL    HW128823   2.332   3.651   1.784
 9308SOL    HW228824   2.319   3.708   1.632
 9309SOL     OW28825   4.764   5.250   5.893
 9309SOL    HW128826   4.860   5.264   5.916
 9309SOL    HW228827   4.709   5.323   5.935
 9310SOL     OW28828   5.917   6.027   5.553
 9310SOL    HW128829   6.002   6.013   5.503
 9310SOL    HW228830   5.936   6.035   5.651
 9311SOL     OW28831   5.312   3.958   0.923
 9311SOL    HW128832   5.388   4.018   0.950
 9311SOL    HW228833   5.230   4.014   0.906
 9312SOL     OW28834   6.607   2.631   3.437
 9312SOL    HW128835   6.660   2.619   3.353
 9312SOL    HW228836   6.542   2.556   3.446
 9313SOL     OW28837   0.610   0.687   2.612
 9313SOL    HW128838   0.547   0.753   2.573
 9313SOL    HW228839   0.559   0.612   2.654
 9314SOL     OW28840   5.060   5.121   1.580
 9314SOL    HW128841   5.085   5.212   1.615
 9314SOL    HW228842   4.984   5.131   1.515
 9315SOL     OW28843   5.773   5.600   5.579
 9315SOL    HW128844   5.760   5.639   5.671
 9315SOL    HW228845   5.691   5.552   5.551
 9316SOL     OW28846   5.057   6.725   0.964
 9316SOL    HW128847   5.131   6.678   1.012
 9316SOL    HW228848   5.063   6.706   0.866
 9317SOL     OW28849   1.937   5.829   3.770
 9317SOL    HW128850   1.890   5.892   3.831
 9317SOL    HW228851   1.974   5.879   3.692
 9318SOL     OW28852   3.522   6.687   2.742
 9318SOL    HW128853   3.581   6.674   2.662
 9318SOL    HW228854   3.428   6.663   2.718
 9319SOL     OW28855   4.109   2.147   0.351
 9319SOL    HW128856   4.050   2.153   0.432
 9319SOL    HW228857   4.166   2.065   0.357
 9320SOL     OW28858   6.882   6.783   6.715
 9320SOL    HW128859   6.855   6.690   6.687
 9320SOL    HW228860   6.982   6.791   6.712
 9321SOL     OW28861   1.147   2.912   4.254
 9321SOL    HW128862   1.076   2.889   4.187
 9321SOL    HW228863   1.129   3.003   4.292
 9322SOL     OW28864   5.377   2.676   6.897
 9322SOL    HW128865   5.313   2.749   6.918
 9322SOL    HW228866   5.464   2.715   6.866
 9323SOL     OW28867   0.520   1.979   5.831
 9323SOL    HW128868   0.423   1.990   5.854
 9323SOL    HW228869   0.540   2.031   5.747
 9324SOL     OW28870   0.525   4.960   1.278
 9324SOL    HW128871   0.494   5.031   1.214
 9324SOL    HW228872   0.473   4.965   1.362
 9325SOL     OW28873   0.946   4.918   3.435
 9325SOL    HW128874   0.854   4.880   3.430
 9325SOL    HW228875   0.999   4.867   3.503
 9326SOL     OW28876   4.700   4.515   0.706
 9326SOL    HW128877   4.626   4.448   0.700
 9326SOL    HW228878   4.737   4.533   0.615
 9327SOL     OW28879   2.940   1.379   3.367
 9327SOL    HW128880   2.856   1.377   3.313
 9327SOL    HW228881   2.983   1.289   3.368
 9328SOL     OW28882   1.820   0.655   3.222
 9328SOL    HW128883   1.745   0.713   3.189
 9328SOL    HW228884   1.877   0.706   3.285
 9329SOL     OW28885   1.080   5.419   6.694
 9329SOL    HW128886   1.149   5.451   6.628
 9329SOL    HW228887   1.118   5.343   6.746
 9330SOL     OW28888   1.151   6.982   0.622
 9330SOL    HW128889   1.196   0.052   0.611
 9330SOL    HW228890   1.154   6.954   0.718
 9331SOL     OW28891   2.313   4.398   4.426
 9331SOL    HW128892   2.233   4.456   4.410
 9331SOL    HW228893   2.326   4.386   4.525
 9332SOL     OW28894   6.707   5.057   0.006
 9332SOL    HW128895   6.624   5.006   7.001
 9332SOL    HW228896   6.750   5.016   0.086
 9333SOL     OW28897   2.675   4.779   1.398
 9333SOL    HW128898   2.690   4.875   1.419
 9333SOL    HW228899   2.606   4.742   1.461
 9334SOL     OW28900   6.897   5.304   6.576
 9334SOL    HW128901   6.936   5.393   6.553
 9334SOL    HW228902   6.870   5.303   6.672
 9335SOL     OW28903   0.337   3.701   1.063
 9335SOL    HW128904   0.290   3.771   1.117
 9335SOL    HW228905   0.365   3.626   1.123
 9336SOL     OW28906   4.922   6.788   5.841
 9336SOL    HW128907   4.880   6.825   5.758
 9336SOL    HW228908   4.990   6.852   5.875
 9337SOL     OW28909   2.709   1.546   5.491
 9337SOL    HW128910   2.780   1.591   5.545
 9337SOL    HW228911   2.699   1.451   5.522
 9338SOL     OW28912   5.455   6.331   0.719
 9338SOL    HW128913   5.527   6.400   0.708
 9338SOL    HW228914   5.490   6.241   0.692
 9339SOL     OW28915   6.653   3.725   5.125
 9339SOL    HW128916   6.686   3.749   5.034
 9339SOL    HW228917   6.730   3.698   5.182
 9340SOL     OW28918   2.620   5.016   2.427
 9340SOL    HW128919   2.649   5.073   2.504
 9340SOL    HW228920   2.699   4.972   2.386
 9341SOL     OW28921   6.000   5.341   6.882
 9341SOL    HW128922   5.967   5.247   6.889
 9341SOL    HW228923   5.939   5.393   6.823
 9342SOL     OW28924   2.868   6.907   5.278
 9342SOL    HW128925   2.826   6.891   5.367
 9342SOL    HW228926   2.821   6.852   5.209
 9343SOL     OW28927   4.702   4.052   1.161
 9343SOL    HW128928   4.643   3.971   1.151
 9343SOL    HW228929   4.748   4.049   1.249
 9344SOL     OW28930   5.955   0.177   5.135
 9344SOL    HW128931   5.928   0.258   5.187
 9344SOL    HW228932   6.028   0.201   5.072
 9345SOL     OW28933   0.203   4.677   0.118
 9345SOL    HW128934   0.193   4.773   0.146
 9345SOL    HW228935   0.180   4.617   0.195
 9346SOL     OW28936   5.134   0.671   2.217
 9346SOL    HW128937   5.206   0.691   2.284
 9346SOL    HW228938   5.057   0.733   2.231
 9347SOL     OW28939   4.770   6.490   1.428
 9347SOL    HW128940   4.787   6.403   1.382
 9347SOL    HW228941   4.678   6.522   1.405
 9348SOL     OW28942   2.508   5.203   1.914
 9348SOL    HW128943   2.436   5.176   1.979
 9348SOL    HW228944   2.562   5.123   1.888
 9349SOL     OW28945   6.459   6.230   1.156
 9349SOL    HW128946   6.380   6.211   1.097
 9349SOL    HW228947   6.447   6.319   1.199
 9350SOL     OW28948   6.729   0.296   0.508
 9350SOL    HW128949   6.688   0.287   0.417
 9350SOL    HW228950   6.698   0.381   0.550
 9351SOL     OW28951   3.911   3.462   6.255
 9351SOL    HW128952   3.984   3.525   6.228
 9351SOL    HW228953   3.837   3.466   6.188
 9352SOL     OW28954   2.930   2.727   6.908
 9352SOL    HW128955   2.995   2.787   6.955
 9352SOL    HW228956   2.923   2.641   6.957
 9353SOL     OW28957   0.985   2.940   1.467
 9353SOL    HW128958   1.034   3.027   1.463
 9353SOL    HW228959   1.008   2.885   1.386
 9354SOL     OW28960   5.443   1.658   1.872
 9354SOL    HW128961   5.530   1.705   1.852
 9354SOL    HW228962   5.368   1.725   1.870
 9355SOL     OW28963   0.128   1.238   2.203
 9355SOL    HW128964   0.031   1.259   2.192
 9355SOL    HW228965   0.147   1.213   2.298
 9356SOL     OW28966   5.547   3.511   2.877
 9356SOL    HW128967   5.535   3.413   2.860
 9356SOL    HW228968   5.580   3.556   2.794
 9357SOL     OW28969   2.725   4.449   0.689
 9357SOL    HW128970   2.825   4.450   0.695
 9357SOL    HW228971   2.696   4.383   0.621
 9358SOL     OW28972   5.011   3.995   2.526
 9358SOL    HW128973   4.942   4.055   2.486
 9358SOL    HW228974   5.081   3.974   2.458
 9359SOL     OW28975   5.196   5.359   6.193
 9359SOL    HW128976   5.227   5.453   6.201
 9359SOL    HW228977   5.157   5.329   6.280
 9360SOL     OW28978   1.321   1.356   5.479
 9360SOL    HW128979   1.337   1.443   5.433
 9360SOL    HW228980   1.387   1.288   5.446
 9361SOL     OW28981   2.514   1.257   2.054
 9361SOL    HW128982   2.609   1.289   2.050
 9361SOL    HW228983   2.505   1.188   2.125
 9362SOL     OW28984   2.145   1.820   3.260
 9362SOL    HW128985   2.081   1.861   3.195
 9362SOL    HW228986   2.100   1.809   3.349
 9363SOL     OW28987   1.709   6.326   2.011
 9363SOL    HW128988   1.700   6.414   2.058
 9363SOL    HW228989   1.756   6.261   2.071
 9364SOL     OW28990   5.504   4.587   1.228
 9364SOL    HW128991   5.420   4.547   1.267
 9364SOL    HW228992   5.490   4.604   1.130
 9365SOL     OW28993   2.420   1.152   4.662
 9365SOL    HW128994   2.462   1.243   4.671
 9365SOL    HW228995   2.483   1.083   4.698
 9366SOL     OW28996   3.335   1.301   1.711
 9366SOL    HW128997   3.419   1.354   1.709
 9366SOL    HW228998   3.357   1.204   1.720
 9367SOL     OW28999   6.586   5.738   4.420
 9367SOL    HW129000   6.587   5.725   4.519
 9367SOL    HW229001   6.678   5.758   4.387
 9368SOL     OW29002   4.458   2.963   0.835
 9368SOL    HW129003   4.540   2.942   0.887
 9368SOL    HW229004   4.408   3.037   0.879
 9369SOL     OW29005   0.058   2.401   5.937
 9369SOL    HW129006   6.988   2.406   5.985
 9369SOL    HW229007   0.100   2.492   5.936
 9370SOL     OW29008   6.115   5.809   3.292
 9370SOL    HW129009   6.197   5.769   3.333
 9370SOL    HW229010   6.125   5.908   3.289
 9371SOL     OW29011   1.305   6.717   0.477
 9371SOL    HW129012   1.286   6.713   0.575
 9371SOL    HW229013   1.232   6.670   0.426
 9372SOL     OW29014   5.826   6.598   0.264
 9372SOL    HW129015   5.826   6.518   0.325
 9372SOL    HW229016   5.784   6.573   0.177
 9373SOL     OW29017   4.790   2.712   4.047
 9373SOL    HW129018   4.751   2.661   4.123
 9373SOL    HW229019   4.889   2.698   4.045
 9374SOL     OW29020   5.236   4.240   0.567
 9374SOL    HW129021   5.245   4.263   0.664
 9374SOL    HW229022   5.319   4.266   0.519
 9375SOL     OW29023   0.176   1.691   3.753
 9375SOL    HW129024   0.156   1.629   3.677
 9375SOL    HW229025   0.122   1.775   3.743
 9376SOL     OW29026   1.827   2.833   1.665
 9376SOL    HW129027   1.835   2.919   1.715
 9376SOL    HW229028   1.895   2.768   1.699
 9377SOL     OW29029   6.040   5.415   2.525
 9377SOL    HW129030   6.018   5.318   2.517
 9377SOL    HW229031   5.978   5.458   2.591
 9378SOL     OW29032   3.228   6.088   1.374
 9378SOL    HW129033   3.174   6.024   1.428
 9378SOL    HW229034   3.240   6.052   1.282
 9379SOL     OW29035   6.005   4.474   5.321
 9379SOL    HW129036   5.997   4.440   5.227
 9379SOL    HW229037   6.086   4.532   5.328
 9380SOL     OW29038   5.851   5.497   6.381
 9380SOL    HW129039   5.928   5.435   6.389
 9380SOL    HW229040   5.875   5.586   6.420
 9381SOL     OW29041   1.549   0.946   0.513
 9381SOL    HW129042   1.524   1.037   0.548
 9381SOL    HW229043   1.593   0.894   0.586
 9382SOL     OW29044   5.606   1.977   1.966
 9382SOL    HW129045   5.508   1.981   1.990
 9382SOL    HW229046   5.648   1.899   2.012
 9383SOL     OW29047   5.846   5.262   5.707
 9383SOL    HW129048   5.854   5.361   5.699
 9383SOL    HW229049   5.784   5.239   5.782
 9384SOL     OW29050   3.707   6.652   2.553
 9384SOL    HW129051   3.793   6.698   2.530
 9384SOL    HW229052   3.676   6.597   2.475
 9385SOL     OW29053   3.594   0.494   4.224
 9385SOL    HW129054   3.609   0.514   4.127
 9385SOL    HW229055   3.498   0.470   4.238
 9386SOL     OW29056   3.980   6.973   5.185
 9386SOL    HW129057   3.968   6.925   5.098
 9386SOL    HW229058   4.013   6.910   5.254
 9387SOL     OW29059   3.943   6.363   0.959
 9387SOL    HW129060   4.000   6.404   0.889
 9387SOL    HW229061   3.896   6.283   0.920
 9388SOL     OW29062   6.020   6.656   2.350
 9388SOL    HW129063   6.002   6.711   2.268
 9388SOL    HW229064   6.021   6.559   2.326
 9389SOL     OW29065   3.555   1.422   6.895
 9389SOL    HW129066   3.493   1.365   6.950
 9389SOL    HW229067   3.609   1.480   6.956
 9390SOL     OW29068   2.862   6.355   1.615
 9390SOL    HW129069   2.955   6.318   1.611
 9390SOL    HW229070   2.803   6.292   1.666
 9391SOL     OW29071   6.970   1.256   5.396
 9391SOL    HW129072   0.040   1.277   5.438
 9391SOL    HW229073   6.896   1.290   5.454
 9392SOL     OW29074   1.208   6.647   4.557
 9392SOL    HW129075   1.243   6.679   4.469
 9392SOL    HW229076   1.115   6.613   4.546
 9393SOL     OW29077   3.745   1.895   5.538
 9393SOL    HW129078   3.837   1.861   5.560
 9393SOL    HW229079   3.683   1.818   5.525
 9394SOL     OW29080   5.740   2.848   1.702
 9394SOL    HW129081   5.646   2.832   1.734
 9394SOL    HW229082   5.745   2.836   1.603
 9395SOL     OW29083   1.912   3.041   6.305
 9395SOL    HW129084   1.986   3.045   6.239
 9395SOL    HW229085   1.834   2.993   6.265
 9396SOL     OW29086   6.208   0.529   6.808
 9396SOL    HW129087   6.306   0.512   6.824
 9396SOL    HW229088   6.156   0.496   6.886
 9397SOL     OW29089   3.161   1.347   1.181
 9397SOL    HW129090   3.073   1.389   1.201
 9397SOL    HW229091   3.234   1.413   1.198
 9398SOL     OW29092   2.260   1.237   0.848
 9398SOL    HW129093   2.207   1.200   0.772
 9398SOL    HW229094   2.341   1.179   0.863
 9399SOL     OW29095   6.561   0.623   5.547
 9399SOL    HW129096   6.619   0.591   5.621
 9399SOL    HW229097   6.617   0.666   5.476
 9400SOL     OW29098   4.282   2.104   3.116
 9400SOL    HW129099   4.335   2.185   3.139
 9400SOL    HW229100   4.344   2.031   3.087
 9401SOL     OW29101   4.191   0.151   3.281
 9401SOL    HW129102   4.282   0.194   3.282
 9401SOL    HW229103   4.153   0.156   3.189
 9402SOL     OW29104   2.127   4.960   0.372
 9402SOL    HW129105   2.067   4.952   0.451
 9402SOL    HW229106   2.208   4.903   0.387
 9403SOL     OW29107   5.733   0.576   5.136
 9403SOL    HW129108   5.653   0.629   5.165
 9403SOL    HW229109   5.706   0.481   5.119
 9404SOL     OW29110   1.260   4.056   5.362
 9404SOL    HW129111   1.350   4.020   5.336
 9404SOL    HW229112   1.263   4.156   5.362
 9405SOL     OW29113   0.081   0.467   0.737
 9405SOL    HW129114   0.006   0.402   0.724
 9405SOL    HW229115   0.050   0.559   0.714
 9406SOL     OW29116   6.622   1.173   5.633
 9406SOL    HW129117   6.579   1.083   5.638
 9406SOL    HW229118   6.671   1.191   5.718
 9407SOL     OW29119   3.553   6.187   2.990
 9407SOL    HW129120   3.479   6.135   3.032
 9407SOL    HW229121   3.545   6.184   2.891
 9408SOL     OW29122   4.108   1.857   6.809
 9408SOL    HW129123   4.149   1.927   6.750
 9408SOL    HW229124   4.140   1.767   6.781
 9409SOL     OW29125   6.255   3.228   3.422
 9409SOL    HW129126   6.297   3.261   3.506
 9409SOL    HW229127   6.324   3.184   3.365
 9410SOL     OW29128   4.587   6.412   2.187
 9410SOL    HW129129   4.570   6.486   2.123
 9410SOL    HW229130   4.683   6.413   2.215
 9411SOL     OW29131   4.728   5.688   1.285
 9411SOL    HW129132   4.703   5.656   1.194
 9411SOL    HW229133   4.736   5.788   1.285
 9412SOL     OW29134   6.511   3.173   1.964
 9412SOL    HW129135   6.435   3.109   1.976
 9412SOL    HW229136   6.496   3.253   2.022
 9413SOL     OW29137   3.435   5.209   4.250
 9413SOL    HW129138   3.405   5.121   4.212
 9413SOL    HW229139   3.370   5.280   4.221
 9414SOL     OW29140   2.591   1.151   2.371
 9414SOL    HW129141   2.653   1.229   2.367
 9414SOL    HW229142   2.497   1.184   2.378
 9415SOL     OW29143   2.698   0.915   2.283
 9415SOL    HW129144   2.763   0.903   2.359
 9415SOL    HW229145   2.631   0.985   2.307
 9416SOL     OW29146   1.476   1.754   1.207
 9416SOL    HW129147   1.566   1.758   1.249
 9416SOL    HW229148   1.471   1.676   1.145
 9417SOL     OW29149   2.103   0.432   4.615
 9417SOL    HW129150   2.128   0.492   4.539
 9417SOL    HW229151   2.172   0.439   4.687
 9418SOL     OW29152   3.926   4.262   1.153
 9418SOL    HW129153   3.942   4.360   1.165
 9418SOL    HW229154   3.828   4.245   1.145
 9419SOL     OW29155   3.564   5.505   4.605
 9419SOL    HW129156   3.626   5.432   4.578
 9419SOL    HW229157   3.529   5.552   4.524
 9420SOL     OW29158   1.019   1.373   4.333
 9420SOL    HW129159   0.921   1.359   4.350
 9420SOL    HW229160   1.043   1.468   4.351
 9421SOL     OW29161   1.721   5.129   4.640
 9421SOL    HW129162   1.659   5.101   4.713
 9421SOL    HW229163   1.738   5.228   4.646
 9422SOL     OW29164   3.900   1.041   2.458
 9422SOL    HW129165   3.939   1.131   2.475
 9422SOL    HW229166   3.951   0.996   2.385
 9423SOL     OW29167   4.915   0.309   4.821
 9423SOL    HW129168   4.879   0.294   4.913
 9423SOL    HW229169   4.844   0.351   4.764
 9424SOL     OW29170   3.113   6.129   4.372
 9424SOL    HW129171   3.041   6.121   4.441
 9424SOL    HW229172   3.111   6.049   4.312
 9425SOL     OW29173   1.327   4.657   3.552
 9425SOL    HW129174   1.394   4.663   3.479
 9425SOL    HW229175   1.235   4.663   3.514
 9426SOL     OW29176   4.122   6.178   0.416
 9426SOL    HW129177   4.151   6.106   0.352
 9426SOL    HW229178   4.073   6.136   0.493
 9427SOL     OW29179   3.076   4.852   4.295
 9427SOL    HW129180   3.087   4.754   4.310
 9427SOL    HW229181   3.074   4.871   4.197
 9428SOL     OW29182   4.448   6.039   2.218
 9428SOL    HW129183   4.535   6.077   2.187
 9428SOL    HW229184   4.389   6.112   2.254
 9429SOL     OW29185   6.807   3.106   2.560
 9429SOL    HW129186   6.799   3.079   2.463
 9429SOL    HW229187   6.823   3.025   2.615
 9430SOL     OW29188   6.120   6.997   1.678
 9430SOL    HW129189   6.112   0.056   1.614
 9430SOL    HW229190   6.196   7.014   1.741
 9431SOL     OW29191   6.324   4.056   0.973
 9431SOL    HW129192   6.246   4.103   0.932
 9431SOL    HW229193   6.393   4.123   0.999
 9432SOL     OW29194   6.818   6.951   4.382
 9432SOL    HW129195   6.885   6.926   4.452
 9432SOL    HW229196   6.862   6.949   4.292
 9433SOL     OW29197   3.190   4.883   4.643
 9433SOL    HW129198   3.132   4.963   4.663
 9433SOL    HW229199   3.145   4.801   4.678
 9434SOL     OW29200   4.967   4.717   3.017
 9434SOL    HW129201   4.990   4.620   3.022
 9434SOL    HW229202   5.027   4.769   3.077
 9435SOL     OW29203   1.764   2.083   5.228
 9435SOL    HW129204   1.775   2.173   5.186
 9435SOL    HW229205   1.686   2.036   5.186
 9436SOL     OW29206   1.936   2.532   6.281
 9436SOL    HW129207   1.970   2.463   6.217
 9436SOL    HW229208   1.933   2.621   6.236
 9437SOL     OW29209   0.698   4.977   4.089
 9437SOL    HW129210   0.692   5.071   4.057
 9437SOL    HW229211   0.607   4.934   4.084
 9438SOL     OW29212   0.495   0.015   2.067
 9438SOL    HW129213   0.446   6.954   2.104
 9438SOL    HW229214   0.510   0.082   2.140
 9439SOL     OW29215   1.224   2.841   1.627
 9439SOL    HW129216   1.129   2.816   1.645
 9439SOL    HW229217   1.279   2.827   1.710
 9440SOL     OW29218   4.562   6.041   4.945
 9440SOL    HW129219   4.601   5.955   4.978
 9440SOL    HW229220   4.463   6.032   4.936
 9441SOL     OW29221   1.835   5.635   5.144
 9441SOL    HW129222   1.811   5.667   5.052
 9441SOL    HW229223   1.791   5.547   5.161
 9442SOL     OW29224   0.802   3.795   1.191
 9442SOL    HW129225   0.803   3.792   1.291
 9442SOL    HW229226   0.896   3.801   1.156
 9443SOL     OW29227   2.223   3.463   1.459
 9443SOL    HW129228   2.206   3.395   1.530
 9443SOL    HW229229   2.275   3.539   1.498
 9444SOL     OW29230   0.520   4.008   5.965
 9444SOL    HW129231   0.508   4.105   5.988
 9444SOL    HW229232   0.592   3.998   5.897
 9445SOL     OW29233   6.107   3.329   1.361
 9445SOL    HW129234   6.007   3.335   1.353
 9445SOL    HW229235   6.150   3.397   1.302
 9446SOL     OW29236   5.912   4.821   0.957
 9446SOL    HW129237   5.973   4.749   0.990
 9446SOL    HW229238   5.893   4.886   1.030
 9447SOL     OW29239   6.178   2.436   1.467
 9447SOL    HW129240   6.192   2.443   1.368
 9447SOL    HW229241   6.208   2.347   1.499
 9448SOL     OW29242   6.311   6.352   0.413
 9448SOL    HW129243   6.253   6.291   0.358
 9448SOL    HW229244   6.400   6.363   0.367
 9449SOL     OW29245   6.658   4.999   5.136
 9449SOL    HW129246   6.709   5.066   5.190
 9449SOL    HW229247   6.640   4.918   5.191
 9450SOL     OW29248   2.904   5.502   4.414
 9450SOL    HW129249   2.947   5.453   4.489
 9450SOL    HW229250   2.943   5.594   4.408
 9451SOL     OW29251   4.193   4.162   5.517
 9451SOL    HW129252   4.259   4.088   5.517
 9451SOL    HW229253   4.214   4.226   5.591
 9452SOL     OW29254   2.638   4.405   1.372
 9452SOL    HW129255   2.609   4.497   1.344
 9452SOL    HW229256   2.715   4.412   1.435
 9453SOL     OW29257   3.132   5.015   1.874
 9453SOL    HW129258   3.067   4.943   1.898
 9453SOL    HW229259   3.189   4.985   1.797
 9454SOL     OW29260   2.135   2.140   5.339
 9454SOL    HW129261   2.173   2.094   5.258
 9454SOL    HW229262   2.035   2.136   5.336
 9455SOL     OW29263   2.638   1.984   2.408
 9455SOL    HW129264   2.704   2.024   2.344
 9455SOL    HW229265   2.547   2.018   2.387
 9456SOL     OW29266   1.399   3.523   0.652
 9456SOL    HW129267   1.495   3.496   0.660
 9456SOL    HW229268   1.386   3.614   0.692
 9457SOL     OW29269   6.616   3.567   0.803
 9457SOL    HW129270   6.598   3.585   0.899
 9457SOL    HW229271   6.667   3.643   0.763
 9458SOL     OW29272   0.569   5.742   4.544
 9458SOL    HW129273   0.536   5.768   4.635
 9458SOL    HW229274   0.663   5.711   4.550
 9459SOL     OW29275   4.162   6.197   1.459
 9459SOL    HW129276   4.165   6.254   1.541
 9459SOL    HW229277   4.117   6.110   1.481
 9460SOL     OW29278   1.076   2.842   5.200
 9460SOL    HW129279   1.017   2.809   5.274
 9460SOL    HW229280   1.166   2.800   5.207
 9461SOL     OW29281   1.243   0.809   2.672
 9461SOL    HW129282   1.187   0.735   2.634
 9461SOL    HW229283   1.201   0.897   2.653
 9462SOL     OW29284   0.211   3.611   3.097
 9462SOL    HW129285   0.286   3.621   3.163
 9462SOL    HW229286   0.181   3.516   3.096
 9463SOL     OW29287   5.421   2.138   6.717
 9463SOL    HW129288   5.419   2.214   6.782
 9463SOL    HW229289   5.450   2.172   6.627
 9464SOL     OW29290   4.541   6.868   6.096
 9464SOL    HW129291   4.617   6.807   6.115
 9464SOL    HW229292   4.569   6.937   6.029
 9465SOL     OW29293   5.972   0.234   4.352
 9465SOL    HW129294   6.041   0.191   4.410
 9465SOL    HW229295   6.010   0.252   4.262
 9466SOL     OW29296   2.449   2.125   6.735
 9466SOL    HW129297   2.360   2.159   6.766
 9466SOL    HW229298   2.443   2.096   6.640
 9467SOL     OW29299   2.186   3.172   1.887
 9467SOL    HW129300   2.204   3.265   1.917
 9467SOL    HW229301   2.227   3.107   1.951
 9468SOL     OW29302   0.208   2.567   6.356
 9468SOL    HW129303   0.283   2.572   6.422
 9468SOL    HW229304   0.201   2.655   6.308
 9469SOL     OW29305   6.429   4.110   2.515
 9469SOL    HW129306   6.472   4.181   2.571
 9469SOL    HW229307   6.357   4.150   2.459
 9470SOL     OW29308   5.827   3.602   1.488
 9470SOL    HW129309   5.800   3.694   1.461
 9470SOL    HW229310   5.902   3.608   1.555
 9471SOL     OW29311   0.539   2.551   5.878
 9471SOL    HW129312   0.591   2.466   5.877
 9471SOL    HW229313   0.448   2.536   5.837
 9472SOL     OW29314   6.493   2.913   4.801
 9472SOL    HW129315   6.585   2.937   4.769
 9472SOL    HW229316   6.501   2.859   4.885
 9473SOL     OW29317   4.051   5.300   4.374
 9473SOL    HW129318   3.998   5.368   4.425
 9473SOL    HW229319   3.991   5.251   4.310
 9474SOL     OW29320   3.596   5.469   3.583
 9474SOL    HW129321   3.528   5.407   3.622
 9474SOL    HW229322   3.682   5.420   3.570
 9475SOL     OW29323   1.407   3.414   1.274
 9475SOL    HW129324   1.376   3.333   1.226
 9475SOL    HW229325   1.455   3.475   1.210
 9476SOL     OW29326   3.807   3.722   5.150
 9476SOL    HW129327   3.907   3.714   5.147
 9476SOL    HW229328   3.766   3.634   5.129
 9477SOL     OW29329   0.585   2.752   1.039
 9477SOL    HW129330   0.636   2.808   1.105
 9477SOL    HW229331   0.488   2.775   1.043
 9478SOL     OW29332   5.180   4.752   5.195
 9478SOL    HW129333   5.238   4.681   5.234
 9478SOL    HW229334   5.190   4.836   5.249
 9479SOL     OW29335   6.484   5.692   5.496
 9479SOL    HW129336   6.524   5.631   5.565
 9479SOL    HW229337   6.531   5.780   5.498
 9480SOL     OW29338   5.868   4.103   6.510
 9480SOL    HW129339   5.827   4.018   6.543
 9480SOL    HW229340   5.967   4.101   6.526
 9481SOL     OW29341   6.231   3.623   2.256
 9481SOL    HW129342   6.280   3.536   2.256
 9481SOL    HW229343   6.255   3.676   2.337
 9482SOL     OW29344   4.295   0.014   2.582
 9482SOL    HW129345   4.217   6.984   2.623
 9482SOL    HW229346   4.286   0.011   2.483
 9483SOL     OW29347   1.571   1.610   0.428
 9483SOL    HW129348   1.558   1.708   0.421
 9483SOL    HW229349   1.667   1.591   0.450
 9484SOL     OW29350   6.329   1.514   2.563
 9484SOL    HW129351   6.343   1.415   2.563
 9484SOL    HW229352   6.265   1.538   2.636
 9485SOL     OW29353   0.995   0.731   2.858
 9485SOL    HW129354   0.905   0.692   2.880
 9485SOL    HW229355   0.990   0.780   2.772
 9486SOL     OW29356   2.495   5.915   2.332
 9486SOL    HW129357   2.542   5.841   2.284
 9486SOL    HW229358   2.538   6.002   2.310
 9487SOL     OW29359   3.366   2.864   3.333
 9487SOL    HW129360   3.401   2.875   3.426
 9487SOL    HW229361   3.294   2.932   3.317
 9488SOL     OW29362   1.258   0.723   1.450
 9488SOL    HW129363   1.221   0.814   1.469
 9488SOL    HW229364   1.342   0.710   1.503
 9489SOL     OW29365   3.561   4.448   0.835
 9489SOL    HW129366   3.624   4.371   0.822
 9489SOL    HW229367   3.562   4.476   0.931
 9490SOL     OW29368   5.712   1.249   0.080
 9490SOL    HW129369   5.735   1.343   0.104
 9490SOL    HW229370   5.653   1.248   7.017
 9491SOL     OW29371   6.708   5.075   5.755
 9491SOL    HW129372   6.715   4.999   5.689
 9491SOL    HW229373   6.767   5.150   5.726
 9492SOL     OW29374   2.817   3.882   1.629
 9492SOL    HW129375   2.903   3.913   1.671
 9492SOL    HW229376   2.801   3.786   1.653
 9493SOL     OW29377   5.562   6.451   2.860
 9493SOL    HW129378   5.642   6.463   2.802
 9493SOL    HW229379   5.488   6.509   2.827
 9494SOL     OW29380   3.674   3.549   6.106
 9494SOL    HW129381   3.598   3.491   6.133
 9494SOL    HW229382   3.687   3.542   6.007
 9495SOL     OW29383   5.681   2.713   4.802
 9495SOL    HW129384   5.727   2.694   4.889
 9495SOL    HW229385   5.582   2.708   4.816
 9496SOL     OW29386   5.693   3.892   0.087
 9496SOL    HW129387   5.740   3.968   0.131
 9496SOL    HW229388   5.704   3.899   7.006
 9497SOL     OW29389   0.222   6.707   5.771
 9497SOL    HW129390   0.179   6.617   5.781
 9497SOL    HW229391   0.199   6.764   5.850
 9498SOL     OW29392   3.961   0.111   6.058
 9498SOL    HW129393   4.020   0.146   5.985
 9498SOL    HW229394   3.900   0.184   6.089
 9499SOL     OW29395   4.954   4.173   6.283
 9499SOL    HW129396   4.929   4.138   6.193
 9499SOL    HW229397   4.920   4.267   6.293
 9500SOL     OW29398   5.078   5.777   1.998
 9500SOL    HW129399   5.154   5.756   1.937
 9500SOL    HW229400   5.095   5.737   2.088
 9501SOL     OW29401   3.405   1.702   4.878
 9501SOL    HW129402   3.413   1.680   4.780
 9501SOL    HW229403   3.496   1.696   4.920
 9502SOL     OW29404   5.110   3.447   5.477
 9502SOL    HW129405   5.020   3.448   5.521
 9502SOL    HW229406   5.175   3.499   5.532
 9503SOL     OW29407   1.232   6.839   1.113
 9503SOL    HW129408   1.158   6.787   1.156
 9503SOL    HW229409   1.209   6.936   1.113
 9504SOL     OW29410   0.821   3.352   6.808
 9504SOL    HW129411   0.746   3.415   6.828
 9504SOL    HW229412   0.791   3.258   6.823
 9505SOL     OW29413   4.875   3.481   3.034
 9505SOL    HW129414   4.877   3.455   2.937
 9505SOL    HW229415   4.861   3.580   3.042
 9506SOL     OW29416   6.269   2.927   0.432
 9506SOL    HW129417   6.281   2.837   0.475
 9506SOL    HW229418   6.303   2.923   0.338
 9507SOL     OW29419   0.829   1.974   3.952
 9507SOL    HW129420   0.877   2.021   3.878
 9507SOL    HW229421   0.732   1.966   3.929
 9508SOL     OW29422   5.129   2.205   0.089
 9508SOL    HW129423   5.224   2.221   0.116
 9508SOL    HW229424   5.081   2.292   0.083
 9509SOL     OW29425   2.653   6.614   5.192
 9509SOL    HW129426   2.673   6.528   5.238
 9509SOL    HW229427   2.738   6.660   5.169
 9510SOL     OW29428   6.353   4.205   3.047
 9510SOL    HW129429   6.342   4.303   3.062
 9510SOL    HW229430   6.265   4.160   3.059
 9511SOL     OW29431   1.690   1.150   1.016
 9511SOL    HW129432   1.709   1.204   0.935
 9511SOL    HW229433   1.624   1.198   1.074
 9512SOL     OW29434   1.531   2.424   4.401
 9512SOL    HW129435   1.433   2.413   4.388
 9512SOL    HW229436   1.578   2.340   4.376
 9513SOL     OW29437   2.392   4.324   3.999
 9513SOL    HW129438   2.486   4.291   4.006
 9513SOL    HW229439   2.338   4.261   3.943
 9514SOL     OW29440   2.277   2.798   6.170
 9514SOL    HW129441   2.225   2.745   6.237
 9514SOL    HW229442   2.375   2.789   6.190
 9515SOL     OW29443   2.451   5.783   5.474
 9515SOL    HW129444   2.374   5.766   5.537
 9515SOL    HW229445   2.526   5.721   5.497
 9516SOL     OW29446   5.515   3.864   4.726
 9516SOL    HW129447   5.436   3.921   4.747
 9516SOL    HW229448   5.572   3.856   4.808
 9517SOL     OW29449   0.834   5.918   1.885
 9517SOL    HW129450   0.870   5.867   1.963
 9517SOL    HW229451   0.803   5.854   1.815
 9518SOL     OW29452   0.982   3.114   5.546
 9518SOL    HW129453   0.914   3.184   5.570
 9518SOL    HW229454   1.035   3.090   5.627
 9519SOL     OW29455   3.732   3.381   3.116
 9519SOL    HW129456   3.786   3.298   3.105
 9519SOL    HW229457   3.650   3.360   3.170
 9520SOL     OW29458   5.219   0.538   6.442
 9520SOL    HW129459   5.304   0.493   6.472
 9520SOL    HW229460   5.162   0.472   6.393
 9521SOL     OW29461   3.185   1.020   1.119
 9521SOL    HW129462   3.224   0.995   1.207
 9521SOL    HW229463   3.165   1.119   1.118
 9522SOL     OW29464   3.236   6.246   2.244
 9522SOL    HW129465   3.326   6.212   2.217
 9522SOL    HW229466   3.173   6.170   2.254
 9523SOL     OW29467   2.760   4.695   3.837
 9523SOL    HW129468   2.843   4.744   3.863
 9523SOL    HW229469   2.713   4.662   3.919
 9524SOL     OW29470   2.450   3.990   0.892
 9524SOL    HW129471   2.488   4.076   0.858
 9524SOL    HW229472   2.391   3.949   0.822
 9525SOL     OW29473   2.440   3.207   5.366
 9525SOL    HW129474   2.445   3.152   5.282
 9525SOL    HW229475   2.456   3.148   5.445
 9526SOL     OW29476   5.522   4.875   0.165
 9526SOL    HW129477   5.480   4.790   0.133
 9526SOL    HW229478   5.550   4.931   0.087
 9527SOL     OW29479   4.307   6.933   3.907
 9527SOL    HW129480   4.305   0.008   3.945
 9527SOL    HW229481   4.216   6.893   3.914
 9528SOL     OW29482   5.390   2.281   0.420
 9528SOL    HW129483   5.376   2.376   0.393
 9528SOL    HW229484   5.478   2.273   0.467
 9529SOL     OW29485   5.889   1.238   1.301
 9529SOL    HW129486   5.901   1.154   1.354
 9529SOL    HW229487   5.848   1.309   1.358
 9530SOL     OW29488   1.695   5.619   3.906
 9530SOL    HW129489   1.661   5.710   3.879
 9530SOL    HW229490   1.652   5.593   3.993
 9531SOL     OW29491   3.654   5.718   2.565
 9531SOL    HW129492   3.609   5.792   2.615
 9531SOL    HW229493   3.609   5.705   2.477
 9532SOL     OW29494   6.460   5.037   3.230
 9532SOL    HW129495   6.385   5.100   3.252
 9532SOL    HW229496   6.528   5.039   3.303
 9533SOL     OW29497   1.509   3.499   3.946
 9533SOL    HW129498   1.599   3.518   3.906
 9533SOL    HW229499   1.464   3.427   3.893
 9534SOL     OW29500   5.535   4.901   4.523
 9534SOL    HW129501   5.513   4.889   4.620
 9534SOL    HW229502   5.491   4.984   4.489
 9535SOL     OW29503   0.446   1.650   5.127
 9535SOL    HW129504   0.460   1.679   5.033
 9535SOL    HW229505   0.427   1.552   5.129
 9536SOL     OW29506   3.318   3.921   4.914
 9536SOL    HW129507   3.263   3.845   4.948
 9536SOL    HW229508   3.402   3.928   4.968
 9537SOL     OW29509   6.977   1.984   4.029
 9537SOL    HW129510   0.003   2.007   4.116
 9537SOL    HW229511   6.975   1.884   4.018
 9538SOL     OW29512   5.083   0.278   5.089
 9538SOL    HW129513   5.081   0.220   5.008
 9538SOL    HW229514   5.038   0.231   5.165
 9539SOL     OW29515   2.849   3.633   2.198
 9539SOL    HW129516   2.763   3.683   2.193
 9539SOL    HW229517   2.864   3.584   2.112
 9540SOL     OW29518   4.658   4.664   3.394
 9540SOL    HW129519   4.687   4.692   3.303
 9540SOL    HW229520   4.736   4.671   3.457
 9541SOL     OW29521   2.383   5.801   5.179
 9541SOL    HW129522   2.302   5.743   5.173
 9541SOL    HW229523   2.437   5.775   5.258
 9542SOL     OW29524   6.480   4.185   3.956
 9542SOL    HW129525   6.410   4.239   3.908
 9542SOL    HW229526   6.435   4.125   4.022
 9543SOL     OW29527   2.682   6.889   5.971
 9543SOL    HW129528   2.748   6.910   5.900
 9543SOL    HW229529   2.649   6.974   6.013
 9544SOL     OW29530   5.921   3.273   4.440
 9544SOL    HW129531   5.995   3.268   4.507
 9544SOL    HW229532   5.882   3.365   4.440
 9545SOL     OW29533   0.177   4.327   1.731
 9545SOL    HW129534   0.255   4.342   1.792
 9545SOL    HW229535   0.209   4.293   1.643
 9546SOL     OW29536   2.614   2.859   0.128
 9546SOL    HW129537   2.516   2.840   0.118
 9546SOL    HW229538   2.656   2.789   0.185
 9547SOL     OW29539   4.043   7.000   3.633
 9547SOL    HW129540   3.948   6.987   3.663
 9547SOL    HW229541   4.105   6.965   3.703
 9548SOL     OW29542   1.457   5.157   6.970
 9548SOL    HW129543   1.455   5.057   6.961
 9548SOL    HW229544   1.374   5.187   7.017
 9549SOL     OW29545   4.865   1.928   0.533
 9549SOL    HW129546   4.869   1.952   0.436
 9549SOL    HW229547   4.857   2.012   0.588
 9550SOL     OW29548   5.411   3.480   1.725
 9550SOL    HW129549   5.322   3.442   1.698
 9550SOL    HW229550   5.484   3.425   1.684
 9551SOL     OW29551   6.349   3.481   6.416
 9551SOL    HW129552   6.378   3.418   6.488
 9551SOL    HW229553   6.353   3.435   6.327
 9552SOL     OW29554   3.361   1.588   0.218
 9552SOL    HW129555   3.429   1.645   0.172
 9552SOL    HW229556   3.295   1.554   0.151
 9553SOL     OW29557   5.383   1.364   6.451
 9553SOL    HW129558   5.478   1.393   6.461
 9553SOL    HW229559   5.333   1.383   6.536
 9554SOL     OW29560   3.624   0.898   4.042
 9554SOL    HW129561   3.609   0.986   3.997
 9554SOL    HW229562   3.551   0.835   4.015
 9555SOL     OW29563   6.832   0.362   3.760
 9555SOL    HW129564   6.800   0.295   3.827
 9555SOL    HW229565   6.932   0.366   3.763
 9556SOL     OW29566   1.848   4.701   6.613
 9556SOL    HW129567   1.848   4.603   6.630
 9556SOL    HW229568   1.755   4.733   6.596
 9557SOL     OW29569   4.885   0.720   1.895
 9557SOL    HW129570   4.840   0.675   1.971
 9557SOL    HW229571   4.973   0.758   1.925
 9558SOL     OW29572   4.910   6.827   6.793
 9558SOL    HW129573   4.822   6.867   6.767
 9558SOL    HW229574   4.919   6.827   6.892
 9559SOL     OW29575   1.886   4.271   0.051
 9559SOL    HW129576   1.959   4.212   0.084
 9559SOL    HW229577   1.889   4.359   0.099
 9560SOL     OW29578   3.268   6.888   2.625
 9560SOL    HW129579   3.265   6.870   2.527
 9560SOL    HW229580   3.312   6.977   2.641
 9561SOL     OW29581   0.658   0.571   0.438
 9561SOL    HW129582   0.580   0.516   0.408
 9561SOL    HW229583   0.696   0.531   0.521
 9562SOL     OW29584   2.744   6.239   2.906
 9562SOL    HW129585   2.665   6.178   2.895
 9562SOL    HW229586   2.729   6.298   2.986
 9563SOL     OW29587   0.287   6.032   0.082
 9563SOL    HW129588   0.233   5.957   0.043
 9563SOL    HW229589   0.231   6.115   0.086
 9564SOL     OW29590   1.490   0.653   6.982
 9564SOL    HW129591   1.546   0.694   6.909
 9564SOL    HW229592   1.550   0.622   0.038
 9565SOL     OW29593   3.261   1.748   4.131
 9565SOL    HW129594   3.166   1.727   4.107
 9565SOL    HW229595   3.262   1.806   4.213
 9566SOL     OW29596   3.277   0.788   6.919
 9566SOL    HW129597   3.237   0.851   6.853
 9566SOL    HW229598   3.283   0.697   6.879
 9567SOL     OW29599   6.984   3.536   1.149
 9567SOL    HW129600   7.003   3.477   1.071
 9567SOL    HW229601   0.053   3.573   1.184
 9568SOL     OW29602   4.949   1.416   6.899
 9568SOL    HW129603   5.011   1.338   6.900
 9568SOL    HW229604   4.880   1.405   6.969
 9569SOL     OW29605   5.720   0.927   1.832
 9569SOL    HW129606   5.735   0.904   1.928
 9569SOL    HW229607   5.805   0.915   1.781
 9570SOL     OW29608   0.398   3.150   1.745
 9570SOL    HW129609   0.394   3.070   1.685
 9570SOL    HW229610   0.481   3.146   1.801
 9571SOL     OW29611   1.721   2.320   6.704
 9571SOL    HW129612   1.701   2.228   6.738
 9571SOL    HW229613   1.642   2.379   6.718
 9572SOL     OW29614   2.260   4.154   3.827
 9572SOL    HW129615   2.247   4.122   3.733
 9572SOL    HW229616   2.173   4.148   3.877
 9573SOL     OW29617   6.677   0.807   4.636
 9573SOL    HW129618   6.580   0.825   4.652
 9573SOL    HW229619   6.710   0.867   4.564
 9574SOL     OW29620   3.503   3.279   1.121
 9574SOL    HW129621   3.561   3.212   1.076
 9574SOL    HW229622   3.407   3.251   1.113
 9575SOL     OW29623   6.067   6.119   1.452
 9575SOL    HW129624   5.977   6.157   1.433
 9575SOL    HW229625   6.092   6.137   1.547
 9576SOL     OW29626   1.194   6.813   6.744
 9576SOL    HW129627   1.138   6.894   6.762
 9576SOL    HW229628   1.195   6.795   6.645
 9577SOL     OW29629   6.340   5.012   2.395
 9577SOL    HW129630   6.285   5.062   2.328
 9577SOL    HW229631   6.328   5.053   2.485
 9578SOL     OW29632   2.131   3.344   2.720
 9578SOL    HW129633   2.134   3.443   2.735
 9578SOL    HW229634   2.121   3.298   2.808
 9579SOL     OW29635   6.128   5.627   1.931
 9579SOL    HW129636   6.047   5.649   1.984
 9579SOL    HW229637   6.198   5.696   1.945
 9580SOL     OW29638   5.393   4.385   2.988
 9580SOL    HW129639   5.336   4.389   3.070
 9580SOL    HW229640   5.365   4.307   2.932
 9581SOL     OW29641   6.048   1.018   0.207
 9581SOL    HW129642   6.008   1.074   0.135
 9581SOL    HW229643   6.147   1.035   0.211
 9582SOL     OW29644   4.871   6.292   4.471
 9582SOL    HW129645   4.938   6.340   4.413
 9582SOL    HW229646   4.872   6.195   4.450
 9583SOL     OW29647   3.864   4.734   1.737
 9583SOL    HW129648   3.799   4.684   1.794
 9583SOL    HW229649   3.828   4.740   1.644
 9584SOL     OW29650   2.527   5.291   4.409
 9584SOL    HW129651   2.540   5.385   4.378
 9584SOL    HW229652   2.437   5.282   4.452
 9585SOL     OW29653   4.350   5.784   1.098
 9585SOL    HW129654   4.272   5.805   1.039
 9585SOL    HW229655   4.368   5.862   1.158
 9586SOL     OW29656   4.089   4.772   2.923
 9586SOL    HW129657   3.991   4.768   2.939
 9586SOL    HW229658   4.111   4.732   2.834
 9587SOL     OW29659   2.844   5.298   1.775
 9587SOL    HW129660   2.775   5.233   1.807
 9587SOL    HW229661   2.826   5.388   1.815
 9588SOL     OW29662   6.680   5.169   0.503
 9588SOL    HW129663   6.731   5.090   0.471
 9588SOL    HW229664   6.592   5.139   0.541
 9589SOL     OW29665   1.539   3.855   6.524
 9589SOL    HW129666   1.590   3.930   6.565
 9589SOL    HW229667   1.573   3.768   6.560
 9590SOL     OW29668   5.992   0.976   1.082
 9590SOL    HW129669   5.996   1.071   1.052
 9590SOL    HW229670   5.972   0.973   1.180
 9591SOL     OW29671   4.064   0.749   0.265
 9591SOL    HW129672   4.149   0.710   0.231
 9591SOL    HW229673   4.084   0.812   0.341
 9592SOL     OW29674   2.012   6.389   5.616
 9592SOL    HW129675   1.936   6.368   5.678
 9592SOL    HW229676   2.058   6.304   5.589
 9593SOL     OW29677   1.686   1.355   4.166
 9593SOL    HW129678   1.607   1.320   4.116
 9593SOL    HW229679   1.747   1.279   4.190
 9594SOL     OW29680   0.113   6.791   3.925
 9594SOL    HW129681   0.210   6.767   3.930
 9594SOL    HW229682   0.073   6.750   3.842
 9595SOL     OW29683   0.250   3.420   3.314
 9595SOL    HW129684   0.173   3.371   3.355
 9595SOL    HW229685   0.271   3.502   3.367
 9596SOL     OW29686   0.567   6.746   0.972
 9596SOL    HW129687   0.511   6.811   1.023
 9596SOL    HW229688   0.542   6.653   0.997
 9597SOL     OW29689   1.011   3.040   2.618
 9597SOL    HW129690   0.927   3.078   2.581
 9597SOL    HW229691   1.072   3.014   2.544
 9598SOL     OW29692   1.755   3.587   3.872
 9598SOL    HW129693   1.775   3.628   3.783
 9598SOL    HW229694   1.782   3.650   3.945
 9599SOL     OW29695   4.302   6.706   3.556
 9599SOL    HW129696   4.206   6.692   3.580
 9599SOL    HW229697   4.357   6.712   3.639
 9600SOL     OW29698   3.160   0.704   1.803
 9600SOL    HW129699   3.247   0.659   1.822
 9600SOL    HW229700   3.156   0.791   1.851
 9601SOL     OW29701   0.559   3.918   1.096
 9601SOL    HW129702   0.504   3.860   1.038
 9601SOL    HW229703   0.655   3.889   1.092
 9602SOL     OW29704   4.296   4.994   5.337
 9602SOL    HW129705   4.355   5.046   5.400
 9602SOL    HW229706   4.226   5.054   5.299
 9603SOL     OW29707   4.952   5.603   4.994
 9603SOL    HW129708   5.036   5.557   4.966
 9603SOL    HW229709   4.938   5.590   5.092
 9604SOL     OW29710   5.223   6.591   0.219
 9604SOL    HW129711   5.241   6.690   0.218
 9604SOL    HW229712   5.239   6.553   0.128
 9605SOL     OW29713   6.459   6.361   2.588
 9605SOL    HW129714   6.371   6.407   2.603
 9605SOL    HW229715   6.469   6.287   2.655
 9606SOL     OW29716   1.510   1.511   6.302
 9606SOL    HW129717   1.579   1.581   6.284
 9606SOL    HW229718   1.432   1.553   6.349
 9607SOL     OW29719   3.120   2.620   6.003
 9607SOL    HW129720   3.043   2.666   6.049
 9607SOL    HW229721   3.199   2.618   6.064
 9608SOL     OW29722   6.604   3.260   3.880
 9608SOL    HW129723   6.613   3.301   3.790
 9608SOL    HW229724   6.666   3.181   3.887
 9609SOL     OW29725   4.672   3.085   6.418
 9609SOL    HW129726   4.739   3.071   6.491
 9609SOL    HW229727   4.586   3.042   6.444
 9610SOL     OW29728   1.213   4.252   3.294
 9610SOL    HW129729   1.260   4.302   3.221
 9610SOL    HW229730   1.272   4.246   3.375
 9611SOL     OW29731   1.888   0.196   0.344
 9611SOL    HW129732   1.924   0.251   0.420
 9611SOL    HW229733   1.841   0.116   0.381
 9612SOL     OW29734   6.525   2.880   3.299
 9612SOL    HW129735   6.535   2.827   3.215
 9612SOL    HW229736   6.586   2.842   3.370
 9613SOL     OW29737   5.740   5.622   3.487
 9613SOL    HW129738   5.797   5.539   3.482
 9613SOL    HW229739   5.755   5.666   3.576
 9614SOL     OW29740   4.792   2.453   3.673
 9614SOL    HW129741   4.744   2.495   3.597
 9614SOL    HW229742   4.749   2.481   3.759
 9615SOL     OW29743   2.652   3.746   0.892
 9615SOL    HW129744   2.615   3.838   0.901
 9615SOL    HW229745   2.734   3.738   0.950
 9616SOL     OW29746   4.367   3.341   0.092
 9616SOL    HW129747   4.394   3.304   0.180
 9616SOL    HW229748   4.323   3.270   0.037
 9617SOL     OW29749   2.201   1.902   3.570
 9617SOL    HW129750   2.240   1.827   3.625
 9617SOL    HW229751   2.220   1.989   3.615
 9618SOL     OW29752   2.911   1.568   0.857
 9618SOL    HW129753   2.913   1.555   0.956
 9618SOL    HW229754   3.001   1.601   0.827
 9619SOL     OW29755   2.938   1.038   4.962
 9619SOL    HW129756   3.006   1.081   4.903
 9619SOL    HW229757   2.864   1.103   4.980
 9620SOL     OW29758   6.021   0.843   6.027
 9620SOL    HW129759   5.935   0.844   5.976
 9620SOL    HW229760   6.098   0.839   5.964
 9621SOL     OW29761   1.698   2.589   3.245
 9621SOL    HW129762   1.608   2.553   3.221
 9621SOL    HW229763   1.762   2.514   3.257
 9622SOL     OW29764   5.519   0.067   1.338
 9622SOL    HW129765   5.579   0.089   1.415
 9622SOL    HW229766   5.567   0.084   1.252
 9623SOL     OW29767   2.461   3.751   6.611
 9623SOL    HW129768   2.413   3.665   6.599
 9623SOL    HW229769   2.560   3.737   6.602
 9624SOL     OW29770   6.629   3.404   3.649
 9624SOL    HW129771   6.653   3.485   3.595
 9624SOL    HW229772   6.670   3.323   3.608
 9625SOL     OW29773   6.167   6.142   0.279
 9625SOL    HW129774   6.081   6.144   0.229
 9625SOL    HW229775   6.242   6.118   0.217
 9626SOL     OW29776   3.055   6.445   6.610
 9626SOL    HW129777   2.961   6.423   6.583
 9626SOL    HW229778   3.059   6.538   6.647
 9627SOL     OW29779   1.261   6.708   6.503
 9627SOL    HW129780   1.357   6.682   6.511
 9627SOL    HW229781   1.220   6.661   6.426
 9628SOL     OW29782   4.248   6.301   2.008
 9628SOL    HW129783   4.247   6.393   1.970
 9628SOL    HW229784   4.271   6.305   2.105
 9629SOL     OW29785   2.480   6.729   1.000
 9629SOL    HW129786   2.382   6.715   0.983
 9629SOL    HW229787   2.492   6.767   1.092
 9630SOL     OW29788   6.440   0.669   6.302
 9630SOL    HW129789   6.402   0.577   6.306
 9630SOL    HW229790   6.492   0.681   6.218
 9631SOL     OW29791   5.937   6.123   0.145
 9631SOL    HW129792   5.927   6.157   0.052
 9631SOL    HW229793   5.850   6.133   0.193
 9632SOL     OW29794   1.482   6.158   1.980
 9632SOL    HW129795   1.414   6.209   2.032
 9632SOL    HW229796   1.569   6.206   1.983
 9633SOL     OW29797   6.884   5.219   6.109
 9633SOL    HW129798   6.920   5.139   6.060
 9633SOL    HW229799   6.794   5.197   6.146
 9634SOL     OW29800   1.027   5.888   5.050
 9634SOL    HW129801   1.049   5.844   4.963
 9634SOL    HW229802   0.963   5.831   5.101
 9635SOL     OW29803   1.486   5.254   5.778
 9635SOL    HW129804   1.522   5.267   5.870
 9635SOL    HW229805   1.550   5.292   5.712
 9636SOL     OW29806   4.159   1.575   6.711
 9636SOL    HW129807   4.202   1.485   6.720
 9636SOL    HW229808   4.181   1.613   6.621
 9637SOL     OW29809   2.302   1.125   0.101
 9637SOL    HW129810   2.281   1.040   0.052
 9637SOL    HW229811   2.217   1.169   0.129
 9638SOL     OW29812   6.840   1.980   5.728
 9638SOL    HW129813   6.869   1.930   5.810
 9638SOL    HW229814   6.741   1.980   5.722
 9639SOL     OW29815   3.890   0.782   2.630
 9639SOL    HW129816   3.946   0.739   2.701
 9639SOL    HW229817   3.873   0.877   2.654
 9640SOL     OW29818   2.006   2.755   2.311
 9640SOL    HW129819   1.910   2.780   2.301
 9640SOL    HW229820   2.062   2.837   2.309
 9641SOL     OW29821   6.298   5.694   0.164
 9641SOL    HW129822   6.253   5.726   0.248
 9641SOL    HW229823   6.244   5.621   0.123
 9642SOL     OW29824   3.421   0.078   4.032
 9642SOL    HW129825   3.403   0.080   4.130
 9642SOL    HW229826   3.507   0.030   4.015
 9643SOL     OW29827   4.231   4.723   3.343
 9643SOL    HW129828   4.287   4.640   3.344
 9643SOL    HW229829   4.251   4.776   3.426
 9644SOL     OW29830   2.651   2.073   6.907
 9644SOL    HW129831   2.589   2.095   6.831
 9644SOL    HW229832   2.609   2.003   6.965
 9645SOL     OW29833   2.984   5.222   5.183
 9645SOL    HW129834   3.056   5.160   5.153
 9645SOL    HW229835   2.917   5.172   5.237
 9646SOL     OW29836   4.155   5.395   3.435
 9646SOL    HW129837   4.151   5.467   3.504
 9646SOL    HW229838   4.166   5.435   3.345
 9647SOL     OW29839   6.824   2.835   0.219
 9647SOL    HW129840   6.848   2.905   0.152
 9647SOL    HW229841   6.833   2.744   0.177
 9648SOL     OW29842   4.371   3.699   0.895
 9648SOL    HW129843   4.361   3.639   0.816
 9648SOL    HW229844   4.321   3.661   0.973
 9649SOL     OW29845   2.255   5.679   0.751
 9649SOL    HW129846   2.310   5.609   0.706
 9649SOL    HW229847   2.189   5.635   0.812
 9650SOL     OW29848   0.096   6.951   2.082
 9650SOL    HW129849   0.115   6.980   1.988
 9650SOL    HW229850   0.033   7.016   2.125
 9651SOL     OW29851   0.329   2.045   5.119
 9651SOL    HW129852   0.252   2.064   5.058
 9651SOL    HW229853   0.403   2.000   5.068
 9652SOL     OW29854   0.303   5.480   2.747
 9652SOL    HW129855   0.260   5.494   2.658
 9652SOL    HW229856   0.384   5.538   2.754
 9653SOL     OW29857   6.094   5.165   4.119
 9653SOL    HW129858   6.046   5.079   4.132
 9653SOL    HW229859   6.115   5.206   4.207
 9654SOL     OW29860   2.174   2.960   2.340
 9654SOL    HW129861   2.266   2.926   2.321
 9654SOL    HW229862   2.179   3.038   2.402
 9655SOL     OW29863   5.947   2.353   6.749
 9655SOL    HW129864   5.989   2.267   6.778
 9655SOL    HW229865   6.019   2.421   6.733
 9656SOL     OW29866   3.650   0.618   2.819
 9656SOL    HW129867   3.657   0.544   2.753
 9656SOL    HW229868   3.741   0.653   2.840
 9657SOL     OW29869   0.296   0.321   5.047
 9657SOL    HW129870   0.253   0.371   5.122
 9657SOL    HW229871   0.371   0.266   5.082
 9658SOL     OW29872   5.820   2.495   2.810
 9658SOL    HW129873   5.853   2.503   2.903
 9658SOL    HW229874   5.861   2.415   2.766
 9659SOL     OW29875   0.744   5.290   6.970
 9659SOL    HW129876   0.644   5.291   6.961
 9659SOL    HW229877   0.774   5.379   7.005
 9660SOL     OW29878   0.219   5.173   0.829
 9660SOL    HW129879   0.224   5.220   0.741
 9660SOL    HW229880   0.158   5.095   0.822
 9661SOL     OW29881   4.571   6.373   0.917
 9661SOL    HW129882   4.622   6.433   0.979
 9661SOL    HW229883   4.474   6.374   0.941
 9662SOL     OW29884   5.060   0.859   4.566
 9662SOL    HW129885   5.135   0.919   4.541
 9662SOL    HW229886   5.096   0.767   4.585
 9663SOL     OW29887   2.244   5.880   3.397
 9663SOL    HW129888   2.238   5.798   3.454
 9663SOL    HW229889   2.220   5.960   3.452
 9664SOL     OW29890   2.572   5.727   1.482
 9664SOL    HW129891   2.573   5.632   1.512
 9664SOL    HW229892   2.596   5.787   1.558
 9665SOL     OW29893   5.402   4.140   4.041
 9665SOL    HW129894   5.392   4.115   4.138
 9665SOL    HW229895   5.372   4.064   3.984
 9666SOL     OW29896   5.686   4.663   4.666
 9666SOL    HW129897   5.689   4.583   4.607
 9666SOL    HW229898   5.618   4.649   4.738
 9667SOL     OW29899   3.980   3.872   3.521
 9667SOL    HW129900   4.030   3.829   3.596
 9667SOL    HW229901   3.968   3.806   3.447
 9668SOL     OW29902   0.373   1.344   4.946
 9668SOL    HW129903   0.403   1.260   4.989
 9668SOL    HW229904   0.277   1.361   4.970
 9669SOL     OW29905   1.902   6.048   0.232
 9669SOL    HW129906   1.834   5.975   0.243
 9669SOL    HW229907   1.884   6.120   0.299
 9670SOL     OW29908   6.119   4.584   6.463
 9670SOL    HW129909   6.216   4.572   6.444
 9670SOL    HW229910   6.067   4.510   6.420
 9671SOL     OW29911   0.407   0.231   0.037
 9671SOL    HW129912   0.315   0.195   0.055
 9671SOL    HW229913   0.404   0.331   0.042
 9672SOL     OW29914   1.046   6.208   4.801
 9672SOL    HW129915   1.109   6.265   4.750
 9672SOL    HW229916   0.965   6.188   4.745
 9673SOL     OW29917   2.362   2.417   6.451
 9673SOL    HW129918   2.290   2.468   6.403
 9673SOL    HW229919   2.445   2.419   6.396
 9674SOL     OW29920   2.637   6.916   2.257
 9674SOL    HW129921   2.660   6.933   2.353
 9674SOL    HW229922   2.712   6.865   2.214
 9675SOL     OW29923   0.176   3.071   1.964
 9675SOL    HW129924   0.099   3.072   1.901
 9675SOL    HW229925   0.238   3.146   1.942
 9676SOL     OW29926   0.110   3.652   4.808
 9676SOL    HW129927   0.199   3.633   4.850
 9676SOL    HW229928   0.122   3.711   4.729
 9677SOL     OW29929   1.999   3.378   4.835
 9677SOL    HW129930   1.926   3.408   4.896
 9677SOL    HW229931   2.034   3.289   4.866
 9678SOL     OW29932   4.101   3.338   3.234
 9678SOL    HW129933   4.149   3.307   3.316
 9678SOL    HW229934   4.031   3.270   3.209
 9679SOL     OW29935   0.993   3.453   0.835
 9679SOL    HW129936   1.004   3.515   0.758
 9679SOL    HW229937   0.979   3.360   0.802
 9680SOL     OW29938   5.436   5.350   3.282
 9680SOL    HW129939   5.507   5.286   3.311
 9680SOL    HW229940   5.459   5.386   3.191
 9681SOL     OW29941   0.998   1.462   4.078
 9681SOL    HW129942   1.018   1.407   4.160
 9681SOL    HW229943   0.900   1.478   4.072
 9682SOL     OW29944   0.162   4.740   3.033
 9682SOL    HW129945   0.143   4.683   3.113
 9682SOL    HW229946   0.204   4.684   2.962
 9683SOL     OW29947   4.445   6.473   6.026
 9683SOL    HW129948   4.416   6.568   6.018
 9683SOL    HW229949   4.544   6.467   6.017
 9684SOL     OW29950   0.986   4.418   3.715
 9684SOL    HW129951   0.990   4.339   3.776
 9684SOL    HW229952   0.904   4.471   3.734
 9685SOL     OW29953   1.769   2.262   0.217
 9685SOL    HW129954   1.831   2.243   0.293
 9685SOL    HW229955   1.681   2.218   0.234
 9686SOL     OW29956   5.545   0.745   1.716
 9686SOL    HW129957   5.464   0.776   1.668
 9686SOL    HW229958   5.586   0.822   1.766
 9687SOL     OW29959   3.528   0.582   3.951
 9687SOL    HW129960   3.457   0.640   3.912
 9687SOL    HW229961   3.576   0.535   3.877
 9688SOL     OW29962   6.722   1.823   3.931
 9688SOL    HW129963   6.767   1.893   3.876
 9688SOL    HW229964   6.784   1.745   3.942
 9689SOL     OW29965   1.919   5.723   6.225
 9689SOL    HW129966   1.889   5.766   6.140
 9689SOL    HW229967   2.003   5.671   6.209
 9690SOL     OW29968   6.068   4.377   0.609
 9690SOL    HW129969   6.075   4.375   0.708
 9690SOL    HW229970   5.985   4.427   0.583
 9691SOL     OW29971   1.400   4.143   1.810
 9691SOL    HW129972   1.367   4.238   1.809
 9691SOL    HW229973   1.326   4.082   1.781
 9692SOL     OW29974   2.405   5.735   1.250
 9692SOL    HW129975   2.449   5.780   1.172
 9692SOL    HW229976   2.472   5.724   1.324
 9693SOL     OW29977   6.016   5.401   1.773
 9693SOL    HW129978   6.063   5.469   1.829
 9693SOL    HW229979   6.070   5.385   1.690
 9694SOL     OW29980   2.096   2.293   0.056
 9694SOL    HW129981   2.034   2.370   0.072
 9694SOL    HW229982   2.184   2.312   0.099
 9695SOL     OW29983   6.174   3.993   1.211
 9695SOL    HW129984   6.080   4.027   1.200
 9695SOL    HW229985   6.225   4.009   1.127
 9696SOL     OW29986   3.595   3.936   0.860
 9696SOL    HW129987   3.535   3.939   0.940
 9696SOL    HW229988   3.667   3.868   0.875
 9697SOL     OW29989   0.568   6.015   6.801
 9697SOL    HW129990   0.538   5.923   6.776
 9697SOL    HW229991   0.507   6.083   6.760
 9698SOL     OW29992   5.796   1.566   5.377
 9698SOL    HW129993   5.751   1.615   5.451
 9698SOL    HW229994   5.729   1.512   5.327
 9699SOL     OW29995   2.014   3.172   0.561
 9699SOL    HW129996   1.929   3.136   0.523
 9699SOL    HW229997   2.081   3.099   0.568
 9700SOL     OW29998   2.986   3.744   4.121
 9700SOL    HW129999   2.981   3.662   4.179
 9700SOL    HW230000   3.046   3.812   4.164
 9701SOL     OW30001   5.179   3.938   5.225
 9701SOL    HW130002   5.169   3.869   5.298
 9701SOL    HW230003   5.182   3.892   5.137
 9702SOL     OW30004   4.270   0.547   0.850
 9702SOL    HW130005   4.197   0.562   0.783
 9702SOL    HW230006   4.249   0.596   0.934
 9703SOL     OW30007   3.171   6.378   4.281
 9703SOL    HW130008   3.157   6.342   4.189
 9703SOL    HW230009   3.161   6.303   4.347
 9704SOL     OW30010   2.508   0.521   3.646
 9704SOL    HW130011   2.456   0.517   3.561
 9704SOL    HW230012   2.562   0.605   3.648
 9705SOL     OW30013   3.629   4.024   0.597
 9705SOL    HW130014   3.723   4.012   0.565
 9705SOL    HW230015   3.617   3.975   0.683
 9706SOL     OW30016   5.848   2.711   2.644
 9706SOL    HW130017   5.850   2.664   2.556
 9706SOL    HW230018   5.829   2.645   2.717
 9707SOL     OW30019   2.723   5.258   3.034
 9707SOL    HW130020   2.640   5.247   3.089
 9707SOL    HW230021   2.792   5.307   3.087
 9708SOL     OW30022   2.275   1.857   2.469
 9708SOL    HW130023   2.245   1.859   2.564
 9708SOL    HW230024   2.196   1.845   2.409
 9709SOL     OW30025   1.775   4.787   2.965
 9709SOL    HW130026   1.779   4.722   2.890
 9709SOL    HW230027   1.866   4.826   2.980
 9710SOL     OW30028   0.237   0.666   3.734
 9710SOL    HW130029   0.206   0.586   3.785
 9710SOL    HW230030   0.171   0.741   3.747
 9711SOL     OW30031   1.566   3.810   5.852
 9711SOL    HW130032   1.480   3.846   5.816
 9711SOL    HW230033   1.549   3.765   5.940
 9712SOL     OW30034   4.639   2.597   4.477
 9712SOL    HW130035   4.628   2.674   4.539
 9712SOL    HW230036   4.607   2.513   4.521
 9713SOL     OW30037   6.770   5.070   2.023
 9713SOL    HW130038   6.848   5.058   2.084
 9713SOL    HW230039   6.715   4.987   2.022
 9714SOL     OW30040   1.396   2.553   2.030
 9714SOL    HW130041   1.483   2.597   2.052
 9714SOL    HW230042   1.409   2.454   2.026
 9715SOL     OW30043   5.573   5.371   4.606
 9715SOL    HW130044   5.585   5.438   4.680
 9715SOL    HW230045   5.579   5.278   4.644
 9716SOL     OW30046   4.138   2.301   6.685
 9716SOL    HW130047   4.060   2.281   6.625
 9716SOL    HW230048   4.147   2.399   6.697
 9717SOL     OW30049   5.977   4.561   3.115
 9717SOL    HW130050   5.988   4.658   3.137
 9717SOL    HW230051   5.979   4.549   3.015
 9718SOL     OW30052   4.335   3.393   1.783
 9718SOL    HW130053   4.424   3.439   1.790
 9718SOL    HW230054   4.268   3.442   1.839
 9719SOL     OW30055   0.724   1.670   0.521
 9719SOL    HW130056   0.816   1.688   0.555
 9719SOL    HW230057   0.665   1.749   0.538
 9720SOL     OW30058   0.656   0.158   1.269
 9720SOL    HW130059   0.636   0.075   1.217
 9720SOL    HW230060   0.576   0.184   1.323
 9721SOL     OW30061   6.700   3.283   2.845
 9721SOL    HW130062   6.657   3.243   2.765
 9721SOL    HW230063   6.633   3.337   2.896
 9722SOL     OW30064   6.789   0.660   4.419
 9722SOL    HW130065   6.757   0.704   4.503
 9722SOL    HW230066   6.717   0.599   4.384
 9723SOL     OW30067   6.675   1.344   3.491
 9723SOL    HW130068   6.637   1.281   3.424
 9723SOL    HW230069   6.650   1.438   3.466
 9724SOL     OW30070   4.064   2.996   1.376
 9724SOL    HW130071   3.998   2.996   1.451
 9724SOL    HW230072   4.052   3.080   1.322
 9725SOL     OW30073   4.258   3.414   5.904
 9725SOL    HW130074   4.245   3.318   5.878
 9725SOL    HW230075   4.294   3.419   5.996
 9726SOL     OW30076   5.708   5.600   4.947
 9726SOL    HW130077   5.753   5.513   4.925
 9726SOL    HW230078   5.632   5.615   4.884
 9727SOL     OW30079   1.424   1.896   6.154
 9727SOL    HW130080   1.354   1.898   6.225
 9727SOL    HW230081   1.455   1.989   6.136
 9728SOL     OW30082   3.165   5.723   0.049
 9728SOL    HW130083   3.108   5.717   6.985
 9728SOL    HW230084   3.109   5.705   0.130
 9729SOL     OW30085   2.899   5.368   2.555
 9729SOL    HW130086   2.885   5.460   2.521
 9729SOL    HW230087   2.910   5.305   2.479
 9730SOL     OW30088   6.222   3.636   2.815
 9730SOL    HW130089   6.153   3.709   2.811
 9730SOL    HW230090   6.311   3.673   2.789
 9731SOL     OW30091   4.799   5.423   1.327
 9731SOL    HW130092   4.781   5.519   1.345
 9731SOL    HW230093   4.742   5.392   1.252
 9732SOL     OW30094   6.502   5.377   3.457
 9732SOL    HW130095   6.432   5.409   3.520
 9732SOL    HW230096   6.519   5.448   3.388
 9733SOL     OW30097   5.543   4.437   6.635
 9733SOL    HW130098   5.581   4.351   6.600
 9733SOL    HW230099   5.618   4.499   6.659
 9734SOL     OW30100   5.038   2.359   4.824
 9734SOL    HW130101   5.045   2.265   4.857
 9734SOL    HW230102   5.007   2.359   4.729
 9735SOL     OW30103   2.074   3.781   0.128
 9735SOL    HW130104   2.059   3.687   0.098
 9735SOL    HW230105   2.141   3.825   0.069
 9736SOL     OW30106   3.522   1.383   1.406
 9736SOL    HW130107   3.604   1.395   1.462
 9736SOL    HW230108   3.502   1.286   1.397
 9737SOL     OW30109   4.073   2.185   5.028
 9737SOL    HW130110   4.043   2.198   4.933
 9737SOL    HW230111   4.119   2.268   5.060
 9738SOL     OW30112   1.957   0.442   2.134
 9738SOL    HW130113   1.900   0.506   2.082
 9738SOL    HW230114   1.998   0.490   2.211
 9739SOL     OW30115   5.399   5.056   2.002
 9739SOL    HW130116   5.442   5.144   2.024
 9739SOL    HW230117   5.465   4.982   2.018
 9740SOL     OW30118   6.723   3.597   3.453
 9740SOL    HW130119   6.689   3.567   3.364
 9740SOL    HW230120   6.822   3.584   3.457
 9741SOL     OW30121   3.914   1.845   1.634
 9741SOL    HW130122   3.831   1.834   1.690
 9741SOL    HW230123   3.994   1.852   1.694
 9742SOL     OW30124   4.631   1.627   4.098
 9742SOL    HW130125   4.649   1.643   4.001
 9742SOL    HW230126   4.541   1.585   4.108
 9743SOL     OW30127   1.650   2.295   5.458
 9743SOL    HW130128   1.563   2.253   5.484
 9743SOL    HW230129   1.725   2.249   5.506
 9744SOL     OW30130   2.118   0.500   1.823
 9744SOL    HW130131   2.176   0.491   1.742
 9744SOL    HW230132   2.051   0.573   1.808
 9745SOL     OW30133   6.627   1.984   4.779
 9745SOL    HW130134   6.530   2.007   4.774
 9745SOL    HW230135   6.673   2.016   4.696
 9746SOL     OW30136   6.002   1.031   4.052
 9746SOL    HW130137   6.037   1.117   4.089
 9746SOL    HW230138   6.067   0.994   3.986
 9747SOL     OW30139   0.549   0.020   0.001
 9747SOL    HW130140   0.502   0.109   0.001
 9747SOL    HW230141   0.616   0.018   6.945
 9748SOL     OW30142   0.545   5.021   4.342
 9748SOL    HW130143   0.565   5.009   4.245
 9748SOL    HW230144   0.512   5.114   4.358
 9749SOL     OW30145   0.886   4.082   4.043
 9749SOL    HW130146   0.848   4.147   4.110
 9749SOL    HW230147   0.862   3.989   4.070
 9750SOL     OW30148   3.532   5.215   3.020
 9750SOL    HW130149   3.468   5.208   3.097
 9750SOL    HW230150   3.481   5.239   2.937
 9751SOL     OW30151   1.817   2.478   0.541
 9751SOL    HW130152   1.730   2.497   0.495
 9751SOL    HW230153   1.876   2.559   0.536
 9752SOL     OW30154   3.341   1.793   6.245
 9752SOL    HW130155   3.401   1.868   6.217
 9752SOL    HW230156   3.379   1.706   6.213
 9753SOL     OW30157   6.822   6.100   5.343
 9753SOL    HW130158   6.795   6.067   5.253
 9753SOL    HW230159   6.865   6.190   5.334
 9754SOL     OW30160   6.889   2.287   6.855
 9754SOL    HW130161   6.919   2.220   6.922
 9754SOL    HW230162   6.819   2.246   6.796
 9755SOL     OW30163   4.166   4.792   5.522
 9755SOL    HW130164   4.241   4.729   5.542
 9755SOL    HW230165   4.188   4.846   5.441
 9756SOL     OW30166   5.274   2.229   5.897
 9756SOL    HW130167   5.293   2.224   5.995
 9756SOL    HW230168   5.360   2.241   5.847
 9757SOL     OW30169   5.914   1.877   3.530
 9757SOL    HW130170   5.955   1.942   3.594
 9757SOL    HW230171   5.851   1.927   3.469
 9758SOL     OW30172   2.921   0.822   6.900
 9758SOL    HW130173   2.871   0.903   6.931
 9758SOL    HW230174   2.951   0.836   6.806
 9759SOL     OW30175   2.945   5.822   1.070
 9759SOL    HW130176   2.913   5.914   1.048
 9759SOL    HW230177   2.915   5.797   1.162
 9760SOL     OW30178   5.717   4.823   6.107
 9760SOL    HW130179   5.688   4.729   6.124
 9760SOL    HW230180   5.651   4.887   6.149
 9761SOL     OW30181   5.333   6.108   2.702
 9761SOL    HW130182   5.233   6.103   2.700
 9761SOL    HW230183   5.372   6.018   2.687
 9762SOL     OW30184   2.652   1.424   3.396
 9762SOL    HW130185   2.644   1.520   3.367
 9762SOL    HW230186   2.572   1.373   3.365
 9763SOL     OW30187   1.721   1.581   1.908
 9763SOL    HW130188   1.779   1.574   1.990
 9763SOL    HW230189   1.671   1.668   1.911
 9764SOL     OW30190   0.987   2.826   1.755
 9764SOL    HW130191   0.920   2.859   1.689
 9764SOL    HW230192   0.991   2.727   1.753
 9765SOL     OW30193   6.882   1.405   5.163
 9765SOL    HW130194   6.915   1.499   5.151
 9765SOL    HW230195   6.911   1.371   5.253
 9766SOL     OW30196   2.663   6.990   2.522
 9766SOL    HW130197   2.678   0.055   2.576
 9766SOL    HW230198   2.565   6.973   2.513
 9767SOL     OW30199   5.268   0.609   5.390
 9767SOL    HW130200   5.198   0.545   5.424
 9767SOL    HW230201   5.345   0.558   5.352
 9768SOL     OW30202   5.137   2.221   3.649
 9768SOL    HW130203   5.081   2.295   3.612
 9768SOL    HW230204   5.082   2.166   3.713
 9769SOL     OW30205   0.510   1.367   1.624
 9769SOL    HW130206   0.498   1.341   1.720
 9769SOL    HW230207   0.421   1.373   1.580
 9770SOL     OW30208   6.337   4.326   6.199
 9770SOL    HW130209   6.326   4.325   6.099
 9770SOL    HW230210   6.394   4.249   6.227
 9771SOL     OW30211   3.024   5.210   4.073
 9771SOL    HW130212   2.957   5.251   4.011
 9771SOL    HW230213   3.049   5.119   4.040
 9772SOL     OW30214   6.521   0.591   1.437
 9772SOL    HW130215   6.599   0.541   1.399
 9772SOL    HW230216   6.498   0.668   1.377
 9773SOL     OW30217   5.168   5.120   3.260
 9773SOL    HW130218   5.119   5.169   3.333
 9773SOL    HW230219   5.266   5.137   3.270
 9774SOL     OW30220   6.967   4.617   3.297
 9774SOL    HW130221   6.935   4.701   3.254
 9774SOL    HW230222   0.013   4.640   3.371
 9775SOL     OW30223   2.908   2.179   5.005
 9775SOL    HW130224   2.878   2.246   5.073
 9775SOL    HW230225   3.003   2.196   4.981
 9776SOL     OW30226   0.270   4.645   4.591
 9776SOL    HW130227   0.191   4.697   4.560
 9776SOL    HW230228   0.350   4.705   4.598
 9777SOL     OW30229   5.752   5.216   6.381
 9777SOL    HW130230   5.727   5.300   6.334
 9777SOL    HW230231   5.786   5.238   6.472
 9778SOL     OW30232   3.943   0.648   3.433
 9778SOL    HW130233   3.869   0.637   3.500
 9778SOL    HW230234   3.912   0.617   3.343
 9779SOL     OW30235   2.909   1.909   6.367
 9779SOL    HW130236   2.996   1.916   6.318
 9779SOL    HW230237   2.856   1.992   6.353
 9780SOL     OW30238   3.295   4.180   0.512
 9780SOL    HW130239   3.388   4.154   0.488
 9780SOL    HW230240   3.297   4.249   0.585
 9781SOL     OW30241   1.808   6.476   4.234
 9781SOL    HW130242   1.847   6.470   4.326
 9781SOL    HW230243   1.711   6.500   4.240
 9782SOL     OW30244   6.073   0.676   1.289
 9782SOL    HW130245   6.150   0.733   1.260
 9782SOL    HW230246   6.045   0.617   1.213
 9783SOL     OW30247   5.764   1.358   2.826
 9783SOL    HW130248   5.714   1.292   2.769
 9783SOL    HW230249   5.755   1.332   2.922
 9784SOL     OW30250   5.427   0.675   4.505
 9784SOL    HW130251   5.423   0.606   4.432
 9784SOL    HW230252   5.512   0.664   4.556
 9785SOL     OW30253   0.710   3.081   0.726
 9785SOL    HW130254   0.641   3.147   0.755
 9785SOL    HW230255   0.668   3.011   0.670
 9786SOL     OW30256   2.057   0.254   5.068
 9786SOL    HW130257   2.062   0.211   4.978
 9786SOL    HW230258   1.970   0.303   5.078
 9787SOL     OW30259   5.911   4.422   1.521
 9787SOL    HW130260   5.832   4.393   1.575
 9787SOL    HW230261   5.995   4.400   1.571
 9788SOL     OW30262   0.218   0.993   5.164
 9788SOL    HW130263   0.123   0.997   5.194
 9788SOL    HW230264   0.240   0.900   5.135
 9789SOL     OW30265   1.175   5.833   4.375
 9789SOL    HW130266   1.117   5.897   4.425
 9789SOL    HW230267   1.123   5.750   4.354
 9790SOL     OW30268   6.833   1.417   4.026
 9790SOL    HW130269   6.930   1.408   4.047
 9790SOL    HW230270   6.791   1.481   4.091
 9791SOL     OW30271   1.050   2.645   1.417
 9791SOL    HW130272   1.109   2.579   1.463
 9791SOL    HW230273   1.091   2.669   1.329
 9792SOL     OW30274   4.258   5.814   1.859
 9792SOL    HW130275   4.252   5.903   1.904
 9792SOL    HW230276   4.337   5.764   1.893
 9793SOL     OW30277   5.344   6.366   2.605
 9793SOL    HW130278   5.358   6.450   2.657
 9793SOL    HW230279   5.344   6.288   2.667
 9794SOL     OW30280   2.819   3.502   6.784
 9794SOL    HW130281   2.793   3.411   6.817
 9794SOL    HW230282   2.912   3.522   6.814
 9795SOL     OW30283   2.657   4.612   4.097
 9795SOL    HW130284   2.559   4.600   4.113
 9795SOL    HW230285   2.703   4.625   4.185
 9796SOL     OW30286   3.875   4.667   0.551
 9796SOL    HW130287   3.833   4.698   0.636
 9796SOL    HW230288   3.804   4.657   0.481
 9797SOL     OW30289   4.861   2.802   4.828
 9797SOL    HW130290   4.897   2.885   4.870
 9797SOL    HW230291   4.936   2.744   4.798
 9798SOL     OW30292   2.262   1.908   1.775
 9798SOL    HW130293   2.359   1.887   1.772
 9798SOL    HW230294   2.211   1.826   1.801
 9799SOL     OW30295   2.947   3.477   1.901
 9799SOL    HW130296   2.928   3.539   1.825
 9799SOL    HW230297   3.030   3.425   1.882
 9800SOL     OW30298   3.312   5.139   0.274
 9800SOL    HW130299   3.317   5.166   0.178
 9800SOL    HW230300   3.321   5.040   0.282
 9801SOL     OW30301   4.822   5.392   0.118
 9801SOL    HW130302   4.825   5.381   0.018
 9801SOL    HW230303   4.766   5.319   0.158
 9802SOL     OW30304   0.911   4.840   1.583
 9802SOL    HW130305   1.008   4.855   1.603
 9802SOL    HW230306   0.859   4.923   1.605
 9803SOL     OW30307   5.087   0.322   6.369
 9803SOL    HW130308   5.099   0.324   6.468
 9803SOL    HW230309   4.990   0.326   6.347
 9804SOL     OW30310   5.632   5.196   4.267
 9804SOL    HW130311   5.709   5.166   4.323
 9804SOL    HW230312   5.659   5.275   4.212
 9805SOL     OW30313   3.307   4.393   1.553
 9805SOL    HW130314   3.378   4.392   1.624
 9805SOL    HW230315   3.325   4.469   1.490
 9806SOL     OW30316   6.704   2.081   2.478
 9806SOL    HW130317   6.770   2.155   2.465
 9806SOL    HW230318   6.753   1.994   2.487
 9807SOL     OW30319   3.121   2.598   0.776
 9807SOL    HW130320   3.074   2.511   0.792
 9807SOL    HW230321   3.125   2.649   0.862
 9808SOL     OW30322   2.158   2.178   4.873
 9808SOL    HW130323   2.117   2.149   4.787
 9808SOL    HW230324   2.104   2.253   4.912
 9809SOL     OW30325   0.671   0.342   4.472
 9809SOL    HW130326   0.604   0.337   4.546
 9809SOL    HW230327   0.715   0.432   4.473
 9810SOL     OW30328   4.314   1.322   3.108
 9810SOL    HW130329   4.218   1.326   3.081
 9810SOL    HW230330   4.368   1.281   3.034
 9811SOL     OW30331   1.020   0.350   2.587
 9811SOL    HW130332   0.997   0.364   2.684
 9811SOL    HW230333   0.945   0.384   2.530
 9812SOL     OW30334   5.335   2.778   5.375
 9812SOL    HW130335   5.363   2.685   5.396
 9812SOL    HW230336   5.408   2.842   5.400
 9813SOL     OW30337   6.522   4.288   0.997
 9813SOL    HW130338   6.547   4.348   1.073
 9813SOL    HW230339   6.595   4.288   0.930
 9814SOL     OW30340   6.573   0.909   5.705
 9814SOL    HW130341   6.667   0.876   5.700
 9814SOL    HW230342   6.512   0.842   5.664
 9815SOL     OW30343   0.334   3.907   2.493
 9815SOL    HW130344   0.374   3.908   2.584
 9815SOL    HW230345   0.368   3.827   2.443
 9816SOL     OW30346   6.111   0.718   6.279
 9816SOL    HW130347   6.152   0.805   6.308
 9816SOL    HW230348   6.079   0.727   6.185
 9817SOL     OW30349   2.310   0.733   0.378
 9817SOL    HW130350   2.378   0.797   0.343
 9817SOL    HW230351   2.280   0.763   0.469
 9818SOL     OW30352   0.601   6.966   3.378
 9818SOL    HW130353   0.651   6.881   3.362
 9818SOL    HW230354   0.503   6.948   3.378
 9819SOL     OW30355   6.940   2.288   4.319
 9819SOL    HW130356   6.872   2.335   4.262
 9819SOL    HW230357   7.004   2.355   4.356
 9820SOL     OW30358   3.512   2.415   6.334
 9820SOL    HW130359   3.582   2.345   6.346
 9820SOL    HW230360   3.481   2.447   6.423
 9821SOL     OW30361   3.863   2.822   0.913
 9821SOL    HW130362   3.950   2.870   0.929
 9821SOL    HW230363   3.801   2.840   0.989
 9822SOL     OW30364   3.575   5.668   4.320
 9822SOL    HW130365   3.513   5.652   4.243
 9822SOL    HW230366   3.555   5.757   4.361
 9823SOL     OW30367   3.725   6.413   3.594
 9823SOL    HW130368   3.711   6.316   3.616
 9823SOL    HW230369   3.770   6.420   3.505
 9824SOL     OW30370   0.936   5.767   5.971
 9824SOL    HW130371   0.879   5.817   5.905
 9824SOL    HW230372   0.967   5.830   6.042
 9825SOL     OW30373   0.072   6.299   5.284
 9825SOL    HW130374   0.099   6.293   5.188
 9825SOL    HW230375   0.117   6.227   5.337
 9826SOL     OW30376   1.614   5.651   5.491
 9826SOL    HW130377   1.688   5.703   5.447
 9826SOL    HW230378   1.532   5.707   5.497
 9827SOL     OW30379   2.153   4.613   1.886
 9827SOL    HW130380   2.190   4.528   1.848
 9827SOL    HW230381   2.170   4.615   1.985
 9828SOL     OW30382   4.348   1.816   5.065
 9828SOL    HW130383   4.402   1.787   4.987
 9828SOL    HW230384   4.297   1.737   5.101
 9829SOL     OW30385   5.217   5.013   5.285
 9829SOL    HW130386   5.154   5.085   5.257
 9829SOL    HW230387   5.295   5.054   5.333
 9830SOL     OW30388   5.556   1.839   3.892
 9830SOL    HW130389   5.507   1.814   3.975
 9830SOL    HW230390   5.502   1.907   3.842
 9831SOL     OW30391   0.555   4.644   1.783
 9831SOL    HW130392   0.625   4.577   1.759
 9831SOL    HW230393   0.556   4.719   1.716
 9832SOL     OW30394   4.659   5.622   4.472
 9832SOL    HW130395   4.630   5.576   4.555
 9832SOL    HW230396   4.581   5.668   4.430
 9833SOL     OW30397   4.032   3.354   4.559
 9833SOL    HW130398   4.026   3.428   4.627
 9833SOL    HW230399   3.986   3.382   4.475
 9834SOL     OW30400   3.237   5.975   5.519
 9834SOL    HW130401   3.144   5.940   5.537
 9834SOL    HW230402   3.293   5.963   5.601
 9835SOL     OW30403   3.869   4.023   3.816
 9835SOL    HW130404   3.803   3.950   3.834
 9835SOL    HW230405   3.837   4.079   3.739
 9836SOL     OW30406   6.894   3.324   5.627
 9836SOL    HW130407   6.895   3.224   5.625
 9836SOL    HW230408   6.800   3.356   5.628
 9837SOL     OW30409   5.862   1.612   3.386
 9837SOL    HW130410   5.894   1.698   3.427
 9837SOL    HW230411   5.762   1.613   3.381
 9838SOL     OW30412   0.593   6.173   0.639
 9838SOL    HW130413   0.677   6.223   0.621
 9838SOL    HW230414   0.614   6.076   0.653
 9839SOL     OW30415   4.839   6.429   3.731
 9839SOL    HW130416   4.868   6.346   3.777
 9839SOL    HW230417   4.760   6.468   3.779
 9840SOL     OW30418   6.652   1.795   6.329
 9840SOL    HW130419   6.684   1.710   6.287
 9840SOL    HW230420   6.679   1.872   6.272
 9841SOL     OW30421   0.083   6.017   2.720
 9841SOL    HW130422   0.026   5.935   2.716
 9841SOL    HW230423   0.026   6.098   2.703
 9842SOL     OW30424   3.539   0.052   7.012
 9842SOL    HW130425   3.533   0.139   0.042
 9842SOL    HW230426   3.492   6.999   0.047
 9843SOL     OW30427   0.154   0.654   1.530
 9843SOL    HW130428   0.154   0.753   1.542
 9843SOL    HW230429   0.129   0.632   1.436
 9844SOL     OW30430   4.810   0.514   5.043
 9844SOL    HW130431   4.805   0.414   5.049
 9844SOL    HW230432   4.766   0.544   4.959
 9845SOL     OW30433   1.035   3.972   2.228
 9845SOL    HW130434   0.958   4.036   2.226
 9845SOL    HW230435   1.045   3.934   2.320
 9846SOL     OW30436   6.181   2.146   1.566
 9846SOL    HW130437   6.194   2.078   1.493
 9846SOL    HW230438   6.092   2.132   1.608
 9847SOL     OW30439   4.037   4.304   6.704
 9847SOL    HW130440   3.942   4.312   6.734
 9847SOL    HW230441   4.085   4.238   6.761
 9848SOL     OW30442   3.327   4.003   5.474
 9848SOL    HW130443   3.295   3.910   5.493
 9848SOL    HW230444   3.255   4.069   5.498
 9849SOL     OW30445   1.751   2.249   4.215
 9849SOL    HW130446   1.801   2.321   4.265
 9849SOL    HW230447   1.706   2.189   4.280
 9850SOL     OW30448   1.514   6.881   4.512
 9850SOL    HW130449   1.608   6.913   4.517
 9850SOL    HW230450   1.506   6.793   4.558
 9851SOL     OW30451   3.816   5.668   3.413
 9851SOL    HW130452   3.826   5.620   3.326
 9851SOL    HW230453   3.838   5.765   3.401
 9852SOL     OW30454   1.960   6.494   0.182
 9852SOL    HW130455   1.888   6.482   0.250
 9852SOL    HW230456   1.936   6.443   0.099
 9853SOL     OW30457   0.597   4.666   3.623
 9853SOL    HW130458   0.651   4.687   3.542
 9853SOL    HW230459   0.507   4.632   3.596
 9854SOL     OW30460   6.928   3.609   6.791
 9854SOL    HW130461   7.002   3.614   6.724
 9854SOL    HW230462   6.858   3.677   6.769
 9855SOL     OW30463   0.344   6.202   0.315
 9855SOL    HW130464   0.299   6.224   0.401
 9855SOL    HW230465   0.281   6.151   0.256
 9856SOL     OW30466   5.193   3.358   2.953
 9856SOL    HW130467   5.099   3.387   2.933
 9856SOL    HW230468   5.239   3.430   3.004
 9857SOL     OW30469   4.676   7.007   5.840
 9857SOL    HW130470   4.741   0.046   5.890
 9857SOL    HW230471   4.706   6.998   5.745
 9858SOL     OW30472   6.225   6.392   2.760
 9858SOL    HW130473   6.277   6.379   2.844
 9858SOL    HW230474   6.134   6.426   2.782
 9859SOL     OW30475   0.565   5.477   2.671
 9859SOL    HW130476   0.651   5.512   2.708
 9859SOL    HW230477   0.578   5.385   2.636
 9860SOL     OW30478   1.809   3.073   3.847
 9860SOL    HW130479   1.835   3.010   3.920
 9860SOL    HW230480   1.830   3.167   3.875
 9861SOL     OW30481   3.864   2.174   3.304
 9861SOL    HW130482   3.956   2.187   3.342
 9861SOL    HW230483   3.868   2.180   3.204
 9862SOL     OW30484   1.568   3.651   6.710
 9862SOL    HW130485   1.486   3.632   6.764
 9862SOL    HW230486   1.595   3.568   6.661
 9863SOL     OW30487   4.264   6.906   2.033
 9863SOL    HW130488   4.310   6.863   1.956
 9863SOL    HW230489   4.331   6.929   2.103
 9864SOL     OW30490   2.206   6.160   5.473
 9864SOL    HW130491   2.134   6.092   5.487
 9864SOL    HW230492   2.292   6.125   5.509
 9865SOL     OW30493   2.205   5.869   5.734
 9865SOL    HW130494   2.208   5.930   5.813
 9865SOL    HW230495   2.263   5.789   5.751
 9866SOL     OW30496   6.560   5.455   6.066
 9866SOL    HW130497   6.593   5.384   6.004
 9866SOL    HW230498   6.472   5.489   6.033
 9867SOL     OW30499   4.375   1.550   1.943
 9867SOL    HW130500   4.328   1.569   2.029
 9867SOL    HW230501   4.428   1.630   1.915
 9868SOL     OW30502   2.299   4.611   3.917
 9868SOL    HW130503   2.343   4.524   3.939
 9868SOL    HW230504   2.296   4.669   3.999
 9869SOL     OW30505   0.076   2.134   1.839
 9869SOL    HW130506   0.157   2.115   1.895
 9869SOL    HW230507   0.077   2.074   1.759
 9870SOL     OW30508   2.121   2.558   2.917
 9870SOL    HW130509   2.074   2.585   3.001
 9870SOL    HW230510   2.210   2.605   2.912
 9871SOL     OW30511   5.701   5.777   3.278
 9871SOL    HW130512   5.755   5.853   3.315
 9871SOL    HW230513   5.673   5.716   3.352
 9872SOL     OW30514   0.405   5.342   5.445
 9872SOL    HW130515   0.420   5.430   5.490
 9872SOL    HW230516   0.307   5.325   5.438
 9873SOL     OW30517   1.109   1.178   5.608
 9873SOL    HW130518   1.160   1.256   5.569
 9873SOL    HW230519   1.033   1.155   5.548
 9874SOL     OW30520   0.551   2.141   3.469
 9874SOL    HW130521   0.644   2.109   3.489
 9874SOL    HW230522   0.509   2.176   3.553
 9875SOL     OW30523   6.543   6.245   0.592
 9875SOL    HW130524   6.620   6.302   0.622
 9875SOL    HW230525   6.488   6.296   0.526
 9876SOL     OW30526   0.136   6.899   3.571
 9876SOL    HW130527   0.043   6.933   3.586
 9876SOL    HW230528   0.136   6.799   3.576
 9877SOL     OW30529   0.793   6.330   4.637
 9877SOL    HW130530   0.859   6.404   4.631
 9877SOL    HW230531   0.731   6.334   4.559
 9878SOL     OW30532   3.473   2.681   6.847
 9878SOL    HW130533   3.487   2.672   6.749
 9878SOL    HW230534   3.499   2.773   6.876
 9879SOL     OW30535   6.305   5.699   5.052
 9879SOL    HW130536   6.232   5.741   5.106
 9879SOL    HW230537   6.333   5.613   5.095
 9880SOL     OW30538   3.072   1.245   0.933
 9880SOL    HW130539   3.094   1.287   1.021
 9880SOL    HW230540   2.974   1.252   0.916
 9881SOL     OW30541   6.000   0.696   2.937
 9881SOL    HW130542   5.968   0.615   2.986
 9881SOL    HW230543   5.923   0.739   2.890
 9882SOL     OW30544   3.480   3.219   4.522
 9882SOL    HW130545   3.397   3.176   4.556
 9882SOL    HW230546   3.548   3.148   4.502
 9883SOL     OW30547   2.000   6.335   2.256
 9883SOL    HW130548   2.049   6.375   2.179
 9883SOL    HW230549   1.943   6.260   2.225
 9884SOL     OW30550   3.392   2.615   5.278
 9884SOL    HW130551   3.334   2.534   5.273
 9884SOL    HW230552   3.345   2.692   5.234
 9885SOL     OW30553   4.429   2.471   5.518
 9885SOL    HW130554   4.341   2.500   5.555
 9885SOL    HW230555   4.422   2.376   5.486
 9886SOL     OW30556   3.321   5.690   1.469
 9886SOL    HW130557   3.317   5.758   1.395
 9886SOL    HW230558   3.229   5.674   1.504
 9887SOL     OW30559   3.463   0.985   0.399
 9887SOL    HW130560   3.534   0.918   0.377
 9887SOL    HW230561   3.378   0.961   0.351
 9888SOL     OW30562   6.237   6.844   4.066
 9888SOL    HW130563   6.181   6.861   3.985
 9888SOL    HW230564   6.278   6.930   4.097
 9889SOL     OW30565   6.793   5.245   2.724
 9889SOL    HW130566   6.805   5.218   2.629
 9889SOL    HW230567   6.843   5.329   2.742
 9890SOL     OW30568   1.116   3.295   2.828
 9890SOL    HW130569   1.215   3.308   2.834
 9890SOL    HW230570   1.083   3.257   2.915
 9891SOL     OW30571   4.757   6.838   1.970
 9891SOL    HW130572   4.834   6.791   1.928
 9891SOL    HW230573   4.741   6.925   1.923
 9892SOL     OW30574   1.577   5.872   3.812
 9892SOL    HW130575   1.652   5.903   3.872
 9892SOL    HW230576   1.532   5.952   3.772
 9893SOL     OW30577   5.561   4.613   5.223
 9893SOL    HW130578   5.604   4.572   5.142
 9893SOL    HW230579   5.618   4.688   5.257
 9894SOL     OW30580   4.283   3.714   5.553
 9894SOL    HW130581   4.361   3.667   5.511
 9894SOL    HW230582   4.305   3.811   5.563
 9895SOL     OW30583   5.466   2.231   6.442
 9895SOL    HW130584   5.411   2.148   6.432
 9895SOL    HW230585   5.518   2.247   6.358
 9896SOL     OW30586   3.823   3.824   6.736
 9896SOL    HW130587   3.839   3.769   6.819
 9896SOL    HW230588   3.894   3.804   6.669
 9897SOL     OW30589   0.395   1.267   3.012
 9897SOL    HW130590   0.319   1.333   3.018
 9897SOL    HW230591   0.396   1.211   3.094
 9898SOL     OW30592   1.092   5.338   0.278
 9898SOL    HW130593   1.015   5.402   0.272
 9898SOL    HW230594   1.057   5.249   0.308
 9899SOL     OW30595   4.422   4.982   2.640
 9899SOL    HW130596   4.488   4.941   2.704
 9899SOL    HW230597   4.330   4.972   2.677
 9900SOL     OW30598   1.897   4.479   4.151
 9900SOL    HW130599   1.959   4.477   4.072
 9900SOL    HW230600   1.943   4.436   4.229
 9901SOL     OW30601   2.130   2.323   6.272
 9901SOL    HW130602   2.209   2.348   6.216
 9901SOL    HW230603   2.142   2.230   6.306
 9902SOL     OW30604   4.455   3.931   6.646
 9902SOL    HW130605   4.478   3.842   6.686
 9902SOL    HW230606   4.521   3.953   6.575
 9903SOL     OW30607   3.427   1.841   1.461
 9903SOL    HW130608   3.348   1.780   1.454
 9903SOL    HW230609   3.397   1.932   1.489
 9904SOL     OW30610   0.178   6.913   2.428
 9904SOL    HW130611   0.119   6.993   2.414
 9904SOL    HW230612   0.272   6.937   2.403
 9905SOL     OW30613   1.701   6.640   5.618
 9905SOL    HW130614   1.670   6.602   5.531
 9905SOL    HW230615   1.684   6.739   5.619
 9906SOL     OW30616   3.562   3.682   5.662
 9906SOL    HW130617   3.477   3.640   5.692
 9906SOL    HW230618   3.638   3.646   5.717
 9907SOL     OW30619   1.071   6.931   2.916
 9907SOL    HW130620   1.020   6.989   2.852
 9907SOL    HW230621   1.007   6.873   2.967
 9908SOL     OW30622   6.254   3.217   5.314
 9908SOL    HW130623   6.273   3.316   5.315
 9908SOL    HW230624   6.169   3.199   5.364
 9909SOL     OW30625   3.692   6.595   1.924
 9909SOL    HW130626   3.694   6.672   1.861
 9909SOL    HW230627   3.758   6.610   1.997
 9910SOL     OW30628   1.023   4.687   0.568
 9910SOL    HW130629   1.064   4.771   0.603
 9910SOL    HW230630   1.026   4.616   0.639
 9911SOL     OW30631   3.907   5.194   3.043
 9911SOL    HW130632   3.897   5.197   3.142
 9911SOL    HW230633   3.850   5.264   3.001
 9912SOL     OW30634   4.445   0.181   1.010
 9912SOL    HW130635   4.487   0.139   0.929
 9912SOL    HW230636   4.358   0.136   1.029
 9913SOL     OW30637   4.986   2.378   2.695
 9913SOL    HW130638   4.898   2.341   2.725
 9913SOL    HW230639   5.036   2.414   2.774
 9914SOL     OW30640   1.930   5.017   4.532
 9914SOL    HW130641   1.855   5.055   4.585
 9914SOL    HW230642   1.895   4.948   4.469
 9915SOL     OW30643   6.424   3.984   4.175
 9915SOL    HW130644   6.519   4.016   4.168
 9915SOL    HW230645   6.412   3.902   4.120
 9916SOL     OW30646   2.777   4.028   0.583
 9916SOL    HW130647   2.874   4.031   0.605
 9916SOL    HW230648   2.741   3.936   0.601
 9917SOL     OW30649   2.168   3.106   4.759
 9917SOL    HW130650   2.212   3.107   4.848
 9917SOL    HW230651   2.166   3.013   4.723
 9918SOL     OW30652   2.592   0.931   4.787
 9918SOL    HW130653   2.621   0.998   4.855
 9918SOL    HW230654   2.670   0.874   4.762
 9919SOL     OW30655   0.968   5.282   2.755
 9919SOL    HW130656   1.033   5.301   2.681
 9919SOL    HW230657   0.951   5.366   2.806
 9920SOL     OW30658   4.116   6.901   2.707
 9920SOL    HW130659   4.032   6.950   2.728
 9920SOL    HW230660   4.160   6.873   2.792
 9921SOL     OW30661   4.948   0.469   2.544
 9921SOL    HW130662   4.997   0.403   2.487
 9921SOL    HW230663   4.986   0.467   2.637
 9922SOL     OW30664   5.154   2.971   1.822
 9922SOL    HW130665   5.134   2.888   1.769
 9922SOL    HW230666   5.234   3.017   1.783
 9923SOL     OW30667   5.874   0.699   6.651
 9923SOL    HW130668   5.785   0.718   6.609
 9923SOL    HW230669   5.891   0.600   6.648
 9924SOL     OW30670   5.317   0.799   4.034
 9924SOL    HW130671   5.237   0.775   3.980
 9924SOL    HW230672   5.313   0.896   4.058
 9925SOL     OW30673   3.794   2.076   4.832
 9925SOL    HW130674   3.777   2.099   4.927
 9925SOL    HW230675   3.719   2.111   4.775
 9926SOL     OW30676   1.657   0.929   5.757
 9926SOL    HW130677   1.671   0.957   5.662
 9926SOL    HW230678   1.599   0.847   5.759
 9927SOL     OW30679   0.991   2.842   3.084
 9927SOL    HW130680   0.934   2.875   3.009
 9927SOL    HW230681   0.982   2.742   3.091
 9928SOL     OW30682   0.315   3.097   2.428
 9928SOL    HW130683   0.269   3.080   2.515
 9928SOL    HW230684   0.255   3.072   2.353
 9929SOL     OW30685   0.369   4.620   5.291
 9929SOL    HW130686   0.407   4.654   5.204
 9929SOL    HW230687   0.270   4.631   5.290
 9930SOL     OW30688   6.760   5.627   6.203
 9930SOL    HW130689   6.811   5.632   6.117
 9930SOL    HW230690   6.687   5.559   6.194
 9931SOL     OW30691   2.646   4.942   6.548
 9931SOL    HW130692   2.688   4.955   6.459
 9931SOL    HW230693   2.563   4.999   6.554
 9932SOL     OW30694   2.331   2.845   1.055
 9932SOL    HW130695   2.430   2.853   1.072
 9932SOL    HW230696   2.290   2.936   1.057
 9933SOL     OW30697   1.005   1.336   2.503
 9933SOL    HW130698   1.047   1.260   2.554
 9933SOL    HW230699   0.911   1.349   2.535
 9934SOL     OW30700   5.312   0.471   5.944
 9934SOL    HW130701   5.366   0.475   5.860
 9934SOL    HW230702   5.251   0.551   5.948
 9935SOL     OW30703   2.613   2.792   0.626
 9935SOL    HW130704   2.606   2.724   0.698
 9935SOL    HW230705   2.559   2.763   0.547
 9936SOL     OW30706   4.760   6.756   6.455
 9936SOL    HW130707   4.807   6.703   6.525
 9936SOL    HW230708   4.739   6.847   6.491
 9937SOL     OW30709   1.480   6.712   3.668
 9937SOL    HW130710   1.466   6.805   3.633
 9937SOL    HW230711   1.558   6.670   3.621
 9938SOL     OW30712   0.024   1.349   3.203
 9938SOL    HW130713   7.017   1.416   3.274
 9938SOL    HW230714   0.109   1.378   3.159
 9939SOL     OW30715   2.600   4.084   1.612
 9939SOL    HW130716   2.527   4.085   1.681
 9939SOL    HW230717   2.655   4.001   1.624
 9940SOL     OW30718   6.966   0.751   3.133
 9940SOL    HW130719   6.942   0.834   3.182
 9940SOL    HW230720   6.919   0.673   3.174
 9941SOL     OW30721   5.690   3.496   1.059
 9941SOL    HW130722   5.714   3.592   1.074
 9941SOL    HW230723   5.595   3.491   1.028
 9942SOL     OW30724   6.478   6.149   2.760
 9942SOL    HW130725   6.539   6.123   2.834
 9942SOL    HW230726   6.384   6.124   2.784
 9943SOL     OW30727   1.817   3.928   5.477
 9943SOL    HW130728   1.884   3.904   5.547
 9943SOL    HW230729   1.818   3.858   5.406
 9944SOL     OW30730   2.156   5.192   6.386
 9944SOL    HW130731   2.149   5.202   6.485
 9944SOL    HW230732   2.110   5.270   6.342
 9945SOL     OW30733   6.495   3.492   6.911
 9945SOL    HW130734   6.466   3.418   6.973
 9945SOL    HW230735   6.535   3.452   6.829
 9946SOL     OW30736   5.134   2.296   1.745
 9946SOL    HW130737   5.184   2.378   1.773
 9946SOL    HW230738   5.188   2.245   1.677
 9947SOL     OW30739   1.612   1.530   2.400
 9947SOL    HW130740   1.642   1.434   2.403
 9947SOL    HW230741   1.514   1.534   2.418
 9948SOL     OW30742   5.815   0.694   5.849
 9948SOL    HW130743   5.721   0.719   5.873
 9948SOL    HW230744   5.830   0.710   5.752
 9949SOL     OW30745   7.013   3.600   3.425
 9949SOL    HW130746   0.028   3.526   3.483
 9949SOL    HW230747   0.018   3.688   3.466
 9950SOL     OW30748   4.703   4.393   5.742
 9950SOL    HW130749   4.765   4.466   5.714
 9950SOL    HW230750   4.699   4.323   5.670
 9951SOL     OW30751   0.218   2.318   2.846
 9951SOL    HW130752   0.128   2.317   2.802
 9951SOL    HW230753   0.240   2.411   2.873
 9952SOL     OW30754   1.612   4.414   1.506
 9952SOL    HW130755   1.587   4.370   1.420
 9952SOL    HW230756   1.680   4.485   1.488
 9953SOL     OW30757   6.778   4.233   3.951
 9953SOL    HW130758   6.697   4.180   3.974
 9953SOL    HW230759   6.774   4.260   3.855
 9954SOL     OW30760   4.058   1.552   1.085
 9954SOL    HW130761   4.010   1.630   1.124
 9954SOL    HW230762   4.010   1.468   1.109
 9955SOL     OW30763   5.902   5.355   1.290
 9955SOL    HW130764   5.864   5.277   1.341
 9955SOL    HW230765   5.938   5.422   1.355
 9956SOL     OW30766   1.414   3.275   3.064
 9956SOL    HW130767   1.501   3.245   3.102
 9956SOL    HW230768   1.344   3.274   3.136
 9957SOL     OW30769   5.208   0.024   0.625
 9957SOL    HW130770   5.129   0.086   0.620
 9957SOL    HW230771   5.276   0.063   0.687
 9958SOL     OW30772   5.845   6.226   6.275
 9958SOL    HW130773   5.940   6.255   6.290
 9958SOL    HW230774   5.831   6.207   6.178
 9959SOL     OW30775   5.720   4.311   0.089
 9959SOL    HW130776   5.774   4.228   0.082
 9959SOL    HW230777   5.747   4.362   0.171
 9960SOL     OW30778   6.504   0.173   6.945
 9960SOL    HW130779   6.445   0.219   7.010
 9960SOL    HW230780   6.554   0.100   6.991
 9961SOL     OW30781   2.956   6.099   0.739
 9961SOL    HW130782   2.860   6.108   0.767
 9961SOL    HW230783   2.984   6.182   0.691
 9962SOL     OW30784   3.384   0.565   1.807
 9962SOL    HW130785   3.461   0.598   1.753
 9962SOL    HW230786   3.369   0.468   1.788
 9963SOL     OW30787   0.939   6.945   6.479
 9963SOL    HW130788   0.946   6.962   6.577
 9963SOL    HW230789   1.024   6.972   6.434
 9964SOL     OW30790   4.390   5.181   5.022
 9964SOL    HW130791   4.448   5.161   5.101
 9964SOL    HW230792   4.308   5.123   5.025
 9965SOL     OW30793   2.768   4.917   4.180
 9965SOL    HW130794   2.756   4.975   4.260
 9965SOL    HW230795   2.777   4.821   4.208
 9966SOL     OW30796   3.544   5.884   2.799
 9966SOL    HW130797   3.629   5.936   2.795
 9966SOL    HW230798   3.480   5.929   2.861
 9967SOL     OW30799   0.389   0.861   3.112
 9967SOL    HW130800   0.468   0.859   3.051
 9967SOL    HW230801   0.362   0.768   3.135
 9968SOL     OW30802   4.181   6.663   0.172
 9968SOL    HW130803   4.217   6.633   0.260
 9968SOL    HW230804   4.159   6.584   0.116
 9969SOL     OW30805   0.074   5.772   3.385
 9969SOL    HW130806   0.002   5.839   3.400
 9969SOL    HW230807   0.161   5.819   3.373
 9970SOL     OW30808   6.541   3.375   2.138
 9970SOL    HW130809   6.540   3.438   2.061
 9970SOL    HW230810   6.595   3.415   2.213
 9971SOL     OW30811   0.320   5.039   4.547
 9971SOL    HW130812   0.274   4.990   4.473
 9971SOL    HW230813   0.368   5.118   4.511
 9972SOL     OW30814   2.913   4.695   6.019
 9972SOL    HW130815   2.884   4.653   5.932
 9972SOL    HW230816   2.832   4.721   6.072
 9973SOL     OW30817   3.138   1.931   2.909
 9973SOL    HW130818   3.154   1.836   2.938
 9973SOL    HW230819   3.224   1.982   2.914
 9974SOL     OW30820   1.640   2.222   3.179
 9974SOL    HW130821   1.604   2.290   3.115
 9974SOL    HW230822   1.735   2.245   3.201
 9975SOL     OW30823   2.596   4.438   6.274
 9975SOL    HW130824   2.691   4.457   6.248
 9975SOL    HW230825   2.537   4.509   6.237
 9976SOL     OW30826   3.801   6.175   5.133
 9976SOL    HW130827   3.784   6.080   5.105
 9976SOL    HW230828   3.899   6.191   5.136
 9977SOL     OW30829   4.172   0.406   5.407
 9977SOL    HW130830   4.166   0.385   5.309
 9977SOL    HW230831   4.268   0.406   5.434
 9978SOL     OW30832   0.562   2.549   0.422
 9978SOL    HW130833   0.489   2.582   0.361
 9978SOL    HW230834   0.610   2.627   0.461
 9979SOL     OW30835   3.626   3.923   4.711
 9979SOL    HW130836   3.682   3.920   4.628
 9979SOL    HW230837   3.676   3.971   4.783
 9980SOL     OW30838   0.897   0.761   0.480
 9980SOL    HW130839   0.832   0.686   0.474
 9980SOL    HW230840   0.898   0.812   0.394
 9981SOL     OW30841   5.400   0.755   0.414
 9981SOL    HW130842   5.389   0.683   0.482
 9981SOL    HW230843   5.359   0.726   0.328
 9982SOL     OW30844   2.402   2.479   4.438
 9982SOL    HW130845   2.461   2.405   4.407
 9982SOL    HW230846   2.399   2.551   4.368
 9983SOL     OW30847   0.818   3.804   2.214
 9983SOL    HW130848   0.903   3.850   2.191
 9983SOL    HW230849   0.823   3.708   2.185
 9984SOL     OW30850   0.540   4.772   1.074
 9984SOL    HW130851   0.564   4.833   1.150
 9984SOL    HW230852   0.527   4.679   1.110
 9985SOL     OW30853   5.074   4.445   0.033
 9985SOL    HW130854   5.083   4.369   6.987
 9985SOL    HW230855   5.105   4.415   0.124
 9986SOL     OW30856   5.625   4.885   0.406
 9986SOL    HW130857   5.581   4.963   0.451
 9986SOL    HW230858   5.579   4.868   0.318
 9987SOL     OW30859   5.127   2.043   1.181
 9987SOL    HW130860   5.073   2.086   1.108
 9987SOL    HW230861   5.083   1.958   1.209
 9988SOL     OW30862   6.269   6.915   3.657
 9988SOL    HW130863   6.217   6.882   3.736
 9988SOL    HW230864   6.352   6.861   3.646
 9989SOL     OW30865   6.729   5.703   2.325
 9989SOL    HW130866   6.718   5.605   2.338
 9989SOL    HW230867   6.641   5.745   2.303
 9990SOL     OW30868   0.025   6.981   2.868
 9990SOL    HW130869   0.034   7.013   2.774
 9990SOL    HW230870   0.069   6.892   2.878
 9991SOL     OW30871   2.542   4.531   2.284
 9991SOL    HW130872   2.593   4.596   2.227
 9991SOL    HW230873   2.517   4.451   2.229
 9992SOL     OW30874   2.826   5.167   0.358
 9992SOL    HW130875   2.728   5.170   0.340
 9992SOL    HW230876   2.842   5.165   0.456
 9993SOL     OW30877   4.228   0.310   4.836
 9993SOL    HW130878   4.312   0.359   4.813
 9993SOL    HW230879   4.198   0.256   4.758
 9994SOL     OW30880   5.926   4.887   4.859
 9994SOL    HW130881   5.908   4.889   4.760
 9994SOL    HW230882   6.013   4.841   4.877
 9995SOL     OW30883   3.744   1.839   6.302
 9995SOL    HW130884   3.696   1.846   6.215
 9995SOL    HW230885   3.766   1.744   6.320
 9996SOL     OW30886   2.994   4.313   1.136
 9996SOL    HW130887   2.980   4.407   1.167
 9996SOL    HW230888   3.074   4.275   1.181
 9997SOL     OW30889   6.852   1.597   2.720
 9997SOL    HW130890   6.934   1.553   2.684
 9997SOL    HW230891   6.823   1.550   2.804
 9998SOL     OW30892   5.317   3.910   2.620
 9998SOL    HW130893   5.254   3.978   2.582
 9998SOL    HW230894   5.271   3.822   2.626
 9999SOL     OW30895   0.670   0.153   4.848
 9999SOL    HW130896   0.727   0.163   4.767
 9999SOL    HW230897   0.724   0.115   4.923
10000SOL     OW30898   4.414   2.341   1.165
10000SOL    HW130899   4.512   2.327   1.146
10000SOL    HW230900   4.361   2.311   1.086
10001SOL     OW30901   3.735   6.228   1.311
10001SOL    HW130902   3.777   6.203   1.398
10001SOL    HW230903   3.641   6.258   1.327
10002SOL     OW30904   2.211   6.632   2.438
10002SOL    HW130905   2.253   6.541   2.443
10002SOL    HW230906   2.282   6.701   2.420
10003SOL     OW30907   1.500   1.012   2.392
10003SOL    HW130908   1.425   0.997   2.328
10003SOL    HW230909   1.583   1.037   2.340
10004SOL     OW30910   0.636   4.309   3.925
10004SOL    HW130911   0.673   4.394   3.886
10004SOL    HW230912   0.701   4.272   3.991
10005SOL     OW30913   2.672   5.857   3.417
10005SOL    HW130914   2.671   5.761   3.442
10005SOL    HW230915   2.731   5.908   3.480
10006SOL     OW30916   5.203   1.265   5.428
10006SOL    HW130917   5.169   1.355   5.455
10006SOL    HW230918   5.189   1.252   5.330
10007SOL     OW30919   1.152   5.121   3.943
10007SOL    HW130920   1.133   5.053   4.014
10007SOL    HW230921   1.234   5.172   3.966
10008SOL     OW30922   4.131   1.376   6.162
10008SOL    HW130923   4.122   1.345   6.257
10008SOL    HW230924   4.075   1.458   6.149
10009SOL     OW30925   0.823   4.846   2.593
10009SOL    HW130926   0.783   4.902   2.666
10009SOL    HW230927   0.912   4.883   2.568
10010SOL     OW30928   1.985   4.337   1.466
10010SOL    HW130929   2.069   4.390   1.476
10010SOL    HW230930   1.981   4.267   1.536
10011SOL     OW30931   2.869   3.206   0.238
10011SOL    HW130932   2.772   3.192   0.258
10011SOL    HW230933   2.900   3.291   0.280
10012SOL     OW30934   5.525   1.738   3.029
10012SOL    HW130935   5.599   1.771   2.969
10012SOL    HW230936   5.438   1.742   2.980
10013SOL     OW30937   0.521   6.527   4.621
10013SOL    HW130938   0.579   6.446   4.618
10013SOL    HW230939   0.484   6.545   4.530
10014SOL     OW30940   1.655   0.887   3.162
10014SOL    HW130941   1.564   0.849   3.175
10014SOL    HW230942   1.658   0.940   3.077
10015SOL     OW30943   3.552   6.758   6.349
10015SOL    HW130944   3.458   6.730   6.365
10015SOL    HW230945   3.587   6.805   6.431
10016SOL     OW30946   1.847   0.509   4.691
10016SOL    HW130947   1.855   0.572   4.769
10016SOL    HW230948   1.938   0.479   4.664
10017SOL     OW30949   3.491   1.819   2.487
10017SOL    HW130950   3.509   1.748   2.418
10017SOL    HW230951   3.393   1.836   2.493
10018SOL     OW30952   7.013   3.902   5.150
10018SOL    HW130953   0.032   3.970   5.087
10018SOL    HW230954   7.010   3.941   5.242
10019SOL     OW30955   0.372   1.721   1.999
10019SOL    HW130956   0.364   1.742   2.097
10019SOL    HW230957   0.464   1.687   1.980
10020SOL     OW30958   6.892   1.305   2.186
10020SOL    HW130959   6.878   1.364   2.266
10020SOL    HW230960   6.805   1.260   2.163
10021SOL     OW30961   0.985   3.336   2.184
10021SOL    HW130962   0.903   3.341   2.241
10021SOL    HW230963   1.025   3.427   2.176
10022SOL     OW30964   1.433   6.058   6.143
10022SOL    HW130965   1.376   6.024   6.068
10022SOL    HW230966   1.518   6.096   6.106
10023SOL     OW30967   0.132   1.762   5.867
10023SOL    HW130968   0.197   1.688   5.883
10023SOL    HW230969   0.039   1.727   5.878
10024SOL     OW30970   2.052   4.548   2.665
10024SOL    HW130971   2.054   4.483   2.589
10024SOL    HW230972   2.137   4.542   2.717
10025SOL     OW30973   1.198   3.738   0.897
10025SOL    HW130974   1.197   3.638   0.906
10025SOL    HW230975   1.283   3.766   0.851
10026SOL     OW30976   5.896   1.227   5.245
10026SOL    HW130977   5.842   1.183   5.174
10026SOL    HW230978   5.921   1.320   5.216
10027SOL     OW30979   3.627   1.407   5.563
10027SOL    HW130980   3.604   1.366   5.475
10027SOL    HW230981   3.544   1.435   5.611
10028SOL     OW30982   4.466   0.064   1.842
10028SOL    HW130983   4.405   0.133   1.803
10028SOL    HW230984   4.495   0.001   1.771
10029SOL     OW30985   0.445   4.101   4.629
10029SOL    HW130986   0.516   4.040   4.593
10029SOL    HW230987   0.465   4.195   4.601
10030SOL     OW30988   2.730   0.332   4.380
10030SOL    HW130989   2.727   0.413   4.321
10030SOL    HW230990   2.749   0.361   4.474
10031SOL     OW30991   2.189   5.986   2.882
10031SOL    HW130992   2.201   6.084   2.868
10031SOL    HW230993   2.206   5.963   2.978
10032SOL     OW30994   2.960   6.145   4.656
10032SOL    HW130995   3.056   6.135   4.684
10032SOL    HW230996   2.902   6.150   4.738
10033SOL     OW30997   3.593   1.164   4.932
10033SOL    HW130998   3.583   1.233   4.860
10033SOL    HW230999   3.630   1.208   5.015
10034SOL     OW31000   2.739   1.095   3.126
10034SOL    HW131001   2.824   1.134   3.091
10034SOL    HW231002   2.662   1.154   3.100
10035SOL     OW31003   6.514   2.758   2.446
10035SOL    HW131004   6.462   2.843   2.437
10035SOL    HW231005   6.547   2.749   2.540
10036SOL     OW31006   0.894   1.573   0.055
10036SOL    HW131007   0.916   1.494   0.111
10036SOL    HW231008   0.923   1.657   0.102
10037SOL     OW31009   5.898   6.628   6.390
10037SOL    HW131010   5.892   6.546   6.333
10037SOL    HW231011   5.855   6.705   6.343
10038SOL     OW31012   4.363   6.235   6.338
10038SOL    HW131013   4.449   6.285   6.324
10038SOL    HW231014   4.305   6.246   6.258
10039SOL     OW31015   0.480   5.828   2.618
10039SOL    HW131016   0.460   5.756   2.551
10039SOL    HW231017   0.579   5.846   2.619
10040SOL     OW31018   2.838   0.454   0.598
10040SOL    HW131019   2.742   0.429   0.582
10040SOL    HW231020   2.860   0.439   0.695
10041SOL     OW31021   5.938   5.788   4.930
10041SOL    HW131022   5.866   5.719   4.925
10041SOL    HW231023   5.899   5.875   4.959
10042SOL     OW31024   6.684   0.606   5.289
10042SOL    HW131025   6.770   0.655   5.297
10042SOL    HW231026   6.642   0.626   5.201
10043SOL     OW31027   0.767   0.661   3.570
10043SOL    HW131028   0.743   0.692   3.478
10043SOL    HW231029   0.801   0.567   3.565
10044SOL     OW31030   3.131   1.536   0.006
10044SOL    HW131031   3.143   1.501   6.931
10044SOL    HW231032   3.057   1.603   0.007
10045SOL     OW31033   4.063   6.979   4.454
10045SOL    HW131034   3.970   6.995   4.420
10045SOL    HW231035   4.091   6.886   4.434
10046SOL     OW31036   6.592   2.699   0.985
10046SOL    HW131037   6.664   2.631   0.967
10046SOL    HW231038   6.627   2.769   1.047
10047SOL     OW31039   0.351   1.635   3.228
10047SOL    HW131040   0.387   1.652   3.320
10047SOL    HW231041   0.287   1.708   3.204
10048SOL     OW31042   3.698   2.634   1.763
10048SOL    HW131043   3.678   2.540   1.793
10048SOL    HW231044   3.772   2.632   1.696
10049SOL     OW31045   1.719   6.778   4.117
10049SOL    HW131046   1.684   6.868   4.089
10049SOL    HW231047   1.644   6.723   4.152
10050SOL     OW31048   5.531   1.482   4.280
10050SOL    HW131049   5.560   1.396   4.321
10050SOL    HW231050   5.522   1.470   4.181
10051SOL     OW31051   6.371   2.189   6.807
10051SOL    HW131052   6.433   2.197   6.886
10051SOL    HW231053   6.403   2.248   6.734
10052SOL     OW31054   1.315   4.191   2.099
10052SOL    HW131055   1.391   4.249   2.068
10052SOL    HW231056   1.245   4.187   2.029
10053SOL     OW31057   2.762   6.784   3.389
10053SOL    HW131058   2.814   6.860   3.429
10053SOL    HW231059   2.804   6.697   3.416
10054SOL     OW31060   4.328   5.979   3.915
10054SOL    HW131061   4.312   6.028   3.829
10054SOL    HW231062   4.420   5.938   3.913
10055SOL     OW31063   6.614   3.211   6.773
10055SOL    HW131064   6.690   3.224   6.836
10055SOL    HW231065   6.552   3.141   6.808
10056SOL     OW31066   6.563   4.846   2.003
10056SOL    HW131067   6.599   4.757   1.974
10056SOL    HW231068   6.542   4.842   2.101
10057SOL     OW31069   2.648   2.409   3.818
10057SOL    HW131070   2.720   2.360   3.867
10057SOL    HW231071   2.686   2.447   3.733
10058SOL     OW31072   0.741   4.562   3.851
10058SOL    HW131073   0.798   4.641   3.873
10058SOL    HW231074   0.682   4.585   3.773
10059SOL     OW31075   5.235   0.018   1.169
10059SOL    HW131076   5.280   6.959   1.215
10059SOL    HW231077   5.136   0.006   1.173
10060SOL     OW31078   2.224   2.847   1.907
10060SOL    HW131079   2.288   2.812   1.975
10060SOL    HW231080   2.132   2.854   1.947
10061SOL     OW31081   6.404   2.109   4.644
10061SOL    HW131082   6.473   2.084   4.576
10061SOL    HW231083   6.313   2.104   4.603
10062SOL     OW31084   6.116   5.403   3.275
10062SOL    HW131085   6.193   5.465   3.289
10062SOL    HW231086   6.032   5.455   3.269
10063SOL     OW31087   0.989   2.701   2.632
10063SOL    HW131088   1.052   2.624   2.624
10063SOL    HW231089   1.015   2.758   2.709
10064SOL     OW31090   5.301   5.831   4.394
10064SOL    HW131091   5.251   5.835   4.308
10064SOL    HW231092   5.262   5.896   4.458
10065SOL     OW31093   0.991   6.678   3.616
10065SOL    HW131094   0.959   6.596   3.569
10065SOL    HW231095   0.967   6.758   3.562
10066SOL     OW31096   0.537   0.576   3.840
10066SOL    HW131097   0.469   0.593   3.911
10066SOL    HW231098   0.620   0.628   3.859
10067SOL     OW31099   4.427   6.169   3.428
10067SOL    HW131100   4.514   6.169   3.478
10067SOL    HW231101   4.383   6.080   3.438
10068SOL     OW31102   5.160   3.749   5.407
10068SOL    HW131103   5.189   3.692   5.484
10068SOL    HW231104   5.087   3.703   5.357
10069SOL     OW31105   4.106   0.977   3.640
10069SOL    HW131106   4.020   1.027   3.626
10069SOL    HW231107   4.183   1.041   3.633
10070SOL     OW31108   0.940   6.584   4.582
10070SOL    HW131109   0.926   6.606   4.678
10070SOL    HW231110   0.889   6.647   4.525
10071SOL     OW31111   5.362   5.352   5.055
10071SOL    HW131112   5.377   5.264   5.010
10071SOL    HW231113   5.280   5.395   5.018
10072SOL     OW31114   1.040   6.954   3.764
10072SOL    HW131115   1.071   6.913   3.850
10072SOL    HW231116   1.120   6.977   3.708
10073SOL     OW31117   0.642   5.368   6.680
10073SOL    HW131118   0.562   5.402   6.731
10073SOL    HW231119   0.656   5.271   6.701
10074SOL     OW31120   2.244   6.510   5.842
10074SOL    HW131121   2.153   6.469   5.844
10074SOL    HW231122   2.238   6.601   5.803
10075SOL     OW31123   2.212   2.212   3.599
10075SOL    HW131124   2.142   2.253   3.658
10075SOL    HW231125   2.177   2.205   3.505
10076SOL     OW31126   5.698   0.314   4.710
10076SOL    HW131127   5.706   0.260   4.794
10076SOL    HW231128   5.696   0.252   4.631
10077SOL     OW31129   3.723   1.091   6.868
10077SOL    HW131130   3.818   1.074   6.896
10077SOL    HW231131   3.677   1.144   6.939
10078SOL     OW31132   5.824   6.192   5.975
10078SOL    HW131133   5.731   6.228   5.972
10078SOL    HW231134   5.826   6.101   5.933
10079SOL     OW31135   6.851   4.040   6.345
10079SOL    HW131136   6.949   4.030   6.366
10079SOL    HW231137   6.810   3.950   6.334
10080SOL     OW31138   1.643   3.202   6.159
10080SOL    HW131139   1.650   3.132   6.088
10080SOL    HW231140   1.734   3.234   6.184
10081SOL     OW31141   0.260   0.740   6.599
10081SOL    HW131142   0.254   0.675   6.675
10081SOL    HW231143   0.321   0.704   6.529
10082SOL     OW31144   6.409   0.917   0.700
10082SOL    HW131145   6.387   0.932   0.797
10082SOL    HW231146   6.414   0.818   0.683
10083SOL     OW31147   5.337   1.073   4.314
10083SOL    HW131148   5.347   1.031   4.405
10083SOL    HW231149   5.424   1.112   4.286
10084SOL     OW31150   2.504   1.039   6.092
10084SOL    HW131151   2.453   1.119   6.126
10084SOL    HW231152   2.598   1.042   6.126
10085SOL     OW31153   0.726   5.735   3.174
10085SOL    HW131154   0.681   5.802   3.116
10085SOL    HW231155   0.815   5.711   3.135
10086SOL     OW31156   6.279   3.680   2.511
10086SOL    HW131157   6.285   3.591   2.557
10086SOL    HW231158   6.209   3.736   2.555
10087SOL     OW31159   0.996   0.447   3.975
10087SOL    HW131160   1.013   0.535   3.930
10087SOL    HW231161   1.075   0.388   3.961
10088SOL     OW31162   0.035   0.572   4.534
10088SOL    HW131163   6.985   0.499   4.524
10088SOL    HW231164   0.031   0.609   4.626
10089SOL     OW31165   1.193   3.349   2.538
10089SOL    HW131166   1.195   3.274   2.472
10089SOL    HW231167   1.160   3.315   2.626
10090SOL     OW31168   1.001   4.540   1.132
10090SOL    HW131169   0.996   4.616   1.067
10090SOL    HW231170   1.013   4.454   1.082
10091SOL     OW31171   0.574   2.309   3.899
10091SOL    HW131172   0.663   2.319   3.856
10091SOL    HW231173   0.584   2.307   3.998
10092SOL     OW31174   1.889   3.729   4.699
10092SOL    HW131175   1.818   3.798   4.685
10092SOL    HW231176   1.978   3.766   4.673
10093SOL     OW31177   6.601   4.907   6.239
10093SOL    HW131178   6.619   4.851   6.319
10093SOL    HW231179   6.621   5.003   6.260
10094SOL     OW31180   1.657   1.174   1.599
10094SOL    HW131181   1.755   1.156   1.594
10094SOL    HW231182   1.606   1.089   1.585
10095SOL     OW31183   0.376   1.059   5.794
10095SOL    HW131184   0.441   1.122   5.838
10095SOL    HW231185   0.410   0.966   5.803
10096SOL     OW31186   0.554   4.815   2.343
10096SOL    HW131187   0.535   4.780   2.251
10096SOL    HW231188   0.647   4.851   2.346
10097SOL     OW31189   1.294   2.022   6.809
10097SOL    HW131190   1.304   1.933   6.853
10097SOL    HW231191   1.211   2.067   6.841
10098SOL     OW31192   3.539   4.748   6.179
10098SOL    HW131193   3.518   4.687   6.103
10098SOL    HW231194   3.637   4.766   6.181
10099SOL     OW31195   6.333   4.655   4.581
10099SOL    HW131196   6.361   4.563   4.609
10099SOL    HW231197   6.393   4.688   4.508
10100SOL     OW31198   5.771   1.372   5.862
10100SOL    HW131199   5.700   1.342   5.926
10100SOL    HW231200   5.848   1.309   5.867
10101SOL     OW31201   0.420   4.382   1.872
10101SOL    HW131202   0.464   4.302   1.912
10101SOL    HW231203   0.490   4.449   1.847
10102SOL     OW31204   3.786   1.122   2.801
10102SOL    HW131205   3.710   1.111   2.737
10102SOL    HW231206   3.792   1.218   2.829
10103SOL     OW31207   2.872   1.644   6.983
10103SOL    HW131208   2.802   1.615   0.031
10103SOL    HW231209   2.828   1.681   6.901
10104SOL     OW31210   1.473   5.697   5.011
10104SOL    HW131211   1.510   5.647   5.090
10104SOL    HW231212   1.423   5.777   5.043
10105SOL     OW31213   2.452   0.583   6.412
10105SOL    HW131214   2.529   0.645   6.393
10105SOL    HW231215   2.413   0.552   6.325
10106SOL     OW31216   5.784   5.172   0.402
10106SOL    HW131217   5.807   5.075   0.403
10106SOL    HW231218   5.864   5.225   0.375
10107SOL     OW31219   5.606   1.291   6.065
10107SOL    HW131220   5.687   1.293   6.124
10107SOL    HW231221   5.540   1.226   6.102
10108SOL     OW31222   6.070   6.705   0.330
10108SOL    HW131223   5.988   6.651   0.308
10108SOL    HW231224   6.049   6.802   0.319
10109SOL     OW31225   4.780   5.039   3.198
10109SOL    HW131226   4.742   5.067   3.286
10109SOL    HW231227   4.767   4.941   3.186
10110SOL     OW31228   3.290   1.191   5.573
10110SOL    HW131229   3.303   1.281   5.531
10110SOL    HW231230   3.301   1.120   5.504
10111SOL     OW31231   0.543   2.477   2.626
10111SOL    HW131232   0.547   2.531   2.710
10111SOL    HW231233   0.577   2.532   2.549
10112SOL     OW31234   3.995   4.166   5.911
10112SOL    HW131235   3.992   4.113   5.826
10112SOL    HW231236   3.924   4.132   5.973
10113SOL     OW31237   3.668   6.315   6.822
10113SOL    HW131238   3.669   6.333   6.724
10113SOL    HW231239   3.608   6.236   6.840
10114SOL     OW31240   4.259   1.384   1.193
10114SOL    HW131241   4.319   1.449   1.240
10114SOL    HW231242   4.180   1.433   1.156
10115SOL     OW31243   1.393   2.091   3.633
10115SOL    HW131244   1.353   2.156   3.698
10115SOL    HW231245   1.449   2.141   3.567
10116SOL     OW31246   1.069   0.792   1.086
10116SOL    HW131247   1.063   0.832   0.995
10116SOL    HW231248   1.144   0.726   1.089
10117SOL     OW31249   5.250   0.879   5.738
10117SOL    HW131250   5.174   0.937   5.709
10117SOL    HW231251   5.336   0.931   5.734
10118SOL     OW31252   6.321   5.118   2.639
10118SOL    HW131253   6.237   5.083   2.679
10118SOL    HW231254   6.321   5.218   2.643
10119SOL     OW31255   2.819   0.238   5.854
10119SOL    HW131256   2.756   0.172   5.894
10119SOL    HW231257   2.820   0.322   5.910
10120SOL     OW31258   6.304   2.777   3.112
10120SOL    HW131259   6.211   2.811   3.100
10120SOL    HW231260   6.324   2.769   3.210
10121SOL     OW31261   6.772   4.927   4.368
10121SOL    HW131262   6.817   4.844   4.336
10121SOL    HW231263   6.834   4.978   4.427
10122SOL     OW31264   5.430   3.255   0.476
10122SOL    HW131265   5.400   3.262   0.572
10122SOL    HW231266   5.360   3.207   0.423
10123SOL     OW31267   6.630   0.033   0.116
10123SOL    HW131268   6.574   6.968   0.109
10123SOL    HW231269   6.706   0.017   0.179
10124SOL     OW31270   3.242   4.482   0.978
10124SOL    HW131271   3.332   4.475   0.934
10124SOL    HW231272   3.193   4.560   0.940
10125SOL     OW31273   1.273   0.013   1.427
10125SOL    HW131274   1.205   0.086   1.417
10125SOL    HW231275   1.328   0.029   1.509
10126SOL     OW31276   5.943   4.552   0.325
10126SOL    HW131277   5.877   4.591   0.260
10126SOL    HW231278   5.903   4.471   0.368
10127SOL     OW31279   3.695   4.702   5.385
10127SOL    HW131280   3.597   4.715   5.375
10127SOL    HW231281   3.715   4.605   5.400
10128SOL     OW31282   0.506   1.894   1.674
10128SOL    HW131283   0.589   1.853   1.637
10128SOL    HW231284   0.426   1.858   1.625
10129SOL     OW31285   5.357   2.071   3.097
10129SOL    HW131286   5.406   2.011   3.160
10129SOL    HW231287   5.347   2.161   3.138
10130SOL     OW31288   6.785   4.866   1.779
10130SOL    HW131289   6.785   4.953   1.829
10130SOL    HW231290   6.775   4.791   1.843
10131SOL     OW31291   6.931   1.042   0.905
10131SOL    HW131292   0.004   1.082   0.914
10131SOL    HW231293   6.912   1.021   0.809
10132SOL     OW31294   2.980   6.794   2.764
10132SOL    HW131295   2.992   6.698   2.788
10132SOL    HW231296   3.051   6.849   2.809
10133SOL     OW31297   5.060   5.799   2.950
10133SOL    HW131298   5.141   5.748   2.977
10133SOL    HW231299   4.990   5.735   2.916
10134SOL     OW31300   0.097   1.638   2.558
10134SOL    HW131301   0.073   1.596   2.470
10134SOL    HW231302   0.060   1.731   2.560
10135SOL     OW31303   3.858   5.955   3.242
10135SOL    HW131304   3.931   6.022   3.229
10135SOL    HW231305   3.856   5.892   3.164
10136SOL     OW31306   6.025   6.841   2.143
10136SOL    HW131307   5.962   6.918   2.153
10136SOL    HW231308   6.119   6.874   2.152
10137SOL     OW31309   5.685   4.753   4.340
10137SOL    HW131310   5.707   4.840   4.296
10137SOL    HW231311   5.646   4.770   4.430
10138SOL     OW31312   5.525   2.579   6.557
10138SOL    HW131313   5.599   2.524   6.597
10138SOL    HW231314   5.448   2.520   6.535
10139SOL     OW31315   4.065   3.695   3.313
10139SOL    HW131316   4.118   3.638   3.375
10139SOL    HW231317   4.046   3.645   3.228
10140SOL     OW31318   0.241   4.916   5.583
10140SOL    HW131319   0.280   4.867   5.506
10140SOL    HW231320   0.313   4.972   5.626
10141SOL     OW31321   2.394   0.401   4.020
10141SOL    HW131322   2.422   0.367   4.110
10141SOL    HW231323   2.461   0.468   3.988
10142SOL     OW31324   5.017   5.630   4.416
10142SOL    HW131325   5.069   5.631   4.331
10142SOL    HW231326   4.923   5.600   4.397
10143SOL     OW31327   5.184   6.259   1.079
10143SOL    HW131328   5.237   6.199   1.019
10143SOL    HW231329   5.116   6.309   1.025
10144SOL     OW31330   3.019   5.471   3.581
10144SOL    HW131331   3.072   5.546   3.541
10144SOL    HW231332   3.019   5.479   3.681
10145SOL     OW31333   3.278   5.811   6.194
10145SOL    HW131334   3.357   5.764   6.234
10145SOL    HW231335   3.218   5.743   6.152
10146SOL     OW31336   4.701   4.837   4.273
10146SOL    HW131337   4.700   4.926   4.319
10146SOL    HW231338   4.669   4.766   4.336
10147SOL     OW31339   5.213   5.542   4.901
10147SOL    HW131340   5.242   5.624   4.853
10147SOL    HW231341   5.202   5.467   4.836
10148SOL     OW31342   5.464   5.336   1.380
10148SOL    HW131343   5.445   5.300   1.471
10148SOL    HW231344   5.388   5.393   1.350
10149SOL     OW31345   4.371   3.436   0.767
10149SOL    HW131346   4.292   3.401   0.716
10149SOL    HW231347   4.402   3.367   0.832
10150SOL     OW31348   4.793   4.578   1.252
10150SOL    HW131349   4.694   4.584   1.237
10150SOL    HW231350   4.810   4.546   1.345
10151SOL     OW31351   1.174   6.901   5.404
10151SOL    HW131352   1.165   6.817   5.457
10151SOL    HW231353   1.084   6.931   5.373
10152SOL     OW31354   0.372   5.292   3.719
10152SOL    HW131355   0.457   5.259   3.678
10152SOL    HW231356   0.391   5.328   3.810
10153SOL     OW31357   5.618   6.608   4.163
10153SOL    HW131358   5.708   6.574   4.192
10153SOL    HW231359   5.553   6.601   4.238
10154SOL     OW31360   6.660   5.584   5.742
10154SOL    HW131361   6.617   5.500   5.775
10154SOL    HW231362   6.714   5.565   5.660
10155SOL     OW31363   3.786   1.547   6.448
10155SOL    HW131364   3.873   1.595   6.443
10155SOL    HW231365   3.774   1.509   6.540
10156SOL     OW31366   5.845   0.612   2.266
10156SOL    HW131367   5.758   0.646   2.229
10156SOL    HW231368   5.829   0.571   2.355
10157SOL     OW31369   5.711   0.878   6.146
10157SOL    HW131370   5.701   0.779   6.154
10157SOL    HW231371   5.695   0.920   6.235
10158SOL     OW31372   4.163   4.002   6.719
10158SOL    HW131373   4.225   3.924   6.722
10158SOL    HW231374   4.114   4.002   6.631
10159SOL     OW31375   1.378   1.252   6.258
10159SOL    HW131376   1.461   1.308   6.264
10159SOL    HW231377   1.395   1.175   6.196
10160SOL     OW31378   0.352   5.944   3.583
10160SOL    HW131379   0.448   5.919   3.578
10160SOL    HW231380   0.312   5.941   3.491
10161SOL     OW31381   2.647   5.771   5.766
10161SOL    HW131382   2.559   5.723   5.755
10161SOL    HW231383   2.635   5.868   5.745
10162SOL     OW31384   3.597   1.657   6.727
10162SOL    HW131385   3.577   1.572   6.775
10162SOL    HW231386   3.644   1.720   6.789
10163SOL     OW31387   6.337   2.829   5.509
10163SOL    HW131388   6.252   2.779   5.493
10163SOL    HW231389   6.415   2.772   5.483
10164SOL     OW31390   0.505   2.991   5.136
10164SOL    HW131391   0.584   3.051   5.148
10164SOL    HW231392   0.431   3.021   5.197
10165SOL     OW31393   6.939   2.139   3.236
10165SOL    HW131394   6.923   2.043   3.214
10165SOL    HW231395   6.851   2.184   3.254
10166SOL     OW31396   1.942   0.840   2.169
10166SOL    HW131397   1.982   0.877   2.085
10166SOL    HW231398   1.855   0.887   2.188
10167SOL     OW31399   4.692   0.448   0.143
10167SOL    HW131400   4.668   0.525   0.085
10167SOL    HW231401   4.648   0.365   0.109
10168SOL     OW31402   6.493   4.378   4.658
10168SOL    HW131403   6.592   4.365   4.646
10168SOL    HW231404   6.444   4.302   4.616
10169SOL     OW31405   6.302   4.360   3.793
10169SOL    HW131406   6.214   4.356   3.746
10169SOL    HW231407   6.370   4.402   3.733
10170SOL     OW31408   1.963   4.361   4.841
10170SOL    HW131409   1.973   4.280   4.784
10170SOL    HW231410   1.940   4.333   4.934
10171SOL     OW31411   5.800   3.725   5.750
10171SOL    HW131412   5.829   3.631   5.731
10171SOL    HW231413   5.714   3.743   5.702
10172SOL     OW31414   4.989   1.237   3.128
10172SOL    HW131415   4.967   1.183   3.046
10172SOL    HW231416   5.087   1.229   3.147
10173SOL     OW31417   2.209   1.639   2.172
10173SOL    HW131418   2.126   1.583   2.164
10173SOL    HW231419   2.183   1.734   2.193
10174SOL     OW31420   6.760   4.428   1.742
10174SOL    HW131421   6.757   4.508   1.681
10174SOL    HW231422   6.699   4.357   1.706
10175SOL     OW31423   6.237   2.575   5.975
10175SOL    HW131424   6.267   2.670   5.966
10175SOL    HW231425   6.288   2.531   6.048
10176SOL     OW31426   2.126   4.063   0.088
10176SOL    HW131427   2.144   4.148   0.138
10176SOL    HW231428   2.155   3.985   0.144
10177SOL     OW31429   1.638   6.557   6.501
10177SOL    HW131430   1.594   6.647   6.504
10177SOL    HW231431   1.726   6.562   6.548
10178SOL     OW31432   5.432   2.107   4.579
10178SOL    HW131433   5.484   2.167   4.518
10178SOL    HW231434   5.425   2.149   4.670
10179SOL     OW31435   1.222   3.305   6.741
10179SOL    HW131436   1.303   3.350   6.777
10179SOL    HW231437   1.139   3.349   6.776
10180SOL     OW31438   2.655   6.330   5.641
10180SOL    HW131439   2.669   6.286   5.730
10180SOL    HW231440   2.563   6.369   5.637
10181SOL     OW31441   5.149   3.215   1.231
10181SOL    HW131442   5.189   3.172   1.151
10181SOL    HW231443   5.212   3.207   1.309
10182SOL     OW31444   5.395   1.267   0.733
10182SOL    HW131445   5.446   1.182   0.741
10182SOL    HW231446   5.399   1.299   0.638
10183SOL     OW31447   1.706   1.650   6.676
10183SOL    HW131448   1.796   1.636   6.635
10183SOL    HW231449   1.655   1.718   6.623
10184SOL     OW31450   3.951   0.774   5.940
10184SOL    HW131451   3.874   0.712   5.954
10184SOL    HW231452   3.986   0.764   5.847
10185SOL     OW31453   5.263   6.782   0.504
10185SOL    HW131454   5.256   6.854   0.573
10185SOL    HW231455   5.327   6.810   0.433
10186SOL     OW31456   4.526   2.422   2.975
10186SOL    HW131457   4.446   2.387   2.927
10186SOL    HW231458   4.609   2.404   2.922
10187SOL     OW31459   0.765   1.828   1.665
10187SOL    HW131460   0.847   1.780   1.696
10187SOL    HW231461   0.777   1.927   1.677
10188SOL     OW31462   3.573   5.865   0.963
10188SOL    HW131463   3.482   5.900   0.986
10188SOL    HW231464   3.642   5.932   0.990
10189SOL     OW31465   1.294   6.465   5.318
10189SOL    HW131466   1.246   6.553   5.316
10189SOL    HW231467   1.242   6.400   5.374
10190SOL     OW31468   5.421   2.910   0.421
10190SOL    HW131469   5.449   2.817   0.443
10190SOL    HW231470   5.346   2.938   0.481
10191SOL     OW31471   6.272   4.479   6.936
10191SOL    HW131472   6.281   4.381   6.955
10191SOL    HW231473   6.199   4.517   6.992
10192SOL     OW31474   3.048   1.251   5.661
10192SOL    HW131475   3.142   1.237   5.629
10192SOL    HW231476   2.986   1.190   5.612
10193SOL     OW31477   4.806   4.027   0.385
10193SOL    HW131478   4.818   4.126   0.387
10193SOL    HW231479   4.895   3.982   0.391
10194SOL     OW31480   5.468   3.349   5.172
10194SOL    HW131481   5.450   3.272   5.233
10194SOL    HW231482   5.458   3.435   5.222
10195SOL     OW31483   6.876   4.068   2.034
10195SOL    HW131484   6.909   4.134   1.967
10195SOL    HW231485   6.877   4.109   2.125
10196SOL     OW31486   0.171   1.586   4.757
10196SOL    HW131487   0.108   1.519   4.717
10196SOL    HW231488   0.259   1.582   4.709
10197SOL     OW31489   5.977   1.038   6.232
10197SOL    HW131490   6.069   1.015   6.265
10197SOL    HW231491   5.941   0.960   6.180
10198SOL     OW31492   3.655   6.685   3.618
10198SOL    HW131493   3.684   6.589   3.620
10198SOL    HW231494   3.561   6.689   3.583
10199SOL     OW31495   1.273   2.408   5.031
10199SOL    HW131496   1.212   2.350   5.086
10199SOL    HW231497   1.338   2.454   5.091
10200SOL     OW31498   6.004   2.818   1.819
10200SOL    HW131499   5.920   2.857   1.781
10200SOL    HW231500   5.988   2.723   1.845
10201SOL     OW31501   1.305   3.240   0.694
10201SOL    HW131502   1.404   3.235   0.704
10201SOL    HW231503   1.272   3.326   0.734
10202SOL     OW31504   3.623   0.395   4.935
10202SOL    HW131505   3.587   0.333   5.005
10202SOL    HW231506   3.598   0.489   4.957
10203SOL     OW31507   6.562   2.393   4.590
10203SOL    HW131508   6.504   2.312   4.602
10203SOL    HW231509   6.570   2.414   4.492
10204SOL     OW31510   5.580   5.758   6.471
10204SOL    HW131511   5.543   5.675   6.429
10204SOL    HW231512   5.610   5.821   6.399
10205SOL     OW31513   0.969   0.717   5.951
10205SOL    HW131514   0.931   0.787   6.012
10205SOL    HW231515   1.053   0.680   5.990
10206SOL     OW31516   1.331   0.775   5.073
10206SOL    HW131517   1.415   0.811   5.114
10206SOL    HW231518   1.344   0.765   4.974
10207SOL     OW31519   1.871   2.353   5.314
10207SOL    HW131520   1.921   2.409   5.380
10207SOL    HW231521   1.777   2.341   5.346
10208SOL     OW31522   6.491   4.996   5.531
10208SOL    HW131523   6.500   4.923   5.464
10208SOL    HW231524   6.485   4.956   5.623
10209SOL     OW31525   6.665   0.100   5.607
10209SOL    HW131526   6.566   0.103   5.601
10209SOL    HW231527   6.693   0.022   5.662
10210SOL     OW31528   3.424   6.517   2.134
10210SOL    HW131529   3.424   6.615   2.113
10210SOL    HW231530   3.385   6.503   2.225
10211SOL     OW31531   5.415   5.852   5.622
10211SOL    HW131532   5.365   5.860   5.536
10211SOL    HW231533   5.513   5.854   5.604
10212SOL     OW31534   0.523   0.315   6.755
10212SOL    HW131535   0.571   0.274   6.677
10212SOL    HW231536   0.425   0.295   6.749
10213SOL     OW31537   6.020   1.829   1.033
10213SOL    HW131538   5.933   1.856   0.992
10213SOL    HW231539   6.017   1.733   1.058
10214SOL     OW31540   0.860   2.304   0.313
10214SOL    HW131541   0.831   2.319   0.407
10214SOL    HW231542   0.787   2.330   0.251
10215SOL     OW31543   3.257   2.948   2.154
10215SOL    HW131544   3.231   2.920   2.062
10215SOL    HW231545   3.205   3.029   2.180
10216SOL     OW31546   6.944   6.356   2.662
10216SOL    HW131547   7.007   6.424   2.698
10216SOL    HW231548   6.850   6.384   2.682
10217SOL     OW31549   3.635   1.296   4.322
10217SOL    HW131550   3.569   1.369   4.339
10217SOL    HW231551   3.631   1.229   4.396
10218SOL     OW31552   1.428   2.822   2.577
10218SOL    HW131553   1.445   2.881   2.498
10218SOL    HW231554   1.481   2.738   2.569
10219SOL     OW31555   6.575   0.068   3.098
10219SOL    HW131556   6.532   0.011   3.167
10219SOL    HW231557   6.631   0.011   3.037
10220SOL     OW31558   3.853   2.582   0.797
10220SOL    HW131559   3.768   2.532   0.811
10220SOL    HW231560   3.848   2.671   0.842
10221SOL     OW31561   0.680   5.239   4.017
10221SOL    HW131562   0.751   5.294   3.972
10221SOL    HW231563   0.593   5.288   4.012
10222SOL     OW31564   2.951   3.512   4.304
10222SOL    HW131565   3.049   3.528   4.317
10222SOL    HW231566   2.935   3.416   4.282
10223SOL     OW31567   0.579   6.194   1.394
10223SOL    HW131568   0.661   6.150   1.430
10223SOL    HW231569   0.588   6.205   1.294
10224SOL     OW31570   6.070   3.912   2.968
10224SOL    HW131571   6.043   3.923   3.064
10224SOL    HW231572   6.010   3.845   2.924
10225SOL     OW31573   2.336   3.627   5.865
10225SOL    HW131574   2.293   3.624   5.956
10225SOL    HW231575   2.416   3.686   5.869
10226SOL     OW31576   5.221   2.913   6.893
10226SOL    HW131577   5.273   2.934   6.810
10226SOL    HW231578   5.146   2.978   6.903
10227SOL     OW31579   5.179   3.701   1.442
10227SOL    HW131580   5.128   3.755   1.375
10227SOL    HW231581   5.271   3.683   1.408
10228SOL     OW31582   5.223   0.985   0.980
10228SOL    HW131583   5.206   0.985   1.079
10228SOL    HW231584   5.140   1.013   0.932
10229SOL     OW31585   6.875   3.403   4.948
10229SOL    HW131586   6.822   3.363   4.873
10229SOL    HW231587   6.917   3.329   5.002
10230SOL     OW31588   0.199   6.153   2.074
10230SOL    HW131589   0.220   6.073   2.130
10230SOL    HW231590   0.100   6.161   2.063
10231SOL     OW31591   1.052   5.527   3.258
10231SOL    HW131592   1.094   5.595   3.318
10231SOL    HW231593   1.026   5.570   3.171
10232SOL     OW31594   4.915   4.444   4.108
10232SOL    HW131595   4.815   4.445   4.105
10232SOL    HW231596   4.947   4.487   4.192
10233SOL     OW31597   3.047   3.824   5.723
10233SOL    HW131598   2.968   3.884   5.737
10233SOL    HW231599   3.066   3.816   5.626
10234SOL     OW31600   0.485   1.297   2.227
10234SOL    HW131601   0.473   1.197   2.225
10234SOL    HW231602   0.400   1.341   2.197
10235SOL     OW31603   1.778   0.630   2.834
10235SOL    HW131604   1.691   0.672   2.810
10235SOL    HW231605   1.830   0.692   2.894
10236SOL     OW31606   2.561   6.703   2.588
10236SOL    HW131607   2.532   6.609   2.572
10236SOL    HW231608   2.650   6.719   2.546
10237SOL     OW31609   0.346   3.543   4.961
10237SOL    HW131610   0.428   3.486   4.952
10237SOL    HW231611   0.321   3.550   5.057
10238SOL     OW31612   3.447   6.844   1.898
10238SOL    HW131613   3.525   6.829   1.838
10238SOL    HW231614   3.468   6.918   1.962
10239SOL     OW31615   0.888   2.642   3.967
10239SOL    HW131616   0.816   2.641   4.036
10239SOL    HW231617   0.919   2.548   3.950
10240SOL     OW31618   2.360   6.521   0.667
10240SOL    HW131619   2.329   6.551   0.757
10240SOL    HW231620   2.414   6.594   0.625
10241SOL     OW31621   3.890   2.555   1.571
10241SOL    HW131622   3.911   2.616   1.494
10241SOL    HW231623   3.972   2.542   1.627
10242SOL     OW31624   6.887   2.623   6.641
10242SOL    HW131625   6.829   2.543   6.656
10242SOL    HW231626   6.887   2.680   6.723
10243SOL     OW31627   2.744   5.331   1.454
10243SOL    HW131628   2.782   5.283   1.533
10243SOL    HW231629   2.770   5.283   1.370
10244SOL     OW31630   2.972   4.557   1.309
10244SOL    HW131631   3.060   4.605   1.311
10244SOL    HW231632   2.940   4.541   1.403
10245SOL     OW31633   4.449   4.323   0.863
10245SOL    HW131634   4.529   4.308   0.922
10245SOL    HW231635   4.371   4.272   0.898
10246SOL     OW31636   3.644   2.840   3.866
10246SOL    HW131637   3.545   2.843   3.874
10246SOL    HW231638   3.685   2.878   3.949
10247SOL     OW31639   0.673   2.624   4.134
10247SOL    HW131640   0.659   2.671   4.221
10247SOL    HW231641   0.631   2.677   4.060
10248SOL     OW31642   1.200   1.072   4.132
10248SOL    HW131643   1.197   1.122   4.045
10248SOL    HW231644   1.241   0.983   4.118
10249SOL     OW31645   2.909   5.245   6.114
10249SOL    HW131646   2.916   5.152   6.077
10249SOL    HW231647   2.819   5.283   6.091
10250SOL     OW31648   4.102   2.480   0.892
10250SOL    HW131649   4.171   2.515   0.829
10250SOL    HW231650   4.011   2.502   0.858
10251SOL     OW31651   1.468   0.611   4.222
10251SOL    HW131652   1.497   0.607   4.318
10251SOL    HW231653   1.445   0.519   4.190
10252SOL     OW31654   5.377   4.660   6.332
10252SOL    HW131655   5.421   4.578   6.371
10252SOL    HW231656   5.345   4.639   6.239
10253SOL     OW31657   3.588   6.132   6.214
10253SOL    HW131658   3.512   6.193   6.240
10253SOL    HW231659   3.626   6.090   6.297
10254SOL     OW31660   5.900   1.766   5.971
10254SOL    HW131661   5.864   1.717   5.892
10254SOL    HW231662   5.900   1.704   6.050
10255SOL     OW31663   4.024   4.543   1.465
10255SOL    HW131664   3.938   4.493   1.476
10255SOL    HW231665   4.083   4.492   1.402
10256SOL     OW31666   3.965   1.231   3.584
10256SOL    HW131667   4.057   1.270   3.596
10256SOL    HW231668   3.953   1.203   3.489
10257SOL     OW31669   4.079   5.686   3.163
10257SOL    HW131670   4.162   5.652   3.208
10257SOL    HW231671   4.081   5.786   3.161
10258SOL     OW31672   2.008   1.486   1.765
10258SOL    HW131673   1.923   1.474   1.714
10258SOL    HW231674   2.016   1.581   1.795
10259SOL     OW31675   2.212   3.961   4.177
10259SOL    HW131676   2.264   4.044   4.195
10259SOL    HW231677   2.127   3.963   4.231
10260SOL     OW31678   0.997   0.721   3.353
10260SOL    HW131679   1.045   0.694   3.269
10260SOL    HW231680   0.971   0.640   3.404
10261SOL     OW31681   6.899   3.805   0.943
10261SOL    HW131682   6.893   3.794   1.042
10261SOL    HW231683   6.903   3.716   0.899
10262SOL     OW31684   4.508   1.567   0.585
10262SOL    HW131685   4.511   1.642   0.652
10262SOL    HW231686   4.417   1.564   0.543
10263SOL     OW31687   5.930   1.309   2.432
10263SOL    HW131688   5.945   1.224   2.483
10263SOL    HW231689   5.927   1.386   2.495
10264SOL     OW31690   6.749   6.561   6.596
10264SOL    HW131691   6.703   6.644   6.564
10264SOL    HW231692   6.686   6.483   6.590
10265SOL     OW31693   2.057   1.980   0.801
10265SOL    HW131694   1.964   1.962   0.770
10265SOL    HW231695   2.058   1.984   0.901
10266SOL     OW31696   2.563   3.433   1.687
10266SOL    HW131697   2.472   3.443   1.729
10266SOL    HW231698   2.630   3.409   1.757
10267SOL     OW31699   5.719   0.851   1.282
10267SOL    HW131700   5.794   0.910   1.309
10267SOL    HW231701   5.637   0.907   1.267
10268SOL     OW31702   3.839   6.386   1.844
10268SOL    HW131703   3.911   6.453   1.825
10268SOL    HW231704   3.760   6.433   1.884
10269SOL     OW31705   2.889   2.408   0.734
10269SOL    HW131706   2.834   2.461   0.669
10269SOL    HW231707   2.951   2.348   0.684
10270SOL     OW31708   2.936   0.479   3.117
10270SOL    HW131709   2.977   0.502   3.029
10270SOL    HW231710   2.932   0.561   3.175
10271SOL     OW31711   1.671   1.768   6.261
10271SOL    HW131712   1.756   1.811   6.291
10271SOL    HW231713   1.603   1.839   6.243
10272SOL     OW31714   6.329   0.033   4.445
10272SOL    HW131715   6.320   0.118   4.497
10272SOL    HW231716   6.318   6.973   4.507
10273SOL     OW31717   2.176   5.183   3.636
10273SOL    HW131718   2.108   5.232   3.691
10273SOL    HW231719   2.225   5.118   3.693
10274SOL     OW31720   0.827   4.953   5.448
10274SOL    HW131721   0.815   4.984   5.543
10274SOL    HW231722   0.774   4.869   5.434
10275SOL     OW31723   6.797   0.617   2.294
10275SOL    HW131724   6.890   0.647   2.316
10275SOL    HW231725   6.732   0.672   2.347
10276SOL     OW31726   3.774   5.325   5.326
10276SOL    HW131727   3.686   5.371   5.314
10276SOL    HW231728   3.834   5.348   5.249
10277SOL     OW31729   0.519   5.993   4.057
10277SOL    HW131730   0.550   5.945   3.975
10277SOL    HW231731   0.598   6.019   4.112
10278SOL     OW31732   6.733   6.915   5.044
10278SOL    HW131733   6.775   6.963   5.121
10278SOL    HW231734   6.686   6.980   4.985
10279SOL     OW31735   2.305   6.293   4.268
10279SOL    HW131736   2.274   6.320   4.177
10279SOL    HW231737   2.380   6.353   4.297
10280SOL     OW31738   6.220   4.483   0.310
10280SOL    HW131739   6.130   4.508   0.275
10280SOL    HW231740   6.214   4.396   0.359
10281SOL     OW31741   6.227   1.438   3.340
10281SOL    HW131742   6.285   1.358   3.351
10281SOL    HW231743   6.214   1.482   3.429
10282SOL     OW31744   5.192   3.412   3.578
10282SOL    HW131745   5.105   3.435   3.620
10282SOL    HW231746   5.197   3.450   3.486
10283SOL     OW31747   0.930   2.703   1.092
10283SOL    HW131748   0.898   2.749   1.009
10283SOL    HW231749   0.887   2.613   1.098
10284SOL     OW31750   0.214   3.288   3.991
10284SOL    HW131751   0.234   3.326   4.081
10284SOL    HW231752   0.120   3.311   3.965
10285SOL     OW31753   5.913   5.617   5.325
10285SOL    HW131754   5.869   5.604   5.414
10285SOL    HW231755   5.914   5.529   5.276
10286SOL     OW31756   2.984   1.162   3.068
10286SOL    HW131757   3.037   1.160   3.153
10286SOL    HW231758   2.994   1.074   3.021
10287SOL     OW31759   2.145   5.261   3.116
10287SOL    HW131760   2.179   5.199   3.188
10287SOL    HW231761   2.091   5.334   3.158
10288SOL     OW31762   3.663   6.704   5.264
10288SOL    HW131763   3.633   6.639   5.334
10288SOL    HW231764   3.707   6.782   5.308
10289SOL     OW31765   3.380   5.577   6.965
10289SOL    HW131766   3.455   5.641   6.953
10289SOL    HW231767   3.297   5.627   6.990
10290SOL     OW31768   3.529   2.840   1.668
10290SOL    HW131769   3.567   2.931   1.686
10290SOL    HW231770   3.592   2.771   1.704
10291SOL     OW31771   2.017   1.755   1.829
10291SOL    HW131772   2.036   1.842   1.875
10291SOL    HW231773   2.025   1.768   1.730
10292SOL     OW31774   6.719   6.863   5.817
10292SOL    HW131775   6.786   6.878   5.889
10292SOL    HW231776   6.761   6.808   5.744
10293SOL     OW31777   1.174   4.010   4.813
10293SOL    HW131778   1.074   4.006   4.823
10293SOL    HW231779   1.217   3.952   4.881
10294SOL     OW31780   3.376   1.439   2.234
10294SOL    HW131781   3.300   1.394   2.187
10294SOL    HW231782   3.451   1.374   2.246
10295SOL     OW31783   1.244   1.857   6.375
10295SOL    HW131784   1.145   1.845   6.386
10295SOL    HW231785   1.293   1.801   6.442
10296SOL     OW31786   6.176   1.147   5.597
10296SOL    HW131787   6.255   1.209   5.596
10296SOL    HW231788   6.094   1.197   5.624
10297SOL     OW31789   3.534   0.869   0.052
10297SOL    HW131790   3.519   0.817   0.136
10297SOL    HW231791   3.588   0.950   0.073
10298SOL     OW31792   0.472   2.454   2.043
10298SOL    HW131793   0.543   2.429   2.109
10298SOL    HW231794   0.492   2.543   2.004
10299SOL     OW31795   4.209   6.327   2.978
10299SOL    HW131796   4.300   6.311   2.939
10299SOL    HW231797   4.141   6.274   2.928
10300SOL     OW31798   1.150   4.067   1.669
10300SOL    HW131799   1.119   3.977   1.697
10300SOL    HW231800   1.203   4.060   1.585
10301SOL     OW31801   3.991   0.371   6.713
10301SOL    HW131802   4.044   0.379   6.797
10301SOL    HW231803   3.958   0.461   6.685
10302SOL     OW31804   2.784   6.262   4.890
10302SOL    HW131805   2.693   6.237   4.924
10302SOL    HW231806   2.854   6.216   4.945
10303SOL     OW31807   0.507   5.783   4.822
10303SOL    HW131808   0.417   5.827   4.816
10303SOL    HW231809   0.559   5.823   4.896
10304SOL     OW31810   6.100   6.227   0.608
10304SOL    HW131811   6.076   6.322   0.631
10304SOL    HW231812   6.199   6.216   0.609
10305SOL     OW31813   3.166   4.181   5.606
10305SOL    HW131814   3.198   4.258   5.550
10305SOL    HW231815   3.083   4.209   5.655
10306SOL     OW31816   4.222   0.428   1.182
10306SOL    HW131817   4.282   0.444   1.104
10306SOL    HW231818   4.126   0.433   1.152
10307SOL     OW31819   2.231   0.328   5.434
10307SOL    HW131820   2.225   0.423   5.404
10307SOL    HW231821   2.327   0.301   5.441
10308SOL     OW31822   2.671   5.212   2.618
10308SOL    HW131823   2.738   5.287   2.616
10308SOL    HW231824   2.688   5.156   2.699
10309SOL     OW31825   0.034   1.203   4.803
10309SOL    HW131826   6.957   1.224   4.823
10309SOL    HW231827   0.062   1.247   4.718
10310SOL     OW31828   2.016   3.940   5.657
10310SOL    HW131829   2.095   3.891   5.619
10310SOL    HW231830   2.049   4.018   5.711
10311SOL     OW31831   4.804   5.508   6.430
10311SOL    HW131832   4.891   5.461   6.447
10311SOL    HW231833   4.749   5.507   6.514
10312SOL     OW31834   4.400   0.440   2.068
10312SOL    HW131835   4.364   0.522   2.112
10312SOL    HW231836   4.422   0.461   1.973
10313SOL     OW31837   5.376   7.017   3.321
10313SOL    HW131838   5.403   7.014   3.417
10313SOL    HW231839   5.337   6.929   3.295
10314SOL     OW31840   0.555   0.371   0.882
10314SOL    HW131841   0.547   0.271   0.877
10314SOL    HW231842   0.472   0.408   0.924
10315SOL     OW31843   5.570   5.050   3.658
10315SOL    HW131844   5.619   5.064   3.572
10315SOL    HW231845   5.570   5.136   3.711
10316SOL     OW31846   0.425   1.920   6.727
10316SOL    HW131847   0.517   1.937   6.761
10316SOL    HW231848   0.361   1.981   6.774
10317SOL     OW31849   3.638   5.958   4.882
10317SOL    HW131850   3.623   6.051   4.851
10317SOL    HW231851   3.730   5.949   4.920
10318SOL     OW31852   6.498   6.745   0.299
10318SOL    HW131853   6.592   6.718   0.316
10318SOL    HW231854   6.437   6.688   0.355
10319SOL     OW31855   1.061   4.187   3.852
10319SOL    HW131856   0.993   4.144   3.912
10319SOL    HW231857   1.148   4.196   3.902
10320SOL     OW31858   0.347   6.395   3.860
10320SOL    HW131859   0.379   6.354   3.775
10320SOL    HW231860   0.307   6.325   3.918
10321SOL     OW31861   5.086   2.779   2.136
10321SOL    HW131862   5.162   2.839   2.109
10321SOL    HW231863   5.115   2.721   2.212
10322SOL     OW31864   4.682   4.279   5.042
10322SOL    HW131865   4.629   4.218   5.102
10322SOL    HW231866   4.658   4.374   5.062
10323SOL     OW31867   0.805   4.554   5.577
10323SOL    HW131868   0.887   4.609   5.588
10323SOL    HW231869   0.775   4.557   5.481
10324SOL     OW31870   3.163   3.334   1.900
10324SOL    HW131871   3.246   3.343   1.955
10324SOL    HW231872   3.173   3.256   1.837
10325SOL     OW31873   6.706   5.619   3.492
10325SOL    HW131874   6.744   5.529   3.471
10325SOL    HW231875   6.671   5.618   3.586
10326SOL     OW31876   5.613   3.570   6.648
10326SOL    HW131877   5.527   3.621   6.648
10326SOL    HW231878   5.609   3.500   6.577
10327SOL     OW31879   2.171   4.627   0.964
10327SOL    HW131880   2.095   4.622   1.029
10327SOL    HW231881   2.245   4.568   0.996
10328SOL     OW31882   6.028   2.199   2.019
10328SOL    HW131883   5.943   2.217   2.068
10328SOL    HW231884   6.007   2.174   1.925
10329SOL     OW31885   3.588   1.572   3.154
10329SOL    HW131886   3.492   1.550   3.167
10329SOL    HW231887   3.598   1.661   3.111
10330SOL     OW31888   4.526   1.449   1.556
10330SOL    HW131889   4.576   1.376   1.511
10330SOL    HW231890   4.590   1.517   1.592
10331SOL     OW31891   6.300   5.118   6.580
10331SOL    HW131892   6.368   5.093   6.510
10331SOL    HW231893   6.258   5.205   6.555
10332SOL     OW31894   1.503   1.092   6.945
10332SOL    HW131895   1.588   1.056   6.906
10332SOL    HW231896   1.467   1.163   6.885
10333SOL     OW31897   0.780   4.515   4.530
10333SOL    HW131898   0.854   4.560   4.480
10333SOL    HW231899   0.801   4.418   4.541
10334SOL     OW31900   3.374   0.294   3.625
10334SOL    HW131901   3.375   0.210   3.680
10334SOL    HW231902   3.463   0.306   3.582
10335SOL     OW31903   0.768   2.191   5.591
10335SOL    HW131904   0.680   2.213   5.548
10335SOL    HW231905   0.799   2.102   5.560
10336SOL     OW31906   5.175   6.803   3.625
10336SOL    HW131907   5.108   6.810   3.551
10336SOL    HW231908   5.163   6.715   3.671
10337SOL     OW31909   6.622   5.613   6.556
10337SOL    HW131910   6.603   5.573   6.645
10337SOL    HW231911   6.721   5.610   6.538
10338SOL     OW31912   1.589   6.524   1.849
10338SOL    HW131913   1.645   6.604   1.868
10338SOL    HW231914   1.640   6.441   1.872
10339SOL     OW31915   6.259   2.509   5.350
10339SOL    HW131916   6.180   2.556   5.389
10339SOL    HW231917   6.269   2.419   5.392
10340SOL     OW31918   2.167   3.131   6.574
10340SOL    HW131919   2.132   3.037   6.568
10340SOL    HW231920   2.227   3.149   6.496
10341SOL     OW31921   2.107   3.008   3.179
10341SOL    HW131922   2.142   2.954   3.256
10341SOL    HW231923   2.161   2.989   3.097
10342SOL     OW31924   0.612   1.437   3.748
10342SOL    HW131925   0.603   1.399   3.656
10342SOL    HW231926   0.672   1.378   3.803
10343SOL     OW31927   3.321   5.708   2.224
10343SOL    HW131928   3.400   5.658   2.259
10343SOL    HW231929   3.310   5.688   2.127
10344SOL     OW31930   4.263   5.857   5.690
10344SOL    HW131931   4.307   5.946   5.692
10344SOL    HW231932   4.205   5.850   5.608
10345SOL     OW31933   2.086   3.648   4.345
10345SOL    HW131934   2.089   3.614   4.439
10345SOL    HW231935   2.098   3.572   4.281
10346SOL     OW31936   6.759   6.080   0.411
10346SOL    HW131937   6.668   6.054   0.378
10346SOL    HW231938   6.801   6.143   0.346
10347SOL     OW31939   5.184   1.653   4.241
10347SOL    HW131940   5.257   1.716   4.269
10347SOL    HW231941   5.103   1.706   4.216
10348SOL     OW31942   6.703   4.263   0.764
10348SOL    HW131943   6.773   4.285   0.697
10348SOL    HW231944   6.729   4.181   0.814
10349SOL     OW31945   0.861   6.696   6.631
10349SOL    HW131946   0.771   6.671   6.666
10349SOL    HW231947   0.850   6.758   6.553
10350SOL     OW31948   3.632   6.932   6.172
10350SOL    HW131949   3.717   6.956   6.218
10350SOL    HW231950   3.592   6.852   6.215
10351SOL     OW31951   4.585   5.408   6.838
10351SOL    HW131952   4.682   5.395   6.855
10351SOL    HW231953   4.532   5.352   6.901
10352SOL     OW31954   3.265   3.644   6.242
10352SOL    HW131955   3.343   3.659   6.303
10352SOL    HW231956   3.234   3.732   6.206
10353SOL     OW31957   0.861   2.488   4.853
10353SOL    HW131958   0.894   2.406   4.901
10353SOL    HW231959   0.919   2.566   4.876
10354SOL     OW31960   5.655   1.757   1.415
10354SOL    HW131961   5.579   1.786   1.474
10354SOL    HW231962   5.624   1.685   1.353
10355SOL     OW31963   1.527   4.881   2.376
10355SOL    HW131964   1.586   4.839   2.308
10355SOL    HW231965   1.582   4.910   2.454
10356SOL     OW31966   0.083   2.883   4.321
10356SOL    HW131967   0.013   2.814   4.303
10356SOL    HW231968   0.134   2.902   4.237
10357SOL     OW31969   2.577   2.163   0.465
10357SOL    HW131970   2.607   2.143   0.372
10357SOL    HW231971   2.656   2.167   0.525
10358SOL     OW31972   0.284   1.504   2.228
10358SOL    HW131973   0.255   1.506   2.133
10358SOL    HW231974   0.231   1.436   2.278
10359SOL     OW31975   0.350   1.137   1.408
10359SOL    HW131976   0.350   1.236   1.424
10359SOL    HW231977   0.258   1.107   1.386
10360SOL     OW31978   6.438   6.350   3.409
10360SOL    HW131979   6.512   6.283   3.405
10360SOL    HW231980   6.401   6.354   3.502
10361SOL     OW31981   1.669   4.660   1.399
10361SOL    HW131982   1.611   4.655   1.318
10361SOL    HW231983   1.683   4.756   1.425
10362SOL     OW31984   1.363   4.919   4.350
10362SOL    HW131985   1.274   4.915   4.395
10362SOL    HW231986   1.433   4.945   4.417
10363SOL     OW31987   5.943   0.336   3.595
10363SOL    HW131988   5.914   0.296   3.508
10363SOL    HW231989   6.042   0.348   3.595
10364SOL     OW31990   1.392   4.480   1.069
10364SOL    HW131991   1.367   4.555   1.130
10364SOL    HW231992   1.326   4.405   1.078
10365SOL     OW31993   4.509   6.047   0.117
10365SOL    HW131994   4.500   6.038   0.018
10365SOL    HW231995   4.533   5.958   0.157
10366SOL     OW31996   3.395   0.011   3.777
10366SOL    HW131997   3.395   0.048   3.869
10366SOL    HW231998   3.482   0.032   3.732
10367SOL     OW31999   6.478   2.233   2.878
10367SOL    HW132000   6.474   2.327   2.912
10367SOL    HW232001   6.419   2.175   2.935
10368SOL     OW32002   2.655   0.241   1.186
10368SOL    HW132003   2.558   0.263   1.173
10368SOL    HW232004   2.711   0.307   1.136
10369SOL     OW32005   4.352   2.874   0.257
10369SOL    HW132006   4.340   2.849   0.160
10369SOL    HW232007   4.270   2.849   0.308
10370SOL     OW32008   3.654   0.587   5.330
10370SOL    HW132009   3.652   0.595   5.231
10370SOL    HW232010   3.612   0.669   5.371
10371SOL     OW32011   5.107   6.451   5.556
10371SOL    HW132012   5.014   6.415   5.569
10371SOL    HW232013   5.133   6.441   5.461
10372SOL     OW32014   0.654   0.434   3.120
10372SOL    HW132015   0.654   0.337   3.147
10372SOL    HW232016   0.611   0.489   3.191
10373SOL     OW32017   1.619   5.420   4.965
10373SOL    HW132018   1.535   5.381   4.927
10373SOL    HW232019   1.595   5.486   5.037
10374SOL     OW32020   2.976   2.278   4.669
10374SOL    HW132021   3.038   2.285   4.747
10374SOL    HW232022   2.883   2.258   4.702
10375SOL     OW32023   0.080   1.852   0.492
10375SOL    HW132024   0.135   1.872   0.411
10375SOL    HW232025   7.006   1.891   0.480
10376SOL     OW32026   6.446   0.942   3.407
10376SOL    HW132027   6.367   0.886   3.432
10376SOL    HW232028   6.529   0.901   3.443
10377SOL     OW32029   0.804   6.770   4.456
10377SOL    HW132030   0.744   6.838   4.498
10377SOL    HW232031   0.883   6.815   4.416
10378SOL     OW32032   6.775   6.977   6.121
10378SOL    HW132033   6.760   6.989   6.219
10378SOL    HW232034   6.872   6.991   6.100
10379SOL     OW32035   5.629   1.683   4.807
10379SOL    HW132036   5.566   1.736   4.751
10379SOL    HW232037   5.599   1.587   4.809
10380SOL     OW32038   4.475   0.900   3.087
10380SOL    HW132039   4.478   0.848   3.173
10380SOL    HW232040   4.568   0.910   3.051
10381SOL     OW32041   4.062   5.215   4.923
10381SOL    HW132042   4.028   5.176   4.837
10381SOL    HW232043   4.094   5.142   4.983
10382SOL     OW32044   1.802   5.918   0.648
10382SOL    HW132045   1.855   5.834   0.659
10382SOL    HW232046   1.812   5.974   0.731
10383SOL     OW32047   5.951   2.815   6.757
10383SOL    HW132048   5.971   2.719   6.738
10383SOL    HW232049   5.913   2.823   6.850
10384SOL     OW32050   6.311   0.301   0.089
10384SOL    HW132051   6.380   0.370   0.111
10384SOL    HW232052   6.225   0.346   0.065
10385SOL     OW32053   5.785   2.356   6.975
10385SOL    HW132054   5.814   2.429   0.020
10385SOL    HW232055   5.837   2.363   6.890
10386SOL     OW32056   6.530   2.272   6.437
10386SOL    HW132057   6.433   2.252   6.422
10386SOL    HW232058   6.579   2.264   6.350
10387SOL     OW32059   2.083   3.602   2.757
10387SOL    HW132060   1.994   3.629   2.795
10387SOL    HW232061   2.125   3.681   2.711
10388SOL     OW32062   1.650   4.484   2.517
10388SOL    HW132063   1.622   4.482   2.421
10388SOL    HW232064   1.749   4.499   2.522
10389SOL     OW32065   0.469   5.556   3.199
10389SOL    HW132066   0.538   5.628   3.203
10389SOL    HW232067   0.501   5.477   3.251
10390SOL     OW32068   1.830   3.014   3.098
10390SOL    HW132069   1.843   2.947   3.025
10390SOL    HW232070   1.917   3.032   3.143
10391SOL     OW32071   3.372   6.155   4.997
10391SOL    HW132072   3.323   6.227   5.047
10391SOL    HW232073   3.308   6.084   4.969
10392SOL     OW32074   6.784   4.869   6.771
10392SOL    HW132075   6.854   4.880   6.841
10392SOL    HW232076   6.695   4.858   6.815
10393SOL     OW32077   1.348   1.136   3.826
10393SOL    HW132078   1.255   1.173   3.822
10393SOL    HW232079   1.400   1.168   3.746
10394SOL     OW32080   2.771   6.718   0.152
10394SOL    HW132081   2.750   6.714   0.054
10394SOL    HW232082   2.778   6.625   0.188
10395SOL     OW32083   1.224   1.598   4.848
10395SOL    HW132084   1.269   1.651   4.777
10395SOL    HW232085   1.125   1.612   4.843
10396SOL     OW32086   0.523   0.011   5.103
10396SOL    HW132087   0.530   6.942   5.152
10396SOL    HW232088   0.508   7.011   5.006
10397SOL     OW32089   3.973   2.207   2.475
10397SOL    HW132090   3.938   2.186   2.384
10397SOL    HW232091   3.902   2.189   2.543
10398SOL     OW32092   6.730   3.415   2.560
10398SOL    HW132093   6.764   3.328   2.595
10398SOL    HW232094   6.754   3.424   2.463
10399SOL     OW32095   5.963   2.599   5.471
10399SOL    HW132096   5.943   2.600   5.569
10399SOL    HW232097   5.986   2.691   5.441
10400SOL     OW32098   1.813   4.667   1.623
10400SOL    HW132099   1.750   4.664   1.546
10400SOL    HW232100   1.771   4.715   1.700
10401SOL     OW32101   0.640   5.977   0.934
10401SOL    HW132102   0.650   5.991   1.033
10401SOL    HW232103   0.555   5.927   0.916
10402SOL     OW32104   0.607   2.341   4.169
10402SOL    HW132105   0.608   2.440   4.155
10402SOL    HW232106   0.658   2.319   4.253
10403SOL     OW32107   4.346   1.281   2.144
10403SOL    HW132108   4.437   1.319   2.160
10403SOL    HW232109   4.315   1.309   2.053
10404SOL     OW32110   0.061   0.039   3.821
10404SOL    HW132111   0.150   0.078   3.801
10404SOL    HW232112   0.069   6.990   3.895
10405SOL     OW32113   2.148   6.394   6.774
10405SOL    HW132114   2.203   6.336   6.715
10405SOL    HW232115   2.108   6.468   6.720
10406SOL     OW32116   1.837   5.564   5.876
10406SOL    HW132117   1.923   5.513   5.878
10406SOL    HW232118   1.800   5.562   5.783
10407SOL     OW32119   2.026   1.604   5.765
10407SOL    HW132120   1.939   1.558   5.780
10407SOL    HW232121   2.085   1.546   5.708
10408SOL     OW32122   3.822   6.249   3.032
10408SOL    HW132123   3.817   6.343   3.065
10408SOL    HW232124   3.731   6.217   3.008
10409SOL     OW32125   6.853   4.521   2.168
10409SOL    HW132126   6.901   4.562   2.246
10409SOL    HW232127   6.794   4.447   2.201
10410SOL     OW32128   5.805   6.349   0.375
10410SOL    HW132129   5.828   6.378   0.468
10410SOL    HW232130   5.868   6.277   0.346
10411SOL     OW32131   1.656   4.225   2.735
10411SOL    HW132132   1.616   4.275   2.658
10411SOL    HW232133   1.711   4.287   2.790
10412SOL     OW32134   0.053   2.096   6.558
10412SOL    HW132135   0.109   2.175   6.533
10412SOL    HW232136   6.987   2.097   6.503
10413SOL     OW32137   0.196   2.218   5.796
10413SOL    HW132138   0.135   2.274   5.852
10413SOL    HW232139   0.218   2.134   5.844
10414SOL     OW32140   5.653   6.485   4.741
10414SOL    HW132141   5.685   6.555   4.805
10414SOL    HW232142   5.565   6.512   4.703
10415SOL     OW32143   0.365   5.367   3.020
10415SOL    HW132144   0.340   5.389   2.926
10415SOL    HW232145   0.398   5.450   3.066
10416SOL     OW32146   5.254   6.860   0.184
10416SOL    HW132147   5.340   6.903   0.157
10416SOL    HW232148   5.188   6.931   0.210
10417SOL     OW32149   3.981   4.791   4.066
10417SOL    HW132150   4.015   4.732   4.140
10417SOL    HW232151   4.058   4.824   4.012
10418SOL     OW32152   6.710   3.607   0.059
10418SOL    HW132153   6.643   3.564   7.016
10418SOL    HW232154   6.672   3.615   0.151
10419SOL     OW32155   2.121   0.806   4.219
10419SOL    HW132156   2.138   0.904   4.209
10419SOL    HW232157   2.028   0.791   4.252
10420SOL     OW32158   5.611   3.116   4.285
10420SOL    HW132159   5.679   3.049   4.315
10420SOL    HW232160   5.608   3.192   4.351
10421SOL     OW32161   1.569   4.376   3.873
10421SOL    HW132162   1.494   4.441   3.861
10421SOL    HW232163   1.588   4.364   3.971
10422SOL     OW32164   5.666   3.092   5.334
10422SOL    HW132165   5.667   3.184   5.371
10422SOL    HW232166   5.740   3.082   5.268
10423SOL     OW32167   2.590   5.354   3.780
10423SOL    HW132168   2.555   5.441   3.745
10423SOL    HW232169   2.581   5.283   3.711
10424SOL     OW32170   3.824   1.385   1.195
10424SOL    HW132171   3.802   1.430   1.282
10424SOL    HW232172   3.750   1.399   1.130
10425SOL     OW32173   1.715   3.762   0.585
10425SOL    HW132174   1.718   3.738   0.682
10425SOL    HW232175   1.671   3.688   0.534
10426SOL     OW32176   5.954   2.316   6.211
10426SOL    HW132177   5.987   2.370   6.133
10426SOL    HW232178   5.892   2.245   6.178
10427SOL     OW32179   5.462   0.966   3.377
10427SOL    HW132180   5.551   0.969   3.424
10427SOL    HW232181   5.388   0.973   3.444
10428SOL     OW32182   2.015   6.375   5.115
10428SOL    HW132183   2.079   6.299   5.108
10428SOL    HW232184   2.002   6.417   5.025
10429SOL     OW32185   1.458   3.601   1.617
10429SOL    HW132186   1.531   3.606   1.548
10429SOL    HW232187   1.498   3.613   1.708
10430SOL     OW32188   3.068   0.463   4.191
10430SOL    HW132189   3.092   0.368   4.212
10430SOL    HW232190   3.037   0.469   4.097
10431SOL     OW32191   4.191   1.291   4.270
10431SOL    HW132192   4.100   1.265   4.237
10431SOL    HW232193   4.220   1.230   4.343
10432SOL     OW32194   1.229   5.496   0.452
10432SOL    HW132195   1.173   5.429   0.402
10432SOL    HW232196   1.323   5.463   0.456
10433SOL     OW32197   3.888   6.484   3.791
10433SOL    HW132198   3.931   6.427   3.861
10433SOL    HW232199   3.818   6.432   3.743
10434SOL     OW32200   4.088   0.905   6.348
10434SOL    HW132201   4.187   0.910   6.364
10434SOL    HW232202   4.040   0.907   6.436
10435SOL     OW32203   2.731   1.786   1.137
10435SOL    HW132204   2.767   1.853   1.073
10435SOL    HW232205   2.807   1.739   1.183
10436SOL     OW32206   1.319   3.393   4.925
10436SOL    HW132207   1.281   3.301   4.928
10436SOL    HW232208   1.295   3.442   5.009
10437SOL     OW32209   6.881   6.349   5.015
10437SOL    HW132210   6.880   6.259   4.973
10437SOL    HW232211   6.877   6.340   5.114
10438SOL     OW32212   6.537   5.890   6.911
10438SOL    HW132213   6.470   5.929   6.848
10438SOL    HW232214   6.532   5.790   6.907
10439SOL     OW32215   6.302   5.341   4.717
10439SOL    HW132216   6.356   5.301   4.792
10439SOL    HW232217   6.299   5.440   4.728
10440SOL     OW32218   5.920   2.101   1.417
10440SOL    HW132219   5.891   2.017   1.370
10440SOL    HW232220   5.859   2.119   1.494
10441SOL     OW32221   4.357   1.882   6.999
10441SOL    HW132222   4.284   1.918   6.942
10441SOL    HW232223   4.436   1.859   6.942
10442SOL     OW32224   2.527   1.442   5.051
10442SOL    HW132225   2.566   1.511   5.113
10442SOL    HW232226   2.483   1.489   4.974
10443SOL     OW32227   1.134   0.682   0.585
10443SOL    HW132228   1.050   0.713   0.540
10443SOL    HW232229   1.120   0.588   0.618
10444SOL     OW32230   4.553   4.885   3.649
10444SOL    HW132231   4.577   4.943   3.727
10444SOL    HW232232   4.572   4.790   3.672
10445SOL     OW32233   1.258   2.958   3.968
10445SOL    HW132234   1.183   2.943   4.033
10445SOL    HW232235   1.298   3.048   3.984
10446SOL     OW32236   2.293   4.796   5.621
10446SOL    HW132237   2.224   4.854   5.578
10446SOL    HW232238   2.344   4.746   5.551
10447SOL     OW32239   0.808   1.906   2.825
10447SOL    HW132240   0.750   1.917   2.745
10447SOL    HW232241   0.772   1.833   2.883
10448SOL     OW32242   1.491   5.867   2.337
10448SOL    HW132243   1.453   5.864   2.429
10448SOL    HW232244   1.533   5.956   2.321
10449SOL     OW32245   4.072   5.052   4.150
10449SOL    HW132246   3.976   5.078   4.158
10449SOL    HW232247   4.079   4.952   4.145
10450SOL     OW32248   0.356   1.159   4.216
10450SOL    HW132249   0.310   1.119   4.295
10450SOL    HW232250   0.342   1.102   4.136
10451SOL     OW32251   3.427   1.944   4.265
10451SOL    HW132252   3.486   1.924   4.343
10451SOL    HW232253   3.469   2.017   4.211
10452SOL     OW32254   6.502   2.718   4.445
10452SOL    HW132255   6.529   2.797   4.389
10452SOL    HW232256   6.574   2.698   4.512
10453SOL     OW32257   4.073   6.064   4.176
10453SOL    HW132258   4.048   6.049   4.080
10453SOL    HW232259   3.989   6.072   4.231
10454SOL     OW32260   6.584   0.839   6.458
10454SOL    HW132261   6.524   0.868   6.533
10454SOL    HW232262   6.542   0.763   6.409
10455SOL     OW32263   0.114   5.694   2.922
10455SOL    HW132264   0.059   5.700   2.839
10455SOL    HW232265   0.209   5.719   2.901
10456SOL     OW32266   0.849   5.551   6.737
10456SOL    HW132267   0.773   5.487   6.721
10456SOL    HW232268   0.934   5.510   6.704
10457SOL     OW32269   3.897   1.493   6.744
10457SOL    HW132270   3.856   1.533   6.826
10457SOL    HW232271   3.990   1.527   6.733
10458SOL     OW32272   1.379   6.445   6.555
10458SOL    HW132273   1.348   6.464   6.462
10458SOL    HW232274   1.472   6.481   6.567
10459SOL     OW32275   6.218   5.638   0.985
10459SOL    HW132276   6.197   5.701   1.060
10459SOL    HW232277   6.176   5.672   0.901
10460SOL     OW32278   6.364   0.614   0.400
10460SOL    HW132279   6.332   0.651   0.488
10460SOL    HW232280   6.296   0.633   0.329
10461SOL     OW32281   6.762   4.553   6.347
10461SOL    HW132282   6.670   4.548   6.308
10461SOL    HW232283   6.787   4.648   6.360
10462SOL     OW32284   2.963   3.886   6.216
10462SOL    HW132285   3.029   3.846   6.151
10462SOL    HW232286   2.943   3.980   6.189
10463SOL     OW32287   5.022   2.793   6.696
10463SOL    HW132288   5.014   2.697   6.724
10463SOL    HW232289   5.066   2.846   6.768
10464SOL     OW32290   6.410   4.650   1.810
10464SOL    HW132291   6.314   4.634   1.788
10464SOL    HW232292   6.431   4.747   1.802
10465SOL     OW32293   5.792   4.946   1.167
10465SOL    HW132294   5.785   4.870   1.232
10465SOL    HW232295   5.726   5.016   1.191
10466SOL     OW32296   5.784   4.157   5.918
10466SOL    HW132297   5.838   4.073   5.906
10466SOL    HW232298   5.734   4.176   5.834
10467SOL     OW32299   0.099   2.439   6.771
10467SOL    HW132300   0.128   2.493   6.849
10467SOL    HW232301   0.009   2.400   6.788
10468SOL     OW32302   1.535   4.673   4.698
10468SOL    HW132303   1.625   4.712   4.679
10468SOL    HW232304   1.538   4.623   4.785
10469SOL     OW32305   0.925   1.551   3.703
10469SOL    HW132306   0.955   1.645   3.715
10469SOL    HW232307   0.872   1.522   3.783
10470SOL     OW32308   1.954   3.649   2.314
10470SOL    HW132309   1.968   3.748   2.325
10470SOL    HW232310   1.867   3.623   2.354
10471SOL     OW32311   2.211   5.738   6.426
10471SOL    HW132312   2.127   5.753   6.478
10471SOL    HW232313   2.269   5.673   6.476
10472SOL     OW32314   3.966   5.476   6.198
10472SOL    HW132315   3.929   5.437   6.282
10472SOL    HW232316   3.997   5.570   6.216
10473SOL     OW32317   6.433   4.690   0.748
10473SOL    HW132318   6.502   4.680   0.676
10473SOL    HW232319   6.342   4.691   0.706
10474SOL     OW32320   6.430   6.792   5.156
10474SOL    HW132321   6.432   6.765   5.059
10474SOL    HW232322   6.380   6.878   5.165
10475SOL     OW32323   0.968   5.475   1.514
10475SOL    HW132324   1.037   5.422   1.563
10475SOL    HW232325   0.999   5.493   1.421
10476SOL     OW32326   5.228   6.551   1.220
10476SOL    HW132327   5.159   6.536   1.292
10476SOL    HW232328   5.254   6.463   1.180
10477SOL     OW32329   6.774   5.881   3.555
10477SOL    HW132330   6.753   5.884   3.653
10477SOL    HW232331   6.737   5.797   3.515
10478SOL     OW32332   0.046   0.869   6.462
10478SOL    HW132333   6.983   0.815   6.486
10478SOL    HW232334   0.127   0.827   6.503
10479SOL     OW32335   0.448   3.058   2.151
10479SOL    HW132336   0.530   3.030   2.200
10479SOL    HW232337   0.380   3.092   2.216
10480SOL     OW32338   2.752   1.210   3.528
10480SOL    HW132339   2.752   1.304   3.494
10480SOL    HW232340   2.713   1.150   3.459
10481SOL     OW32341   6.595   1.431   0.979
10481SOL    HW132342   6.532   1.506   0.958
10481SOL    HW232343   6.663   1.463   1.046
10482SOL     OW32344   5.499   2.655   3.620
10482SOL    HW132345   5.591   2.624   3.595
10482SOL    HW232346   5.493   2.664   3.720
10483SOL     OW32347   6.302   6.627   0.469
10483SOL    HW132348   6.284   6.529   0.476
10483SOL    HW232349   6.224   6.672   0.426
10484SOL     OW32350   6.649   0.990   2.270
10484SOL    HW132351   6.638   1.047   2.189
10484SOL    HW232352   6.561   0.949   2.294
10485SOL     OW32353   5.098   3.268   5.046
10485SOL    HW132354   5.145   3.280   5.134
10485SOL    HW232355   5.161   3.287   4.971
10486SOL     OW32356   5.158   2.883   2.746
10486SOL    HW132357   5.162   2.803   2.806
10486SOL    HW232358   5.147   2.965   2.802
10487SOL     OW32359   5.114   6.826   2.290
10487SOL    HW132360   5.192   6.866   2.241
10487SOL    HW232361   5.087   6.887   2.364
10488SOL     OW32362   3.358   3.867   6.792
10488SOL    HW132363   3.355   3.873   6.693
10488SOL    HW232364   3.377   3.773   6.820
10489SOL     OW32365   1.545   5.546   5.226
10489SOL    HW132366   1.499   5.468   5.268
10489SOL    HW232367   1.596   5.596   5.297
10490SOL     OW32368   6.612   0.452   4.384
10490SOL    HW132369   6.515   0.452   4.361
10490SOL    HW232370   6.634   0.369   4.435
10491SOL     OW32371   0.127   5.275   5.436
10491SOL    HW132372   0.119   5.176   5.448
10491SOL    HW232373   0.064   5.321   5.499
10492SOL     OW32374   4.061   4.414   6.027
10492SOL    HW132375   4.129   4.478   5.991
10492SOL    HW232376   4.069   4.326   5.981
10493SOL     OW32377   3.707   1.319   0.880
10493SOL    HW132378   3.634   1.354   0.938
10493SOL    HW232379   3.698   1.220   0.871
10494SOL     OW32380   5.636   1.866   4.999
10494SOL    HW132381   5.626   1.801   4.924
10494SOL    HW232382   5.582   1.834   5.078
10495SOL     OW32383   1.724   6.753   0.579
10495SOL    HW132384   1.654   6.768   0.509
10495SOL    HW232385   1.710   6.815   0.655
10496SOL     OW32386   6.148   0.245   5.730
10496SOL    HW132387   6.210   0.284   5.661
10496SOL    HW232388   6.109   0.320   5.784
10497SOL     OW32389   1.055   1.508   6.595
10497SOL    HW132390   1.000   1.586   6.568
10497SOL    HW232391   1.007   1.423   6.572
10498SOL     OW32392   3.220   4.724   6.030
10498SOL    HW132393   3.273   4.793   5.980
10498SOL    HW232394   3.124   4.728   6.000
10499SOL     OW32395   2.804   5.080   3.364
10499SOL    HW132396   2.795   5.088   3.264
10499SOL    HW232397   2.778   5.166   3.407
10500SOL     OW32398   2.177   2.190   6.796
10500SOL    HW132399   2.182   2.238   6.883
10500SOL    HW232400   2.102   2.227   6.741
10501SOL     OW32401   1.214   2.222   3.310
10501SOL    HW132402   1.211   2.122   3.314
10501SOL    HW232403   1.303   2.254   3.342
10502SOL     OW32404   2.884   5.961   4.991
10502SOL    HW132405   2.815   5.978   4.920
10502SOL    HW232406   2.839   5.936   5.076
10503SOL     OW32407   2.687   3.303   5.340
10503SOL    HW132408   2.736   3.235   5.395
10503SOL    HW232409   2.589   3.288   5.347
10504SOL     OW32410   2.433   3.468   1.264
10504SOL    HW132411   2.361   3.455   1.331
10504SOL    HW232412   2.436   3.564   1.236
10505SOL     OW32413   0.399   0.221   1.089
10505SOL    HW132414   0.413   0.261   1.179
10505SOL    HW232415   0.321   0.266   1.044
10506SOL     OW32416   0.250   3.429   5.492
10506SOL    HW132417   0.318   3.388   5.432
10506SOL    HW232418   0.161   3.429   5.447
10507SOL     OW32419   1.189   0.099   4.104
10507SOL    HW132420   1.118   0.154   4.149
10507SOL    HW232421   1.255   0.068   4.172
10508SOL     OW32422   5.480   3.498   2.545
10508SOL    HW132423   5.397   3.474   2.596
10508SOL    HW232424   5.496   3.596   2.554
10509SOL     OW32425   1.653   0.635   6.128
10509SOL    HW132426   1.714   0.603   6.056
10509SOL    HW232427   1.649   0.735   6.127
10510SOL     OW32428   5.798   6.835   6.902
10510SOL    HW132429   5.820   6.926   6.867
10510SOL    HW232430   5.881   6.779   6.903
10511SOL     OW32431   0.315   1.870   0.880
10511SOL    HW132432   0.400   1.862   0.933
10511SOL    HW232433   0.297   1.966   0.861
10512SOL     OW32434   3.087   6.215   6.271
10512SOL    HW132435   3.069   6.148   6.343
10512SOL    HW232436   3.065   6.306   6.305
10513SOL     OW32437   0.086   1.736   0.737
10513SOL    HW132438   0.104   1.786   0.822
10513SOL    HW232439   0.083   1.801   0.660
10514SOL     OW32440   6.697   3.768   1.425
10514SOL    HW132441   6.699   3.768   1.525
10514SOL    HW232442   6.608   3.733   1.393
10515SOL     OW32443   6.012   2.356   4.316
10515SOL    HW132444   6.092   2.412   4.336
10515SOL    HW232445   5.931   2.414   4.312
10516SOL     OW32446   3.412   0.339   0.408
10516SOL    HW132447   3.322   0.331   0.451
10516SOL    HW232448   3.420   0.428   0.365
10517SOL     OW32449   0.037   2.569   2.885
10517SOL    HW132450   0.019   2.490   2.943
10517SOL    HW232451   0.135   2.592   2.889
10518SOL     OW32452   0.658   6.797   2.671
10518SOL    HW132453   0.688   6.762   2.760
10518SOL    HW232454   0.738   6.821   2.616
10519SOL     OW32455   3.173   3.542   5.224
10519SOL    HW132456   3.116   3.469   5.185
10519SOL    HW232457   3.250   3.501   5.273
10520SOL     OW32458   3.608   4.361   6.402
10520SOL    HW132459   3.667   4.284   6.378
10520SOL    HW232460   3.554   4.387   6.322
10521SOL     OW32461   6.474   5.276   2.164
10521SOL    HW132462   6.528   5.290   2.247
10521SOL    HW232463   6.532   5.291   2.084
10522SOL     OW32464   6.192   0.271   1.981
10522SOL    HW132465   6.119   0.313   2.036
10522SOL    HW232466   6.263   0.339   1.962
10523SOL     OW32467   0.147   5.661   6.754
10523SOL    HW132468   0.078   5.612   6.808
10523SOL    HW232469   0.155   5.755   6.788
10524SOL     OW32470   4.479   0.544   4.507
10524SOL    HW132471   4.464   0.635   4.545
10524SOL    HW232472   4.564   0.544   4.453
10525SOL     OW32473   3.004   6.233   5.042
10525SOL    HW132474   3.044   6.311   5.091
10525SOL    HW232475   3.000   6.154   5.104
10526SOL     OW32476   5.452   0.092   2.018
10526SOL    HW132477   5.449   0.191   2.028
10526SOL    HW232478   5.388   0.065   1.945
10527SOL     OW32479   1.715   2.543   4.570
10527SOL    HW132480   1.627   2.506   4.540
10527SOL    HW232481   1.738   2.623   4.515
10528SOL     OW32482   6.185   4.731   5.631
10528SOL    HW132483   6.171   4.799   5.559
10528SOL    HW232484   6.152   4.768   5.718
10529SOL     OW32485   6.775   6.273   4.233
10529SOL    HW132486   6.753   6.201   4.299
10529SOL    HW232487   6.778   6.361   4.280
10530SOL     OW32488   2.486   1.914   5.673
10530SOL    HW132489   2.501   1.904   5.772
10530SOL    HW232490   2.520   1.833   5.626
10531SOL     OW32491   1.887   2.004   5.843
10531SOL    HW132492   1.891   1.917   5.893
10531SOL    HW232493   1.904   2.080   5.905
10532SOL     OW32494   3.537   3.219   5.432
10532SOL    HW132495   3.466   3.160   5.471
10532SOL    HW232496   3.567   3.181   5.344
10533SOL     OW32497   2.810   1.066   6.180
10533SOL    HW132498   2.864   1.074   6.263
10533SOL    HW232499   2.837   0.984   6.130
10534SOL     OW32500   5.848   5.931   0.971
10534SOL    HW132501   5.820   5.839   0.998
10534SOL    HW232502   5.871   5.985   1.052
10535SOL     OW32503   0.748   1.260   2.335
10535SOL    HW132504   0.817   1.319   2.292
10535SOL    HW232505   0.657   1.292   2.310
10536SOL     OW32506   5.311   6.387   4.047
10536SOL    HW132507   5.289   6.459   4.113
10536SOL    HW232508   5.365   6.426   3.972
10537SOL     OW32509   0.226   5.409   1.903
10537SOL    HW132510   0.140   5.455   1.882
10537SOL    HW232511   0.298   5.478   1.916
10538SOL     OW32512   4.608   4.412   6.673
10538SOL    HW132513   4.530   4.356   6.702
10538SOL    HW232514   4.693   4.361   6.685
10539SOL     OW32515   1.104   3.397   5.568
10539SOL    HW132516   1.137   3.315   5.616
10539SOL    HW232517   1.005   3.390   5.555
10540SOL     OW32518   2.936   0.902   0.263
10540SOL    HW132519   2.941   0.884   0.165
10540SOL    HW232520   2.900   0.822   0.310
10541SOL     OW32521   4.825   2.370   0.406
10541SOL    HW132522   4.728   2.368   0.383
10541SOL    HW232523   4.842   2.310   0.484
10542SOL     OW32524   1.360   2.455   0.429
10542SOL    HW132525   1.291   2.396   0.387
10542SOL    HW232526   1.394   2.411   0.512
10543SOL     OW32527   2.457   1.191   5.188
10543SOL    HW132528   2.401   1.110   5.171
10543SOL    HW232529   2.463   1.246   5.105
10544SOL     OW32530   0.056   2.528   1.478
10544SOL    HW132531   0.103   2.503   1.563
10544SOL    HW232532   0.073   2.624   1.457
10545SOL     OW32533   5.037   0.639   3.318
10545SOL    HW132534   5.120   0.645   3.373
10545SOL    HW232535   4.957   0.636   3.379
10546SOL     OW32536   3.967   1.119   5.033
10546SOL    HW132537   3.892   1.169   5.078
10546SOL    HW232538   3.929   1.059   4.962
10547SOL     OW32539   3.959   0.363   1.120
10547SOL    HW132540   3.906   0.324   1.045
10547SOL    HW232541   3.945   0.309   1.203
10548SOL     OW32542   4.615   4.561   5.087
10548SOL    HW132543   4.522   4.555   5.053
10548SOL    HW232544   4.676   4.592   5.014
10549SOL     OW32545   1.291   1.189   1.653
10549SOL    HW132546   1.323   1.283   1.662
10549SOL    HW232547   1.348   1.142   1.585
10550SOL     OW32548   5.581   6.966   4.781
10550SOL    HW132549   5.550   0.000   4.860
10550SOL    HW232550   5.524   6.988   4.702
10551SOL     OW32551   1.313   2.610   6.246
10551SOL    HW132552   1.213   2.623   6.246
10551SOL    HW232553   1.344   2.591   6.339
10552SOL     OW32554   3.432   1.884   5.101
10552SOL    HW132555   3.350   1.920   5.145
10552SOL    HW232556   3.406   1.809   5.039
10553SOL     OW32557   3.306   5.146   5.677
10553SOL    HW132558   3.271   5.070   5.622
10553SOL    HW232559   3.231   5.189   5.727
10554SOL     OW32560   6.154   4.426   5.723
10554SOL    HW132561   6.192   4.506   5.677
10554SOL    HW232562   6.092   4.378   5.662
10555SOL     OW32563   3.632   2.432   0.840
10555SOL    HW132564   3.634   2.442   0.939
10555SOL    HW232565   3.585   2.348   0.815
10556SOL     OW32566   2.112   3.380   4.256
10556SOL    HW132567   2.141   3.364   4.351
10556SOL    HW232568   2.149   3.307   4.198
10557SOL     OW32569   5.802   1.373   3.593
10557SOL    HW132570   5.840   1.451   3.543
10557SOL    HW232571   5.876   1.316   3.629
10558SOL     OW32572   5.535   5.957   4.499
10558SOL    HW132573   5.459   5.944   4.436
10558SOL    HW232574   5.502   6.001   4.583
10559SOL     OW32575   4.352   2.540   0.707
10559SOL    HW132576   4.362   2.568   0.803
10559SOL    HW232577   4.426   2.580   0.653
10560SOL     OW32578   0.325   2.988   4.169
10560SOL    HW132579   0.361   3.053   4.102
10560SOL    HW232580   0.350   3.019   4.261
10561SOL     OW32581   2.900   4.327   5.972
10561SOL    HW132582   2.888   4.298   5.877
10561SOL    HW232583   2.972   4.396   5.977
10562SOL     OW32584   3.550   1.550   0.704
10562SOL    HW132585   3.476   1.494   0.741
10562SOL    HW232586   3.515   1.641   0.682
10563SOL     OW32587   1.377   1.827   3.558
10563SOL    HW132588   1.394   1.914   3.605
10563SOL    HW232589   1.364   1.754   3.626
10564SOL     OW32590   0.084   2.361   2.066
10564SOL    HW132591   0.017   2.287   2.070
10564SOL    HW232592   0.172   2.324   2.037
10565SOL     OW32593   5.283   1.577   5.244
10565SOL    HW132594   5.220   1.542   5.174
10565SOL    HW232595   5.317   1.501   5.299
10566SOL     OW32596   4.204   5.332   0.239
10566SOL    HW132597   4.181   5.427   0.260
10566SOL    HW232598   4.175   5.274   0.315
10567SOL     OW32599   1.930   4.895   4.113
10567SOL    HW132600   2.003   4.940   4.162
10567SOL    HW232601   1.952   4.892   4.015
10568SOL     OW32602   3.891   1.898   2.791
10568SOL    HW132603   3.896   1.907   2.891
10568SOL    HW232604   3.864   1.985   2.751
10569SOL     OW32605   5.970   2.881   3.415
10569SOL    HW132606   6.039   2.852   3.481
10569SOL    HW232607   5.994   2.847   3.324
10570SOL     OW32608   1.333   4.431   1.755
10570SOL    HW132609   1.268   4.481   1.813
10570SOL    HW232610   1.315   4.453   1.659
10571SOL     OW32611   6.237   6.520   4.877
10571SOL    HW132612   6.137   6.512   4.871
10571SOL    HW232613   6.263   6.616   4.883
10572SOL     OW32614   6.738   3.455   1.680
10572SOL    HW132615   6.796   3.487   1.605
10572SOL    HW232616   6.729   3.355   1.675
10573SOL     OW32617   6.058   4.319   6.281
10573SOL    HW132618   6.008   4.308   6.195
10573SOL    HW232619   6.156   4.308   6.265
10574SOL     OW32620   0.751   1.858   3.302
10574SOL    HW132621   0.822   1.840   3.370
10574SOL    HW232622   0.663   1.825   3.337
10575SOL     OW32623   0.635   6.819   5.932
10575SOL    HW132624   0.700   6.782   5.997
10575SOL    HW232625   0.612   6.750   5.864
10576SOL     OW32626   1.282   5.257   3.331
10576SOL    HW132627   1.272   5.158   3.322
10576SOL    HW232628   1.299   5.280   3.427
10577SOL     OW32629   0.591   3.271   5.711
10577SOL    HW132630   0.645   3.187   5.703
10577SOL    HW232631   0.564   3.284   5.807
10578SOL     OW32632   5.306   1.248   5.873
10578SOL    HW132633   5.285   1.320   5.807
10578SOL    HW232634   5.222   1.218   5.918
10579SOL     OW32635   5.048   0.189   0.897
10579SOL    HW132636   5.001   0.106   0.928
10579SOL    HW232637   5.099   0.228   0.973
10580SOL     OW32638   6.757   6.372   0.699
10580SOL    HW132639   6.771   6.277   0.728
10580SOL    HW232640   6.830   6.398   0.635
10581SOL     OW32641   4.727   1.896   3.642
10581SOL    HW132642   4.814   1.893   3.692
10581SOL    HW232643   4.730   1.970   3.575
10582SOL     OW32644   3.579   5.038   0.396
10582SOL    HW132645   3.629   5.083   0.471
10582SOL    HW232646   3.545   5.107   0.333
10583SOL     OW32647   4.109   1.079   1.187
10583SOL    HW132648   4.162   1.024   1.252
10583SOL    HW232649   4.162   1.160   1.161
10584SOL     OW32650   6.474   0.171   1.174
10584SOL    HW132651   6.435   0.262   1.188
10584SOL    HW232652   6.400   0.103   1.172
10585SOL     OW32653   2.134   4.239   6.501
10585SOL    HW132654   2.218   4.197   6.467
10585SOL    HW232655   2.062   4.170   6.506
10586SOL     OW32656   5.055   1.621   0.179
10586SOL    HW132657   5.057   1.585   0.272
10586SOL    HW232658   5.073   1.719   0.180
10587SOL     OW32659   5.839   3.633   0.647
10587SOL    HW132660   5.744   3.640   0.617
10587SOL    HW232661   5.895   3.696   0.593
10588SOL     OW32662   1.401   4.866   3.324
10588SOL    HW132663   1.488   4.892   3.282
10588SOL    HW232664   1.382   4.927   3.401
10589SOL     OW32665   6.155   1.031   4.509
10589SOL    HW132666   6.236   1.081   4.539
10589SOL    HW232667   6.089   1.095   4.470
10590SOL     OW32668   1.492   0.548   5.159
10590SOL    HW132669   1.444   0.515   5.240
10590SOL    HW232670   1.439   0.621   5.116
10591SOL     OW32671   1.372   2.239   0.760
10591SOL    HW132672   1.431   2.161   0.783
10591SOL    HW232673   1.346   2.287   0.844
10592SOL     OW32674   6.147   1.472   6.783
10592SOL    HW132675   6.053   1.502   6.769
10592SOL    HW232676   6.190   1.526   6.855
10593SOL     OW32677   1.347   4.855   1.877
10593SOL    HW132678   1.280   4.830   1.947
10593SOL    HW232679   1.402   4.931   1.909
10594SOL     OW32680   0.590   1.618   4.471
10594SOL    HW132681   0.632   1.528   4.464
10594SOL    HW232682   0.630   1.679   4.403
10595SOL     OW32683   2.263   5.420   5.045
10595SOL    HW132684   2.267   5.410   4.945
10595SOL    HW232685   2.236   5.333   5.086
10596SOL     OW32686   3.386   0.740   2.234
10596SOL    HW132687   3.289   0.764   2.234
10596SOL    HW232688   3.428   0.766   2.147
10597SOL     OW32689   2.127   0.506   3.640
10597SOL    HW132690   2.125   0.456   3.554
10597SOL    HW232691   2.128   0.604   3.622
10598SOL     OW32692   2.059   1.484   6.952
10598SOL    HW132693   2.035   1.388   6.937
10598SOL    HW232694   2.087   1.497   0.029
10599SOL     OW32695   5.124   0.116   6.670
10599SOL    HW132696   5.082   0.079   6.753
10599SOL    HW232697   5.216   0.150   6.692
10600SOL     OW32698   1.334   2.223   5.340
10600SOL    HW132699   1.400   2.222   5.265
10600SOL    HW232700   1.355   2.149   5.404
10601SOL     OW32701   3.362   5.719   5.389
10601SOL    HW132702   3.347   5.715   5.487
10601SOL    HW232703   3.292   5.776   5.346
10602SOL     OW32704   4.680   1.242   1.435
10602SOL    HW132705   4.732   1.227   1.351
10602SOL    HW232706   4.597   1.186   1.432
10603SOL     OW32707   0.939   5.005   4.606
10603SOL    HW132708   0.846   4.994   4.642
10603SOL    HW232709   0.993   5.059   4.670
10604SOL     OW32710   6.715   4.148   5.369
10604SOL    HW132711   6.685   4.239   5.398
10604SOL    HW232712   6.733   4.149   5.271
10605SOL     OW32713   1.863   5.123   5.945
10605SOL    HW132714   1.871   5.051   6.014
10605SOL    HW232715   1.780   5.177   5.963
10606SOL     OW32716   0.582   0.945   2.926
10606SOL    HW132717   0.678   0.962   2.904
10606SOL    HW232718   0.525   1.014   2.881
10607SOL     OW32719   5.976   5.129   6.553
10607SOL    HW132720   5.981   5.043   6.502
10607SOL    HW232721   5.914   5.117   6.631
10608SOL     OW32722   5.583   0.686   2.624
10608SOL    HW132723   5.636   0.603   2.605
10608SOL    HW232724   5.592   0.749   2.547
10609SOL     OW32725   3.958   6.785   1.901
10609SOL    HW132726   3.907   6.870   1.893
10609SOL    HW232727   3.935   6.739   1.987
10610SOL     OW32728   1.794   3.785   4.391
10610SOL    HW132729   1.880   3.837   4.386
10610SOL    HW232730   1.802   3.716   4.463
10611SOL     OW32731   5.051   2.309   6.426
10611SOL    HW132732   4.966   2.355   6.453
10611SOL    HW232733   5.068   2.326   6.329
10612SOL     OW32734   1.363   6.572   1.017
10612SOL    HW132735   1.325   6.658   1.051
10612SOL    HW232736   1.442   6.591   0.959
10613SOL     OW32737   0.596   6.514   6.480
10613SOL    HW132738   0.610   6.447   6.553
10613SOL    HW232739   0.500   6.516   6.453
10614SOL     OW32740   6.961   1.099   4.206
10614SOL    HW132741   6.862   1.095   4.212
10614SOL    HW232742   7.001   1.018   4.250
10615SOL     OW32743   0.049   5.909   5.238
10615SOL    HW132744   6.983   5.855   5.227
10615SOL    HW232745   0.034   5.978   5.309
10616SOL     OW32746   2.484   5.786   0.456
10616SOL    HW132747   2.541   5.753   0.381
10616SOL    HW232748   2.390   5.795   0.424
10617SOL     OW32749   0.029   1.704   6.667
10617SOL    HW132750   0.066   1.693   6.760
10617SOL    HW232751   0.101   1.737   6.607
10618SOL     OW32752   6.298   3.939   1.439
10618SOL    HW132753   6.243   3.940   1.522
10618SOL    HW232754   6.239   3.949   1.359
10619SOL     OW32755   0.299   4.152   3.337
10619SOL    HW132756   0.258   4.139   3.426
10619SOL    HW232757   0.228   4.159   3.267
10620SOL     OW32758   1.007   5.257   4.446
10620SOL    HW132759   0.948   5.313   4.387
10620SOL    HW232760   0.952   5.187   4.490
10621SOL     OW32761   2.669   6.201   0.513
10621SOL    HW132762   2.678   6.268   0.586
10621SOL    HW232763   2.590   6.223   0.456
10622SOL     OW32764   4.492   2.036   1.160
10622SOL    HW132765   4.531   2.105   1.222
10622SOL    HW232766   4.552   2.026   1.080
10623SOL     OW32767   6.974   0.889   4.389
10623SOL    HW132768   7.007   0.894   4.483
10623SOL    HW232769   6.968   0.794   4.360
10624SOL     OW32770   2.924   1.405   4.470
10624SOL    HW132771   2.828   1.383   4.451
10624SOL    HW232772   2.933   1.503   4.487
10625SOL     OW32773   0.471   3.459   0.063
10625SOL    HW132774   0.443   3.384   0.003
10625SOL    HW232775   0.533   3.520   0.013
10626SOL     OW32776   5.948   2.129   1.771
10626SOL    HW132777   5.942   2.030   1.762
10626SOL    HW232778   5.857   2.168   1.785
10627SOL     OW32779   6.078   5.747   4.683
10627SOL    HW132780   6.043   5.793   4.602
10627SOL    HW232781   6.027   5.776   4.763
10628SOL     OW32782   0.227   5.808   6.035
10628SOL    HW132783   0.170   5.833   5.957
10628SOL    HW232784   0.194   5.721   6.074
10629SOL     OW32785   2.802   5.048   6.337
10629SOL    HW132786   2.793   5.049   6.237
10629SOL    HW232787   2.888   5.004   6.363
10630SOL     OW32788   6.596   0.639   2.533
10630SOL    HW132789   6.545   0.722   2.511
10630SOL    HW232790   6.550   0.592   2.609
10631SOL     OW32791   0.885   6.640   4.820
10631SOL    HW132792   0.807   6.701   4.833
10631SOL    HW232793   0.908   6.597   4.907
10632SOL     OW32794   0.407   3.112   5.576
10632SOL    HW132795   0.328   3.162   5.611
10632SOL    HW232796   0.488   3.171   5.579
10633SOL     OW32797   1.329   5.067   1.157
10633SOL    HW132798   1.288   4.976   1.160
10633SOL    HW232799   1.304   5.113   1.072
10634SOL     OW32800   4.187   6.670   1.542
10634SOL    HW132801   4.256   6.606   1.575
10634SOL    HW232802   4.174   6.657   1.443
10635SOL     OW32803   1.501   0.972   1.535
10635SOL    HW132804   1.426   0.960   1.469
10635SOL    HW232805   1.527   0.883   1.572
10636SOL     OW32806   6.352   1.272   0.605
10636SOL    HW132807   6.302   1.358   0.611
10636SOL    HW232808   6.444   1.284   0.641
10637SOL     OW32809   3.834   4.681   5.796
10637SOL    HW132810   3.886   4.723   5.721
10637SOL    HW232811   3.892   4.615   5.844
10638SOL     OW32812   6.784   0.562   5.961
10638SOL    HW132813   6.882   0.545   5.969
10638SOL    HW232814   6.754   0.540   5.868
10639SOL     OW32815   3.270   1.466   5.538
10639SOL    HW132816   3.198   1.497   5.600
10639SOL    HW232817   3.292   1.537   5.472
10640SOL     OW32818   4.299   6.448   0.962
10640SOL    HW132819   4.269   6.477   0.871
10640SOL    HW232820   4.293   6.526   1.024
10641SOL     OW32821   4.324   0.924   6.421
10641SOL    HW132822   4.345   1.018   6.448
10641SOL    HW232823   4.385   0.861   6.470
10642SOL     OW32824   6.902   4.337   0.572
10642SOL    HW132825   7.000   4.358   0.571
10642SOL    HW232826   6.854   4.398   0.510
10643SOL     OW32827   4.018   3.304   5.508
10643SOL    HW132828   4.114   3.288   5.535
10643SOL    HW232829   3.990   3.234   5.443
10644SOL     OW32830   3.914   1.448   4.798
10644SOL    HW132831   3.818   1.467   4.779
10644SOL    HW232832   3.971   1.524   4.768
10645SOL     OW32833   2.158   6.785   5.156
10645SOL    HW132834   2.113   6.822   5.075
10645SOL    HW232835   2.128   6.691   5.171
10646SOL     OW32836   1.371   4.386   6.621
10646SOL    HW132837   1.298   4.454   6.624
10646SOL    HW232838   1.434   4.401   6.697
10647SOL     OW32839   0.673   5.509   0.855
10647SOL    HW132840   0.580   5.496   0.821
10647SOL    HW232841   0.672   5.513   0.955
10648SOL     OW32842   4.633   5.185   6.623
10648SOL    HW132843   4.568   5.159   6.552
10648SOL    HW232844   4.590   5.251   6.684
10649SOL     OW32845   0.052   4.547   6.032
10649SOL    HW132846   6.999   4.607   6.071
10649SOL    HW232847   0.141   4.573   6.068
10650SOL     OW32848   3.389   0.860   5.091
10650SOL    HW132849   3.471   0.891   5.138
10650SOL    HW232850   3.311   0.864   5.154
10651SOL     OW32851   2.785   0.166   5.577
10651SOL    HW132852   2.796   0.177   5.675
10651SOL    HW232853   2.850   0.226   5.529
10652SOL     OW32854   4.129   1.298   0.443
10652SOL    HW132855   4.204   1.272   0.382
10652SOL    HW232856   4.048   1.244   0.419
10653SOL     OW32857   5.870   2.870   4.179
10653SOL    HW132858   5.866   2.894   4.276
10653SOL    HW232859   5.852   2.952   4.124
10654SOL     OW32860   4.514   0.836   1.667
10654SOL    HW132861   4.447   0.767   1.638
10654SOL    HW232862   4.603   0.792   1.678
10655SOL     OW32863   3.094   5.385   1.425
10655SOL    HW132864   3.129   5.319   1.358
10655SOL    HW232865   3.031   5.448   1.380
10656SOL     OW32866   6.447   2.797   6.654
10656SOL    HW132867   6.539   2.775   6.621
10656SOL    HW232868   6.384   2.723   6.630
10657SOL     OW32869   6.113   0.216   1.531
10657SOL    HW132870   6.187   0.282   1.516
10657SOL    HW232871   6.044   0.257   1.590
10658SOL     OW32872   0.457   6.998   4.844
10658SOL    HW132873   0.521   0.056   4.829
10658SOL    HW232874   0.503   6.911   4.824
10659SOL     OW32875   5.056   0.951   0.566
10659SOL    HW132876   5.004   0.926   0.484
10659SOL    HW232877   5.153   0.958   0.542
10660SOL     OW32878   5.428   5.378   5.753
10660SOL    HW132879   5.385   5.465   5.773
10660SOL    HW232880   5.360   5.315   5.715
10661SOL     OW32881   0.540   0.718   2.196
10661SOL    HW132882   0.572   0.734   2.102
10661SOL    HW232883   0.566   0.796   2.253
10662SOL     OW32884   5.909   1.637   0.766
10662SOL    HW132885   5.826   1.674   0.807
10662SOL    HW232886   5.979   1.625   0.837
10663SOL     OW32887   0.491   1.186   0.508
10663SOL    HW132888   0.575   1.132   0.504
10663SOL    HW232889   0.511   1.281   0.487
10664SOL     OW32890   2.087   5.258   6.044
10664SOL    HW132891   2.069   5.275   6.141
10664SOL    HW232892   2.006   5.216   6.003
10665SOL     OW32893   5.653   1.063   6.835
10665SOL    HW132894   5.677   1.008   6.915
10665SOL    HW232895   5.554   1.062   6.822
10666SOL     OW32896   0.627   0.159   0.681
10666SOL    HW132897   0.536   0.123   0.699
10666SOL    HW232898   0.666   0.114   0.600
10667SOL     OW32899   3.402   2.264   5.817
10667SOL    HW132900   3.370   2.357   5.798
10667SOL    HW232901   3.328   2.199   5.803
10668SOL     OW32902   2.270   0.761   6.537
10668SOL    HW132903   2.335   0.836   6.526
10668SOL    HW232904   2.311   0.676   6.503
10669SOL     OW32905   1.070   6.457   6.617
10669SOL    HW132906   1.077   6.556   6.627
10669SOL    HW232907   1.160   6.416   6.634
10670SOL     OW32908   6.659   4.464   5.084
10670SOL    HW132909   6.740   4.521   5.069
10670SOL    HW232910   6.686   4.368   5.088
10671SOL     OW32911   1.845   2.028   3.295
10671SOL    HW132912   1.764   2.000   3.243
10671SOL    HW232913   1.866   1.959   3.365
10672SOL     OW32914   0.080   2.372   1.073
10672SOL    HW132915   0.126   2.461   1.064
10672SOL    HW232916   0.050   2.360   1.168
10673SOL     OW32917   3.417   3.519   4.571
10673SOL    HW132918   3.446   3.429   4.540
10673SOL    HW232919   3.338   3.549   4.517
10674SOL     OW32920   3.779   1.455   2.707
10674SOL    HW132921   3.717   1.378   2.696
10674SOL    HW232922   3.794   1.499   2.618
10675SOL     OW32923   0.859   0.945   6.067
10675SOL    HW132924   0.876   1.035   6.028
10675SOL    HW232925   0.882   0.946   6.165
10676SOL     OW32926   6.749   0.293   6.916
10676SOL    HW132927   6.655   0.263   6.899
10676SOL    HW232928   6.769   0.285   7.014
10677SOL     OW32929   6.191   1.049   0.551
10677SOL    HW132930   6.228   0.991   0.623
10677SOL    HW232931   6.249   1.131   0.541
10678SOL     OW32932   1.702   5.367   3.797
10678SOL    HW132933   1.622   5.307   3.792
10678SOL    HW232934   1.677   5.452   3.842
10679SOL     OW32935   5.291   5.020   3.620
10679SOL    HW132936   5.388   5.041   3.608
10679SOL    HW232937   5.252   4.994   3.531
10680SOL     OW32938   1.115   2.575   3.732
10680SOL    HW132939   1.120   2.675   3.740
10680SOL    HW232940   1.090   2.550   3.639
10681SOL     OW32941   0.460   2.202   6.408
10681SOL    HW132942   0.393   2.250   6.464
10681SOL    HW232943   0.420   2.116   6.376
10682SOL     OW32944   6.447   1.767   2.636
10682SOL    HW132945   6.389   1.685   2.634
10682SOL    HW232946   6.389   1.848   2.633
10683SOL     OW32947   1.679   0.246   4.170
10683SOL    HW132948   1.752   0.178   4.184
10683SOL    HW232949   1.708   0.312   4.101
10684SOL     OW32950   5.487   6.011   0.381
10684SOL    HW132951   5.487   6.017   0.481
10684SOL    HW232952   5.485   5.915   0.354
10685SOL     OW32953   6.126   2.941   2.282
10685SOL    HW132954   6.201   2.928   2.217
10685SOL    HW232955   6.046   2.891   2.250
10686SOL     OW32956   4.539   4.484   0.476
10686SOL    HW132957   4.587   4.399   0.455
10686SOL    HW232958   4.463   4.496   0.413
10687SOL     OW32959   6.658   5.419   0.986
10687SOL    HW132960   6.590   5.360   0.943
10687SOL    HW232961   6.656   5.407   1.085
10688SOL     OW32962   0.191   5.262   1.108
10688SOL    HW132963   0.201   5.298   1.015
10688SOL    HW232964   0.161   5.167   1.105
10689SOL     OW32965   0.897   0.220   1.419
10689SOL    HW132966   0.893   0.318   1.401
10689SOL    HW232967   0.809   0.178   1.395
10690SOL     OW32968   4.650   6.169   2.788
10690SOL    HW132969   4.677   6.083   2.831
10690SOL    HW232970   4.720   6.238   2.805
10691SOL     OW32971   6.306   1.580   1.643
10691SOL    HW132972   6.208   1.583   1.664
10691SOL    HW232973   6.326   1.500   1.587
10692SOL     OW32974   6.005   6.415   3.936
10692SOL    HW132975   5.955   6.396   4.020
10692SOL    HW232976   6.027   6.328   3.891
10693SOL     OW32977   5.195   2.756   3.549
10693SOL    HW132978   5.272   2.819   3.553
10693SOL    HW232979   5.228   2.662   3.541
10694SOL     OW32980   2.909   6.494   0.801
10694SOL    HW132981   2.897   6.486   0.899
10694SOL    HW232982   2.920   6.590   0.776
10695SOL     OW32983   5.623   2.840   5.472
10695SOL    HW132984   5.647   2.840   5.569
10695SOL    HW232985   5.637   2.932   5.434
10696SOL     OW32986   6.560   6.951   1.909
10696SOL    HW132987   6.618   0.001   1.865
10696SOL    HW232988   6.469   6.989   1.926
10697SOL     OW32989   1.878   6.376   2.903
10697SOL    HW132990   1.901   6.366   3.000
10697SOL    HW232991   1.920   6.460   2.868
10698SOL     OW32992   3.039   1.010   3.927
10698SOL    HW132993   3.097   1.024   4.008
10698SOL    HW232994   3.052   1.086   3.863
10699SOL     OW32995   2.048   2.168   3.365
10699SOL    HW132996   1.969   2.107   3.354
10699SOL    HW232997   2.113   2.151   3.291
10700SOL     OW32998   0.903   1.750   2.265
10700SOL    HW132999   0.844   1.804   2.204
10700SOL    HW233000   0.849   1.718   2.343
10701SOL     OW33001   3.205   0.304   1.543
10701SOL    HW133002   3.219   0.265   1.452
10701SOL    HW233003   3.107   0.317   1.559
10702SOL     OW33004   5.034   2.489   0.621
10702SOL    HW133005   5.103   2.417   0.620
10702SOL    HW233006   4.963   2.468   0.554
10703SOL     OW33007   3.980   3.132   3.974
10703SOL    HW133008   3.887   3.107   4.002
10703SOL    HW233009   4.041   3.129   4.054
10704SOL     OW33010   5.830   6.253   1.954
10704SOL    HW133011   5.831   6.167   1.902
10704SOL    HW233012   5.838   6.233   2.051
10705SOL     OW33013   1.465   3.373   6.270
10705SOL    HW133014   1.516   3.292   6.242
10705SOL    HW233015   1.372   3.346   6.294
10706SOL     OW33016   3.632   2.830   1.130
10706SOL    HW133017   3.584   2.845   1.215
10706SOL    HW233018   3.655   2.733   1.121
10707SOL     OW33019   6.516   6.870   6.140
10707SOL    HW133020   6.596   6.929   6.130
10707SOL    HW233021   6.483   6.872   6.234
10708SOL     OW33022   4.951   1.485   1.253
10708SOL    HW133023   4.878   1.546   1.221
10708SOL    HW233024   4.963   1.497   1.352
10709SOL     OW33025   0.763   0.234   6.098
10709SOL    HW133026   0.807   0.316   6.061
10709SOL    HW233027   0.664   0.244   6.091
10710SOL     OW33028   6.942   6.083   3.756
10710SOL    HW133029   6.979   6.136   3.680
10710SOL    HW233030   6.845   6.105   3.768
10711SOL     OW33031   2.426   5.228   5.441
10711SOL    HW133032   2.469   5.152   5.393
10711SOL    HW233033   2.333   5.241   5.408
10712SOL     OW33034   3.718   1.381   6.177
10712SOL    HW133035   3.728   1.448   6.103
10712SOL    HW233036   3.788   1.398   6.247
10713SOL     OW33037   2.208   6.451   0.904
10713SOL    HW133038   2.291   6.399   0.925
10713SOL    HW233039   2.129   6.391   0.916
10714SOL     OW33040   6.282   5.608   4.780
10714SOL    HW133041   6.288   5.612   4.880
10714SOL    HW233042   6.208   5.668   4.749
10715SOL     OW33043   5.851   0.986   2.999
10715SOL    HW133044   5.802   1.012   3.082
10715SOL    HW233045   5.867   0.887   3.000
10716SOL     OW33046   0.339   1.121   2.036
10716SOL    HW133047   0.272   1.191   2.061
10716SOL    HW233048   0.309   1.032   2.071
10717SOL     OW33049   6.897   6.781   1.975
10717SOL    HW133050   6.979   6.823   2.014
10717SOL    HW233051   6.899   6.682   1.991
10718SOL     OW33052   0.841   3.969   5.376
10718SOL    HW133053   0.785   3.938   5.299
10718SOL    HW233054   0.783   4.014   5.443
10719SOL     OW33055   3.574   6.245   2.157
10719SOL    HW133056   3.498   6.268   2.097
10719SOL    HW233057   3.640   6.189   2.108
10720SOL     OW33058   0.267   3.288   6.394
10720SOL    HW133059   0.242   3.355   6.325
10720SOL    HW233060   0.257   3.328   6.485
10721SOL     OW33061   5.348   2.250   4.811
10721SOL    HW133062   5.344   2.291   4.902
10721SOL    HW233063   5.306   2.312   4.745
10722SOL     OW33064   0.149   4.933   0.194
10722SOL    HW133065   0.246   4.955   0.203
10722SOL    HW233066   0.101   5.009   0.151
10723SOL     OW33067   6.126   4.124   6.819
10723SOL    HW133068   6.098   4.202   6.875
10723SOL    HW233069   6.148   4.155   6.727
10724SOL     OW33070   3.292   6.976   5.486
10724SOL    HW133071   3.376   0.012   5.493
10724SOL    HW233072   3.230   7.002   5.560
10725SOL     OW33073   6.872   0.364   5.277
10725SOL    HW133074   6.809   0.439   5.256
10725SOL    HW233075   6.825   0.276   5.262
10726SOL     OW33076   6.408   0.530   3.661
10726SOL    HW133077   6.375   0.624   3.658
10726SOL    HW233078   6.474   0.515   3.588
10727SOL     OW33079   4.205   6.857   6.383
10727SOL    HW133080   4.185   6.873   6.286
10727SOL    HW233081   4.200   6.759   6.402
10728SOL     OW33082   6.001   5.039   3.823
10728SOL    HW133083   6.085   5.092   3.840
10728SOL    HW233084   5.929   5.100   3.790
10729SOL     OW33085   6.167   3.046   3.880
10729SOL    HW133086   6.148   3.061   3.977
10729SOL    HW233087   6.265   3.054   3.863
10730SOL     OW33088   1.205   6.238   4.218
10730SOL    HW133089   1.287   6.252   4.273
10730SOL    HW233090   1.212   6.152   4.169
10731SOL     OW33091   5.087   5.703   6.098
10731SOL    HW133092   5.177   5.684   6.137
10731SOL    HW233093   5.022   5.634   6.130
10732SOL     OW33094   6.691   6.023   2.425
10732SOL    HW133095   6.729   6.065   2.342
10732SOL    HW233096   6.622   5.956   2.400
10733SOL     OW33097   0.628   1.713   5.864
10733SOL    HW133098   0.575   1.666   5.793
10733SOL    HW233099   0.611   1.812   5.858
10734SOL     OW33100   0.863   0.566   4.466
10734SOL    HW133101   0.963   0.564   4.469
10734SOL    HW233102   0.832   0.659   4.446
10735SOL     OW33103   0.036   0.441   2.058
10735SOL    HW133104   0.086   0.410   1.977
10735SOL    HW233105   0.083   0.408   2.140
10736SOL     OW33106   6.009   5.598   3.869
10736SOL    HW133107   6.096   5.639   3.897
10736SOL    HW233108   5.952   5.666   3.823
10737SOL     OW33109   6.548   0.764   1.671
10737SOL    HW133110   6.646   0.776   1.688
10737SOL    HW233111   6.535   0.697   1.598
10738SOL     OW33112   2.596   0.245   1.457
10738SOL    HW133113   2.658   0.188   1.510
10738SOL    HW233114   2.627   0.249   1.362
10739SOL     OW33115   4.765   2.923   4.298
10739SOL    HW133116   4.669   2.933   4.272
10739SOL    HW233117   4.823   2.946   4.221
10740SOL     OW33118   2.996   0.491   6.220
10740SOL    HW133119   2.978   0.523   6.313
10740SOL    HW233120   3.023   0.394   6.224
10741SOL     OW33121   1.459   2.599   3.609
10741SOL    HW133122   1.366   2.565   3.593
10741SOL    HW233123   1.468   2.692   3.571
10742SOL     OW33124   6.761   0.493   2.001
10742SOL    HW133125   6.682   0.433   2.014
10742SOL    HW233126   6.825   0.481   2.078
10743SOL     OW33127   3.684   1.927   6.050
10743SOL    HW133128   3.723   1.888   5.967
10743SOL    HW233129   3.599   1.974   6.028
10744SOL     OW33130   2.730   1.954   1.507
10744SOL    HW133131   2.827   1.976   1.497
10744SOL    HW233132   2.718   1.856   1.494
10745SOL     OW33133   2.298   5.078   1.477
10745SOL    HW133134   2.373   5.063   1.412
10745SOL    HW233135   2.312   5.022   1.558
10746SOL     OW33136   2.376   5.308   6.080
10746SOL    HW133137   2.301   5.263   6.032
10746SOL    HW233138   2.404   5.252   6.158
10747SOL     OW33139   0.284   1.023   4.830
10747SOL    HW133140   0.254   0.959   4.900
10747SOL    HW233141   0.237   1.111   4.844
10748SOL     OW33142   2.756   6.366   2.653
10748SOL    HW133143   2.661   6.342   2.638
10748SOL    HW233144   2.794   6.310   2.727
10749SOL     OW33145   6.013   4.294   2.066
10749SOL    HW133146   5.944   4.249   2.123
10749SOL    HW233147   5.971   4.326   1.981
10750SOL     OW33148   4.047   2.237   4.499
10750SOL    HW133149   4.129   2.280   4.462
10750SOL    HW233150   4.018   2.163   4.438
10751SOL     OW33151   6.413   5.952   4.403
10751SOL    HW133152   6.472   5.871   4.403
10751SOL    HW233153   6.390   5.976   4.498
10752SOL     OW33154   6.848   6.391   6.873
10752SOL    HW133155   6.806   6.372   6.784
10752SOL    HW233156   6.897   6.310   6.905
10753SOL     OW33157   5.393   6.714   5.135
10753SOL    HW133158   5.326   6.789   5.126
10753SOL    HW233159   5.417   6.703   5.231
10754SOL     OW33160   0.801   5.177   2.357
10754SOL    HW133161   0.743   5.185   2.275
10754SOL    HW233162   0.858   5.258   2.366
10755SOL     OW33163   0.400   1.982   1.900
10755SOL    HW133164   0.426   1.962   1.806
10755SOL    HW233165   0.396   1.897   1.953
10756SOL     OW33166   1.362   0.003   6.889
10756SOL    HW133167   1.411   6.946   6.846
10756SOL    HW233168   1.289   6.985   6.947
10757SOL     OW33169   6.895   2.988   2.314
10757SOL    HW133170   6.903   2.890   2.331
10757SOL    HW233171   6.813   3.006   2.261
10758SOL     OW33172   1.260   0.701   0.059
10758SOL    HW133173   1.346   0.698   0.009
10758SOL    HW233174   1.279   0.699   0.158
10759SOL     OW33175   3.289   3.063   4.991
10759SOL    HW133176   3.205   3.110   5.016
10759SOL    HW233177   3.364   3.129   4.987
10760SOL     OW33178   0.681   5.123   0.206
10760SOL    HW133179   0.742   5.192   0.168
10760SOL    HW233180   0.731   5.068   0.273
10761SOL     OW33181   1.539   1.309   5.956
10761SOL    HW133182   1.577   1.379   6.016
10761SOL    HW233183   1.464   1.348   5.902
10762SOL     OW33184   1.760   6.360   0.351
10762SOL    HW133185   1.817   6.293   0.399
10762SOL    HW233186   1.680   6.314   0.312
10763SOL     OW33187   4.777   0.750   3.258
10763SOL    HW133188   4.840   0.827   3.249
10763SOL    HW233189   4.761   0.709   3.168
10764SOL     OW33190   5.073   5.861   4.603
10764SOL    HW133191   5.012   5.911   4.665
10764SOL    HW233192   5.020   5.796   4.549
10765SOL     OW33193   0.853   2.010   1.030
10765SOL    HW133194   0.942   2.024   0.986
10765SOL    HW233195   0.867   1.980   1.124
10766SOL     OW33196   2.649   5.290   6.370
10766SOL    HW133197   2.701   5.207   6.355
10766SOL    HW233198   2.706   5.370   6.350
10767SOL     OW33199   1.498   4.807   6.800
10767SOL    HW133200   1.510   4.707   6.797
10767SOL    HW233201   1.567   4.847   6.860
10768SOL     OW33202   5.274   6.556   6.938
10768SOL    HW133203   5.366   6.586   6.910
10768SOL    HW233204   5.209   6.577   6.864
10769SOL     OW33205   3.066   3.218   4.487
10769SOL    HW133206   2.998   3.194   4.418
10769SOL    HW233207   3.019   3.230   4.575
10770SOL     OW33208   5.571   0.192   2.926
10770SOL    HW133209   5.610   0.252   2.996
10770SOL    HW233210   5.498   0.137   2.966
10771SOL     OW33211   4.561   6.376   5.550
10771SOL    HW133212   4.482   6.404   5.496
10771SOL    HW233213   4.556   6.417   5.641
10772SOL     OW33214   5.491   4.523   2.304
10772SOL    HW133215   5.397   4.491   2.318
10772SOL    HW233216   5.548   4.491   2.380
10773SOL     OW33217   0.882   3.914   0.122
10773SOL    HW133218   0.916   3.828   0.161
10773SOL    HW233219   0.944   3.988   0.146
10774SOL     OW33220   0.491   3.224   0.761
10774SOL    HW133221   0.409   3.184   0.720
10774SOL    HW233222   0.489   3.210   0.860
10775SOL     OW33223   2.008   3.816   0.513
10775SOL    HW133224   1.967   3.733   0.552
10775SOL    HW233225   1.940   3.888   0.507
10776SOL     OW33226   0.971   3.214   3.455
10776SOL    HW133227   0.914   3.167   3.522
10776SOL    HW233228   0.969   3.313   3.474
10777SOL     OW33229   1.578   0.072   0.998
10777SOL    HW133230   1.508   0.104   1.062
10777SOL    HW233231   1.664   0.120   1.017
10778SOL     OW33232   4.558   0.209   3.143
10778SOL    HW133233   4.496   0.165   3.078
10778SOL    HW233234   4.516   0.291   3.180
10779SOL     OW33235   5.532   2.728   6.111
10779SOL    HW133236   5.456   2.793   6.114
10779SOL    HW233237   5.616   2.773   6.140
10780SOL     OW33238   1.394   4.958   5.105
10780SOL    HW133239   1.361   4.877   5.057
10780SOL    HW233240   1.432   4.932   5.193
10781SOL     OW33241   5.506   1.818   6.024
10781SOL    HW133242   5.513   1.721   5.999
10781SOL    HW233243   5.501   1.873   5.940
10782SOL     OW33244   1.285   2.707   5.362
10782SOL    HW133245   1.293   2.609   5.341
10782SOL    HW233246   1.364   2.755   5.323
10783SOL     OW33247   1.677   3.483   3.084
10783SOL    HW133248   1.703   3.412   3.018
10783SOL    HW233249   1.620   3.442   3.155
10784SOL     OW33250   4.822   5.506   3.865
10784SOL    HW133251   4.899   5.524   3.926
10784SOL    HW233252   4.831   5.414   3.827
10785SOL     OW33253   2.090   5.246   1.746
10785SOL    HW133254   2.044   5.168   1.705
10785SOL    HW233255   2.032   5.286   1.817
10786SOL     OW33256   4.603   1.732   2.316
10786SOL    HW133257   4.538   1.807   2.329
10786SOL    HW233258   4.623   1.723   2.218
10787SOL     OW33259   4.338   1.948   3.686
10787SOL    HW133260   4.284   1.924   3.606
10787SOL    HW233261   4.406   2.018   3.662
10788SOL     OW33262   1.664   3.203   0.174
10788SOL    HW133263   1.740   3.231   0.114
10788SOL    HW233264   1.585   3.260   0.155
10789SOL     OW33265   6.965   1.654   2.299
10789SOL    HW133266   6.954   1.739   2.350
10789SOL    HW233267   6.880   1.602   2.301
10790SOL     OW33268   0.152   2.189   5.536
10790SOL    HW133269   0.057   2.221   5.543
10790SOL    HW233270   0.193   2.187   5.627
10791SOL     OW33271   1.653   2.382   3.569
10791SOL    HW133272   1.607   2.462   3.607
10791SOL    HW233273   1.749   2.382   3.599
10792SOL     OW33274   3.588   1.263   2.315
10792SOL    HW133275   3.575   1.166   2.333
10792SOL    HW233276   3.663   1.276   2.251
10793SOL     OW33277   3.602   2.123   4.654
10793SOL    HW133278   3.506   2.135   4.679
10793SOL    HW233279   3.609   2.058   4.579
10794SOL     OW33280   4.794   2.417   6.849
10794SOL    HW133281   4.762   2.500   6.895
10794SOL    HW233282   4.891   2.404   6.868
10795SOL     OW33283   6.674   3.508   3.171
10795SOL    HW133284   6.743   3.548   3.110
10795SOL    HW233285   6.602   3.465   3.116
10796SOL     OW33286   0.315   1.594   5.915
10796SOL    HW133287   0.370   1.537   5.976
10796SOL    HW233288   0.329   1.563   5.821
10797SOL     OW33289   5.151   4.754   0.391
10797SOL    HW133290   5.097   4.764   0.307
10797SOL    HW233291   5.099   4.703   0.458
10798SOL     OW33292   1.850   6.159   0.521
10798SOL    HW133293   1.815   6.068   0.544
10798SOL    HW233294   1.856   6.215   0.604
10799SOL     OW33295   3.483   0.023   2.414
10799SOL    HW133296   3.522   6.959   2.372
10799SOL    HW233297   3.383   0.016   2.415
10800SOL     OW33298   1.930   6.793   5.417
10800SOL    HW133299   1.985   6.875   5.402
10800SOL    HW233300   1.988   6.712   5.416
10801SOL     OW33301   2.977   6.101   6.827
10801SOL    HW133302   2.915   6.180   6.828
10801SOL    HW233303   2.930   6.021   6.862
10802SOL     OW33304   0.786   4.759   4.245
10802SOL    HW133305   0.753   4.841   4.198
10802SOL    HW233306   0.729   4.741   4.325
10803SOL     OW33307   0.009   4.245   4.556
10803SOL    HW133308   7.017   4.275   4.461
10803SOL    HW233309   0.070   4.166   4.560
10804SOL     OW33310   4.024   4.327   0.844
10804SOL    HW133311   4.048   4.294   0.936
10804SOL    HW233312   3.929   4.302   0.824
10805SOL     OW33313   3.829   6.141   0.869
10805SOL    HW133314   3.740   6.152   0.825
10805SOL    HW233315   3.817   6.090   0.955
10806SOL     OW33316   5.847   3.685   6.324
10806SOL    HW133317   5.926   3.663   6.380
10806SOL    HW233318   5.875   3.747   6.250
10807SOL     OW33319   4.872   2.395   4.282
10807SOL    HW133320   4.848   2.305   4.317
10807SOL    HW233321   4.792   2.436   4.237
10808SOL     OW33322   0.783   2.018   6.906
10808SOL    HW133323   0.744   2.110   6.899
10808SOL    HW233324   0.853   2.006   6.836
10809SOL     OW33325   1.914   0.965   2.466
10809SOL    HW133326   1.835   0.927   2.514
10809SOL    HW233327   1.920   0.925   2.375
10810SOL     OW33328   2.071   1.055   6.497
10810SOL    HW133329   2.089   1.035   6.401
10810SOL    HW233330   1.995   0.999   6.529
10811SOL     OW33331   4.597   5.597   6.643
10811SOL    HW133332   4.498   5.591   6.631
10811SOL    HW233333   4.622   5.558   6.732
10812SOL     OW33334   6.774   2.466   2.442
10812SOL    HW133335   6.838   2.542   2.428
10812SOL    HW233336   6.821   2.379   2.424
10813SOL     OW33337   3.386   5.955   2.381
10813SOL    HW133338   3.485   5.956   2.389
10813SOL    HW233339   3.357   5.874   2.330
10814SOL     OW33340   1.883   6.646   3.872
10814SOL    HW133341   1.861   6.719   3.937
10814SOL    HW233342   1.799   6.596   3.849
10815SOL     OW33343   4.972   1.542   4.997
10815SOL    HW133344   4.912   1.600   4.942
10815SOL    HW233345   4.938   1.540   5.091
10816SOL     OW33346   2.120   2.109   1.645
10816SOL    HW133347   2.170   2.034   1.689
10816SOL    HW233348   2.183   2.184   1.627
10817SOL     OW33349   4.102   1.460   1.520
10817SOL    HW133350   4.079   1.364   1.501
10817SOL    HW233351   4.170   1.464   1.593
10818SOL     OW33352   4.382   3.627   6.554
10818SOL    HW133353   4.340   3.698   6.498
10818SOL    HW233354   4.410   3.666   6.642
10819SOL     OW33355   1.412   3.597   5.556
10819SOL    HW133356   1.416   3.497   5.549
10819SOL    HW233357   1.317   3.627   5.555
10820SOL     OW33358   0.272   6.392   4.636
10820SOL    HW133359   0.243   6.436   4.721
10820SOL    HW233360   0.368   6.413   4.618
10821SOL     OW33361   0.539   0.853   6.916
10821SOL    HW133362   0.491   0.854   7.003
10821SOL    HW233363   0.525   0.764   6.871
10822SOL     OW33364   0.444   4.227   6.774
10822SOL    HW133365   0.354   4.225   6.817
10822SOL    HW233366   0.435   4.257   6.679
10823SOL     OW33367   1.804   2.697   1.169
10823SOL    HW133368   1.749   2.676   1.250
10823SOL    HW233369   1.842   2.612   1.133
10824SOL     OW33370   5.394   1.258   3.753
10824SOL    HW133371   5.325   1.308   3.805
10824SOL    HW233372   5.350   1.185   3.700
10825SOL     OW33373   3.064   1.065   2.668
10825SOL    HW133374   3.075   1.164   2.677
10825SOL    HW233375   3.047   1.025   2.758
10826SOL     OW33376   0.031   3.258   1.460
10826SOL    HW133377   0.106   3.279   1.522
10826SOL    HW233378   0.004   3.162   1.471
10827SOL     OW33379   0.311   2.714   4.169
10827SOL    HW133380   0.332   2.811   4.156
10827SOL    HW233381   0.328   2.665   4.083
10828SOL     OW33382   2.561   5.232   0.397
10828SOL    HW133383   2.561   5.207   0.494
10828SOL    HW233384   2.538   5.152   0.342
10829SOL     OW33385   2.162   4.144   1.906
10829SOL    HW133386   2.144   4.051   1.937
10829SOL    HW233387   2.112   4.209   1.964
10830SOL     OW33388   5.874   0.670   3.574
10830SOL    HW133389   5.842   0.615   3.497
10830SOL    HW233390   5.800   0.729   3.605
10831SOL     OW33391   5.465   2.828   1.764
10831SOL    HW133392   5.393   2.871   1.819
10831SOL    HW233393   5.425   2.756   1.708
10832SOL     OW33394   0.769   3.608   2.626
10832SOL    HW133395   0.739   3.537   2.689
10832SOL    HW233396   0.862   3.637   2.651
10833SOL     OW33397   3.162   6.714   4.074
10833SOL    HW133398   3.085   6.710   4.011
10833SOL    HW233399   3.247   6.726   4.023
10834SOL     OW33400   6.699   0.961   6.044
10834SOL    HW133401   6.719   1.003   6.133
10834SOL    HW233402   6.753   1.006   5.973
10835SOL     OW33403   0.591   2.168   0.946
10835SOL    HW133404   0.683   2.133   0.961
10835SOL    HW233405   0.550   2.121   0.868
10836SOL     OW33406   1.101   2.917   1.124
10836SOL    HW133407   1.052   2.830   1.113
10836SOL    HW233408   1.149   2.939   1.039
10837SOL     OW33409   0.741   6.181   1.175
10837SOL    HW133410   0.804   6.200   1.100
10837SOL    HW233411   0.789   6.131   1.247
10838SOL     OW33412   6.467   6.562   0.977
10838SOL    HW133413   6.409   6.494   0.933
10838SOL    HW233414   6.562   6.548   0.948
10839SOL     OW33415   1.617   1.504   6.887
10839SOL    HW133416   1.660   1.548   6.808
10839SOL    HW233417   1.598   1.572   6.957
10840SOL     OW33418   2.695   0.009   3.044
10840SOL    HW133419   2.768   0.076   3.032
10840SOL    HW233420   2.734   6.936   3.052
10841SOL     OW33421   4.301   3.633   0.445
10841SOL    HW133422   4.308   3.733   0.445
10841SOL    HW233423   4.388   3.594   0.475
10842SOL     OW33424   5.962   2.426   1.693
10842SOL    HW133425   5.941   2.331   1.715
10842SOL    HW233426   6.015   2.430   1.608
10843SOL     OW33427   0.781   1.535   1.696
10843SOL    HW133428   0.864   1.585   1.669
10843SOL    HW233429   0.733   1.504   1.614
10844SOL     OW33430   4.710   0.514   3.443
10844SOL    HW133431   4.740   0.419   3.443
10844SOL    HW233432   4.724   0.553   3.352
10845SOL     OW33433   2.238   3.101   1.115
10845SOL    HW133434   2.258   3.174   1.050
10845SOL    HW233435   2.144   3.111   1.149
10846SOL     OW33436   3.526   2.303   1.465
10846SOL    HW133437   3.571   2.214   1.456
10846SOL    HW233438   3.488   2.312   1.557
10847SOL     OW33439   4.714   2.132   5.288
10847SOL    HW133440   4.753   2.158   5.376
10847SOL    HW233441   4.779   2.154   5.215
10848SOL     OW33442   1.494   0.820   6.584
10848SOL    HW133443   1.576   0.799   6.638
10848SOL    HW233444   1.478   0.919   6.584
10849SOL     OW33445   1.563   4.985   4.142
10849SOL    HW133446   1.561   4.988   4.242
10849SOL    HW233447   1.609   4.902   4.112
10850SOL     OW33448   5.136   1.125   1.996
10850SOL    HW133449   5.110   1.215   2.031
10850SOL    HW233450   5.061   1.088   1.940
10851SOL     OW33451   4.083   2.786   0.301
10851SOL    HW133452   4.008   2.764   0.363
10851SOL    HW233453   4.045   2.817   0.213
10852SOL     OW33454   6.461   0.170   6.296
10852SOL    HW133455   6.477   0.245   6.360
10852SOL    HW233456   6.394   0.199   6.227
10853SOL     OW33457   3.240   0.697   4.652
10853SOL    HW133458   3.221   0.684   4.749
10853SOL    HW233459   3.163   0.666   4.598
10854SOL     OW33460   6.741   0.180   1.123
10854SOL    HW133461   6.789   0.119   1.185
10854SOL    HW233462   6.645   0.185   1.148
10855SOL     OW33463   0.202   5.987   1.500
10855SOL    HW133464   0.127   5.920   1.492
10855SOL    HW233465   0.183   6.048   1.576
10856SOL     OW33466   5.424   0.006   6.336
10856SOL    HW133467   5.470   7.006   6.423
10856SOL    HW233468   5.490   0.040   6.269
10857SOL     OW33469   6.272   0.085   4.765
10857SOL    HW133470   6.191   0.028   4.775
10857SOL    HW233471   6.351   0.027   4.741
10858SOL     OW33472   2.218   1.983   0.040
10858SOL    HW133473   2.227   2.083   0.045
10858SOL    HW233474   2.172   1.959   6.972
10859SOL     OW33475   1.653   5.321   2.577
10859SOL    HW133476   1.729   5.285   2.523
10859SOL    HW233477   1.685   5.350   2.667
10860SOL     OW33478   5.875   2.362   1.349
10860SOL    HW133479   5.779   2.332   1.348
10860SOL    HW233480   5.932   2.289   1.385
10861SOL     OW33481   1.674   4.291   1.756
10861SOL    HW133482   1.598   4.231   1.782
10861SOL    HW233483   1.666   4.315   1.660
10862SOL     OW33484   3.812   4.424   5.345
10862SOL    HW133485   3.843   4.362   5.273
10862SOL    HW233486   3.889   4.481   5.376
10863SOL     OW33487   2.070   6.556   3.224
10863SOL    HW133488   2.134   6.550   3.300
10863SOL    HW233489   2.112   6.608   3.149
10864SOL     OW33490   2.742   3.310   1.873
10864SOL    HW133491   2.732   3.247   1.950
10864SOL    HW233492   2.831   3.355   1.878
10865SOL     OW33493   3.454   1.781   3.011
10865SOL    HW133494   3.450   1.877   3.036
10865SOL    HW233495   3.519   1.768   2.936
10866SOL     OW33496   0.935   3.372   4.487
10866SOL    HW133497   0.979   3.455   4.456
10866SOL    HW233498   0.918   3.378   4.586
10867SOL     OW33499   4.524   3.590   0.021
10867SOL    HW133500   4.606   3.582   0.078
10867SOL    HW233501   4.457   3.522   0.050
10868SOL     OW33502   1.189   6.725   5.185
10868SOL    HW133503   1.282   6.705   5.154
10868SOL    HW233504   1.194   6.787   5.264
10869NA      NA33505   0.102   0.967   6.254
10870NA      NA33506   4.684   4.695   5.286
10871NA      NA33507   0.899   4.873   2.941
10872NA      NA33508   6.064   3.315   3.311
10873NA      NA33509   3.777   2.755   5.479
10874NA      NA33510   2.380   4.382   6.995
10875NA      NA33511   1.685   5.585   0.048
10876NA      NA33512   4.281   4.763   1.880
10877NA      NA33513   4.866   4.199   1.033
10878NA      NA33514   3.780   1.509   0.762
10879NA      NA33515   5.389   6.894   1.446
10880NA      NA33516   2.353   6.844   5.302
10881NA      NA33517   4.342   5.007   3.045
10882NA      NA33518   4.162   4.418   6.537
   7.01786   7.01786   7.01786
